<LesHouchesEvents version="3.0">
  <!--
  <scalesfunctionalform>
    muR  H_T/2 := sum_i mT(i)/2, i=final state
    muF1 H_T/2 := sum_i mT(i)/2, i=final state
    muF2 H_T/2 := sum_i mT(i)/2, i=final state
    QES  H_T/2 := sum_i mT(i)/2, i=final state
  </scalesfunctionalform>
HERWIG6   
  -->
  <header>
      327
  </header>
  <init>
   2212   2212 0.65000000D+04 0.65000000D+04 -1 -1   244800   244800 -4   1
 0.78516528D-03 0.21716968D-05 0.25924217D-05     66
  </init>
  <event>
  8     66 0.25924217E-05 0.31099814E+03 0.75467711E-02 0.89730769E-01
        1 -1    0    0  501    0 0.00000000E+00 0.00000000E+00 0.81046991E+03 0.81046997E+03 0.32000000E+00 0.0000E+00 0.9000E+01
       -1 -1    0    0    0  501 0.00000000E+00 0.00000000E+00 -.28464016E+03 0.28464034E+03 0.32000000E+00 0.0000E+00 0.9000E+01
       25  2    1    2    0    0 -.26567420E+03 -.63654830E+01 0.66868084E+03 0.77991992E+03 0.30086162E+03 0.0000E+00 0.0000E+00
       23  2    3    3    0    0 -.10332305E+03 -.72564492E+02 0.11699897E+03 0.19390939E+03 0.89279528E+02 0.0000E+00 0.0000E+00
       23  1    1    2    0    0 0.26567420E+03 0.63654830E+01 -.14285108E+03 0.31519040E+03 0.91188000E+02 0.0000E+00 0.9000E+01
      -11  1    4    4    0    0 -.11277672E+03 -.72284523E+02 0.12368826E+03 0.18232506E+03 0.51099893E-03 0.0000E+00 0.9000E+01
       11  1    4    4    0    0 0.94536689E+01 -.27996967E+00 -.66892877E+01 0.11584335E+02 0.51099893E-03 0.0000E+00 0.9000E+01
       23  1    3    3    0    0 -.16235116E+03 0.66199009E+02 0.55168186E+03 0.58601053E+03 0.91188000E+02 0.0000E+00 0.9000E+01
#aMCatNLO 1  0  0  2  1 0.68000293D+03 0.00000000D+00  -5  7  0 0.00000000D+00 0.00000000D+00 0.00000000D+00 0.00000000D+00 0.00000000D+00
  <mgrwgt>
 0.3508993795D-03    5    2    0
 0.480304504443247D+03 0.000000000000000D+00 0.000000000000000D+00 0.480304504443247D+03
 0.480304504443247D+03 0.000000000000000D+00 0.000000000000000D+00 -.480304504443247D+03
 0.437517865079602D+03 0.265674204642264D+03 0.636548299510773D+01 -.335385343349634D+03
 0.140147635790983D+03 -.112776717864661D+03 -.722845227868558D+02 0.412033917408880D+02
 0.168679979631787D+02 0.945366888972522D+01 -.279969671640814D+00 -.139670725920718D+02
 0.366075510052731D+03 -.162351155667329D+03 0.661990094633889D+02 0.308149024200818D+03
 0.000000000000000D+00 0.000000000000000D+00 0.000000000000000D+00 -.000000000000000D+00
 0.732425684081376D+03 0.000000000000000D+00 0.000000000000000D+00 0.732425684081376D+03
 0.139148211017395D+04 0.000000000000000D+00 0.000000000000000D+00 -.139148211017395D+04
 0.449859495341982D+03 0.142391421812536D+03 -.247587698938770D+03 -.335385343349634D+03
 0.252604534772664D+03 -.167341531786101D+03 -.184683900858311D+03 0.412033917408880D+02
 0.179223322616347D+02 0.462027002586136D+01 -.102364047298040D+02 -.139670725920718D+02
 0.456547642762904D+03 -.276637676850486D+03 -.169222555822838D+03 0.308149024200818D+03
 0.946973789116146D+03 0.296967516798190D+03 0.611730560349723D+03 -.659056426092578D+03
0.242102921268D-04 0.000000000000D+00 0.000000000000D+00 0.170989193298D-06 0.000000000000D+00  7 1 -1 23 -11 11 23 21 0 0.12468770D+00 0.43790812D-01 0.96719844D+05 0.96719844D+05 0.96719844D+05 0.11229126D+01  1  2  2  2  7  2       -1 0.330629816065D-03 0.100000000000D+01
-.103608975850D-05 0.000000000000D+00 -.929738964833D-07 0.170989193298D-06 0.000000000000D+00  7 1 -1 23 -11 11 23 21 2 0.12468770D+00 0.43790812D-01 0.96719844D+05 0.96719844D+05 0.96719844D+05 0.11229126D+01  1  2  3  2  7  2       -1 -.178414963513D-04 0.100000000000D+01
0.139375876210D-05 0.000000000000D+00 0.000000000000D+00 0.170989193298D-06 0.000000000000D+00  7 1 -1 23 -11 11 23 21 2 0.12468770D+00 0.43790812D-01 0.96719844D+05 0.96719844D+05 0.96719844D+05 0.11229126D+01  1  2 15  2  7  2       -1 0.240005671946D-04 0.100000000000D+01
0.756577114483D-05 0.000000000000D+00 -.855729451104D-05 0.170989193298D-06 0.000000000000D+00  7 1 -1 23 -11 11 23 21 2 0.12468770D+00 0.17098738D+00 0.96719844D+05 0.96719844D+05 0.96719844D+05 0.11229126D+01  1  2  5  2  7  2       -1 0.654082517854D-05 0.100000000000D+01
0.135944894215D-05 0.000000000000D+00 -.138662125656D-05 0.170989193298D-06 0.000000000000D+00  7 1 21 23 -11 11 23 1 2 0.12468770D+00 0.17098738D+00 0.96719844D+05 0.96719844D+05 0.96719844D+05 0.11229126D+01  1  2  5  4  7  2       -1 0.756966736618D-05 0.100000000000D+01
  </mgrwgt>
  </event>
  <event>
  8     66 0.25924217E-05 0.21853467E+03 0.75467711E-02 0.93804859E-01
        3 -1    0    0  501    0 0.00000000E+00 0.00000000E+00 0.21325897E+03 0.21325955E+03 0.50000000E+00 0.0000E+00 0.9000E+01
       -3 -1    0    0    0  501 0.00000000E+00 0.00000000E+00 -.24511099E+03 0.24511150E+03 0.50000000E+00 0.0000E+00 0.9000E+01
       25  2    1    2    0    0 0.54040776E+02 0.72374693E+02 -.66548934E+02 0.32541380E+03 0.30546175E+03 0.0000E+00 0.0000E+00
       23  2    3    3    0    0 -.46084646E+02 0.13481164E+03 -.45702312E+02 0.17483723E+03 0.90450994E+02 0.0000E+00 0.0000E+00
       23  1    1    2    0    0 -.54040776E+02 -.72374693E+02 0.34696913E+02 0.13295724E+03 0.91188000E+02 0.0000E+00 0.9000E+01
      -11  1    4    4    0    0 0.17714654E+02 0.12627235E+02 -.28612726E+02 0.35943624E+02 0.51099893E-03 0.0000E+00 0.9000E+01
       11  1    4    4    0    0 -.63799300E+02 0.12218440E+03 -.17089586E+02 0.13889360E+03 0.51099893E-03 0.0000E+00 0.9000E+01
       23  1    3    3    0    0 0.10012542E+03 -.62436944E+02 -.20846623E+02 0.15057658E+03 0.91188000E+02 0.0000E+00 0.9000E+01
#aMCatNLO 1  0  0  2  1 0.44802214D+03 0.00000000D+00  -5  7  0 0.00000000D+00 0.00000000D+00 0.00000000D+00 0.00000000D+00 0.00000000D+00
  <mgrwgt>
 0.5383239768D-04    5    2    0
 0.228631508039800D+03 0.000000000000000D+00 0.000000000000000D+00 0.228631508039800D+03
 0.228631508039800D+03 0.000000000000000D+00 0.000000000000000D+00 -.228631508039800D+03
 0.135696345713292D+03 -.540407794740391D+02 -.723746976791029D+02 0.440425270123997D+02
 0.340376180230207D+02 0.177146551086587D+02 0.126272351558125D+02 -.261782995510051D+02
 0.138039738504398D+03 -.637992971309352D+02 0.122184401273160D+03 -.745594913344717D+01
 0.149489313838889D+03 0.100125421496316D+03 -.624369387498696D+02 -.104082783279475D+02
 0.000000000000000D+00 -.000000000000000D+00 0.000000000000000D+00 -.000000000000000D+00
 0.414011752677680D+03 0.000000000000000D+00 0.000000000000000D+00 0.414011752677680D+03
 0.854329992134948D+03 0.000000000000000D+00 0.000000000000000D+00 -.854329992134948D+03
 0.180110407314911D+03 0.572191274388055D+02 -.137516307209897D+03 0.440425270123997D+02
 0.563796863364838D+02 0.495690115145536D+02 -.602318532739941D+01 -.261782995510051D+02
 0.788238762999394D+02 0.126025700380002D+02 0.774518400420861D+02 -.745594913344717D+01
 0.324852650027615D+03 0.267237879474471D+03 -.160279681813387D+03 -.104082783279475D+02
 0.628175124833679D+03 -.386628588465830D+03 0.226367334308597D+03 -.440318239457268D+03
0.196908650282D-05 0.000000000000D+00 0.000000000000D+00 0.175854721135D-08 0.000000000000D+00  7 3 -3 23 -11 11 23 21 0 0.32809156D-01 0.37709467D-01 0.47757401D+05 0.47757401D+05 0.47757401D+05 0.11490525D+01  1  2  2  2  7  2       -3 0.521763239950D-04 0.100000000000D+01
-.109122354212D-06 0.000000000000D+00 -.756181064321D-08 0.175854721135D-08 0.000000000000D+00  7 3 -3 23 -11 11 23 21 2 0.32809156D-01 0.37709467D-01 0.47757401D+05 0.47757401D+05 0.47757401D+05 0.11490525D+01  1  2  3  2  7  2       -3 -.381770310797D-05 0.100000000000D+01
0.123913684117D-06 0.000000000000D+00 0.000000000000D+00 0.175854721135D-08 0.000000000000D+00  7 3 -3 23 -11 11 23 21 2 0.32809156D-01 0.37709467D-01 0.47757401D+05 0.47757401D+05 0.47757401D+05 0.11490525D+01  1  2 15  2  7  2       -3 0.433518558494D-05 0.100000000000D+01
0.804851210050D-06 0.000000000000D+00 -.887579031418D-06 0.175854721135D-08 0.000000000000D+00  7 3 -3 23 -11 11 23 21 2 0.32809156D-01 0.21337869D+00 0.47757401D+05 0.47757401D+05 0.47757401D+05 0.11490525D+01  1  2  5  2  7  2       -3 0.259389725070D-06 0.100000000000D+01
0.124334921541D-06 0.000000000000D+00 -.188399882190D-06 0.175854721135D-08 0.000000000000D+00  7 3 21 23 -11 11 23 3 2 0.32809156D-01 0.21337869D+00 0.47757401D+05 0.47757401D+05 0.47757401D+05 0.11490525D+01  1  2  5  4  7  2       -3 0.879201478803D-06 0.100000000000D+01
  </mgrwgt>
  </event>
  <event>
  8     66 0.25924217E-05 0.12069098E+03 0.75467711E-02 0.10473673E+00
        1 -1    0    0  501    0 0.00000000E+00 0.00000000E+00 0.63836240E+03 0.63836248E+03 0.32000000E+00 0.0000E+00 0.9000E+01
       -1 -1    0    0    0  501 0.00000000E+00 0.00000000E+00 -.45971472E+03 0.45971484E+03 0.32000000E+00 0.0000E+00 0.9000E+01
       25  2    1    2    0    0 -.67408367E+02 0.63427674E+02 0.58930850E+03 0.66735174E+03 0.29917701E+03 0.0000E+00 0.0000E+00
       23  2    3    3    0    0 -.67114412E+02 -.52278866E+02 0.43811776E+03 0.45625465E+03 0.94782444E+02 0.0000E+00 0.0000E+00
       23  1    1    2    0    0 0.67408367E+02 -.63427674E+02 -.41066082E+03 0.43072558E+03 0.91188000E+02 0.0000E+00 0.9000E+01
      -11  1    4    4    0    0 -.56075705E+02 -.74096697E+02 0.25292625E+03 0.26945592E+03 0.51099893E-03 0.0000E+00 0.9000E+01
       11  1    4    4    0    0 -.11038707E+02 0.21817830E+02 0.18519151E+03 0.18679873E+03 0.51099893E-03 0.0000E+00 0.9000E+01
       23  1    3    3    0    0 -.29395514E+00 0.11570654E+03 0.15119074E+03 0.21109709E+03 0.91188000E+02 0.0000E+00 0.9000E+01
#aMCatNLO 1  0  0  2  1 0.54165475D+02 0.00000000D+00  -5  7  0 0.00000000D+00 0.00000000D+00 0.00000000D+00 0.00000000D+00 0.00000000D+00
  <mgrwgt>
 0.3422750033D-03    9    2    0
 0.541723822363314D+03 0.000000000000000D+00 0.000000000000000D+00 0.541723822363314D+03
 0.541723822363314D+03 0.000000000000000D+00 0.000000000000000D+00 -.541723822363314D+03
 0.504254716427375D+03 0.674083674635049D+02 -.634276738043474D+02 -.487227472426306D+03
 0.231389815196530D+03 -.560757052197226D+02 -.740966965366599D+02 0.211911399936741D+03
 0.158785165476266D+03 -.110387071020727D+02 0.218178302631610D+02 0.156891229848732D+03
 0.189017947626456D+03 -.293955141709652D+00 0.115706540077846D+03 0.118424842640833D+03
 0.000000000000000D+00 -.000000000000000D+00 -.000000000000000D+00 -.000000000000000D+00
 0.556789173014615D+03 0.000000000000000D+00 0.000000000000000D+00 0.556789173014615D+03
 0.593375802682590D+03 0.000000000000000D+00 0.000000000000000D+00 -.593375802682590D+03
 0.503826411477399D+03 0.800148460080289D+02 -.416271076292582D+02 -.487227472426306D+03
 0.227068619200332D+03 -.503424896512569D+02 -.641821637069761D+02 0.211911399936741D+03
 0.159651458300276D+03 -.705652317430364D+01 0.287042786818921D+02 0.156891229848732D+03
 0.194254275017223D+03 0.449902522239254D+01 0.123995110532670D+03 0.118424842640833D+03
 0.653642117019752D+02 -.271148584048609D+02 -.468901178783279D+02 -.365866296679741D+02
0.333432463031D-04 0.000000000000D+00 0.000000000000D+00 0.114322531587D-06 0.000000000000D+00  7 1 -1 23 -11 11 23 21 0 0.98209615D-01 0.70725357D-01 0.38932645D+05 0.38932645D+05 0.38932645D+05 0.11569772D+01  1  2  2  2  7  2       -1 0.279303299540D-03 0.100000000000D+01
0.444946812863D-06 0.000000000000D+00 -.128046845282D-06 0.114322531587D-06 0.000000000000D+00  7 1 -1 23 -11 11 23 21 2 0.98209615D-01 0.70725357D-01 0.38932645D+05 0.38932645D+05 0.38932645D+05 0.11569772D+01  1  2  3  2  7  2       -1 0.498914189416D-05 0.100000000000D+01
0.202361158432D-05 0.000000000000D+00 0.000000000000D+00 0.114322531587D-06 0.000000000000D+00  7 1 -1 23 -11 11 23 21 2 0.98209615D-01 0.70725357D-01 0.38932645D+05 0.38932645D+05 0.38932645D+05 0.11569772D+01  1  2 15  2  7  2       -1 0.226905442200D-04 0.100000000000D+01
0.888370458613D-04 0.000000000000D+00 0.000000000000D+00 0.114322531587D-06 0.000000000000D+00  7 1 -1 23 -11 11 23 21 2 0.98209615D-01 0.78387710D-01 0.50071989D+05 0.50071989D+05 0.50071989D+05 0.11472404D+01  1  2 12  2  7  2       -1 0.794367358925D-03 0.100000000000D+01
-.937011451895D-04 0.000000000000D+00 0.000000000000D+00 0.114322531587D-06 0.000000000000D+00  7 1 -1 23 -11 11 23 21 2 0.98209615D-01 0.70725357D-01 0.38932645D+05 0.38932645D+05 0.38932645D+05 0.11569772D+01  1  2  4  2  7  2       -1 -.105066110259D-02 0.100000000000D+01
-.149538610509D-03 0.000000000000D+00 -.390536229516D-04 0.114322531587D-06 0.000000000000D+00  7 1 -1 23 -11 11 23 21 2 0.98209615D-01 0.79068776D-01 0.38932645D+05 0.38932645D+05 0.38932645D+05 0.11569772D+01  1  2  5  2  7  2       -1 -.134931201440D-02 0.100000000000D+01
0.153181780925D-03 0.000000000000D+00 0.388120521099D-04 0.114322531587D-06 0.000000000000D+00  7 1 -1 23 -11 11 23 21 2 0.98209615D-01 0.70725357D-01 0.38932645D+05 0.38932645D+05 0.38932645D+05 0.11569772D+01  1  2  6  2  7  2       -1 0.171761122575D-02 0.100000000000D+01
0.147846482922D-05 0.000000000000D+00 0.000000000000D+00 0.114322531587D-06 0.000000000000D+00  7 1 21 23 -11 11 23 1 2 0.98209615D-01 0.78387710D-01 0.50071989D+05 0.50071989D+05 0.50071989D+05 0.11472404D+01  1  2 12  4  7  2       -1 0.106357714301D-03 0.100000000000D+01
-.250893051970D-05 0.000000000000D+00 -.696432978195D-06 0.114322531587D-06 0.000000000000D+00  7 1 21 23 -11 11 23 1 2 0.98209615D-01 0.79068776D-01 0.38932645D+05 0.38932645D+05 0.38932645D+05 0.11569772D+01  1  2  5  4  7  2       -1 -.183071164308D-03 0.100000000000D+01
  </mgrwgt>
  </event>
  <event>
  8     66 0.25924217E-05 0.15825111E+03 0.75467711E-02 0.10008443E+00
        1 -1    0    0  501    0 0.00000000E+00 0.00000000E+00 0.72757710E+03 0.72757717E+03 0.32000000E+00 0.0000E+00 0.9000E+01
       -1 -1    0    0    0  501 0.00000000E+00 0.00000000E+00 -.95173113E+02 0.95173651E+02 0.32000000E+00 0.0000E+00 0.9000E+01
       25  2    1    2    0    0 -.89568965E+02 0.47737363E+02 0.60597802E+03 0.68377227E+03 0.30005616E+03 0.0000E+00 0.0000E+00
       23  2    3    3    0    0 -.16445410E+03 0.55848714E+02 0.41873745E+03 0.46230475E+03 0.90666432E+02 0.0000E+00 0.0000E+00
       23  1    1    2    0    0 0.89568965E+02 -.47737363E+02 0.26425968E+02 0.13897855E+03 0.91188000E+02 0.0000E+00 0.9000E+01
      -11  1    4    4    0    0 -.52614656E+02 -.15813058E+02 0.69051526E+02 0.88240966E+02 0.51099893E-03 0.0000E+00 0.9000E+01
       11  1    4    4    0    0 -.11183945E+03 0.71661772E+02 0.34968592E+03 0.37406379E+03 0.51099893E-03 0.0000E+00 0.9000E+01
       23  1    3    3    0    0 0.74885139E+02 -.81113512E+01 0.18724057E+03 0.22146752E+03 0.91188000E+02 0.0000E+00 0.9000E+01
#aMCatNLO 1  0  0  1  2 0.16652274D+03 0.00000000D+00  -5  7  0 0.00000000D+00 0.00000000D+00 0.00000000D+00 0.00000000D+00 0.00000000D+00
  <mgrwgt>
 0.4939609633D-03    8    2    0
 0.263146400826804D+03 0.000000000000000D+00 0.000000000000000D+00 0.263146400826804D+03
 0.263146400826804D+03 0.000000000000000D+00 0.000000000000000D+00 -.263146400826804D+03
 0.185510484056044D+03 0.895689653282720D+02 -.477373631083214D+02 -.125687839364812D+03
 0.549729485027878D+02 -.526146562504185D+02 -.158130579872293D+02 0.191577969322688D+01
 0.164582368937300D+03 -.111839447704863D+03 0.716617722638508D+02 0.971796506378197D+02
 0.121227000157477D+03 0.748851386270096D+02 -.811135116830011D+01 0.265924090337651D+02
 0.000000000000000D+00 -.000000000000000D+00 0.000000000000000D+00 0.000000000000000D+00
 0.463889660881727D+03 0.000000000000000D+00 0.000000000000000D+00 0.463889660881727D+03
 0.312901804204999D+03 0.000000000000000D+00 0.000000000000000D+00 -.312901804204999D+03
 0.226178143614836D+03 0.139469175095538D+03 -.871333319633133D+02 -.125687839364812D+03
 0.476931282003827D+02 -.401706429376049D+02 -.256375449621179D+02 0.191577969322688D+01
 0.130799924236399D+03 -.760365680521199D+02 0.433955758230540D+02 0.971796506378197D+02
 0.147337804423437D+03 0.107437507538706D+03 -.338112854527979D+02 0.265924090337651D+02
 0.224782464611671D+03 -.130699471644518D+03 0.103186586555175D+03 0.150987856676728D+03
0.297049820113D-05 0.000000000000D+00 0.000000000000D+00 0.348505935581D-06 0.000000000000D+00  7 1 -1 23 -11 11 23 21 0 0.11193499D+00 0.14642064D-01 0.48948403D+05 0.48948403D+05 0.48948403D+05 0.11481083D+01  1  2  2  1  7  1        1 0.291207772965D-03 0.100000000000D+01
-.158991187826D-06 0.000000000000D+00 -.114074952425D-07 0.348505935581D-06 0.000000000000D+00  7 1 -1 23 -11 11 23 21 2 0.11193499D+00 0.14642064D-01 0.48948403D+05 0.48948403D+05 0.48948403D+05 0.11481083D+01  1  2  3  1  7  1        1 -.205452965266D-04 0.100000000000D+01
0.184880442279D-06 0.000000000000D+00 0.000000000000D+00 0.348505935581D-06 0.000000000000D+00  7 1 -1 23 -11 11 23 21 2 0.11193499D+00 0.14642064D-01 0.48948403D+05 0.48948403D+05 0.48948403D+05 0.11481083D+01  1  2 15  1  7  1        1 0.238907801151D-04 0.100000000000D+01
0.256308474018D-06 0.000000000000D+00 0.000000000000D+00 0.348505935581D-06 0.000000000000D+00  7 1 -1 23 -11 11 23 21 2 0.20107630D+00 0.14642064D-01 0.10070601D+06 0.10070601D+06 0.10070601D+06 0.11214714D+01  1  2 12  1  7  1        1 0.114020402164D-04 0.100000000000D+01
-.165457618007D-05 0.000000000000D+00 -.924761891970D-06 0.348505935581D-06 0.000000000000D+00  7 1 -1 23 -11 11 23 21 2 0.21649678D+00 0.14642064D-01 0.48948403D+05 0.48948403D+05 0.48948403D+05 0.11481083D+01  1  2  5  1  7  1        1 -.670338076061D-04 0.100000000000D+01
0.198666348759D-05 0.000000000000D+00 0.754550991327D-06 0.348505935581D-06 0.000000000000D+00  7 1 -1 23 -11 11 23 21 2 0.11193499D+00 0.14642064D-01 0.48948403D+05 0.48948403D+05 0.48948403D+05 0.11481083D+01  1  2  6  1  7  1        1 0.256722344232D-03 0.100000000000D+01
0.164737389631D-07 0.000000000000D+00 0.000000000000D+00 0.348505935581D-06 0.000000000000D+00  7 21 -1 23 -11 11 23 -1 2 0.20107630D+00 0.14642064D-01 0.10070601D+06 0.10070601D+06 0.10070601D+06 0.11214714D+01  1  2 12  3  7  1        1 0.719165644214D-06 0.100000000000D+01
-.645398472329D-07 0.000000000000D+00 -.661561899493D-07 0.348505935581D-06 0.000000000000D+00  7 21 -1 23 -11 11 23 -1 2 0.21649678D+00 0.14642064D-01 0.48948403D+05 0.48948403D+05 0.48948403D+05 0.11481083D+01  1  2  5  3  7  1        1 -.240203570349D-05 0.100000000000D+01
  </mgrwgt>
  </event>
  <event>
  8     66 0.25924217E-05 0.39734423E+03 0.75467711E-02 0.97220323E-01
        1 -1    0    0  501    0 0.00000000E+00 0.00000000E+00 0.13793509E+04 0.13793509E+04 0.32000000E+00 0.0000E+00 0.9000E+01
       -1 -1    0    0    0  501 0.00000000E+00 0.00000000E+00 -.12485233E+03 0.12485274E+03 0.32000000E+00 0.0000E+00 0.9000E+01
       25  2    1    2    0    0 0.35113826E+03 -.43080704E+01 0.78802550E+03 0.91324766E+03 0.29953374E+03 0.0000E+00 0.0000E+00
       23  2    3    3    0    0 0.12481602E+02 0.31416995E+02 0.26466208E+03 0.28222537E+03 0.91990889E+02 0.0000E+00 0.0000E+00
       23  1    1    2    0    0 -.35113826E+03 0.43080704E+01 0.46647303E+03 0.59095598E+03 0.91188000E+02 0.0000E+00 0.9000E+01
      -13  1    4    4    0    0 0.39081353E+02 0.12179454E+01 0.21390955E+03 0.21745377E+03 0.10565837E+00 0.0000E+00 0.9000E+01
       13  1    4    4    0    0 -.26599750E+02 0.30199050E+02 0.50752529E+02 0.64771597E+02 0.10565837E+00 0.0000E+00 0.9000E+01
       23  1    3    3    0    0 0.33865666E+03 -.35725066E+02 0.52336342E+03 0.63102229E+03 0.91188000E+02 0.0000E+00 0.9000E+01
#aMCatNLO 1  0  0  2  1 0.55848163D+01 0.00000000D+00  -5  7  0 0.00000000D+00 0.00000000D+00 0.00000000D+00 0.00000000D+00 0.00000000D+00
  <mgrwgt>
 0.2700979177D-03    6    2    0
 0.414988565233198D+03 0.000000000000000D+00 0.000000000000000D+00 0.414988565233198D+03
 0.414988565233198D+03 0.000000000000000D+00 0.000000000000000D+00 -.414988565233198D+03
 0.365947930557730D+03 -.351138258102191D+03 0.430807038021392D+01 -.478121403206757D+02
 0.707797463319000D+02 0.390814388960913D+02 0.121790726506897D+01 0.589994095437649D+02
 0.406766210132203D+02 -.265998369832316D+02 0.301990881130026D+02 -.592040933228123D+01
 0.352572832563545D+03 0.338656656189331D+03 -.357250657582855D+02 -.526685989080792D+01
 0.000000000000000D+00 -.000000000000000D+00 0.000000000000000D+00 0.000000000000000D+00
 0.478751060649917D+03 0.000000000000000D+00 0.000000000000000D+00 0.478751060649917D+03
 0.415120268472625D+03 0.000000000000000D+00 0.000000000000000D+00 -.415120268472625D+03
 0.363910118379092D+03 -.349027214340887D+03 0.305381762411615D+01 -.478121403206757D+02
 0.710032438406650D+02 0.394915324715458D+02 0.974254809018409D+00 0.589994095437649D+02
 0.404198704740898D+02 -.263652732311879D+02 0.300597247147281D+02 -.592040933228123D+01
 0.354662687338624D+03 0.340702266475107D+03 -.369404419555333D+02 -.526685989080792D+01
 0.638754090900721D+02 -.480131137457773D+01 0.285264480767062D+01 0.636307921772917D+02
0.128314142249D-04 0.000000000000D+00 0.000000000000D+00 0.381418302591D-06 0.000000000000D+00  7 1 -1 23 -13 13 23 21 0 0.21220786D+00 0.19208086D-01 0.15788244D+06 0.15788244D+06 0.15788244D+06 0.11058009D+01  1  2  2  2  7  2       -1 0.260719756826D-03 0.100000000000D+01
-.711220196677D-06 0.000000000000D+00 -.492760092126D-07 0.381418302591D-06 0.000000000000D+00  7 1 -1 23 -13 13 23 21 2 0.21220786D+00 0.19208086D-01 0.15788244D+06 0.15788244D+06 0.15788244D+06 0.11058009D+01  1  2  3  2  7  2       -1 -.176708477741D-04 0.100000000000D+01
0.798110441356D-06 0.000000000000D+00 0.000000000000D+00 0.381418302591D-06 0.000000000000D+00  7 1 -1 23 -13 13 23 21 2 0.21220786D+00 0.19208086D-01 0.15788244D+06 0.15788244D+06 0.15788244D+06 0.11058009D+01  1  2 15  2  7  2       -1 0.198297070050D-04 0.100000000000D+01
-.236787602186D-06 0.000000000000D+00 0.000000000000D+00 0.381418302591D-06 0.000000000000D+00  7 1 -1 23 -13 13 23 21 2 0.21220786D+00 0.19208086D-01 0.15788244D+06 0.15788244D+06 0.15788244D+06 0.11058009D+01  1  2  4  2  7  2       -1 -.588318173835D-05 0.100000000000D+01
0.866815601814D-07 0.000000000000D+00 0.000000000000D+00 0.381418302591D-06 0.804811992814D-07  7 1 -1 23 -13 13 23 21 2 0.24481334D+00 0.19214182D-01 0.16018062D+06 0.16018062D+06 0.16018062D+06 0.11053084D+01  1  2 11  2  7  2       -1 0.155105738406D-05 0.100000000000D+01
0.533967017040D-07 0.000000000000D+00 0.000000000000D+00 0.381418302591D-06 0.515909389241D-11  7 1 21 23 -13 13 23 1 2 0.24481334D+00 0.19214182D-01 0.16018062D+06 0.16018062D+06 0.16018062D+06 0.11053084D+01  1  2 11  4  7  2       -1 0.115514259838D-04 0.100000000000D+01
  </mgrwgt>
  </event>
  <event>
  8     66 0.25924217E-05 0.32138712E+03 0.75467711E-02 0.89022634E-01
        1 -1    0    0  501    0 0.00000000E+00 0.00000000E+00 0.15696828E+04 0.15696829E+04 0.32000000E+00 0.0000E+00 0.9000E+01
       -1 -1    0    0    0  501 0.00000000E+00 0.00000000E+00 -.89432044E+02 0.89432616E+02 0.32000000E+00 0.0000E+00 0.9000E+01
       25  2    1    2    0    0 0.27707254E+03 -.15801011E+02 0.55900631E+03 0.69266553E+03 0.30046401E+03 0.0000E+00 0.0000E+00
       23  2    3    3    0    0 0.11169677E+03 0.61859416E+02 0.41171512E+03 0.44089136E+03 0.92591013E+02 0.0000E+00 0.0000E+00
       23  1    1    2    0    0 -.27707254E+03 0.15801011E+02 0.92124449E+03 0.96644996E+03 0.91188000E+02 0.0000E+00 0.9000E+01
      -13  1    4    4    0    0 0.43674819E+01 0.35728878E+02 0.43488663E+02 0.56452658E+02 0.10565837E+00 0.0000E+00 0.9000E+01
       13  1    4    4    0    0 0.10732929E+03 0.26130538E+02 0.36822646E+03 0.38443870E+03 0.10565837E+00 0.0000E+00 0.9000E+01
       23  1    3    3    0    0 0.16537577E+03 -.77660427E+02 0.14729119E+03 0.25177417E+03 0.91188000E+02 0.0000E+00 0.9000E+01
#aMCatNLO 1  0  0  1  1 0.72221314D+03 0.00000000D+00  -5  7  0 0.00000000D+00 0.00000000D+00 0.00000000D+00 0.00000000D+00 0.00000000D+00
  <mgrwgt>
 0.3424227700D-03    5    2    0
 0.374673786353364D+03 0.000000000000000D+00 0.000000000000000D+00 0.374673786353364D+03
 0.374673786353364D+03 0.000000000000000D+00 0.000000000000000D+00 -.374673786353364D+03
 0.319983966283750D+03 -.277072540373691D+03 0.158010113382924D+02 0.130597177405319D+03
 0.390836899188949D+02 0.436734805256695D+01 0.357288901917370D+02 -.152285092616076D+02
 0.123788725807184D+03 0.107329420924432D+03 0.261305259841834D+02 0.558680557454988D+02
 0.266491190696899D+03 0.165375771396692D+03 -.776604275142129D+02 -.171236723889210D+03
 0.000000000000000D+00 -.000000000000000D+00 0.000000000000000D+00 0.000000000000000D+00
 0.921823044620438D+03 0.000000000000000D+00 0.000000000000000D+00 0.921823044620438D+03
 0.845173596005890D+03 0.000000000000000D+00 0.000000000000000D+00 -.845173596005890D+03
 0.373303338806805D+03 -.218188083812123D+03 -.257640192432132D+03 0.130597177405319D+03
 0.215038843874011D+02 0.951336235459414D+01 0.118323913950662D+02 -.152285092616076D+02
 0.169080196479506D+03 0.132204284788226D+03 -.893806481985883D+02 0.558680557454988D+02
 0.476840018673201D+03 0.228510714136332D+03 -.370839574453499D+03 -.171236723889210D+03
 0.726269202279415D+03 -.152040277467030D+03 0.706028023689153D+03 0.766494486145479D+02
0.129991119214D-04 0.000000000000D+00 0.000000000000D+00 0.231034716483D-06 0.000000000000D+00  7 1 -1 23 -13 13 23 21 0 0.24148971D+00 0.13758822D-01 0.10328968D+06 0.10328968D+06 0.10328968D+06 0.11205703D+01  1  2  2  1  7  1        1 0.338109928213D-03 0.100000000000D+01
-.701508307842D-06 0.000000000000D+00 -.499200125231D-07 0.231034716483D-06 0.000000000000D+00  7 1 -1 23 -13 13 23 21 2 0.24148971D+00 0.13758822D-01 0.10328968D+06 0.10328968D+06 0.10328968D+06 0.11205703D+01  1  2  3  1  7  1        1 -.229115937640D-04 0.100000000000D+01
0.826898228686D-06 0.000000000000D+00 0.000000000000D+00 0.231034716483D-06 0.000000000000D+00  7 1 -1 23 -13 13 23 21 2 0.24148971D+00 0.13758822D-01 0.10328968D+06 0.10328968D+06 0.10328968D+06 0.11205703D+01  1  2 15  1  7  1        1 0.270068879984D-04 0.100000000000D+01
0.207300039477D-05 0.000000000000D+00 -.340060421588D-05 0.231034716483D-06 0.000000000000D+00  7 1 -1 23 -13 13 23 21 2 0.72113865D+00 0.13758822D-01 0.10328968D+06 0.10328968D+06 0.10328968D+06 0.11205703D+01  1  2  5  1  7  1        1 0.215388001846D-06 0.100000000000D+01
0.429320175266D-06 0.000000000000D+00 -.422922566191D-06 0.231034716483D-06 0.000000000000D+00  7 21 -1 23 -13 13 23 -1 2 0.72113865D+00 0.13758822D-01 0.10328968D+06 0.10328968D+06 0.10328968D+06 0.11205703D+01  1  2  5  3  7  1        1 0.215955151130D-08 0.100000000000D+01
  </mgrwgt>
  </event>
  <event>
  8     66 0.25924217E-05 0.33465756E+03 0.75467711E-02 0.95541242E-01
        1 -1    0    0  501    0 0.00000000E+00 0.00000000E+00 0.31070455E+04 0.31070456E+04 0.32000000E+00 0.0000E+00 0.9000E+01
       -1 -1    0    0    0  501 0.00000000E+00 0.00000000E+00 -.36426220E+02 0.36427626E+02 0.32000000E+00 0.0000E+00 0.9000E+01
       25  2    1    2    0    0 0.25865034E+03 -.17495610E+02 0.18681815E+04 0.19100316E+04 0.30151721E+03 0.0000E+00 0.0000E+00
       23  2    3    3    0    0 0.17724935E+03 0.10349168E+03 0.11265352E+04 0.11487048E+04 0.91177433E+02 0.0000E+00 0.0000E+00
       23  1    1    2    0    0 -.25865034E+03 0.17495610E+02 0.12024378E+04 0.12334416E+04 0.91188000E+02 0.0000E+00 0.9000E+01
      -13  1    4    4    0    0 0.61837183E+02 0.85793220E+02 0.45814345E+03 0.47019118E+03 0.10565837E+00 0.0000E+00 0.9000E+01
       13  1    4    4    0    0 0.11541217E+03 0.17698462E+02 0.66839177E+03 0.67851365E+03 0.10565837E+00 0.0000E+00 0.9000E+01
       23  1    3    3    0    0 0.81400986E+02 -.12098729E+03 0.74164626E+03 0.76132678E+03 0.91188000E+02 0.0000E+00 0.9000E+01
#aMCatNLO 1  0  0  2  1 0.21990695D+03 0.00000000D+00  -5  7  0 0.00000000D+00 0.00000000D+00 0.00000000D+00 0.00000000D+00 0.00000000D+00
  <mgrwgt>
 0.6182642532D-03    3    2    0
 0.336422591206355D+03 0.000000000000000D+00 0.000000000000000D+00 0.336422591206355D+03
 0.336422591206355D+03 0.000000000000000D+00 0.000000000000000D+00 -.336422591206355D+03
 0.275043407648629D+03 -.258650338633232D+03 0.174956098566761D+02 -.112929494653618D+02
 0.105892445739285D+03 0.618371102384418D+02 0.857933092018829D+02 -.537493797138762D+01
 0.119660206402865D+03 0.115412240227432D+03 0.176983697338189D+02 0.261791426679103D+02
 0.172249122621931D+03 0.814009881673588D+02 -.120987288792378D+03 -.951125523116094D+01
 0.000000000000000D+00 0.000000000000000D+00 0.000000000000000D+00 0.000000000000000D+00
 0.605691245846718D+03 0.000000000000000D+00 0.000000000000000D+00 0.605691245846718D+03
 0.401956616856615D+03 0.000000000000000D+00 0.000000000000000D+00 -.401956616856615D+03
 0.371006171217653D+03 -.359433183507091D+03 -.325324820958612D+01 -.112929494653618D+02
 0.859552833361529D+02 0.319091286232510D+02 0.796318296016541D+02 -.537493797138762D+01
 0.877771575345404D+02 0.830522970363339D+02 0.110362054622629D+02 0.261791426679103D+02
 0.163131224418644D+03 0.290821157538114D+02 -.131758535220818D+03 -.951125523116094D+01
 0.299778026196343D+03 0.215389642093695D+03 0.443437483664871D+02 0.203734628990103D+03
0.670196746202D-04 0.000000000000D+00 0.000000000000D+00 0.614222027953D-07 0.000000000000D+00  7 1 -1 23 -13 13 23 21 0 0.47800712D+00 0.56041432D-02 0.11199568D+06 0.11199568D+06 0.11199568D+06 0.11177067D+01  1  2  2  2  7  2       -1 0.611408135210D-03 0.100000000000D+01
-.372318999139D-05 0.000000000000D+00 -.257373197227D-06 0.614222027953D-07 0.000000000000D+00  7 1 -1 23 -13 13 23 21 2 0.47800712D+00 0.56041432D-02 0.11199568D+06 0.11199568D+06 0.11199568D+06 0.11177067D+01  1  2  3  2  7  2       -1 -.424326184353D-04 0.100000000000D+01
0.432477035452D-05 0.000000000000D+00 0.000000000000D+00 0.614222027953D-07 0.000000000000D+00  7 1 -1 23 -13 13 23 21 2 0.47800712D+00 0.56041432D-02 0.11199568D+06 0.11199568D+06 0.11199568D+06 0.11177067D+01  1  2 15  2  7  2       -1 0.492887364594D-04 0.100000000000D+01
  </mgrwgt>
  </event>
  <event>
  9     66 0.25924217E-05 0.40724994E+03 0.75467711E-02 0.95036911E-01
        1 -1    0    0  501    0 0.00000000E+00 0.00000000E+00 0.20300270E+03 0.20300296E+03 0.32000000E+00 0.0000E+00 0.9000E+01
       -1 -1    0    0    0  502 0.00000000E+00 0.00000000E+00 -.13007039E+04 0.13007040E+04 0.32000000E+00 0.0000E+00 0.9000E+01
       25  2    1    2    0    0 -.44974634E+03 0.21798450E+02 -.48265045E+03 0.72483501E+03 0.29947853E+03 0.0000E+00 0.0000E+00
       23  2    3    3    0    0 -.75922790E+02 0.51516085E+02 -.22810764E+03 0.26252075E+03 0.92010158E+02 0.0000E+00 0.0000E+00
       23  1    1    2    0    0 0.32161672E+03 -.68927143E+02 -.44197793E+03 0.55843353E+03 0.91188000E+02 0.0000E+00 0.9000E+01
      -11  1    4    4    0    0 0.47099243E+01 0.76083112E+01 0.61872018E+01 0.10878936E+02 0.51099893E-03 0.0000E+00 0.9000E+01
       11  1    4    4    0    0 -.80632714E+02 0.43907774E+02 -.23429484E+03 0.25164181E+03 0.51099893E-03 0.0000E+00 0.9000E+01
       23  1    3    3    0    0 -.37382355E+03 -.29717635E+02 -.25454281E+03 0.46231426E+03 0.91188000E+02 0.0000E+00 0.9000E+01
       21  1    1    2  501  502 0.12812961E+03 0.47128693E+02 -.17307286E+03 0.22043840E+03 0.75000000E+00 0.0000E+00 0.9000E+01
#aMCatNLO 2  0  0  2  1 0.13652220D+03 0.00000000D+00  -5  7  0 0.00000000D+00 0.00000000D+00 0.00000000D+00 0.00000000D+00 0.00000000D+00
  <mgrwgt>
 0.2794687988D-05    2    2    0
 0.439659579815148D+03 0.000000000000000D+00 0.000000000000000D+00 0.439659579815148D+03
 0.439659579815148D+03 0.000000000000000D+00 0.000000000000000D+00 -.439659579815148D+03
 0.393389612511219D+03 0.375171172682257D+03 -.492287203940826D+02 -.571249522039903D+02
 0.234766969576672D+02 0.801202162784548D+01 0.882289013091254D+01 0.202267006507468D+02
 0.111479697219750D+03 -.639083766586986D+02 0.500593272825145D+02 -.764035734575229D+02
 0.350973152941661D+03 -.319274817651404D+03 -.965349701934450D+01 0.113301825010766D+03
 0.000000000000000D+00 0.000000000000000D+00 0.000000000000000D+00 -.000000000000000D+00
 0.503687543358284D+03 0.000000000000000D+00 0.000000000000000D+00 0.503687543358284D+03
 0.524224969302780D+03 0.000000000000000D+00 0.000000000000000D+00 -.524224969302780D+03
 0.346073371400313D+03 0.321616722001664D+03 -.689271427884183D+02 -.571249522039903D+02
 0.221176220689157D+02 0.470992434542561D+01 0.760831120741205D+01 0.202267006507468D+02
 0.119444686949763D+03 -.806327142009712D+02 0.439077738450985D+02 -.764035734575229D+02
 0.402218519126536D+03 -.373823547111046D+03 -.297176354861733D+02 0.113301825010766D+03
 0.138058313115536D+03 0.128129614964927D+03 0.471286932220812D+02 -.205374259444965D+02
-.239669369075D-04 0.000000000000D+00 0.000000000000D+00 0.435151619894D-06 0.000000000000D+00  7 1 -1 23 -11 11 23 21 2 0.27261092D-01 0.21031162D+00 0.23258414D+06 0.23258414D+06 0.23258414D+06 0.10928262D+01  1  2 13  2  7  2       -1 -.726972097985D-04 0.100000000000D+01
0.246085869896D-04 0.000000000000D+00 0.000000000000D+00 0.435151619894D-06 0.155073956097D-09  7 1 -1 23 -11 11 23 21 2 0.31231146D-01 0.20010792D+00 0.23258414D+06 0.23258414D+06 0.23258414D+06 0.10928262D+01  1  2  1  2  7  2       -1 0.754918977869D-04 0.100000000000D+01
  </mgrwgt>
  </event>
  <event>
  8     66 0.25924217E-05 0.61943430E+03 0.75467711E-02 0.87646250E-01
        1 -1    0    0  501    0 0.00000000E+00 0.00000000E+00 0.16393024E+04 0.16393024E+04 0.32000000E+00 0.0000E+00 0.9000E+01
       -1 -1    0    0    0  501 0.00000000E+00 0.00000000E+00 -.88489233E+03 0.88489238E+03 0.32000000E+00 0.0000E+00 0.9000E+01
       25  2    1    2    0    0 -.49486738E+03 0.30358353E+03 -.69881935E+03 0.95663375E+03 0.29957129E+03 0.0000E+00 0.0000E+00
       23  2    3    3    0    0 -.18259149E+03 -.40030497E+01 -.25178018E+03 0.32395294E+03 0.90534915E+02 0.0000E+00 0.0000E+00
       23  1    1    2    0    0 0.49486738E+03 -.30358353E+03 0.14532294E+04 0.15675610E+04 0.91188000E+02 0.0000E+00 0.9000E+01
      -11  1    4    4    0    0 -.47468721E+02 0.39258341E+02 -.85305203E+02 0.10522107E+03 0.51099893E-03 0.0000E+00 0.9000E+01
       11  1    4    4    0    0 -.13512277E+03 -.43261390E+02 -.16647497E+03 0.21873186E+03 0.51099893E-03 0.0000E+00 0.9000E+01
       23  1    3    3    0    0 -.31227589E+03 0.30758658E+03 -.44703917E+03 0.63268081E+03 0.91188000E+02 0.0000E+00 0.9000E+01
#aMCatNLO 1  0  0  2  2 0.62434860D+03 0.00000000D+00  -5  7  0 0.00000000D+00 0.00000000D+00 0.00000000D+00 0.00000000D+00 0.00000000D+00
  <mgrwgt>
 0.6960678409D-03    7    2    0
 0.120441113907063D+04 0.000000000000000D+00 0.000000000000000D+00 0.120441113907063D+04
 0.120441113907063D+04 0.000000000000000D+00 0.000000000000000D+00 -.120441113907063D+04
 0.118750916402820D+04 0.494867383827999D+03 -.303583529708254D+03 0.103189441137166D+04
 0.136977140151394D+03 -.474687211111925D+02 0.392583405310412D+02 -.122344759343714D+03
 0.281345876001520D+03 -.135122768651990D+03 -.432613901858252D+02 -.242952241097038D+03
 0.802990097960136D+03 -.312275894064816D+03 0.307586579363038D+03 -.666597410930911D+03
 0.000000000000000D+00 -.000000000000000D+00 0.000000000000000D+00 -.000000000000000D+00
 0.146667188393240D+04 0.000000000000000D+00 0.000000000000000D+00 0.146667188393240D+04
 0.168227567011361D+04 0.000000000000000D+00 0.000000000000000D+00 -.168227567011361D+04
 0.137421635802261D+04 0.733684493349694D+03 -.526361411305061D+03 0.103189441137166D+04
 0.125565745212935D+03 -.229931352342169D+02 0.164265627600351D+02 -.122344759343714D+03
 0.272681546647805D+03 -.834735085989681D+02 -.914418273567625D+02 -.242952241097038D+03
 0.715956719812861D+03 -.170671930090050D+03 0.175492898205979D+03 -.666597410930911D+03
 0.660527184349800D+03 -.456545919426459D+03 0.425883777695809D+03 -.215603786181203D+03
0.250703916711D-02 0.000000000000D+00 0.000000000000D+00 0.114667333659D-04 0.000000000000D+00  7 1 -1 23 -11 11 23 21 0 0.25220037D+00 0.13613729D+00 0.38369885D+06 0.38369885D+06 0.38369885D+06 0.10767327D+01  1  2  2  2  7  2       -1 0.763186626778D-03 0.100000000000D+01
-.644053987305D-04 0.000000000000D+00 -.962769052029D-05 0.114667333659D-04 0.000000000000D+00  7 1 -1 23 -11 11 23 21 2 0.25220037D+00 0.13613729D+00 0.38369885D+06 0.38369885D+06 0.38369885D+06 0.10767327D+01  1  2  3  2  7  2       -1 -.227304315125D-04 0.100000000000D+01
0.144987587155D-03 0.000000000000D+00 0.000000000000D+00 0.114667333659D-04 0.000000000000D+00  7 1 -1 23 -11 11 23 21 2 0.25220037D+00 0.13613729D+00 0.38369885D+06 0.38369885D+06 0.38369885D+06 0.10767327D+01  1  2 15  2  7  2       -1 0.511700957519D-04 0.100000000000D+01
-.115041761506D-02 0.000000000000D+00 0.000000000000D+00 0.114667333659D-04 0.000000000000D+00  7 1 -1 23 -11 11 23 21 2 0.25220037D+00 0.13613729D+00 0.38369885D+06 0.38369885D+06 0.38369885D+06 0.10767327D+01  1  2  4  2  7  2       -1 -.406013926244D-03 0.100000000000D+01
-.652930203530D-03 0.000000000000D+00 -.857239889836D-03 0.114667333659D-04 0.000000000000D+00  7 1 -1 23 -11 11 23 21 2 0.25220037D+00 0.21618899D+00 0.38369885D+06 0.38369885D+06 0.38369885D+06 0.10767327D+01  1  2  5  2  7  2       -1 -.506546286794D-04 0.100000000000D+01
0.102226561685D-02 0.000000000000D+00 0.773076541937D-03 0.114667333659D-04 0.000000000000D+00  7 1 -1 23 -11 11 23 21 2 0.25220037D+00 0.13613729D+00 0.38369885D+06 0.38369885D+06 0.38369885D+06 0.10767327D+01  1  2  6  2  7  2       -1 0.360785571542D-03 0.100000000000D+01
0.638470849011D-06 0.000000000000D+00 -.454857177188D-04 0.114667333659D-04 0.000000000000D+00  7 1 21 23 -11 11 23 1 2 0.25220037D+00 0.21618899D+00 0.38369885D+06 0.38369885D+06 0.38369885D+06 0.10767327D+01  1  2  5  4  7  2       -1 0.324533246764D-06 0.100000000000D+01
  </mgrwgt>
  </event>
  <event>
  8     66 0.25924217E-05 0.22908143E+03 0.75467711E-02 0.10135084E+00
        1 -1    0    0  501    0 0.00000000E+00 0.00000000E+00 0.72774711E+03 0.72774718E+03 0.32000000E+00 0.0000E+00 0.9000E+01
       -1 -1    0    0    0  501 0.00000000E+00 0.00000000E+00 -.30124372E+03 0.30124389E+03 0.32000000E+00 0.0000E+00 0.9000E+01
       25  2    1    2    0    0 0.12713330E+03 0.16722224E+03 0.62633859E+03 0.72505767E+03 0.29880167E+03 0.0000E+00 0.0000E+00
       23  2    3    3    0    0 0.61529680E+02 -.43730991E+02 0.14089126E+03 0.18396668E+03 0.91077384E+02 0.0000E+00 0.0000E+00
       23  1    1    2    0    0 -.12713330E+03 -.16722224E+03 -.19983520E+03 0.30393340E+03 0.91188000E+02 0.0000E+00 0.9000E+01
      -11  1    4    4    0    0 0.45019965E+02 0.22546648E+01 0.12453544E+03 0.13244227E+03 0.51099893E-03 0.0000E+00 0.9000E+01
       11  1    4    4    0    0 0.16509715E+02 -.45985656E+02 0.16355825E+02 0.51524404E+02 0.51099893E-03 0.0000E+00 0.9000E+01
       23  1    3    3    0    0 0.65603621E+02 0.21095323E+03 0.48544732E+03 0.54109099E+03 0.91188000E+02 0.0000E+00 0.9000E+01
#aMCatNLO 1  0  0  2  1 0.13728082D+02 0.00000000D+00  -5  7  0 0.00000000D+00 0.00000000D+00 0.00000000D+00 0.00000000D+00 0.00000000D+00
  <mgrwgt>
 0.4658578526D-03    6    2    0
 0.468219362446812D+03 0.000000000000000D+00 0.000000000000000D+00 0.468219362446812D+03
 0.468219362446812D+03 0.000000000000000D+00 0.000000000000000D+00 -.468219362446812D+03
 0.424987922218094D+03 -.127133300321995D+03 -.167222244001022D+03 -.358013027343632D+03
 0.888121448794735D+02 0.450199648306020D+02 0.225466481494226D+01 0.765226524064359D+02
 0.491674852155976D+02 0.165097147131632D+02 -.459856557992433D+02 -.549457762066303D+01
 0.373471172580460D+03 0.656036207782301D+02 0.210953234985323D+03 0.286984952557859D+03
 0.000000000000000D+00 -.000000000000000D+00 -.000000000000000D+00 0.000000000000000D+00
 0.476534847773616D+03 0.000000000000000D+00 0.000000000000000D+00 0.476534847773616D+03
 0.473970103746052D+03 0.000000000000000D+00 0.000000000000000D+00 -.473970103746052D+03
 0.421954102439143D+03 -.123383586982727D+03 -.162275000960550D+03 -.358013027343632D+03
 0.892466897225599D+02 0.458082945720055D+02 0.329476000993045D+01 0.765226524064359D+02
 0.487817039305353D+02 0.169433705838356D+02 -.454135051322372D+02 -.549457762066303D+01
 0.376556849434273D+03 0.689242613853739D+02 0.215334374194437D+03 0.286984952557859D+03
 0.139656059931563D+02 -.829233955848764D+01 -.109406281115803D+02 0.256474402756324D+01
0.201511313159D-04 0.000000000000D+00 0.000000000000D+00 0.387032463056D-06 0.000000000000D+00  7 1 -1 23 -11 11 23 21 0 0.11196111D+00 0.46345207D-01 0.78942856D+05 0.78942856D+05 0.78942856D+05 0.11302474D+01  1  2  2  2  7  2       -1 0.295753788260D-03 0.100000000000D+01
-.764501628074D-06 0.000000000000D+00 -.773856501680D-07 0.387032463056D-06 0.000000000000D+00  7 1 -1 23 -11 11 23 21 2 0.11196111D+00 0.46345207D-01 0.78942856D+05 0.78942856D+05 0.78942856D+05 0.11302474D+01  1  2  3  2  7  2       -1 -.143336345686D-04 0.100000000000D+01
0.116993320077D-05 0.000000000000D+00 0.000000000000D+00 0.387032463056D-06 0.000000000000D+00  7 1 -1 23 -11 11 23 21 2 0.11196111D+00 0.46345207D-01 0.78942856D+05 0.78942856D+05 0.78942856D+05 0.11302474D+01  1  2 15  2  7  2       -1 0.219350677011D-04 0.100000000000D+01
0.155858096277D-04 0.000000000000D+00 0.000000000000D+00 0.387032463056D-06 0.000000000000D+00  7 1 -1 23 -11 11 23 21 2 0.11196111D+00 0.47319868D-01 0.82724852D+05 0.82724852D+05 0.82724852D+05 0.11285443D+01  1  2 12  2  7  2       -1 0.280442584908D-03 0.100000000000D+01
-.993968964601D-05 0.000000000000D+00 0.000000000000D+00 0.387032463056D-06 0.000000000000D+00  7 1 -1 23 -11 11 23 21 2 0.11196111D+00 0.46345207D-01 0.78942856D+05 0.78942856D+05 0.78942856D+05 0.11302474D+01  1  2  4  2  7  2       -1 -.186359157232D-03 0.100000000000D+01
0.399935636654D-06 0.000000000000D+00 0.000000000000D+00 0.387032463056D-06 0.000000000000D+00  7 1 21 23 -11 11 23 1 2 0.11196111D+00 0.47319868D-01 0.82724852D+05 0.82724852D+05 0.82724852D+05 0.11285443D+01  1  2 12  4  7  2       -1 0.684192034884D-04 0.100000000000D+01
  </mgrwgt>
  </event>
  <event>
  8     66 0.25924217E-05 0.20404048E+03 0.75467711E-02 0.98480360E-01
        3 -1    0    0  501    0 0.00000000E+00 0.00000000E+00 0.21485392E+04 0.21485392E+04 0.50000000E+00 0.0000E+00 0.9000E+01
       -3 -1    0    0    0  501 0.00000000E+00 0.00000000E+00 -.37506719E+02 0.37510052E+02 0.50000000E+00 0.0000E+00 0.9000E+01
       25  2    1    2    0    0 0.15136217E+03 0.11611350E+03 0.13720074E+04 0.14173711E+04 0.30023941E+03 0.0000E+00 0.0000E+00
       23  2    3    3    0    0 0.61273030E+02 -.66113147E+02 0.38976151E+03 0.41017458E+03 0.90574948E+02 0.0000E+00 0.0000E+00
       23  1    1    2    0    0 -.15136217E+03 -.11611350E+03 0.73902509E+03 0.76867821E+03 0.91188000E+02 0.0000E+00 0.9000E+01
      -11  1    4    4    0    0 0.57980398E+02 -.44550945E+02 0.12727724E+03 0.14678559E+03 0.51099893E-03 0.0000E+00 0.9000E+01
       11  1    4    4    0    0 0.32926323E+01 -.21562202E+02 0.26248427E+03 0.26338900E+03 0.51099893E-03 0.0000E+00 0.9000E+01
       23  1    3    3    0    0 0.90089141E+02 0.18222665E+03 0.98224584E+03 0.10071965E+04 0.91188000E+02 0.0000E+00 0.9000E+01
#aMCatNLO 1  0  0  1  2 0.16176912D+03 0.00000000D+00  -5  7  0 0.00000000D+00 0.00000000D+00 0.00000000D+00 0.00000000D+00 0.00000000D+00
  <mgrwgt>
 0.8946400234D-05    8    2    0
 0.283880891986498D+03 0.000000000000000D+00 0.000000000000000D+00 0.283880891986498D+03
 0.283880891986498D+03 0.000000000000000D+00 0.000000000000000D+00 -.283880891986498D+03
 0.211818580067245D+03 -.151362170412094D+03 -.116113501772662D+03 -.126098212490914D+02
 0.919296584895933D+02 0.579803975633735D+02 -.445509453368098D+02 -.557184787839993D+02
 0.381647881628946D+02 0.329263229910591D+01 -.215622020128864D+02 0.313174244218292D+02
 0.225848757253264D+03 0.900891405496147D+02 0.182226649122358D+03 0.370108756112616D+02
 0.000000000000000D+00 -.000000000000000D+00 0.000000000000000D+00 0.000000000000000D+00
 0.541541656111499D+03 0.000000000000000D+00 0.000000000000000D+00 0.541541656111499D+03
 0.321734671508201D+03 0.000000000000000D+00 0.000000000000000D+00 -.321734671508201D+03
 0.216953178842910D+03 -.112094253920041D+03 -.161335988273600D+03 -.126098212490914D+02
 0.116004221312757D+03 0.770234666514619D+02 -.664816972509529D+02 -.557184787839993D+02
 0.449376345404289D+02 0.109033457548985D+02 -.303270007917252D+02 0.313174244218292D+02
 0.212463068542307D+03 0.130230758590336D+03 0.135997973344775D+03 0.370108756112616D+02
 0.272918224381297D+03 -.106063317076655D+03 0.122146712971503D+03 0.219806984603297D+03
0.737136589625D-05 0.000000000000D+00 0.000000000000D+00 0.246584047207D-06 0.000000000000D+00  7 3 -3 23 -11 11 23 21 0 0.33054475D+00 0.57705253D-02 0.70005345D+05 0.70005345D+05 0.70005345D+05 0.11346568D+01  1  2  2  1  7  1        3 0.470223794479D-05 0.100000000000D+01
-.407053179719D-06 0.000000000000D+00 -.283079859668D-07 0.246584047207D-06 0.000000000000D+00  7 3 -3 23 -11 11 23 21 2 0.33054475D+00 0.57705253D-02 0.70005345D+05 0.70005345D+05 0.70005345D+05 0.11346568D+01  1  2  3  1  7  1        3 -.334300345853D-06 0.100000000000D+01
0.468657316719D-06 0.000000000000D+00 0.000000000000D+00 0.246584047207D-06 0.000000000000D+00  7 3 -3 23 -11 11 23 21 2 0.33054475D+00 0.57705253D-02 0.70005345D+05 0.70005345D+05 0.70005345D+05 0.11346568D+01  1  2 15  1  7  1        3 0.384893942294D-06 0.100000000000D+01
0.209433967457D-05 0.000000000000D+00 0.000000000000D+00 0.246584047207D-06 0.000000000000D+00  7 3 -3 23 -11 11 23 21 2 0.63460734D+00 0.57705253D-02 0.13015662D+06 0.13015662D+06 0.13015662D+06 0.11124481D+01  1  2 12  1  7  1        3 0.169037767440D-06 0.100000000000D+01
-.519877135774D-05 0.000000000000D+00 -.172519109005D-05 0.246584047207D-06 0.000000000000D+00  7 3 -3 23 -11 11 23 21 2 0.64293841D+00 0.57705253D-02 0.70005345D+05 0.70005345D+05 0.70005345D+05 0.11346568D+01  1  2  5  1  7  1        3 -.419415735938D-06 0.100000000000D+01
0.542346023630D-05 0.000000000000D+00 0.140304890073D-05 0.246584047207D-06 0.000000000000D+00  7 3 -3 23 -11 11 23 21 2 0.33054475D+00 0.57705253D-02 0.70005345D+05 0.70005345D+05 0.70005345D+05 0.11346568D+01  1  2  6  1  7  1        3 0.445412226964D-05 0.100000000000D+01
0.148256501273D-06 0.000000000000D+00 0.000000000000D+00 0.246584047207D-06 0.000000000000D+00  7 21 -3 23 -11 11 23 -3 2 0.63460734D+00 0.57705253D-02 0.13015662D+06 0.13015662D+06 0.13015662D+06 0.11124481D+01  1  2 12  3  7  1        3 0.139017749566D-07 0.100000000000D+01
-.273926193840D-06 0.000000000000D+00 -.124411932942D-06 0.246584047207D-06 0.000000000000D+00  7 21 -3 23 -11 11 23 -3 2 0.64293841D+00 0.57705253D-02 0.70005345D+05 0.70005345D+05 0.70005345D+05 0.11346568D+01  1  2  5  3  7  1        3 -.240773832857D-07 0.100000000000D+01
  </mgrwgt>
  </event>
  <event>
  8     66 0.25924217E-05 0.42563802E+03 0.75467711E-02 0.89862201E-01
        1 -1    0    0  501    0 0.00000000E+00 0.00000000E+00 0.62442180E+03 0.62442188E+03 0.32000000E+00 0.0000E+00 0.9000E+01
       -1 -1    0    0    0  501 0.00000000E+00 0.00000000E+00 -.89564656E+03 0.89564662E+03 0.32000000E+00 0.0000E+00 0.9000E+01
       25  2    1    2    0    0 0.66233438E+03 -.25960868E+03 -.68165421E+02 0.77466134E+03 0.29894843E+03 0.0000E+00 0.0000E+00
       23  2    3    3    0    0 0.38676584E+03 -.26520742E+03 -.71534724E+01 0.47800147E+03 0.92257503E+02 0.0000E+00 0.0000E+00
       23  1    1    2    0    0 -.66233438E+03 0.25960868E+03 -.20305934E+03 0.74540717E+03 0.91188000E+02 0.0000E+00 0.9000E+01
      -13  1    4    4    0    0 0.70523467E+02 -.12586905E+02 0.12722978E+02 0.72759019E+02 0.10565837E+00 0.0000E+00 0.9000E+01
       13  1    4    4    0    0 0.31624237E+03 -.25262051E+03 -.19876451E+02 0.40524245E+03 0.10565837E+00 0.0000E+00 0.9000E+01
       23  1    3    3    0    0 0.27556854E+03 0.55987365E+01 -.61011948E+02 0.29665987E+03 0.91188000E+02 0.0000E+00 0.9000E+01
#aMCatNLO 1  0  0  1  2 0.71348007D+02 0.00000000D+00  -5  7  0 0.00000000D+00 0.00000000D+00 0.00000000D+00 0.00000000D+00 0.00000000D+00
  <mgrwgt>
 0.4797526433D-03    9    2    0
 0.747837780226430D+03 0.000000000000000D+00 0.000000000000000D+00 0.747837780226430D+03
 0.747837780226430D+03 0.000000000000000D+00 0.000000000000000D+00 -.747837780226430D+03
 0.720741357588997D+03 -.662334379314554D+03 0.259608679025817D+03 -.711994167651998D+02
 0.762523849422448D+02 0.705231443636313D+02 -.125865899006355D+02 0.261245109642254D+02
 0.408247593880366D+03 0.316242690912237D+03 -.252620825600244D+03 0.532858032382655D+02
 0.290434224041252D+03 0.275568544038686D+03 0.559873647506254D+01 -.821089743729108D+01
 0.000000000000000D+00 -.000000000000000D+00 -.000000000000000D+00 0.000000000000000D+00
 0.895514910610374D+03 0.000000000000000D+00 0.000000000000000D+00 0.895514910610374D+03
 0.757355766704645D+03 0.000000000000000D+00 0.000000000000000D+00 -.757355766704645D+03
 0.729130876556658D+03 -.657217505244451D+03 0.293789682692970D+03 -.711994167651998D+02
 0.762433565738303D+02 0.710613307549477D+02 -.899147484344038D+01 0.261245109642254D+02
 0.399027319692001D+03 0.319091717174981D+03 -.233589171547308D+03 0.532858032382655D+02
 0.292974792754612D+03 0.277627505097462D+03 0.193527109790989D+02 -.821089743729108D+01
 0.155494331737918D+03 -.105630477829400D+02 -.705617472813208D+02 0.138159143905729D+03
0.199043088084D-03 0.000000000000D+00 0.000000000000D+00 0.574526511086D-06 0.000000000000D+00  7 1 -1 23 -13 13 23 21 0 0.96064903D-01 0.13779179D+00 0.55050967D+06 0.55050967D+06 0.55050967D+06 0.10655690D+01  1  2  2  1  7  1        1 0.344612941159D-03 0.100000000000D+01
-.110571131770D-04 0.000000000000D+00 -.764377867490D-06 0.574526511086D-06 0.000000000000D+00  7 1 -1 23 -13 13 23 21 2 0.96064903D-01 0.13779179D+00 0.55050967D+06 0.55050967D+06 0.55050967D+06 0.10655690D+01  1  2  3  1  7  1        1 -.217364900844D-04 0.100000000000D+01
0.122664746088D-04 0.000000000000D+00 0.000000000000D+00 0.574526511086D-06 0.000000000000D+00  7 1 -1 23 -13 13 23 21 2 0.96064903D-01 0.13779179D+00 0.55050967D+06 0.55050967D+06 0.55050967D+06 0.10655690D+01  1  2 15  1  7  1        1 0.241138983962D-04 0.100000000000D+01
0.117077410673D-02 0.000000000000D+00 0.000000000000D+00 0.574526511086D-06 0.000000000000D+00  7 1 -1 23 -13 13 23 21 2 0.11556720D+00 0.13779179D+00 0.60601191D+06 0.60601191D+06 0.60601191D+06 0.10626579D+01  1  2 12  1  7  1        1 0.171654545596D-02 0.100000000000D+01
-.117668795175D-02 0.000000000000D+00 0.000000000000D+00 0.574526511086D-06 0.000000000000D+00  7 1 -1 23 -13 13 23 21 2 0.96064903D-01 0.13779179D+00 0.55050967D+06 0.55050967D+06 0.55050967D+06 0.10655690D+01  1  2  4  1  7  1        1 -.231317755242D-02 0.100000000000D+01
-.153102176653D-02 0.000000000000D+00 -.148725749832D-03 0.574526511086D-06 0.000000000000D+00  7 1 -1 23 -13 13 23 21 2 0.11574546D+00 0.13779179D+00 0.55050967D+06 0.55050967D+06 0.55050967D+06 0.10655690D+01  1  2  5  1  7  1        1 -.226360552899D-02 0.100000000000D+01
0.153455816613D-02 0.000000000000D+00 0.146179722712D-03 0.574526511086D-06 0.000000000000D+00  7 1 -1 23 -13 13 23 21 2 0.96064903D-01 0.13779179D+00 0.55050967D+06 0.55050967D+06 0.55050967D+06 0.10655690D+01  1  2  6  1  7  1        1 0.301669231634D-02 0.100000000000D+01
0.315224088781D-04 0.000000000000D+00 0.000000000000D+00 0.574526511086D-06 0.000000000000D+00  7 21 -1 23 -13 13 23 -1 2 0.11556720D+00 0.13779179D+00 0.60601191D+06 0.60601191D+06 0.60601191D+06 0.10626579D+01  1  2 12  3  7  1        1 0.843550299331D-04 0.100000000000D+01
-.399731787569D-04 0.000000000000D+00 -.403030589482D-05 0.574526511086D-06 0.000000000000D+00  7 21 -1 23 -13 13 23 -1 2 0.11574546D+00 0.13779179D+00 0.55050967D+06 0.55050967D+06 0.55050967D+06 0.10655690D+01  1  2  5  3  7  1        1 -.108047426959D-03 0.100000000000D+01
  </mgrwgt>
  </event>
  <event>
  9     66 0.25924217E-05 0.26506375E+03 0.75467711E-02 0.98863215E-01
        1 -1    0    0  501    0 0.00000000E+00 0.00000000E+00 0.33725628E+04 0.33725628E+04 0.32000000E+00 0.0000E+00 0.9000E+01
       21 -1    0    0  502  501 0.00000000E+00 0.00000000E+00 -.82656130E+02 0.82659532E+02 0.75000000E+00 0.0000E+00 0.9000E+01
       25  2    1    2    0    0 -.12099982E+02 0.85768857E+02 0.16340505E+04 0.16636102E+04 0.29995806E+03 0.0000E+00 0.0000E+00
       23  2    3    3    0    0 -.50181883E+02 0.15203799E+03 0.84352572E+03 0.86418124E+03 0.98182508E+02 0.0000E+00 0.0000E+00
       23  1    1    2    0    0 -.41525339E+02 -.22567469E+03 0.16184567E+04 0.16371838E+04 0.91188000E+02 0.0000E+00 0.9000E+01
      -13  1    4    4    0    0 0.22324988E+02 0.73864945E+02 0.44490889E+03 0.45155107E+03 0.10565837E+00 0.0000E+00 0.9000E+01
       13  1    4    4    0    0 -.72506871E+02 0.78173045E+02 0.39861682E+03 0.41263017E+03 0.10565837E+00 0.0000E+00 0.9000E+01
       23  1    3    3    0    0 0.38081901E+02 -.66269133E+02 0.79052483E+03 0.79942891E+03 0.91188000E+02 0.0000E+00 0.9000E+01
        1  1    1    2  502    0 0.53625321E+02 0.13990584E+03 0.37399444E+02 0.15442843E+03 0.32000000E+00 0.0000E+00 0.9000E+01
#aMCatNLO 2  0  0  2  1 0.14983097D+03 0.00000000D+00  -5  7  0 0.00000000D+00 0.00000000D+00 0.00000000D+00 0.00000000D+00 0.00000000D+00
  <mgrwgt>
 0.2797359262D-03    2    2    0
 0.271103270399768D+03 0.000000000000000D+00 0.000000000000000D+00 0.271103270399768D+03
 0.271103270399768D+03 0.000000000000000D+00 0.000000000000000D+00 -.271103270399768D+03
 0.195800244410115D+03 -.199431952847767D+02 -.169367939205014D+03 0.306472592304904D+02
 0.101324732768133D+03 0.309892064316675D+02 0.964692937867709D+02 -.214269808146533D+00
 0.133808287180032D+03 -.603593472783140D+02 0.109865571954714D+03 -.468077238631975D+02
 0.111273276441255D+03 0.493133361314231D+02 -.369669265364710D+02 0.163747344408537D+02
 0.000000000000000D+00 0.000000000000000D+00 0.000000000000000D+00 -.000000000000000D+00
 0.289496879651880D+03 0.000000000000000D+00 0.000000000000000D+00 0.289496879651880D+03
 0.962942420042544D+03 0.000000000000000D+00 0.000000000000000D+00 -.962942420042544D+03
 0.248813037716833D+03 -.415253390473817D+02 -.225674695330551D+03 0.306472592304904D+02
 0.771653008415744D+02 0.223250532891237D+02 0.738649425509679D+02 -.214269808146533D+00
 0.116444193476945D+03 -.725069488718833D+02 0.781730743065223D+02 -.468077238631975D+02
 0.120105023901520D+03 0.380819133595790D+02 -.662691585071796D+02 0.163747344408537D+02
 0.689911743757552D+03 0.536253212705623D+02 0.139905836980241D+03 -.673445540390664D+03
-.687154845599D-05 0.000000000000D+00 0.000000000000D+00 0.956129731961D-08 0.000000000000D+00  7 1 21 23 -13 13 23 1 2 0.48588974D+00 0.12447353D-01 0.12233207D+06 0.12233207D+06 0.12233207D+06 0.11146084D+01  1  2 13  4  7  2       -1 -.281069505653D-03 0.100000000000D+01
0.208607472052D-04 0.000000000000D+00 0.000000000000D+00 0.956129731961D-08 0.105491038037D-11  7 1 21 23 -13 13 23 1 2 0.51885602D+00 0.12716589D-01 0.12233207D+06 0.12233207D+06 0.12233207D+06 0.11146084D+01  1  2  1  4  7  2       -1 0.560805431877D-03 0.100000000000D+01
  </mgrwgt>
  </event>
  <event>
  8     66 0.25924217E-05 0.24033843E+03 0.75467711E-02 0.87849742E-01
        1 -1    0    0  501    0 0.00000000E+00 0.00000000E+00 0.12236712E+04 0.12236713E+04 0.32000000E+00 0.0000E+00 0.9000E+01
       -1 -1    0    0    0  501 0.00000000E+00 0.00000000E+00 -.66263747E+03 0.66263755E+03 0.32000000E+00 0.0000E+00 0.9000E+01
       25  2    1    2    0    0 -.52541574E+03 0.66994767E+03 0.48873598E+03 0.10269871E+04 0.30157599E+03 0.0000E+00 0.0000E+00
       23  2    3    3    0    0 -.10630025E+03 0.31887641E+03 0.17031025E+03 0.38775396E+03 0.91463882E+02 0.0000E+00 0.0000E+00
       23  1    1    2    0    0 0.52541574E+03 -.66994767E+03 0.72297780E+02 0.85932171E+03 0.91188000E+02 0.0000E+00 0.9000E+01
      -13  1    4    4    0    0 -.10554268E+03 0.17742391E+03 0.11072811E+03 0.23426316E+03 0.10565837E+00 0.0000E+00 0.9000E+01
       13  1    4    4    0    0 -.75757232E+00 0.14145250E+03 0.59582149E+02 0.15349080E+03 0.10565837E+00 0.0000E+00 0.9000E+01
       23  1    3    3    0    0 -.41911549E+03 0.35107126E+03 0.31842573E+03 0.63923315E+03 0.91188000E+02 0.0000E+00 0.9000E+01
#aMCatNLO 1  0  0  1  2 0.14108124D+03 0.00000000D+00  -5  7  0 0.00000000D+00 0.00000000D+00 0.00000000D+00 0.00000000D+00 0.00000000D+00
  <mgrwgt>
 0.6850216973D-03    9    2    0
 0.900472388354267D+03 0.000000000000000D+00 0.000000000000000D+00 0.900472388354267D+03
 0.900472388354267D+03 0.000000000000000D+00 0.000000000000000D+00 -.900472388354267D+03
 0.877530866242106D+03 0.525415743194109D+03 -.669947670034709D+03 -.191972878507535D+03
 0.210872994865952D+03 -.105542818711738D+03 0.177423961453691D+03 0.429985032785588D+02
 0.142204968545053D+03 -.757432518564315D+00 0.141452450483743D+03 0.145905321021393D+02
 0.570335947055422D+03 -.419115491963807D+03 0.351071258097275D+03 0.134383843126836D+03
 0.000000000000000D+00 -.000000000000000D+00 0.000000000000000D+00 0.000000000000000D+00
 0.978580902882973D+03 0.000000000000000D+00 0.000000000000000D+00 0.978580902882973D+03
 0.969269568133846D+03 0.000000000000000D+00 0.000000000000000D+00 -.969269568133846D+03
 0.939194680952746D+03 0.590297272337332D+03 -.698904100413332D+03 -.191972878507535D+03
 0.198304383341361D+03 -.909296846420943D+02 0.170902163880655D+03 0.429985032785588D+02
 0.138070381971789D+03 0.925216598725509D+01 0.136985196920530D+03 0.145905321021393D+02
 0.530892843820902D+03 -.379786817360798D+03 0.333518989476854D+03 0.134383843126836D+03
 0.141388180930022D+03 -.128832936321694D+03 0.574977501352921D+02 0.931133474912679D+01
0.286732837154D-03 0.000000000000D+00 0.000000000000D+00 0.626210274332D-06 0.000000000000D+00  7 1 -1 23 -13 13 23 21 0 0.18825712D+00 0.10194424D+00 0.77303663D+06 0.77303663D+06 0.77303663D+06 0.10553882D+01  1  2  2  1  7  1        1 0.328195513729D-03 0.100000000000D+01
-.159185585892D-04 0.000000000000D+00 -.110112959316D-05 0.626210274332D-06 0.000000000000D+00  7 1 -1 23 -13 13 23 21 2 0.18825712D+00 0.10194424D+00 0.77303663D+06 0.77303663D+06 0.77303663D+06 0.10553882D+01  1  2  3  1  7  1        1 -.202947357598D-04 0.100000000000D+01
0.172283627582D-04 0.000000000000D+00 0.000000000000D+00 0.626210274332D-06 0.000000000000D+00  7 1 -1 23 -13 13 23 21 2 0.18825712D+00 0.10194424D+00 0.77303663D+06 0.77303663D+06 0.77303663D+06 0.10553882D+01  1  2 15  1  7  1        1 0.219646187055D-04 0.100000000000D+01
0.348624182202D-03 0.000000000000D+00 0.000000000000D+00 0.626210274332D-06 0.000000000000D+00  7 1 -1 23 -13 13 23 21 2 0.21120662D+00 0.10194424D+00 0.90719322D+06 0.90719322D+06 0.90719322D+06 0.10506914D+01  1  2 12  1  7  1        1 0.342504688578D-03 0.100000000000D+01
-.287155440808D-03 0.000000000000D+00 0.000000000000D+00 0.626210274332D-06 0.000000000000D+00  7 1 -1 23 -13 13 23 21 2 0.18825712D+00 0.10194424D+00 0.77303663D+06 0.77303663D+06 0.77303663D+06 0.10553882D+01  1  2  4  1  7  1        1 -.366097455403D-03 0.100000000000D+01
-.115816213477D-02 0.000000000000D+00 -.264349174062D-03 0.626210274332D-06 0.000000000000D+00  7 1 -1 23 -13 13 23 21 2 0.21458131D+00 0.10194424D+00 0.77303663D+06 0.77303663D+06 0.77303663D+06 0.10553882D+01  1  2  5  1  7  1        1 -.111938236808D-02 0.100000000000D+01
0.118484576361D-02 0.000000000000D+00 0.262101125454D-03 0.626210274332D-06 0.000000000000D+00  7 1 -1 23 -13 13 23 21 2 0.18825712D+00 0.10194424D+00 0.77303663D+06 0.77303663D+06 0.77303663D+06 0.10553882D+01  1  2  6  1  7  1        1 0.151057217610D-02 0.100000000000D+01
0.638275095245D-05 0.000000000000D+00 0.000000000000D+00 0.626210274332D-06 0.000000000000D+00  7 21 -1 23 -13 13 23 -1 2 0.21120662D+00 0.10194424D+00 0.90719322D+06 0.90719322D+06 0.90719322D+06 0.10506914D+01  1  2 12  3  7  1        1 0.525447905107D-05 0.100000000000D+01
-.221928637158D-04 0.000000000000D+00 -.539265356284D-05 0.626210274332D-06 0.000000000000D+00  7 21 -1 23 -13 13 23 -1 2 0.21458131D+00 0.10194424D+00 0.77303663D+06 0.77303663D+06 0.77303663D+06 0.10553882D+01  1  2  5  3  7  1        1 -.176952196524D-04 0.100000000000D+01
  </mgrwgt>
  </event>
  <event>
  7     66 0.25924217E-05 0.17169282E+03 0.75467711E-02 0.10004848E+00
        1 -1    0    0  501    0 0.00000000E+00 0.00000000E+00 0.58500098E+03 0.58500107E+03 0.32000000E+00 0.0000E+00 0.9000E+01
       -1 -1    0    0    0  501 0.00000000E+00 0.00000000E+00 -.23242244E+03 0.23242266E+03 0.32000000E+00 0.0000E+00 0.9000E+01
       25  2    1    2    0    0 -.26333707E+03 0.32185742E+01 0.36495691E+03 0.53845196E+03 0.29560142E+03 0.0000E+00 0.0000E+00
       23  1    1    2    0    0 0.26333707E+03 -.32185742E+01 -.12378373E+02 0.27897177E+03 0.91188000E+02 0.0000E+00 0.9000E+01
      -11  1    3    3    0    0 -.61422178E+02 0.49103379E+02 -.58009885E+00 0.78639445E+02 0.51099893E-03 0.0000E+00 0.9000E+01
       11  1    3    3    0    0 -.17096390E+03 -.13899945E+02 0.18198810E+03 0.25008305E+03 0.51099893E-03 0.0000E+00 0.9000E+01
       23  1    3    3    0    0 -.30950991E+02 -.31984861E+02 0.18354891E+03 0.20972947E+03 0.91188000E+02 0.0000E+00 0.9000E+01
#aMCatNLO 1  0  0  2  1 0.62104085D+01 0.00000000D+00  -5  7  0 0.00000000D+00 0.00000000D+00 0.00000000D+00 0.00000000D+00 0.00000000D+00
  <mgrwgt>
 0.8672063193D-03   11    2    0
 0.368737686866205D+03 0.000000000000000D+00 0.000000000000000D+00 0.368737686866205D+03
 0.368737686866205D+03 0.000000000000000D+00 0.000000000000000D+00 -.368737686866205D+03
 0.315132543834855D+03 0.263337068799896D+03 -.321857418146271D+01 -.147093500250501D+03
 0.874419420183160D+02 -.614221793870452D+02 0.491033785327848D+02 -.382396040767450D+02
 0.190187664752449D+03 -.170963899617817D+03 -.138999423751600D+02 0.821552460493316D+02
 0.144713223126789D+03 -.309509897950340D+02 -.319848619761621D+02 0.103177858277915D+03
 0.000000000000000D+00 -.000000000000000D+00 -.000000000000000D+00 -.000000000000000D+00
 0.369681906986971D+03 0.000000000000000D+00 0.000000000000000D+00 0.369681906986971D+03
 0.379106062740547D+03 0.000000000000000D+00 0.000000000000000D+00 -.379106062740547D+03
 0.316437585081600D+03 0.264914767757447D+03 -.107792223676608D+01 -.147093500250501D+03
 0.874710338364625D+02 -.609852365884020D+02 0.496962308302147D+02 -.382396040767450D+02
 0.189246010669408D+03 -.170016052202678D+03 -.126138849794933D+02 0.821552460493316D+02
 0.144346893147103D+03 -.302289007929825D+02 -.310051178880471D+02 0.103177858277915D+03
 0.112864469929448D+02 -.368457817338506D+01 -.499930572590821D+01 -.942415575357653D+01
0.128187193588D-04 0.000000000000D+00 0.000000000000D+00 0.682644105939D-11 0.000000000000D+00  7 1 -1 23 -11 11 23 21 0 0.90000174D-01 0.35757322D-01 0.99329847D+05 0.99329847D+05 0.99329847D+05 0.11219618D+01  1  2  2  2  7  2       -1 0.404576297960D-03 0.100000000000D+01
-.690812325478D-06 0.000000000000D+00 -.492272575843D-07 0.682644105939D-11 0.000000000000D+00  7 1 -1 23 -11 11 23 21 2 0.90000174D-01 0.35757322D-01 0.99329847D+05 0.99329847D+05 0.99329847D+05 0.11219618D+01  1  2  3  2  7  2       -1 -.274455529801D-04 0.100000000000D+01
0.817429097678D-06 0.000000000000D+00 0.000000000000D+00 0.682644105939D-11 0.000000000000D+00  7 1 -1 23 -11 11 23 21 2 0.90000174D-01 0.35757322D-01 0.99329847D+05 0.99329847D+05 0.99329847D+05 0.11219618D+01  1  2 15  2  7  2       -1 0.324759602288D-04 0.100000000000D+01
0.444395045715D-04 0.000000000000D+00 0.000000000000D+00 0.682644105939D-11 0.000000000000D+00  7 1 -1 23 -11 11 23 21 2 0.90000174D-01 0.36807822D-01 0.10127750D+06 0.10127750D+06 0.10127750D+06 0.11212699D+01  1  2 12  2  7  2       -1 0.167778628289D-02 0.100000000000D+01
-.102601857507D-03 0.000000000000D+00 0.000000000000D+00 0.682644105939D-11 0.000000000000D+00  7 1 -1 23 -11 11 23 21 2 0.90000174D-01 0.35757322D-01 0.99329847D+05 0.99329847D+05 0.99329847D+05 0.11219618D+01  1  2  4  2  7  2       -1 -.407630931327D-02 0.100000000000D+01
-.671069634589D-03 0.000000000000D+00 -.561209031529D-04 0.682644105939D-11 0.000000000000D+00  7 1 -1 23 -11 11 23 21 2 0.90000174D-01 0.36829955D-01 0.99329847D+05 0.99329847D+05 0.99329847D+05 0.11219618D+01  1  2  5  2  7  2       -1 -.253491149560D-01 0.100000000000D+01
0.672459126610D-03 0.000000000000D+00 0.560963989541D-04 0.682644105939D-11 0.000000000000D+00  7 1 -1 23 -11 11 23 21 2 0.90000174D-01 0.35757322D-01 0.99329847D+05 0.99329847D+05 0.99329847D+05 0.11219618D+01  1  2  6  2  7  2       -1 0.267163915663D-01 0.100000000000D+01
0.573578440223D-04 0.000000000000D+00 0.000000000000D+00 0.682644105939D-11 0.118717637921D-11  7 1 -1 23 -11 11 23 21 2 0.90230636D-01 0.36762767D-01 0.10127750D+06 0.10127750D+06 0.10127750D+06 0.11212699D+01  1  2 11  2  7  2       -1 0.216214394515D-02 0.100000000000D+01
0.150956699639D-05 0.000000000000D+00 0.000000000000D+00 0.682644105939D-11 0.000000000000D+00  7 1 21 23 -11 11 23 1 2 0.90000174D-01 0.36807822D-01 0.10127750D+06 0.10127750D+06 0.10127750D+06 0.11212699D+01  1  2 12  4  7  2       -1 0.584039958030D-03 0.100000000000D+01
-.354174026229D-05 0.000000000000D+00 -.297673620856D-06 0.682644105939D-11 0.000000000000D+00  7 1 21 23 -11 11 23 1 2 0.90000174D-01 0.36829955D-01 0.99329847D+05 0.99329847D+05 0.99329847D+05 0.11219618D+01  1  2  5  4  7  2       -1 -.137149299755D-02 0.100000000000D+01
0.295404734249D-06 0.000000000000D+00 0.000000000000D+00 0.682644105939D-11 0.594766003808D-14  7 1 21 23 -11 11 23 1 2 0.90230636D-01 0.36762767D-01 0.10127750D+06 0.10127750D+06 0.10127750D+06 0.11212699D+01  1  2 11  4  7  2       -1 0.114155128540D-03 0.100000000000D+01
  </mgrwgt>
  </event>
  <event>
  9     66 0.25924217E-05 0.27382877E+03 0.75467711E-02 0.98745585E-01
        1 -1    0    0  501    0 0.00000000E+00 0.00000000E+00 0.29653605E+03 0.29653622E+03 0.32000000E+00 0.0000E+00 0.9000E+01
       -1 -1    0    0    0  502 0.00000000E+00 0.00000000E+00 -.10713956E+04 0.10713956E+04 0.32000000E+00 0.0000E+00 0.9000E+01
       25  2    1    2    0    0 -.11692487E+03 -.14711625E+03 0.14024958E+03 0.38089001E+03 0.30015436E+03 0.0000E+00 0.0000E+00
       23  2    3    3    0    0 0.40910340E+02 0.16517716E+02 0.79129747E+02 0.12842434E+03 0.91020902E+02 0.0000E+00 0.0000E+00
       23  1    1    2    0    0 -.18134546E+01 0.21470334E+03 -.57668085E+03 0.62207465E+03 0.91188000E+02 0.0000E+00 0.9000E+01
      -11  1    4    4    0    0 0.35378105E+02 -.28842236E+02 0.11962691E+02 0.47186766E+02 0.51099893E-03 0.0000E+00 0.9000E+01
       11  1    4    4    0    0 0.55322343E+01 0.45359952E+02 0.67167055E+02 0.81237579E+02 0.51099893E-03 0.0000E+00 0.9000E+01
       23  1    3    3    0    0 -.15783521E+03 -.16363397E+03 0.61119829E+02 0.25246567E+03 0.91188000E+02 0.0000E+00 0.9000E+01
       21  1    1    2  501  502 0.11873832E+03 -.67587081E+02 -.33842824E+03 0.36496718E+03 0.75000000E+00 0.0000E+00 0.9000E+01
#aMCatNLO 2  0  0  2  1 0.13662651D+03 0.00000000D+00  -5  7  0 0.00000000D+00 0.00000000D+00 0.00000000D+00 0.00000000D+00 0.00000000D+00
  <mgrwgt>
 0.6129484558D-04    2    2    0
 0.446318006170876D+03 0.000000000000000D+00 0.000000000000000D+00 0.446318006170876D+03
 0.446318006170876D+03 0.000000000000000D+00 0.000000000000000D+00 -.446318006170876D+03
 0.400511322434694D+03 0.519275639337888D+02 0.184113392494782D+03 -.339852695829166D+03
 0.657576550543761D+02 0.435741420959736D+02 -.335075045877332D+02 0.360916953765441D+02
 0.121419441085729D+03 0.216738935744161D+02 0.361719526385491D+02 0.113861814728250D+03
 0.304947593766954D+03 -.117175599604178D+03 -.186777840545598D+03 0.189899185724372D+03
 0.000000000000000D+00 0.000000000000000D+00 -.000000000000000D+00 -.000000000000000D+00
 0.472666177963733D+03 0.000000000000000D+00 0.000000000000000D+00 0.472666177963733D+03
 0.672158962144084D+03 0.000000000000000D+00 0.000000000000000D+00 -.672158962144084D+03
 0.412208584391520D+03 -.181345457611503D+01 0.214703335377468D+03 -.339852695829166D+03
 0.581901657571978D+02 0.353781054583213D+02 -.288422358681985D+02 0.360916953765441D+02
 0.122689215916751D+03 0.553223425955045D+01 0.453599518645504D+02 0.113861814728250D+03
 0.309943513841373D+03 -.157835209536214D+03 -.163633970556903D+03 0.189899185724372D+03
 0.241793660200974D+03 0.118738324394458D+03 -.675870808169174D+02 -.199492784180351D+03
-.250816446215D-04 0.000000000000D+00 0.000000000000D+00 0.176237509663D-05 0.000000000000D+00  7 1 -1 23 -11 11 23 21 2 0.43077815D-01 0.16674859D+00 0.12467819D+06 0.12467819D+06 0.12467819D+06 0.11139451D+01  1  2 13  2  7  2       -1 -.100373975766D-03 0.100000000000D+01
0.420281183196D-04 0.000000000000D+00 0.000000000000D+00 0.176237509663D-05 0.669373296679D-09  7 1 -1 23 -11 11 23 21 2 0.45620894D-01 0.16482991D+00 0.12467819D+06 0.12467819D+06 0.12467819D+06 0.11139451D+01  1  2  1  2  7  2       -1 0.161668821343D-03 0.100000000000D+01
  </mgrwgt>
  </event>
  <event>
  8     66 0.25924217E-05 0.48215139E+03 0.75467711E-02 0.89198700E-01
        1 -1    0    0  501    0 0.00000000E+00 0.00000000E+00 0.11923053E+04 0.11923053E+04 0.32000000E+00 0.0000E+00 0.9000E+01
       -1 -1    0    0    0  501 0.00000000E+00 0.00000000E+00 -.20064606E+03 0.20064632E+03 0.32000000E+00 0.0000E+00 0.9000E+01
       25  2    1    2    0    0 0.26763355E+03 -.34629861E+03 0.54557896E+03 0.76140332E+03 0.30087899E+03 0.0000E+00 0.0000E+00
       23  2    3    3    0    0 0.85551920E+02 -.27674408E+03 0.39668471E+03 0.49972355E+03 0.91969815E+02 0.0000E+00 0.0000E+00
       23  1    1    2    0    0 -.26763355E+03 0.34629861E+03 0.44608028E+03 0.63154834E+03 0.91188000E+02 0.0000E+00 0.9000E+01
      -11  1    4    4    0    0 -.14776546E+02 -.12344796E+02 0.13635220E+02 0.23593633E+02 0.51099893E-03 0.0000E+00 0.9000E+01
       11  1    4    4    0    0 0.10032847E+03 -.26439928E+03 0.38304949E+03 0.47612991E+03 0.51099893E-03 0.0000E+00 0.9000E+01
       23  1    3    3    0    0 0.18208163E+03 -.69554532E+02 0.14889425E+03 0.26167977E+03 0.91188000E+02 0.0000E+00 0.9000E+01
#aMCatNLO 1  0  0  2  1 0.54920166D+03 0.00000000D+00  -5  7  0 0.00000000D+00 0.00000000D+00 0.00000000D+00 0.00000000D+00 0.00000000D+00
  <mgrwgt>
 0.3202152646D-03    5    2    0
 0.489113047449001D+03 0.000000000000000D+00 0.000000000000000D+00 0.489113047449001D+03
 0.489113047449001D+03 0.000000000000000D+00 0.000000000000000D+00 -.489113047449001D+03
 0.447091620158042D+03 -.267633552114728D+03 0.346298611712426D+03 -.502183034787196D+01
 0.197738525562379D+02 -.147765462059832D+02 -.123447957068455D+02 -.450166037085539D+01
 0.289678829173922D+03 0.100328465939187D+03 -.264399284451436D+03 0.627777140029167D+02
 0.221681793009799D+03 0.182081632381525D+03 -.695545315541440D+02 -.532542232841893D+02
 0.000000000000000D+00 -.000000000000000D+00 0.000000000000000D+00 -.000000000000000D+00
 0.775338051559481D+03 0.000000000000000D+00 0.000000000000000D+00 0.775338051559481D+03
 0.912609677610173D+03 0.000000000000000D+00 0.000000000000000D+00 -.912609677610173D+03
 0.274150097734360D+03 -.119945945302990D+03 0.228977676136974D+03 -.502183034787196D+01
 0.204922505116977D+02 -.653131544601573D+01 -.188946898223888D+02 -.450166037085539D+01
 0.468646120179738D+03 0.255609551568766D+03 -.387752371663803D+03 0.627777140029167D+02
 0.358562126939746D+03 0.300897327284512D+03 -.163940030703271D+03 -.532542232841893D+02
 0.566097133804112D+03 -.430029618104273D+03 0.341609416052489D+03 -.137271626050692D+03
0.247743907838D-04 0.000000000000D+00 0.000000000000D+00 0.334786655977D-06 0.000000000000D+00  7 1 -1 23 -11 11 23 21 0 0.18343161D+00 0.30868648D-01 0.23246997D+06 0.23246997D+06 0.23246997D+06 0.10928423D+01  1  2  2  2  7  2       -1 0.307256798884D-03 0.100000000000D+01
-.137601114001D-05 0.000000000000D+00 -.951401838565D-07 0.334786655977D-06 0.000000000000D+00  7 1 -1 23 -11 11 23 21 2 0.18343161D+00 0.30868648D-01 0.23246997D+06 0.23246997D+06 0.23246997D+06 0.10928423D+01  1  2  3  2  7  2       -1 -.203814688521D-04 0.100000000000D+01
0.154662344120D-05 0.000000000000D+00 0.000000000000D+00 0.334786655977D-06 0.000000000000D+00  7 1 -1 23 -11 11 23 21 2 0.18343161D+00 0.30868648D-01 0.23246997D+06 0.23246997D+06 0.23246997D+06 0.10928423D+01  1  2 15  2  7  2       -1 0.229085772464D-04 0.100000000000D+01
0.114667002782D-05 0.000000000000D+00 -.787339164638D-05 0.334786655977D-06 0.000000000000D+00  7 1 -1 23 -11 11 23 21 2 0.18343161D+00 0.90155705D-01 0.23246997D+06 0.23246997D+06 0.23246997D+06 0.10928423D+01  1  2  5  2  7  2       -1 0.231669636896D-05 0.100000000000D+01
0.551962932126D-06 0.000000000000D+00 -.955270198350D-06 0.334786655977D-06 0.000000000000D+00  7 1 21 23 -11 11 23 1 2 0.18343161D+00 0.90155705D-01 0.23246997D+06 0.23246997D+06 0.23246997D+06 0.10928423D+01  1  2  5  4  7  2       -1 0.811466090566D-05 0.100000000000D+01
  </mgrwgt>
  </event>
  <event>
  8     66 0.25924217E-05 0.24927605E+03 0.75467711E-02 0.10131372E+00
        1 -1    0    0  501    0 0.00000000E+00 0.00000000E+00 0.19427716E+04 0.19427716E+04 0.32000000E+00 0.0000E+00 0.9000E+01
       -1 -1    0    0    0  501 0.00000000E+00 0.00000000E+00 -.13046258E+03 0.13046297E+03 0.32000000E+00 0.0000E+00 0.9000E+01
       25  2    1    2    0    0 0.13422880E+03 -.51898430E+02 0.95699393E+02 0.34819121E+03 0.30227128E+03 0.0000E+00 0.0000E+00
       23  2    3    3    0    0 -.18296105E+02 0.65699380E+02 0.66566165E+02 0.13311660E+03 0.92939868E+02 0.0000E+00 0.0000E+00
       23  1    1    2    0    0 -.13422880E+03 0.51898430E+02 0.17166096E+04 0.17250434E+04 0.91188000E+02 0.0000E+00 0.9000E+01
      -11  1    4    4    0    0 0.32523134E+02 0.53846329E+02 0.40161667E+02 0.74633377E+02 0.51099893E-03 0.0000E+00 0.9000E+01
       11  1    4    4    0    0 -.50819239E+02 0.11853050E+02 0.26404498E+02 0.58483223E+02 0.51099893E-03 0.0000E+00 0.9000E+01
       23  1    3    3    0    0 0.15252491E+03 -.11759781E+03 0.29133228E+02 0.21507461E+03 0.91188000E+02 0.0000E+00 0.9000E+01
#aMCatNLO 1  0  0  2  1 0.76382241D+02 0.00000000D+00  -5  7  0 0.00000000D+00 0.00000000D+00 0.00000000D+00 0.00000000D+00 0.00000000D+00
  <mgrwgt>
 0.3230869116D-03    4    2    0
 0.503447543264136D+03 0.000000000000000D+00 0.000000000000000D+00 0.503447543264136D+03
 0.503447543264136D+03 0.000000000000000D+00 0.000000000000000D+00 -.503447543264136D+03
 0.462205572134489D+03 -.134228802563389D+03 0.518984299664493D+02 0.429660239139703D+03
 0.813859848205099D+02 0.325231344700180D+02 0.538463293221691D+02 -.516381357910789D+02
 0.728937237811545D+02 -.508192392644627D+02 0.118530503700109D+02 -.508960222825962D+02
 0.390409805792119D+03 0.152524907357834D+03 -.117597809658629D+03 -.327126081066027D+03
 0.000000000000000D+00 -.000000000000000D+00 -.000000000000000D+00 0.000000000000000D+00
 0.834080374055481D+03 0.000000000000000D+00 0.000000000000000D+00 0.834080374055481D+03
 0.509324847668443D+03 0.000000000000000D+00 0.000000000000000D+00 -.509324847668443D+03
 0.461028464463941D+03 -.114471092230388D+03 0.807492516867786D+02 0.429660239139703D+03
 0.863840487479207D+02 0.361135044026688D+02 0.590890989088820D+02 -.516381357910789D+02
 0.716667908246041D+02 -.477255656563130D+02 0.163705285709407D+02 -.508960222825962D+02
 0.390708773766807D+03 0.169241269643947D+03 -.931880587309849D+02 -.327126081066027D+03
 0.333617143920652D+03 -.431581161599148D+02 -.630208204356165D+02 0.324755526387038D+03
0.379701173681D-04 0.000000000000D+00 0.000000000000D+00 0.458833556011D-07 0.000000000000D+00  7 1 -1 23 -11 11 23 21 0 0.29888797D+00 0.20071198D-01 0.62138547D+05 0.62138547D+05 0.62138547D+05 0.11390842D+01  1  2  2  2  7  2       -1 0.315904057760D-03 0.100000000000D+01
-.842204660008D-06 0.000000000000D+00 -.145815248455D-06 0.458833556011D-07 0.000000000000D+00  7 1 -1 23 -11 11 23 21 2 0.29888797D+00 0.20071198D-01 0.62138547D+05 0.62138547D+05 0.62138547D+05 0.11390842D+01  1  2  3  2  7  2       -1 -.909164687817D-05 0.100000000000D+01
0.219128920479D-05 0.000000000000D+00 0.000000000000D+00 0.458833556011D-07 0.000000000000D+00  7 1 -1 23 -11 11 23 21 2 0.29888797D+00 0.20071198D-01 0.62138547D+05 0.62138547D+05 0.62138547D+05 0.11390842D+01  1  2 15  2  7  2       -1 0.236550907445D-04 0.100000000000D+01
-.683700921473D-06 0.000000000000D+00 0.000000000000D+00 0.458833556011D-07 0.000000000000D+00  7 1 -1 23 -11 11 23 21 2 0.29888797D+00 0.20071198D-01 0.62138547D+05 0.62138547D+05 0.62138547D+05 0.11390842D+01  1  2  4  2  7  2       -1 -.738059006734D-05 0.100000000000D+01
  </mgrwgt>
  </event>
  <event>
  8     66 0.25924217E-05 0.34723257E+03 0.75467711E-02 0.95601816E-01
        1 -1    0    0  501    0 0.00000000E+00 0.00000000E+00 0.39543794E+03 0.39543807E+03 0.32000000E+00 0.0000E+00 0.9000E+01
       -1 -1    0    0    0  501 0.00000000E+00 0.00000000E+00 -.52159796E+03 0.52159806E+03 0.32000000E+00 0.0000E+00 0.9000E+01
       25  2    1    2    0    0 -.47138772E+02 -.36221566E+03 -.23101368E+03 0.52622698E+03 0.30020870E+03 0.0000E+00 0.0000E+00
       23  2    3    3    0    0 0.74621444E+02 -.75137404E+02 -.38300306E+02 0.14847948E+03 0.96774242E+02 0.0000E+00 0.0000E+00
       23  1    1    2    0    0 0.47138772E+02 0.36221566E+03 0.10485366E+03 0.39080914E+03 0.91188000E+02 0.0000E+00 0.9000E+01
      -11  1    4    4    0    0 -.14368321E+02 -.47868345E+02 -.81135828E+01 0.50632571E+02 0.51099893E-03 0.0000E+00 0.9000E+01
       11  1    4    4    0    0 0.88989765E+02 -.27269059E+02 -.30186724E+02 0.97846912E+02 0.51099893E-03 0.0000E+00 0.9000E+01
       23  1    3    3    0    0 -.12176022E+03 -.28707825E+03 -.19271338E+03 0.37774750E+03 0.91188000E+02 0.0000E+00 0.9000E+01
#aMCatNLO 1  0  0  1  2 0.71330064D+02 0.00000000D+00  -5  7  0 0.00000000D+00 0.00000000D+00 0.00000000D+00 0.00000000D+00 0.00000000D+00
  <mgrwgt>
 0.5835975317D-03    9    2    0
 0.454158260213659D+03 0.000000000000000D+00 0.000000000000000D+00 0.454158260213659D+03
 0.454158260213659D+03 0.000000000000000D+00 0.000000000000000D+00 -.454158260213659D+03
 0.409124391253588D+03 0.471387721346820D+02 0.362215656875722D+03 0.160141407044969D+03
 0.499917000768103D+02 -.143683205344800D+02 -.478683445238498D+02 -.115889349563226D+01
 0.945934518247989D+02 0.889897649856083D+02 -.272690593568005D+02 -.168861261908128D+02
 0.354606977272120D+03 -.121760216585810D+03 -.287078252995072D+03 -.142096387358524D+03
 0.000000000000000D+00 -.000000000000000D+00 -.000000000000000D+00 0.000000000000000D+00
 0.493221146026853D+03 0.000000000000000D+00 0.000000000000000D+00 0.493221146026853D+03
 0.489328067039239D+03 0.000000000000000D+00 0.000000000000000D+00 -.489328067039239D+03
 0.423145339428034D+03 0.779897205392150D+02 0.372839188089904D+03 0.160141407044969D+03
 0.478548340265412D+02 -.107413012354450D+02 -.466193795898552D+02 -.115889349563226D+01
 0.100795036343257D+03 0.962325132739253D+02 -.247750173095845D+02 -.168861261908128D+02
 0.339317779508255D+03 -.960375018470125D+02 -.278220630229058D+03 -.142096387358524D+03
 0.714362237600049D+02 -.674434307306827D+02 -.232241609614059D+02 0.389307898761342D+01
0.261872723668D-04 0.000000000000D+00 0.000000000000D+00 0.806694398472D-07 0.000000000000D+00  7 1 -1 23 -11 11 23 21 0 0.60836623D-01 0.80245858D-01 0.17826322D+06 0.17826322D+06 0.17826322D+06 0.11016838D+01  1  2  2  1  7  1        1 0.316475718704D-03 0.100000000000D+01
-.144543822719D-05 0.000000000000D+00 -.100566021156D-06 0.806694398472D-07 0.000000000000D+00  7 1 -1 23 -11 11 23 21 2 0.60836623D-01 0.80245858D-01 0.17826322D+06 0.17826322D+06 0.17826322D+06 0.11016838D+01  1  2  3  1  7  1        1 -.212013544529D-04 0.100000000000D+01
0.160376339749D-05 0.000000000000D+00 0.000000000000D+00 0.806694398472D-07 0.000000000000D+00  7 1 -1 23 -11 11 23 21 2 0.60836623D-01 0.80245858D-01 0.17826322D+06 0.17826322D+06 0.17826322D+06 0.11016838D+01  1  2 15  1  7  1        1 0.235236315252D-04 0.100000000000D+01
0.325710292335D-04 0.000000000000D+00 0.000000000000D+00 0.806694398472D-07 0.000000000000D+00  7 1 -1 23 -11 11 23 21 2 0.68237618D-01 0.80245858D-01 0.21083929D+06 0.21083929D+06 0.21083929D+06 0.10960693D+01  1  2 12  1  7  1        1 0.402668786780D-03 0.100000000000D+01
-.266808067594D-04 0.000000000000D+00 0.000000000000D+00 0.806694398472D-07 0.000000000000D+00  7 1 -1 23 -11 11 23 21 2 0.60836623D-01 0.80245858D-01 0.17826322D+06 0.17826322D+06 0.17826322D+06 0.11016838D+01  1  2  4  1  7  1        1 -.391347918269D-03 0.100000000000D+01
-.100695640451D-03 0.000000000000D+00 -.250094012215D-04 0.806694398472D-07 0.000000000000D+00  7 1 -1 23 -11 11 23 21 2 0.70521853D-01 0.80245858D-01 0.17826322D+06 0.17826322D+06 0.17826322D+06 0.11016838D+01  1  2  5  1  7  1        1 -.120828858171D-02 0.100000000000D+01
0.103528960841D-03 0.000000000000D+00 0.247389540988D-04 0.806694398472D-07 0.000000000000D+00  7 1 -1 23 -11 11 23 21 2 0.60836623D-01 0.80245858D-01 0.17826322D+06 0.17826322D+06 0.17826322D+06 0.11016838D+01  1  2  6  1  7  1        1 0.151853891342D-02 0.100000000000D+01
0.595339639730D-06 0.000000000000D+00 0.000000000000D+00 0.806694398472D-07 0.000000000000D+00  7 21 -1 23 -11 11 23 -1 2 0.68237618D-01 0.80245858D-01 0.21083929D+06 0.21083929D+06 0.21083929D+06 0.10960693D+01  1  2 12  3  7  1        1 0.243016300381D-04 0.100000000000D+01
-.209986937954D-05 0.000000000000D+00 -.563482135302D-06 0.806694398472D-07 0.000000000000D+00  7 21 -1 23 -11 11 23 -1 2 0.70521853D-01 0.80245858D-01 0.17826322D+06 0.17826322D+06 0.17826322D+06 0.11016838D+01  1  2  5  3  7  1        1 -.810732943129D-04 0.100000000000D+01
  </mgrwgt>
  </event>
  <event>
  8     66 0.25924217E-05 0.28311045E+03 0.75467711E-02 0.98504797E-01
        1 -1    0    0  501    0 0.00000000E+00 0.00000000E+00 0.15668001E+04 0.15668001E+04 0.32000000E+00 0.0000E+00 0.9000E+01
       -1 -1    0    0    0  501 0.00000000E+00 0.00000000E+00 -.18454188E+03 0.18454216E+03 0.32000000E+00 0.0000E+00 0.9000E+01
       25  2    1    2    0    0 0.18596246E+03 0.11106035E+03 0.14602613E+04 0.15037212E+04 0.28617846E+03 0.0000E+00 0.0000E+00
       23  2    3    3    0    0 0.18884873E+03 0.47759686E+01 0.71372308E+03 0.74415607E+03 0.93171749E+02 0.0000E+00 0.0000E+00
       23  1    1    2    0    0 -.18596246E+03 -.11106035E+03 -.78003084E+02 0.24762102E+03 0.91188000E+02 0.0000E+00 0.9000E+01
      -13  1    4    4    0    0 0.16177629E+03 0.14369987E+02 0.68321790E+03 0.70225691E+03 0.10565837E+00 0.0000E+00 0.9000E+01
       13  1    4    4    0    0 0.27072447E+02 -.95940181E+01 0.30505183E+02 0.41899163E+02 0.10565837E+00 0.0000E+00 0.9000E+01
       23  1    3    3    0    0 -.28862687E+01 0.10628438E+03 0.74653818E+03 0.75956514E+03 0.91188000E+02 0.0000E+00 0.9000E+01
#aMCatNLO 1  0  0  2  2 0.14776075D+03 0.00000000D+00  -5  7  0 0.00000000D+00 0.00000000D+00 0.00000000D+00 0.00000000D+00 0.00000000D+00
  <mgrwgt>
 0.7731337458D-03    4    2    0
 0.537717858390478D+03 0.000000000000000D+00 0.000000000000000D+00 0.537717858390478D+03
 0.537717858390478D+03 0.000000000000000D+00 0.000000000000000D+00 -.537717858390478D+03
 0.503507138343559D+03 -.185962464301490D+03 -.111060348407634D+03 -.445295124497689D+03
 0.265482158553987D+03 0.161776459470983D+03 0.143700174391474D+02 0.210006324357901D+03
 0.290239654851958D+02 0.270722732491990D+02 -.959404880997029D+01 -.417574197460115D+01
 0.277422454398215D+03 -.288626841869272D+01 0.106284379778457D+03 0.239464542114388D+03
 0.000000000000000D+00 -.000000000000000D+00 0.000000000000000D+00 0.000000000000000D+00
 0.700167863317503D+03 0.000000000000000D+00 0.000000000000000D+00 0.700167863317503D+03
 0.577447895258688D+03 0.000000000000000D+00 0.000000000000000D+00 -.577447895258688D+03
 0.497188304138867D+03 -.131575716094537D+03 -.152581261828836D+03 -.445295124497689D+03
 0.284445569084354D+03 0.191664454944305D+03 -.844761577655597D+01 0.210006324357901D+03
 0.330530533434831D+02 0.304460941432948D+02 -.121697520807256D+02 -.417574197460115D+01
 0.270852210811044D+03 0.269118848446174D+02 0.835353355250734D+02 0.239464542114388D+03
 0.192076621198443D+03 -.117446717837680D+03 0.896632941610445D+02 0.122719968058815D+03
0.109876922019D-03 0.000000000000D+00 0.000000000000D+00 0.101946015464D-08 0.000000000000D+00  7 1 -1 23 -13 13 23 21 0 0.24104619D+00 0.28391082D-01 0.80151528D+05 0.80151528D+05 0.80151528D+05 0.11296935D+01  1  2  2  2  7  2       -1 0.905995294285D-03 0.100000000000D+01
-.305002342031D-05 0.000000000000D+00 -.421956311813D-06 0.101946015464D-08 0.000000000000D+00  7 1 -1 23 -13 13 23 21 2 0.24104619D+00 0.28391082D-01 0.80151528D+05 0.80151528D+05 0.80151528D+05 0.11296935D+01  1  2  3  2  7  2       -1 -.320954826043D-04 0.100000000000D+01
0.629769526682D-05 0.000000000000D+00 0.000000000000D+00 0.101946015464D-08 0.000000000000D+00  7 1 -1 23 -13 13 23 21 2 0.24104619D+00 0.28391082D-01 0.80151528D+05 0.80151528D+05 0.80151528D+05 0.11296935D+01  1  2 15  2  7  2       -1 0.662708251802D-04 0.100000000000D+01
-.158734621957D-04 0.000000000000D+00 0.000000000000D+00 0.101946015464D-08 0.000000000000D+00  7 1 -1 23 -13 13 23 21 2 0.24104619D+00 0.28391082D-01 0.80151528D+05 0.80151528D+05 0.80151528D+05 0.11296935D+01  1  2  4  2  7  2       -1 -.167036891054D-03 0.100000000000D+01
  </mgrwgt>
  </event>
  <event>
  9     66 0.25924217E-05 0.15516703E+03 0.75467711E-02 0.10030798E+00
       21 -1    0    0  501  502 0.00000000E+00 0.00000000E+00 0.14598611E+04 0.14598613E+04 0.75000000E+00 0.0000E+00 0.9000E+01
       -1 -1    0    0    0  501 0.00000000E+00 0.00000000E+00 -.11954497E+03 0.11954540E+03 0.32000000E+00 0.0000E+00 0.9000E+01
       25  2    1    2    0    0 -.49468419E+02 -.21741005E+03 0.28202292E+03 0.46915838E+03 0.30142728E+03 0.0000E+00 0.0000E+00
       23  2    3    3    0    0 -.56050726E+02 -.90011019E+02 0.27907820E+03 0.31232164E+03 0.91741486E+02 0.0000E+00 0.0000E+00
       23  1    1    2    0    0 0.42732475E+02 -.10201931E+02 0.23130451E+03 0.25248202E+03 0.91188000E+02 0.0000E+00 0.9000E+01
      -11  1    4    4    0    0 -.53481954E+02 -.10758535E+03 0.25903266E+03 0.28553957E+03 0.51099893E-03 0.0000E+00 0.9000E+01
       11  1    4    4    0    0 -.25687714E+01 0.17574334E+02 0.20045543E+02 0.26782076E+02 0.51099893E-03 0.0000E+00 0.9000E+01
       23  1    3    3    0    0 0.65823070E+01 -.12739903E+03 0.29447235E+01 0.15683674E+03 0.91188000E+02 0.0000E+00 0.9000E+01
       -1  1    1    2    0  502 0.67359432E+01 0.22761198E+03 0.82698870E+03 0.85776628E+03 0.32000000E+00 0.0000E+00 0.9000E+01
#aMCatNLO 2  0  0  1  2 0.22771163D+03 0.00000000D+00  -5  7  0 0.00000000D+00 0.00000000D+00 0.00000000D+00 0.00000000D+00 0.00000000D+00
  <mgrwgt>
 0.7521675890D-05    1    2    0
 0.226609372754205D+03 0.000000000000000D+00 0.000000000000000D+00 0.226609372754205D+03
 0.226609372754205D+03 0.000000000000000D+00 0.000000000000000D+00 -.226609372754205D+03
 0.135546113538241D+03 0.445607163321148D+02 0.515755308767845D+02 0.735649694220577D+02
 0.106439449129734D+03 -.517248027001493D+02 -.482100400305116D+02 0.795593687564716D+02
 0.287276879021719D+02 -.224232822061623D+01 0.286050658072487D+02 0.141500053660590D+01
 0.182505494938264D+03 0.940641458865075D+01 -.319705566535216D+02 -.154539338715135D+03
 0.000000000000000D+00 0.000000000000000D+00 0.000000000000000D+00 0.000000000000000D+00
 0.599572727854838D+03 0.000000000000000D+00 0.000000000000000D+00 0.599572727854838D+03
 0.291073052714461D+03 0.000000000000000D+00 0.000000000000000D+00 -.291073052714461D+03
 0.125128733459622D+03 0.427324756785604D+02 -.102019306762104D+02 0.735649694220577D+02
 0.144099343384110D+03 -.534819542283517D+02 -.107585352993425D+03 0.795593687564716D+02
 0.178173516521898D+02 -.256877142952038D+01 0.175743337490238D+02 0.141500053660590D+01
 0.220162435660178D+03 0.658230674287640D+01 -.127399029663705D+03 -.154539338715135D+03
 0.383437916413198D+03 0.673594323643536D+01 0.227611979584317D+03 0.308499675140378D+03
0.361963864215D-06 0.000000000000D+00 0.000000000000D+00 0.514610768121D-07 0.158395341721D-11  7 21 -1 23 -11 11 23 -1 2 0.22459402D+00 0.18391577D-01 0.97233826D+05 0.97233826D+05 0.97233826D+05 0.11227231D+01  1  2  1  3  7  1        1 0.752167588989D-05 0.100000000000D+01
  </mgrwgt>
  </event>
  <event>
  9     66 -.25924217E-05 0.71507244E+03 0.75467711E-02 0.90443970E-01
        1 -1    0    0  501    0 0.00000000E+00 0.00000000E+00 0.11191955E+04 0.11191955E+04 0.32000000E+00 0.0000E+00 0.9000E+01
       -1 -1    0    0    0  502 0.00000000E+00 0.00000000E+00 -.77114325E+03 0.77114332E+03 0.32000000E+00 0.0000E+00 0.9000E+01
       25  2    1    2    0    0 0.10601144E+03 -.66119216E+03 0.73212196E+03 0.10364889E+04 0.29982176E+03 0.0000E+00 0.0000E+00
       23  2    3    3    0    0 0.10491758E+03 -.61487081E+03 0.59291440E+03 0.86374379E+03 0.73702286E+02 0.0000E+00 0.0000E+00
       23  1    1    2    0    0 -.13879168E+03 0.68445063E+03 -.40073414E+03 0.81033258E+03 0.91188000E+02 0.0000E+00 0.9000E+01
      -13  1    4    4    0    0 0.83718979E+02 -.54633597E+03 0.49227599E+03 0.74015371E+03 0.10565837E+00 0.0000E+00 0.9000E+01
       13  1    4    4    0    0 0.21198600E+02 -.68534846E+02 0.10063841E+03 0.12359007E+03 0.10565837E+00 0.0000E+00 0.9000E+01
       23  1    3    3    0    0 0.10938628E+01 -.46321352E+02 0.13920756E+03 0.17274507E+03 0.91188000E+02 0.0000E+00 0.9000E+01
       21  1    1    2  501  502 0.32780240E+02 -.23258462E+02 0.16664421E+02 0.43517417E+02 0.75000000E+00 0.0000E+00 0.9000E+01
#aMCatNLO 2  0  0  2  1 0.40193285D+02 0.00000000D+00  -5  7  0 0.00000000D+00 0.00000000D+00 0.00000000D+00 0.00000000D+00 0.00000000D+00
  <mgrwgt>
 -.7699787120D-03    3    2    0
 0.908200975311275D+03 0.000000000000000D+00 0.000000000000000D+00 0.908200975311275D+03
 0.908200975311275D+03 0.000000000000000D+00 0.000000000000000D+00 -.908200975311275D+03
 0.885745088098323D+03 -.122709083396162D+03 0.673039590219562D+03 -.555147998821453D+03
 0.671245063342170D+03 0.957532370539130D+02 -.554875486593752D+03 0.365396287655304D+03
 0.108558164100073D+03 0.231457527855154D+02 -.699155129448223D+02 0.797556905206937D+02
 0.150853635081983D+03 0.381009355673363D+01 -.482485906809881D+02 0.109996020645455D+03
 0.000000000000000D+00 0.000000000000000D+00 -.000000000000000D+00 0.000000000000000D+00
 0.933518729460629D+03 0.000000000000000D+00 0.000000000000000D+00 0.933518729460629D+03
 0.924516864820128D+03 0.000000000000000D+00 0.000000000000000D+00 -.924516864820128D+03
 0.896794481416200D+03 -.138791681067152D+03 0.684450625849404D+03 -.555147998821453D+03
 0.662576332453090D+03 0.837191070741919D+02 -.546336947684677D+03 0.365396287655304D+03
 0.107271785310900D+03 0.211984713332039D+02 -.685338643773314D+02 0.797556905206937D+02
 0.150203994893308D+03 0.109386283654091D+01 -.463213519250936D+02 0.109996020645455D+03
 0.411890002072589D+02 0.327802398232155D+02 -.232584618623021D+02 0.900186464050019D+01
-.138391343642D-02 0.000000000000D+00 0.000000000000D+00 0.367430766180D-07 0.000000000000D+00  7 1 -1 23 -13 13 23 21 2 0.16751355D+00 0.12022501D+00 0.54113555D+06 0.54113555D+06 0.54113555D+06 0.10660921D+01  1  2 13  2  7  2       -1 -.155618060958D-02 0.100000000000D+01
-.135487159297D-02 0.000000000000D+00 0.000000000000D+00 0.367430766180D-07 0.000000000000D+00  7 1 -1 23 -13 13 23 21 2 0.16751355D+00 0.11654329D+00 0.51132860D+06 0.51132860D+06 0.51132860D+06 0.10678234D+01  1  2  8  2  7  2       -1 -.165566443121D-02 0.100000000000D+01
0.221257185396D-02 0.000000000000D+00 0.000000000000D+00 0.367430766180D-07 0.137950316698D-09  7 1 -1 23 -13 13 23 21 2 0.17218330D+00 0.11863700D+00 0.54113555D+06 0.54113555D+06 0.54113555D+06 0.10660921D+01  1  2  1  2  7  2       -1 0.244186632878D-02 0.100000000000D+01
  </mgrwgt>
  </event>
  <event>
  8     66 0.25924217E-05 0.24217619E+03 0.75467711E-02 0.97696295E-01
        3 -1    0    0  501    0 0.00000000E+00 0.00000000E+00 0.87449573E+03 0.87449587E+03 0.50000000E+00 0.0000E+00 0.9000E+01
       -3 -1    0    0    0  501 0.00000000E+00 0.00000000E+00 -.75496761E+02 0.75498416E+02 0.50000000E+00 0.0000E+00 0.9000E+01
       25  2    1    2    0    0 0.24612545E+01 0.14838571E+03 0.46912990E+03 0.57696181E+03 0.30129337E+03 0.0000E+00 0.0000E+00
       23  2    3    3    0    0 -.23330148E+02 0.18801963E+03 0.20528831E+03 0.29382990E+03 0.91088097E+02 0.0000E+00 0.0000E+00
       23  1    1    2    0    0 -.24612545E+01 -.14838571E+03 0.32986906E+03 0.37303247E+03 0.91188000E+02 0.0000E+00 0.9000E+01
      -11  1    4    4    0    0 0.30597726E+02 0.96379308E+02 0.12389930E+03 0.15992570E+03 0.51099893E-03 0.0000E+00 0.9000E+01
       11  1    4    4    0    0 -.53927874E+02 0.91640322E+02 0.81389013E+02 0.13390420E+03 0.51099893E-03 0.0000E+00 0.9000E+01
       23  1    3    3    0    0 0.25791402E+02 -.39633923E+02 0.26384159E+03 0.28313191E+03 0.91188000E+02 0.0000E+00 0.9000E+01
#aMCatNLO 1  0  0  1  1 0.23597223D+03 0.00000000D+00  -5  7  0 0.00000000D+00 0.00000000D+00 0.00000000D+00 0.00000000D+00 0.00000000D+00
  <mgrwgt>
 0.2631639649D-04    3    2    0
 0.256948338909133D+03 0.000000000000000D+00 0.000000000000000D+00 0.256948338909133D+03
 0.256948338909133D+03 0.000000000000000D+00 0.000000000000000D+00 -.256948338909133D+03
 0.176715828999515D+03 -.246125454726080D+01 -.148385706890176D+03 0.298137064408661D+02
 0.103003361823529D+03 0.305977258988582D+02 0.963793084002131D+02 -.196086875915688D+02
 0.120994147514913D+03 -.539278737321099D+02 0.916403217665098D+02 -.577357739544963D+02
 0.113183339480310D+03 0.257914023805125D+02 -.396339232765468D+02 0.475307551051990D+02
 0.000000000000000D+00 0.000000000000000D+00 0.000000000000000D+00 -.000000000000000D+00
 0.388681085289422D+03 0.000000000000000D+00 0.000000000000000D+00 0.388681085289422D+03
 0.414145626911120D+03 0.000000000000000D+00 0.000000000000000D+00 -.414145626911120D+03
 0.261424835071461D+03 -.217393191813125D+02 -.242211143339713D+03 0.298137064408661D+02
 0.671656040790340D+02 0.231103397866029D+02 0.599385513437350D+02 -.196086875915688D+02
 0.969054837586943D+02 -.635153955485012D+02 0.449783027325321D+02 -.577357739544963D+02
 0.139988551272441D+03 0.146519111766877D+02 -.938493045331551D+02 0.475307551051990D+02
 0.237342238018912D+03 0.474924637665231D+02 0.231143593796601D+03 -.254645416216975D+02
0.256591139484D-05 0.000000000000D+00 0.000000000000D+00 0.373466255630D-07 0.000000000000D+00  7 3 -3 23 -11 11 23 21 0 0.13453794D+00 0.11615025D-01 0.58649307D+05 0.58649307D+05 0.58649307D+05 0.11412498D+01  1  2  2  1  7  1        3 0.260884952362D-04 0.100000000000D+01
-.141943010484D-06 0.000000000000D+00 -.985377537618D-08 0.373466255630D-07 0.000000000000D+00  7 3 -3 23 -11 11 23 21 2 0.13453794D+00 0.11615025D-01 0.58649307D+05 0.58649307D+05 0.58649307D+05 0.11412498D+01  1  2  3  1  7  1        3 -.187967535729D-05 0.100000000000D+01
0.159152891804D-06 0.000000000000D+00 0.000000000000D+00 0.373466255630D-07 0.000000000000D+00  7 3 -3 23 -11 11 23 21 2 0.13453794D+00 0.11615025D-01 0.58649307D+05 0.58649307D+05 0.58649307D+05 0.11412498D+01  1  2 15  1  7  1        3 0.210757660941D-05 0.100000000000D+01
  </mgrwgt>
  </event>
  <event>
  8     66 0.25924217E-05 0.11959838E+03 0.75467711E-02 0.97326305E-01
        1 -1    0    0  501    0 0.00000000E+00 0.00000000E+00 0.31033304E+03 0.31033320E+03 0.32000000E+00 0.0000E+00 0.9000E+01
       -1 -1    0    0    0  501 0.00000000E+00 0.00000000E+00 -.74438334E+03 0.74438341E+03 0.32000000E+00 0.0000E+00 0.9000E+01
       25  2    1    2    0    0 -.23619224E+03 0.57383760E+02 0.15121667E+03 0.41445701E+03 0.29971396E+03 0.0000E+00 0.0000E+00
       23  2    3    3    0    0 -.90200611E+02 -.89984450E+02 0.86350223E+02 0.17875836E+03 0.90911153E+02 0.0000E+00 0.0000E+00
       23  1    1    2    0    0 0.23619224E+03 -.57383760E+02 -.58526698E+03 0.64025960E+03 0.91188000E+02 0.0000E+00 0.9000E+01
      -13  1    4    4    0    0 -.45663320E+02 -.12592467E+02 0.75058126E+02 0.88754958E+02 0.10565837E+00 0.0000E+00 0.9000E+01
       13  1    4    4    0    0 -.44537291E+02 -.77391983E+02 0.11292097E+02 0.90003400E+02 0.10565837E+00 0.0000E+00 0.9000E+01
       23  1    3    3    0    0 -.14599163E+03 0.14736821E+03 0.64866451E+02 0.23569865E+03 0.91188000E+02 0.0000E+00 0.9000E+01
#aMCatNLO 1  0  0  2  1 0.15635344D+03 0.00000000D+00  -5  7  0 0.00000000D+00 0.00000000D+00 0.00000000D+00 0.00000000D+00 0.00000000D+00
  <mgrwgt>
 0.2418588435D-03    7    2    0
 0.480631734284892D+03 0.000000000000000D+00 0.000000000000000D+00 0.480631734284892D+03
 0.480631734284892D+03 0.000000000000000D+00 0.000000000000000D+00 -.480631734284892D+03
 0.438232741712145D+03 0.236192240537909D+03 -.573837604987641D+02 -.353062337421094D+03
 0.131275524133417D+03 -.456633215889064D+02 -.125923791031825D+02 0.122431843433370D+03
 0.103852259051171D+03 -.445372892116047D+02 -.773920705045958D+02 0.530300763975032D+02
 0.287902943673052D+03 -.145991629737398D+03 0.147368210106542D+03 0.177600417590221D+03
 0.000000000000000D+00 -.000000000000000D+00 -.000000000000000D+00 -.000000000000000D+00
 0.498454921129545D+03 0.000000000000000D+00 0.000000000000000D+00 0.498454921129545D+03
 0.101807705745444D+04 0.000000000000000D+00 0.000000000000000D+00 -.101807705745444D+04
 0.435545971098014D+03 0.237819065190935D+03 0.131954432352975D+02 -.353062337421094D+03
 0.130781914080602D+03 -.451754160188288D+02 0.857522895429597D+01 0.122431843433370D+03
 0.924653413556924D+02 -.441717798355092D+02 -.615345773972894D+02 0.530300763975032D+02
 0.315102996964362D+03 -.144868937097067D+03 0.196075827393557D+03 0.177600417590221D+03
 0.542635755085314D+03 -.360293223953019D+01 -.156311922185861D+03 -.519622136324895D+03
0.360025082627D-04 0.000000000000D+00 0.000000000000D+00 0.165675753749D-05 0.000000000000D+00  7 1 -1 23 -13 13 23 21 0 0.47743562D-01 0.11452053D+00 0.96989370D+05 0.96989370D+05 0.96989370D+05 0.11228131D+01  1  2  2  2  7  2       -1 0.281439921858D-03 0.100000000000D+01
-.154224304290D-05 0.000000000000D+00 -.138259111407D-06 0.165675753749D-05 0.000000000000D+00  7 1 -1 23 -13 13 23 21 2 0.47743562D-01 0.11452053D+00 0.96989370D+05 0.96989370D+05 0.96989370D+05 0.11228131D+01  1  2  3  2  7  2       -1 -.151991994546D-04 0.100000000000D+01
0.209000719682D-05 0.000000000000D+00 0.000000000000D+00 0.165675753749D-05 0.000000000000D+00  7 1 -1 23 -13 13 23 21 2 0.47743562D-01 0.11452053D+00 0.96989370D+05 0.96989370D+05 0.96989370D+05 0.11228131D+01  1  2 15  2  7  2       -1 0.205975552247D-04 0.100000000000D+01
0.737472541222D-04 0.000000000000D+00 0.000000000000D+00 0.165675753749D-05 0.000000000000D+00  7 1 -1 23 -13 13 23 21 2 0.47743562D-01 0.24230091D+00 0.15737523D+06 0.15737523D+06 0.15737523D+06 0.11059107D+01  1  2 12  2  7  2       -1 0.616233939486D-04 0.100000000000D+01
-.108296588488D-03 0.000000000000D+00 -.103108637351D-04 0.165675753749D-05 0.000000000000D+00  7 1 -1 23 -13 13 23 21 2 0.47743562D-01 0.24516531D+00 0.96989370D+05 0.96989370D+05 0.96989370D+05 0.11228131D+01  1  2  5  2  7  2       -1 -.912028876843D-04 0.100000000000D+01
0.597848728468D-05 0.000000000000D+00 0.000000000000D+00 0.165675753749D-05 0.000000000000D+00  7 1 21 23 -13 13 23 1 2 0.47743562D-01 0.24230091D+00 0.15737523D+06 0.15737523D+06 0.15737523D+06 0.11059107D+01  1  2 12  4  7  2       -1 0.359337311710D-04 0.100000000000D+01
-.827680016259D-05 0.000000000000D+00 -.849349372740D-06 0.165675753749D-05 0.000000000000D+00  7 1 21 23 -13 13 23 1 2 0.47743562D-01 0.24516531D+00 0.96989370D+05 0.96989370D+05 0.96989370D+05 0.11228131D+01  1  2  5  4  7  2       -1 -.513336715366D-04 0.100000000000D+01
  </mgrwgt>
  </event>
  <event>
  8     66 0.25924217E-05 0.50068463E+03 0.75467711E-02 0.86607964E-01
        1 -1    0    0  501    0 0.00000000E+00 0.00000000E+00 0.20226954E+04 0.20226954E+04 0.32000000E+00 0.0000E+00 0.9000E+01
       -1 -1    0    0    0  501 0.00000000E+00 0.00000000E+00 -.54844147E+03 0.54844157E+03 0.32000000E+00 0.0000E+00 0.9000E+01
       25  2    1    2    0    0 -.41460818E+03 0.93823153E+03 0.86083852E+03 0.13724827E+04 0.30081146E+03 0.0000E+00 0.0000E+00
       23  2    3    3    0    0 -.20550994E+03 0.53508147E+03 0.32882709E+03 0.66707260E+03 0.91170572E+02 0.0000E+00 0.0000E+00
       23  1    1    2    0    0 0.41460818E+03 -.93823153E+03 0.61341540E+03 0.11986543E+04 0.91188000E+02 0.0000E+00 0.9000E+01
      -11  1    4    4    0    0 -.18229350E+03 0.37535839E+03 0.25965557E+03 0.49147315E+03 0.51099893E-03 0.0000E+00 0.9000E+01
       11  1    4    4    0    0 -.23216441E+02 0.15972308E+03 0.69171524E+02 0.17559945E+03 0.51099893E-03 0.0000E+00 0.9000E+01
       23  1    3    3    0    0 -.20909824E+03 0.40315005E+03 0.53201143E+03 0.70541013E+03 0.91188000E+02 0.0000E+00 0.9000E+01
#aMCatNLO 1  0  0  2  1 0.93512947D+02 0.00000000D+00  -5  7  0 0.00000000D+00 0.00000000D+00 0.00000000D+00 0.00000000D+00 0.00000000D+00
  <mgrwgt>
 0.4739820492D-03    9    2    0
 0.105324745327596D+04 0.000000000000000D+00 0.000000000000000D+00 0.105324745327596D+04
 0.105324745327596D+04 0.000000000000000D+00 0.000000000000000D+00 -.105324745327596D+04
 0.103374294784691D+04 0.414608178466108D+03 -.938231526518014D+03 -.901714582110437D+02
 0.418157457445339D+03 -.182293502687262D+03 0.375358390579048D+03 -.270336219746182D+02
 0.165921999111806D+03 -.232164406411955D+02 0.159723083427065D+03 -.384661317754043D+02
 0.488672502147865D+03 -.209098235137650D+03 0.403150052511901D+03 0.155671211961066D+03
 0.000000000000000D+00 0.000000000000000D+00 0.000000000000000D+00 -.000000000000000D+00
 0.108862315193690D+04 0.000000000000000D+00 0.000000000000000D+00 0.108862315193690D+04
 0.111795018424134D+04 0.000000000000000D+00 0.000000000000000D+00 -.111795018424134D+04
 0.101908282360661D+04 0.369160398942781D+03 -.941171747346109D+03 -.901714582110437D+02
 0.425569136565312D+03 -.200972876629169D+03 0.374149938045265D+03 -.270336219746182D+02
 0.166656138976246D+03 -.305794317455999D+02 0.159246738487239D+03 -.384661317754043D+02
 0.497261430780765D+03 -.230925956043833D+03 0.401737919283141D+03 0.155671211961066D+03
 0.980038062493044D+02 0.933178654758218D+02 0.603715153046350D+01 -.293270323044431D+02
0.512720748838D-03 0.000000000000D+00 0.000000000000D+00 0.207664276842D-05 0.000000000000D+00  7 1 -1 23 -11 11 23 21 0 0.31118392D+00 0.84375621D-01 0.10729863D+07 0.10729863D+07 0.10729863D+07 0.10458335D+01  1  2  2  2  7  2       -1 0.247691239603D-03 0.100000000000D+01
-.284748788251D-04 0.000000000000D+00 -.196898267801D-05 0.207664276842D-05 0.000000000000D+00  7 1 -1 23 -11 11 23 21 2 0.31118392D+00 0.84375621D-01 0.10729863D+07 0.10729863D+07 0.10729863D+07 0.10458335D+01  1  2  3  2  7  2       -1 -.150458490783D-04 0.100000000000D+01
0.310245084966D-04 0.000000000000D+00 0.000000000000D+00 0.207664276842D-05 0.000000000000D+00  7 1 -1 23 -11 11 23 21 2 0.31118392D+00 0.84375621D-01 0.10729863D+07 0.10729863D+07 0.10729863D+07 0.10458335D+01  1  2 15  2  7  2       -1 0.163930486039D-04 0.100000000000D+01
0.119148225110D-02 0.000000000000D+00 0.000000000000D+00 0.207664276842D-05 0.000000000000D+00  7 1 -1 23 -11 11 23 21 2 0.31118392D+00 0.90907680D-01 0.11747641D+07 0.11747641D+07 0.11747641D+07 0.10432391D+01  1  2 12  2  7  2       -1 0.530215563686D-03 0.100000000000D+01
-.109566116763D-02 0.000000000000D+00 0.000000000000D+00 0.207664276842D-05 0.000000000000D+00  7 1 -1 23 -11 11 23 21 2 0.31118392D+00 0.84375621D-01 0.10729863D+07 0.10729863D+07 0.10729863D+07 0.10458335D+01  1  2  4  2  7  2       -1 -.578936706647D-03 0.100000000000D+01
-.397937900399D-02 0.000000000000D+00 -.724815941776D-03 0.207664276842D-05 0.000000000000D+00  7 1 -1 23 -11 11 23 21 2 0.31118392D+00 0.92310233D-01 0.10729863D+07 0.10729863D+07 0.10729863D+07 0.10458335D+01  1  2  5  2  7  2       -1 -.173196168806D-02 0.100000000000D+01
0.403114821874D-02 0.000000000000D+00 0.721898308910D-03 0.207664276842D-05 0.000000000000D+00  7 1 -1 23 -11 11 23 21 2 0.31118392D+00 0.84375621D-01 0.10729863D+07 0.10729863D+07 0.10729863D+07 0.10458335D+01  1  2  6  2  7  2       -1 0.213001951945D-02 0.100000000000D+01
0.151994542712D-04 0.000000000000D+00 0.000000000000D+00 0.207664276842D-05 0.000000000000D+00  7 1 21 23 -11 11 23 1 2 0.31118392D+00 0.90907680D-01 0.11747641D+07 0.11747641D+07 0.11747641D+07 0.10432391D+01  1  2 12  4  7  2       -1 0.468956611988D-04 0.100000000000D+01
-.569452655624D-04 0.000000000000D+00 -.107286244631D-04 0.207664276842D-05 0.000000000000D+00  7 1 21 23 -11 11 23 1 2 0.31118392D+00 0.92310233D-01 0.10729863D+07 0.10729863D+07 0.10729863D+07 0.10458335D+01  1  2  5  4  7  2       -1 -.171288739540D-03 0.100000000000D+01
  </mgrwgt>
  </event>
  <event>
  8     66 0.25924217E-05 0.18434914E+03 0.75467711E-02 0.96676910E-01
        3 -1    0    0  501    0 0.00000000E+00 0.00000000E+00 0.57204185E+03 0.57204207E+03 0.50000000E+00 0.0000E+00 0.9000E+01
       -3 -1    0    0    0  501 0.00000000E+00 0.00000000E+00 -.39258997E+03 0.39259028E+03 0.50000000E+00 0.0000E+00 0.9000E+01
       25  2    1    2    0    0 0.17628438E+03 -.28498912E+03 0.35771171E+03 0.57426484E+03 0.29921138E+03 0.0000E+00 0.0000E+00
       23  2    3    3    0    0 -.11700054E+02 -.20718022E+03 0.17498439E+03 0.28599951E+03 0.90086888E+02 0.0000E+00 0.0000E+00
       23  1    1    2    0    0 -.17628438E+03 0.28498912E+03 -.17825983E+03 0.39036752E+03 0.91188000E+02 0.0000E+00 0.9000E+01
      -13  1    4    4    0    0 0.14306488E+02 -.19451950E+03 0.13743870E+03 0.23860410E+03 0.10565837E+00 0.0000E+00 0.9000E+01
       13  1    4    4    0    0 -.26006543E+02 -.12660719E+02 0.37545697E+02 0.47395407E+02 0.10565837E+00 0.0000E+00 0.9000E+01
       23  1    3    3    0    0 0.18798443E+03 -.77808906E+02 0.18272732E+03 0.28826533E+03 0.91188000E+02 0.0000E+00 0.9000E+01
#aMCatNLO 1  0  0  1  2 0.41585431D+02 0.00000000D+00  -5  7  0 0.00000000D+00 0.00000000D+00 0.00000000D+00 0.00000000D+00 0.00000000D+00
  <mgrwgt>
 0.3752102750D-04    9    2    0
 0.473896771511917D+03 0.000000000000000D+00 0.000000000000000D+00 0.473896771511917D+03
 0.473896771511917D+03 0.000000000000000D+00 0.000000000000000D+00 -.473896771511917D+03
 0.431054004282063D+03 -.176284379722290D+03 0.284989124282128D+03 -.255337658347596D+03
 0.216821305080021D+03 0.143065436229181D+02 -.194519749772510D+03 0.947041081189662D+02
 0.411284377935841D+02 -.260065979799738D+02 -.126604685284940D+02 0.292389772989369D+02
 0.258789795868167D+03 0.187984434079345D+03 -.778089059811236D+02 0.131394572929693D+03
 0.000000000000000D+00 -.000000000000000D+00 -.000000000000000D+00 0.000000000000000D+00
 0.498515810417054D+03 0.000000000000000D+00 0.000000000000000D+00 0.498515810417054D+03
 0.492245146459171D+03 0.000000000000000D+00 0.000000000000000D+00 -.492245146459171D+03
 0.442135342356749D+03 -.172384449037282D+03 0.303734574219989D+03 -.255337658347596D+03
 0.208801925290118D+03 0.162075071456203D+02 -.185382557492272D+03 0.947041081189662D+02
 0.403917423180194D+02 -.256425039228391D+02 -.109104100090105D+02 0.292389772989369D+02
 0.257376396518116D+03 0.190289790162765D+03 -.667279559486494D+02 0.131394572929693D+03
 0.420555503932242D+02 -.847034434826386D+01 -.407136507700571D+02 0.627066395788264D+01
0.158061093282D-04 0.000000000000D+00 0.000000000000D+00 0.307750095230D-06 0.000000000000D+00  7 3 -3 23 -13 13 23 21 0 0.88006480D-01 0.60398497D-01 0.15769303D+06 0.15769303D+06 0.15769303D+06 0.11058419D+01  1  2  2  1  7  1        3 0.211537112546D-04 0.100000000000D+01
-.844748941750D-06 0.000000000000D+00 -.606996216645D-07 0.307750095230D-06 0.000000000000D+00  7 3 -3 23 -13 13 23 21 2 0.88006480D-01 0.60398497D-01 0.15769303D+06 0.15769303D+06 0.15769303D+06 0.11058419D+01  1  2  3  1  7  1        3 -.138253232229D-05 0.100000000000D+01
0.103231344943D-05 0.000000000000D+00 0.000000000000D+00 0.307750095230D-06 0.000000000000D+00  7 3 -3 23 -13 13 23 21 2 0.88006480D-01 0.60398497D-01 0.15769303D+06 0.15769303D+06 0.15769303D+06 0.11058419D+01  1  2 15  1  7  1        3 0.168950399347D-05 0.100000000000D+01
0.358834628458D-04 0.000000000000D+00 0.000000000000D+00 0.307750095230D-06 0.000000000000D+00  7 3 -3 23 -13 13 23 21 2 0.94205315D-01 0.60398497D-01 0.17547894D+06 0.17547894D+06 0.17547894D+06 0.11022150D+01  1  2 12  1  7  1        3 0.497082049644D-04 0.100000000000D+01
-.305600909537D-04 0.000000000000D+00 0.000000000000D+00 0.307750095230D-06 0.000000000000D+00  7 3 -3 23 -13 13 23 21 2 0.88006480D-01 0.60398497D-01 0.15769303D+06 0.15769303D+06 0.15769303D+06 0.11058419D+01  1  2  4  1  7  1        3 -.500152310672D-04 0.100000000000D+01
-.131229227372D-03 0.000000000000D+00 -.255637118020D-04 0.307750095230D-06 0.000000000000D+00  7 3 -3 23 -13 13 23 21 2 0.95467925D-01 0.60398497D-01 0.15769303D+06 0.15769303D+06 0.15769303D+06 0.11058419D+01  1  2  5  1  7  1        3 -.177631759463D-03 0.100000000000D+01
0.132953518752D-03 0.000000000000D+00 0.254792945599D-04 0.307750095230D-06 0.000000000000D+00  7 3 -3 23 -13 13 23 21 2 0.88006480D-01 0.60398497D-01 0.15769303D+06 0.15769303D+06 0.15769303D+06 0.11058419D+01  1  2  6  1  7  1        3 0.217594279143D-03 0.100000000000D+01
0.427964989803D-06 0.000000000000D+00 0.000000000000D+00 0.307750095230D-06 0.000000000000D+00  7 21 -3 23 -13 13 23 -3 2 0.94205315D-01 0.60398497D-01 0.17547894D+06 0.17547894D+06 0.17547894D+06 0.11022150D+01  1  2 12  3  7  1        3 0.802466039554D-05 0.100000000000D+01
-.172240545522D-05 0.000000000000D+00 -.346674504961D-06 0.307750095230D-06 0.000000000000D+00  7 21 -3 23 -13 13 23 -3 2 0.95467925D-01 0.60398497D-01 0.15769303D+06 0.15769303D+06 0.15769303D+06 0.11058419D+01  1  2  5  3  7  1        3 -.316198094026D-04 0.100000000000D+01
  </mgrwgt>
  </event>
  <event>
  9     66 0.25924217E-05 0.17894380E+03 0.75467711E-02 0.10398138E+00
        1 -1    0    0  501    0 0.00000000E+00 0.00000000E+00 0.21780755E+03 0.21780779E+03 0.32000000E+00 0.0000E+00 0.9000E+01
       -1 -1    0    0    0  502 0.00000000E+00 0.00000000E+00 -.32742683E+03 0.32742699E+03 0.32000000E+00 0.0000E+00 0.9000E+01
       25  2    1    2    0    0 -.23602170E+02 -.11533145E+02 -.11708338E+03 0.32651446E+03 0.30366609E+03 0.0000E+00 0.0000E+00
       23  2    3    3    0    0 -.10953063E+03 -.54890322E+02 -.11722372E+03 0.19392933E+03 0.94113111E+02 0.0000E+00 0.0000E+00
       23  1    1    2    0    0 -.75262282E+02 0.39495099E+01 0.15137624E+02 0.11926613E+03 0.91188000E+02 0.0000E+00 0.9000E+01
      -11  1    4    4    0    0 -.10949947E+03 -.54955295E+02 -.13145611E+03 0.17969677E+03 0.51099893E-03 0.0000E+00 0.9000E+01
       11  1    4    4    0    0 -.31153942E-01 0.64973165E-01 0.14232383E+02 0.14232565E+02 0.51099893E-03 0.0000E+00 0.9000E+01
       23  1    3    3    0    0 0.85928459E+02 0.43357177E+02 0.14034271E+00 0.13258513E+03 0.91188000E+02 0.0000E+00 0.9000E+01
       21  1    1    2  501  502 0.98864452E+02 0.75836355E+01 -.76735251E+01 0.99454194E+02 0.75000000E+00 0.0000E+00 0.9000E+01
#aMCatNLO 2  0  0  2  2 0.99154885D+02 0.00000000D+00  -5  7  0 0.00000000D+00 0.00000000D+00 0.00000000D+00 0.00000000D+00 0.00000000D+00
  <mgrwgt>
 0.5556508976D-04    1    2    0
 0.211243757033413D+03 0.000000000000000D+00 0.000000000000000D+00 0.211243757033413D+03
 0.211243757033413D+03 0.000000000000000D+00 0.000000000000000D+00 -.211243757033413D+03
 0.111953441396942D+03 -.477862940348558D+02 0.605712419326847D+01 0.435672244415485D+02
 0.131273861675896D+03 -.766027808741943D+02 -.524318735499194D+02 -.928210070926170D+02
 0.184453849887552D+02 0.417168332861944D+01 0.387362065742971D+00 0.179632746518873D+02
 0.160814826005233D+03 0.120217391580431D+03 0.459873872909080D+02 0.312905079991812D+02
 0.000000000000000D+00 0.000000000000000D+00 0.000000000000000D+00 0.000000000000000D+00
 0.274902011766224D+03 0.000000000000000D+00 0.000000000000000D+00 0.274902011766224D+03
 0.259421137034406D+03 0.000000000000000D+00 0.000000000000000D+00 -.259421137034406D+03
 0.126068895328699D+03 -.752622969362220D+02 0.394951132954769D+01 0.435672244415485D+02
 0.153707371247925D+03 -.109499463136730D+03 -.549552926571000D+02 -.928210070926170D+02
 0.179634191666842D+02 -.311508354834373D-01 0.649735662167929D-01 0.179632746518873D+02
 0.136227353159179D+03 0.859284593364078D+02 0.433571723014796D+02 0.312905079991812D+02
 0.100356109898143D+03 0.988644515720279D+02 0.758363545985596D+01 0.154808747318182D+02
0.652863383864D-06 0.000000000000D+00 0.000000000000D+00 0.684906607400D-09 0.511533149324D-12  7 1 -1 23 -11 11 23 21 2 0.33508708D-01 0.50373124D-01 0.55844722D+05 0.55844722D+05 0.55844722D+05 0.11430961D+01  1  2  1  2  7  2       -1 0.555650897556D-04 0.100000000000D+01
  </mgrwgt>
  </event>
  <event>
  9     66 -.25924217E-05 0.27509343E+03 0.75467711E-02 0.10130053E+00
        1 -1    0    0  501    0 0.00000000E+00 0.00000000E+00 0.10176630E+04 0.10176631E+04 0.32000000E+00 0.0000E+00 0.9000E+01
       -1 -1    0    0    0  502 0.00000000E+00 0.00000000E+00 -.97365743E+02 0.97366269E+02 0.32000000E+00 0.0000E+00 0.9000E+01
       25  2    1    2    0    0 0.10417884E+03 -.18582917E+03 0.39905748E+03 0.54267263E+03 0.29976825E+03 0.0000E+00 0.0000E+00
       23  2    3    3    0    0 0.14316968E+03 -.18674971E+03 0.20666284E+03 0.32621922E+03 0.91304080E+02 0.0000E+00 0.0000E+00
       23  1    1    2    0    0 -.83594574E+02 0.16984248E+03 0.47141105E+03 0.51611835E+03 0.91188000E+02 0.0000E+00 0.9000E+01
      -11  1    4    4    0    0 0.40748911E+02 -.99629608E+02 0.46930418E+02 0.11742656E+03 0.51099893E-03 0.0000E+00 0.9000E+01
       11  1    4    4    0    0 0.10242077E+03 -.87120101E+02 0.15973243E+03 0.20879266E+03 0.51099893E-03 0.0000E+00 0.9000E+01
       23  1    3    3    0    0 -.38990841E+02 0.92054063E+00 0.19239464E+03 0.21645342E+03 0.91188000E+02 0.0000E+00 0.9000E+01
       21  1    1    2  501  502 -.20584270E+02 0.15986683E+02 0.49828740E+02 0.56238350E+02 0.75000000E+00 0.0000E+00 0.9000E+01
#aMCatNLO 2  0  0  2  1 0.26063119D+02 0.00000000D+00  -5  7  0 0.00000000D+00 0.00000000D+00 0.00000000D+00 0.00000000D+00 0.00000000D+00
  <mgrwgt>
 -.1646478432D-03    3    2    0
 0.301099483853658D+03 0.000000000000000D+00 0.000000000000000D+00 0.301099483853658D+03
 0.301099483853658D+03 0.000000000000000D+00 0.000000000000000D+00 -.301099483853658D+03
 0.233392832289589D+03 -.914391896412162D+02 0.175934971633482D+03 0.827207541928859D+02
 0.134585411569924D+03 0.360839246239757D+02 -.960065662725832D+02 -.871431157563529D+02
 0.130396631193534D+03 0.978685224064753D+02 -.835846149444453D+02 -.209438748369175D+02
 0.103824092654270D+03 -.425132573892349D+02 0.365620958354647D+01 0.253662364003845D+02
 0.000000000000000D+00 -.000000000000000D+00 0.000000000000000D+00 0.000000000000000D+00
 0.317945430972351D+03 0.000000000000000D+00 0.000000000000000D+00 0.317945430972351D+03
 0.311633754664262D+03 0.000000000000000D+00 0.000000000000000D+00 -.311633754664262D+03
 0.225815183223076D+03 -.835945737192543D+02 0.169842484969244D+03 0.827207541928859D+02
 0.138493520336754D+03 0.407489114378402D+02 -.996296078892861D+02 -.871431157563529D+02
 0.136082962251487D+03 0.102420773218742D+03 -.871201006383154D+02 -.209438748369175D+02
 0.102371042798043D+03 -.389908414296736D+02 0.920540626262294D+00 0.253662364003845D+02
 0.268164770272531D+02 -.205842695076540D+02 0.159866829320957D+02 0.631167630808959D+01
-.541554519614D-05 0.000000000000D+00 0.000000000000D+00 0.365110654196D-06 0.000000000000D+00  7 1 -1 23 -11 11 23 21 2 0.14826578D+00 0.15366387D-01 0.83365740D+05 0.83365740D+05 0.83365740D+05 0.11282642D+01  1  2 13  2  7  2       -1 -.399217132208D-03 0.100000000000D+01
-.104828052596D-06 0.000000000000D+00 0.000000000000D+00 0.365110654196D-06 0.000000000000D+00  7 1 -1 23 -11 11 23 21 2 0.14826578D+00 0.14472794D-01 0.75676397D+05 0.75676397D+05 0.75676397D+05 0.11317922D+01  1  2  8  2  7  2       -1 -.854925384188D-05 0.100000000000D+01
0.347994488290D-05 0.000000000000D+00 0.000000000000D+00 0.365110654196D-06 0.366075164065D-08  7 1 -1 23 -11 11 23 21 2 0.15656097D+00 0.14979139D-01 0.83365740D+05 0.83365740D+05 0.83365740D+05 0.11282642D+01  1  2  1  2  7  2       -1 0.243118542819D-03 0.100000000000D+01
  </mgrwgt>
  </event>
  <event>
  8     66 0.25924217E-05 0.22978253E+03 0.75467711E-02 0.10085738E+00
        1 -1    0    0  501    0 0.00000000E+00 0.00000000E+00 0.25029099E+03 0.25029120E+03 0.32000000E+00 0.0000E+00 0.9000E+01
       -1 -1    0    0    0  501 0.00000000E+00 0.00000000E+00 -.32878549E+03 0.32878564E+03 0.32000000E+00 0.0000E+00 0.9000E+01
       25  2    1    2    0    0 0.14237070E+02 -.15108008E+03 0.74355295E+02 0.34518329E+03 0.30098988E+03 0.0000E+00 0.0000E+00
       23  2    3    3    0    0 0.73336912E+02 -.14097393E+03 -.40123482E+02 0.18702019E+03 0.90081658E+02 0.0000E+00 0.0000E+00
       23  1    1    2    0    0 -.14237070E+02 0.15108008E+03 -.15284979E+03 0.23389355E+03 0.91188000E+02 0.0000E+00 0.9000E+01
      -11  1    4    4    0    0 0.62408821E+02 -.45352061E+02 0.11184851E+02 0.77953648E+02 0.51099893E-03 0.0000E+00 0.9000E+01
       11  1    4    4    0    0 0.10928091E+02 -.95621866E+02 -.51308333E+02 0.10906654E+03 0.51099893E-03 0.0000E+00 0.9000E+01
       23  1    3    3    0    0 -.59099843E+02 -.10106153E+02 0.11447878E+03 0.15816310E+03 0.91188000E+02 0.0000E+00 0.9000E+01
#aMCatNLO 1  0  0  2  2 0.11898693D+03 0.00000000D+00  -5  7  0 0.00000000D+00 0.00000000D+00 0.00000000D+00 0.00000000D+00 0.00000000D+00
  <mgrwgt>
 0.1273143473D-03    4    2    0
 0.286866085402885D+03 0.000000000000000D+00 0.000000000000000D+00 0.286866085402885D+03
 0.286866085402885D+03 0.000000000000000D+00 0.000000000000000D+00 -.286866085402885D+03
 0.215160452340424D+03 -.142370696074162D+02 0.151080080289321D+03 -.122273807890740D+03
 0.802100768510279D+02 0.624088209718039D+02 -.453520606370764D+02 0.219541815909428D+02
 0.103062870233120D+03 0.109280911778457D+02 -.956218662735687D+02 -.368644915095446D+02
 0.175298771381198D+03 -.590998425422335D+02 -.101061533786763D+02 0.137184117809342D+03
 0.000000000000000D+00 0.000000000000000D+00 0.000000000000000D+00 0.000000000000000D+00
 0.353056551355472D+03 0.000000000000000D+00 0.000000000000000D+00 0.353056551355472D+03
 0.351876915773172D+03 0.000000000000000D+00 0.000000000000000D+00 -.351876915773172D+03
 0.208049745750824D+03 -.528628430076118D+02 0.131240546692071D+03 -.122273807890740D+03
 0.747010787422278D+02 0.482703072495579D+02 -.526140904507310D+02 0.219541815909428D+02
 0.112300592183665D+03 -.872781582891007D+01 -.105717820169549D+03 -.368644915095446D+02
 0.190889274095345D+03 -.925212877962249D+02 -.272725639800982D+02 0.137184117809342D+03
 0.118992776356583D+03 0.105841639383189D+03 0.543639279083077D+02 0.117963558229992D+01
0.461573844868D-05 0.000000000000D+00 0.000000000000D+00 0.563596528695D-07 0.000000000000D+00  7 1 -1 23 -11 11 23 21 0 0.38506334D-01 0.50582411D-01 0.52800009D+05 0.52800009D+05 0.52800009D+05 0.11452197D+01  1  2  2  2  7  2       -1 0.249531803556D-03 0.100000000000D+01
-.241080384818D-06 0.000000000000D+00 -.177256509948D-07 0.563596528695D-07 0.000000000000D+00  7 1 -1 23 -11 11 23 21 2 0.38506334D-01 0.50582411D-01 0.52800009D+05 0.52800009D+05 0.52800009D+05 0.11452197D+01  1  2  3  2  7  2       -1 -.170932333393D-04 0.100000000000D+01
0.297803095530D-06 0.000000000000D+00 0.000000000000D+00 0.563596528695D-07 0.000000000000D+00  7 1 -1 23 -11 11 23 21 2 0.38506334D-01 0.50582411D-01 0.52800009D+05 0.52800009D+05 0.52800009D+05 0.11452197D+01  1  2 15  2  7  2       -1 0.211150227128D-04 0.100000000000D+01
-.178045927927D-05 0.000000000000D+00 0.000000000000D+00 0.563596528695D-07 0.000000000000D+00  7 1 -1 23 -11 11 23 21 2 0.38506334D-01 0.50582411D-01 0.52800009D+05 0.52800009D+05 0.52800009D+05 0.11452197D+01  1  2  4  2  7  2       -1 -.126239245614D-03 0.100000000000D+01
  </mgrwgt>
  </event>
  <event>
  8     66 0.25924217E-05 0.13471786E+03 0.75467711E-02 0.10356847E+00
        1 -1    0    0  501    0 0.00000000E+00 0.00000000E+00 0.39486428E+03 0.39486441E+03 0.32000000E+00 0.0000E+00 0.9000E+01
       -1 -1    0    0    0  501 0.00000000E+00 0.00000000E+00 -.12883841E+04 0.12883841E+04 0.32000000E+00 0.0000E+00 0.9000E+01
       25  2    1    2    0    0 -.11032478E+03 -.37613320E+02 0.32402981E+03 0.45673777E+03 0.30004625E+03 0.0000E+00 0.0000E+00
       23  2    3    3    0    0 -.17227689E+03 0.23473396E+02 0.21042659E+03 0.28705986E+03 0.88846398E+02 0.0000E+00 0.0000E+00
       23  1    1    2    0    0 0.11032478E+03 0.37613320E+02 -.12175496E+04 0.12265108E+04 0.91188000E+02 0.0000E+00 0.9000E+01
      -11  1    4    4    0    0 -.96444896E+01 0.12560461E+02 0.70446534E+02 0.72204540E+02 0.51099893E-03 0.0000E+00 0.9000E+01
       11  1    4    4    0    0 -.16263240E+03 0.10912935E+02 0.13998006E+03 0.21485532E+03 0.51099893E-03 0.0000E+00 0.9000E+01
       23  1    3    3    0    0 0.61952114E+02 -.61086716E+02 0.11360322E+03 0.16967791E+03 0.91188000E+02 0.0000E+00 0.9000E+01
#aMCatNLO 1  0  0  2  1 0.38233816D+02 0.00000000D+00  -5  7  0 0.00000000D+00 0.00000000D+00 0.00000000D+00 0.00000000D+00 0.00000000D+00
  <mgrwgt>
 0.5159772333D-03    9    2    0
 0.713258018629848D+03 0.000000000000000D+00 0.000000000000000D+00 0.713258018629848D+03
 0.713258018629848D+03 0.000000000000000D+00 0.000000000000000D+00 -.713258018629848D+03
 0.684617435847715D+03 0.110324778798654D+03 0.376133198296899D+02 -.668430597352573D+03
 0.129324562571935D+03 -.964448961181365D+01 0.125604605406762D+02 0.128351319181207D+03
 0.341201817321718D+03 -.162632403113430D+03 0.109129354860599D+02 0.299750378549004D+03
 0.271372221518328D+03 0.619521139265890D+02 -.610867158564260D+02 0.240328899622363D+03
 0.000000000000000D+00 0.000000000000000D+00 0.000000000000000D+00 -.000000000000000D+00
 0.723094945075111D+03 0.000000000000000D+00 0.000000000000000D+00 0.723094945075111D+03
 0.751658862850845D+03 0.000000000000000D+00 0.000000000000000D+00 -.751658862850845D+03
 0.683245190844824D+03 0.106399004130298D+03 0.197111113726180D+02 -.668430597352573D+03
 0.129097539733452D+03 -.103861627324741D+02 0.917830340361618D+01 0.128351319181207D+03
 0.341972325614063D+03 -.164593117363587D+03 0.197174089483802D+01 0.299750378549004D+03
 0.272713264918407D+03 0.603905850285897D+02 -.682075565070765D+02 0.240328899622363D+03
 0.477254868152104D+02 0.818969093717309D+01 0.373464008360043D+02 -.285639177757341D+02
0.187526745825D-03 0.000000000000D+00 0.000000000000D+00 0.162109439060D-05 0.000000000000D+00  7 1 -1 23 -11 11 23 21 0 0.60748363D-01 0.19821295D+00 0.51270844D+05 0.51270844D+05 0.51270844D+05 0.11463378D+01  1  2  2  2  7  2       -1 0.226104674707D-03 0.100000000000D+01
0.625836197779D-05 0.000000000000D+00 -.720152080894D-06 0.162109439060D-05 0.000000000000D+00  7 1 -1 23 -11 11 23 21 2 0.60748363D-01 0.19821295D+00 0.51270844D+05 0.51270844D+05 0.51270844D+05 0.11463378D+01  1  2  3  2  7  2       -1 0.991590245380D-05 0.100000000000D+01
0.112941410858D-04 0.000000000000D+00 0.000000000000D+00 0.162109439060D-05 0.000000000000D+00  7 1 -1 23 -11 11 23 21 2 0.60748363D-01 0.19821295D+00 0.51270844D+05 0.51270844D+05 0.51270844D+05 0.11463378D+01  1  2 15  2  7  2       -1 0.178947145761D-04 0.100000000000D+01
0.697216012430D-03 0.000000000000D+00 0.000000000000D+00 0.162109439060D-05 0.000000000000D+00  7 1 -1 23 -11 11 23 21 2 0.60748363D-01 0.21020309D+00 0.59317751D+05 0.59317751D+05 0.59317751D+05 0.11408242D+01  1  2 12  2  7  2       -1 0.870766054658D-03 0.100000000000D+01
-.704259106196D-03 0.000000000000D+00 0.000000000000D+00 0.162109439060D-05 0.000000000000D+00  7 1 -1 23 -11 11 23 21 2 0.60748363D-01 0.19821295D+00 0.51270844D+05 0.51270844D+05 0.51270844D+05 0.11463378D+01  1  2  4  2  7  2       -1 -.111584542793D-02 0.100000000000D+01
-.175397933344D-02 0.000000000000D+00 -.345644161413D-03 0.162109439060D-05 0.000000000000D+00  7 1 -1 23 -11 11 23 21 2 0.60748363D-01 0.21032748D+00 0.51270844D+05 0.51270844D+05 0.51270844D+05 0.11463378D+01  1  2  5  2  7  2       -1 -.222727822180D-02 0.100000000000D+01
0.177197259780D-02 0.000000000000D+00 0.345036837548D-03 0.162109439060D-05 0.000000000000D+00  7 1 -1 23 -11 11 23 21 2 0.60748363D-01 0.19821295D+00 0.51270844D+05 0.51270844D+05 0.51270844D+05 0.11463378D+01  1  2  6  2  7  2       -1 0.280755691233D-02 0.100000000000D+01
0.927472545809D-05 0.000000000000D+00 0.000000000000D+00 0.162109439060D-05 0.000000000000D+00  7 1 21 23 -11 11 23 1 2 0.60748363D-01 0.21020309D+00 0.59317751D+05 0.59317751D+05 0.59317751D+05 0.11408242D+01  1  2 12  4  7  2       -1 0.791854606396D-04 0.100000000000D+01
-.174635333070D-04 0.000000000000D+00 -.352478377551D-05 0.162109439060D-05 0.000000000000D+00  7 1 21 23 -11 11 23 1 2 0.60748363D-01 0.21032748D+00 0.51270844D+05 0.51270844D+05 0.51270844D+05 0.11463378D+01  1  2  5  4  7  2       -1 -.152322836336D-03 0.100000000000D+01
  </mgrwgt>
  </event>
  <event>
  8     66 0.25924217E-05 0.20905908E+03 0.75467711E-02 0.98926010E-01
        1 -1    0    0  501    0 0.00000000E+00 0.00000000E+00 0.76875528E+03 0.76875535E+03 0.32000000E+00 0.0000E+00 0.9000E+01
       -1 -1    0    0    0  501 0.00000000E+00 0.00000000E+00 -.66709812E+02 0.66710579E+02 0.32000000E+00 0.0000E+00 0.9000E+01
       25  2    1    2    0    0 0.54780815E+02 0.36973708E+02 0.35040856E+03 0.46623462E+03 0.30036739E+03 0.0000E+00 0.0000E+00
       23  2    3    3    0    0 0.10688495E+03 -.67971076E+02 0.20677981E+03 0.25966086E+03 0.92851563E+02 0.0000E+00 0.0000E+00
       23  1    1    2    0    0 -.54780815E+02 -.36973708E+02 0.35163691E+03 0.36923131E+03 0.91188000E+02 0.0000E+00 0.9000E+01
      -11  1    4    4    0    0 0.11409174E+03 -.29440540E+02 0.15718962E+03 0.19644910E+03 0.51099893E-03 0.0000E+00 0.9000E+01
       11  1    4    4    0    0 -.72067925E+01 -.38530536E+02 0.49590191E+02 0.63211764E+02 0.51099893E-03 0.0000E+00 0.9000E+01
       23  1    3    3    0    0 -.52104133E+02 0.10494478E+03 0.14362875E+03 0.20657376E+03 0.91188000E+02 0.0000E+00 0.9000E+01
#aMCatNLO 1  0  0  1  1 0.21976997D+03 0.00000000D+00  -5  7  0 0.00000000D+00 0.00000000D+00 0.00000000D+00 0.00000000D+00 0.00000000D+00
  <mgrwgt>
 0.3481171109D-03    3    2    0
 0.226459419261478D+03 0.000000000000000D+00 0.000000000000000D+00 0.226459419261478D+03
 0.226459419261478D+03 0.000000000000000D+00 0.000000000000000D+00 -.226459419261478D+03
 0.136040000926706D+03 -.547808146916866D+02 -.369737084522947D+02 0.763127625835814D+02
 0.118723843579414D+03 0.114091740346856D+03 -.294405399869298D+02 -.145492413607263D+02
 0.397349474947204D+02 -.720679246309893D+01 -.385305363391136D+02 -.650584077750556D+01
 0.158420046522115D+03 -.521041331920709D+02 0.104944784778338D+03 -.552576804453495D+02
 0.000000000000000D+00 0.000000000000000D+00 -.000000000000000D+00 -.000000000000000D+00
 0.309763771396901D+03 0.000000000000000D+00 0.000000000000000D+00 0.309763771396901D+03
 0.459707782750091D+03 0.000000000000000D+00 0.000000000000000D+00 -.459707782750091D+03
 0.169615222475536D+03 -.120374452111307D+03 -.118501433404878D+02 0.763127625835814D+02
 0.751544588019825D+02 0.724854398610276D+02 -.135045644801888D+02 -.145492413607263D+02
 0.407440531944035D+02 -.244775929825087D+02 -.319155032588986D+02 -.650584077750556D+01
 0.217908865242328D+03 -.132864350256354D+03 0.135877427816232D+03 -.552576804453495D+02
 0.266048954432743D+03 0.205230955489142D+03 -.786072167366573D+02 -.149944011353190D+03
0.222369863548D-05 0.000000000000D+00 0.000000000000D+00 0.578071639986D-07 0.000000000000D+00  7 1 -1 23 -11 11 23 21 0 0.11827011D+00 0.10263112D-01 0.43705699D+05 0.43705699D+05 0.43705699D+05 0.11524708D+01  1  2  2  1  7  1        1 0.346250777299D-03 0.100000000000D+01
-.122578728220D-06 0.000000000000D+00 -.853958827356D-08 0.578071639986D-07 0.000000000000D+00  7 1 -1 23 -11 11 23 21 2 0.11827011D+00 0.10263112D-01 0.43705699D+05 0.43705699D+05 0.43705699D+05 0.11524708D+01  1  2  3  1  7  1        1 -.253506897467D-04 0.100000000000D+01
0.131603050800D-06 0.000000000000D+00 0.000000000000D+00 0.578071639986D-07 0.000000000000D+00  7 1 -1 23 -11 11 23 21 2 0.11827011D+00 0.10263112D-01 0.43705699D+05 0.43705699D+05 0.43705699D+05 0.11524708D+01  1  2 15  1  7  1        1 0.272170233693D-04 0.100000000000D+01
  </mgrwgt>
  </event>
  <event>
  9     66 0.25924217E-05 0.21148042E+03 0.75467711E-02 0.99781256E-01
        1 -1    0    0  502    0 0.00000000E+00 0.00000000E+00 0.10885327E+04 0.10885328E+04 0.32000000E+00 0.0000E+00 0.9000E+01
       -1 -1    0    0    0  501 0.00000000E+00 0.00000000E+00 -.25676189E+03 0.25676209E+03 0.32000000E+00 0.0000E+00 0.9000E+01
       25  2    1    2    0    0 0.11027297E+03 0.61873347E+01 -.98132683E+02 0.33302544E+03 0.29845855E+03 0.0000E+00 0.0000E+00
       23  2    3    3    0    0 0.11378063E+03 -.34924385E+02 -.15660100E+03 0.21711050E+03 0.91909498E+02 0.0000E+00 0.0000E+00
       23  1    1    2    0    0 -.61067171E+02 0.17791748E+03 0.50753527E+03 0.54889993E+03 0.91188000E+02 0.0000E+00 0.9000E+01
      -13  1    4    4    0    0 0.12390086E+03 -.48809624E+02 -.13996586E+03 0.19319486E+03 0.10565837E+00 0.0000E+00 0.9000E+01
       13  1    4    4    0    0 -.10120233E+02 0.13885239E+02 -.16635136E+02 0.23915641E+02 0.10565837E+00 0.0000E+00 0.9000E+01
       23  1    3    3    0    0 -.35076569E+01 0.41111720E+02 0.58468313E+02 0.11591493E+03 0.91188000E+02 0.0000E+00 0.9000E+01
       21  1    1    2  502  501 -.49205797E+02 -.18410481E+03 0.42236826E+03 0.46336951E+03 0.75000000E+00 0.0000E+00 0.9000E+01
#aMCatNLO 2  0  0  1  2 0.19056703D+03 0.00000000D+00  -5  7  0 0.00000000D+00 0.00000000D+00 0.00000000D+00 0.00000000D+00 0.00000000D+00
  <mgrwgt>
 0.1800806810D-03    2    2    0
 0.378769745796811D+03 0.000000000000000D+00 0.000000000000000D+00 0.378769745796811D+03
 0.378769745796811D+03 0.000000000000000D+00 0.000000000000000D+00 -.378769745796811D+03
 0.325464104218159D+03 -.827868261218832D+02 0.966528040398795D+02 0.285335256641065D+03
 0.304374299348195D+03 0.104846126673230D+03 -.120104158144444D+03 -.259279762075138D+03
 0.341152416969268D+02 -.123536710573030D+02 0.552951511485127D+01 -.313155071816236D+02
 0.935858463303407D+02 -.970562949404416D+01 0.179218389897132D+02 0.526001261569641D+01
 0.000000000000000D+00 -.000000000000000D+00 -.000000000000000D+00 0.000000000000000D+00
 0.658467271583923D+03 0.000000000000000D+00 0.000000000000000D+00 0.658467271583923D+03
 0.424460445412875D+03 0.000000000000000D+00 0.000000000000000D+00 -.424460445412875D+03
 0.353716394353780D+03 -.610671711230809D+02 0.177917475868001D+03 0.285335256641065D+03
 0.291478728264179D+03 0.123901035076732D+03 -.488097071869662D+02 -.259279762075138D+03
 0.357195443400639D+02 -.101204098508522D+02 0.138853218281120D+02 -.313155071816236D+02
 0.100226724251828D+03 -.350765682503080D+01 0.411117199972527D+02 0.526001261569641D+01
 0.301786325786947D+03 -.492057972777678D+02 -.184104810506400D+03 0.234006826171048D+03
-.217506337228D-06 0.000000000000D+00 0.000000000000D+00 0.147920785858D-06 0.000000000000D+00  7 1 -1 23 -13 13 23 21 2 0.16958139D+00 0.35249667D-01 0.10564109D+06 0.10564109D+06 0.10564109D+06 0.11197715D+01  1  2 13  1  7  1        1 -.321036354840D-05 0.100000000000D+01
0.147554684637D-04 0.000000000000D+00 0.000000000000D+00 0.147920785858D-06 0.303740631288D-10  7 1 -1 23 -13 13 23 21 2 0.16746642D+00 0.39501807D-01 0.10564109D+06 0.10564109D+06 0.10564109D+06 0.11197715D+01  1  2  1  1  7  1        1 0.183291044536D-03 0.100000000000D+01
  </mgrwgt>
  </event>
  <event>
  9     66 0.25924217E-05 0.18757510E+03 0.75467711E-02 0.10460823E+00
        1 -1    0    0  501    0 0.00000000E+00 0.00000000E+00 0.15498873E+03 0.15498906E+03 0.32000000E+00 0.0000E+00 0.9000E+01
       -1 -1    0    0    0  502 0.00000000E+00 0.00000000E+00 -.56103678E+03 0.56103687E+03 0.32000000E+00 0.0000E+00 0.9000E+01
       25  2    1    2    0    0 0.91674181E+02 -.19936915E+02 -.63315614E+02 0.32228475E+03 0.30175645E+03 0.0000E+00 0.0000E+00
       23  2    3    3    0    0 -.11502181E+02 -.10129077E+03 0.25305864E+02 0.13943829E+03 0.91708929E+02 0.0000E+00 0.0000E+00
       23  1    1    2    0    0 -.46014752E+02 -.27672432E+02 -.11338821E+03 0.15509758E+03 0.91188000E+02 0.0000E+00 0.9000E+01
      -11  1    4    4    0    0 0.25990348E+02 -.50904391E+02 0.45940852E+02 0.73330192E+02 0.51099893E-03 0.0000E+00 0.9000E+01
       11  1    4    4    0    0 -.37492529E+02 -.50386382E+02 -.20634988E+02 0.66108093E+02 0.51099893E-03 0.0000E+00 0.9000E+01
       23  1    3    3    0    0 0.10317636E+03 0.81353858E+02 -.88621478E+02 0.18284646E+03 0.91188000E+02 0.0000E+00 0.9000E+01
       21  1    1    2  501  502 -.45659430E+02 0.47609347E+02 -.22934422E+03 0.23864360E+03 0.75000000E+00 0.0000E+00 0.9000E+01
#aMCatNLO 2  0  0  2  1 0.65965396D+02 0.00000000D+00  -5  7  0 0.00000000D+00 0.00000000D+00 0.00000000D+00 0.00000000D+00 0.00000000D+00
  <mgrwgt>
 0.2918854439D-04    2    2    0
 0.219270501664127D+03 0.000000000000000D+00 0.000000000000000D+00 0.219270501664127D+03
 0.219270501664127D+03 0.000000000000000D+00 0.000000000000000D+00 -.219270501664127D+03
 0.124933023637706D+03 -.587861941085153D+02 -.143555773743785D+02 -.602586909229177D+02
 0.901038499257623D+02 0.162919748263976D+02 -.407918406557275D+02 0.786721110916572D+02
 0.620821734179980D+02 -.439646018507947D+02 -.436379144243999D+02 0.412825206258317D+01
 0.161421956346789D+03 0.864588211329124D+02 0.987853324545060D+02 -.225416722313227D+02
 0.000000000000000D+00 -.000000000000000D+00 0.000000000000000D+00 -.000000000000000D+00
 0.228594315872022D+03 0.000000000000000D+00 0.000000000000000D+00 0.228594315872022D+03
 0.380385219027576D+03 0.000000000000000D+00 0.000000000000000D+00 -.380385219027576D+03
 0.121776361124101D+03 -.460147523789171D+02 -.276724324263461D+02 -.602586909229177D+02
 0.972422555107341D+02 0.259903487701350D+02 -.509043904197229D+02 0.786721110916572D+02
 0.629406041712904D+02 -.374925289687853D+02 -.503863816906873D+02 0.412825206258317D+01
 0.161515293764348D+03 0.103176362202917D+03 0.813538571388706D+02 -.225416722313227D+02
 0.165505020329124D+03 -.456594296253496D+02 0.476093473978856D+02 -.151790903155554D+03
-.409320603868D-05 0.000000000000D+00 0.000000000000D+00 0.119439915613D-07 0.000000000000D+00  7 1 -1 23 -11 11 23 21 2 0.22871812D-01 0.86681772D-01 0.51004366D+05 0.51004366D+05 0.51004366D+05 0.11465364D+01  1  2 13  2  7  2       -1 -.204344491412D-03 0.100000000000D+01
0.489277045806D-05 0.000000000000D+00 0.000000000000D+00 0.119439915613D-07 0.224046166043D-10  7 1 -1 23 -11 11 23 21 2 0.23844366D-01 0.86313070D-01 0.51004366D+05 0.51004366D+05 0.51004366D+05 0.11465364D+01  1  2  1  2  7  2       -1 0.233533035803D-03 0.100000000000D+01
  </mgrwgt>
  </event>
  <event>
  8     66 0.25924217E-05 0.10395499E+03 0.75467711E-02 0.10455252E+00
        1 -1    0    0  501    0 0.00000000E+00 0.00000000E+00 0.32633466E+03 0.32633481E+03 0.32000000E+00 0.0000E+00 0.9000E+01
       -1 -1    0    0    0  501 0.00000000E+00 0.00000000E+00 -.30135442E+03 0.30135459E+03 0.32000000E+00 0.0000E+00 0.9000E+01
       25  2    1    2    0    0 -.15216731E+02 0.16751463E+03 0.17389849E+03 0.38523405E+03 0.29978641E+03 0.0000E+00 0.0000E+00
       23  2    3    3    0    0 -.41756098E+02 0.85661337E+02 -.39524759E+02 0.13770823E+03 0.91213557E+02 0.0000E+00 0.0000E+00
       23  1    1    2    0    0 0.15216731E+02 -.16751463E+03 -.14891825E+03 0.24245535E+03 0.91188000E+02 0.0000E+00 0.9000E+01
      -11  1    4    4    0    0 -.36610107E+02 0.51774573E+02 -.68123800E+02 0.93068569E+02 0.51099893E-03 0.0000E+00 0.9000E+01
       11  1    4    4    0    0 -.51459911E+01 0.33886764E+02 0.28599041E+02 0.44639659E+02 0.51099893E-03 0.0000E+00 0.9000E+01
       23  1    3    3    0    0 0.26539367E+02 0.81853289E+02 0.21342325E+03 0.24752583E+03 0.91188000E+02 0.0000E+00 0.9000E+01
#aMCatNLO 1  0  0  2  1 0.37492975D+02 0.00000000D+00  -5  7  0 0.00000000D+00 0.00000000D+00 0.00000000D+00 0.00000000D+00 0.00000000D+00
  <mgrwgt>
 0.3567721258D-03    9    2    0
 0.313596065981976D+03 0.000000000000000D+00 0.000000000000000D+00 0.313596065981976D+03
 0.313596065981976D+03 0.000000000000000D+00 0.000000000000000D+00 -.313596065981976D+03
 0.248578796200629D+03 0.152167309389501D+02 -.167514626205540D+03 -.158692998217639D+03
 0.958556398189993D+02 -.366101072005248D+02 0.517745729656045D+02 -.718846112189883D+02
 0.435359889337400D+02 -.514599105161911D+01 0.338867642315672D+02 0.268437761585356D+02
 0.239221707010583D+03 0.265393673131939D+02 0.818532890083683D+02 0.203733833278091D+03
 0.000000000000000D+00 -.000000000000000D+00 0.000000000000000D+00 -.000000000000000D+00
 0.319271906459267D+03 0.000000000000000D+00 0.000000000000000D+00 0.319271906459267D+03
 0.382848166745068D+03 0.000000000000000D+00 0.000000000000000D+00 -.382848166745068D+03
 0.251450749638939D+03 0.299739165097450D+02 -.169794949264539D+03 -.158692998217639D+03
 0.933912647357131D+02 -.310249338593710D+02 0.509115358033188D+02 -.718846112189883D+02
 0.430003451146308D+02 -.259207648638293D+01 0.334921259554620D+02 0.268437761585356D+02
 0.240469421069402D+03 0.406963127429976D+02 0.796657167945671D+02 0.203733833278091D+03
 0.738082926456506D+02 -.370532189069886D+02 0.572557071119152D+01 -.635762602858010D+02
0.673188468626D-05 0.000000000000D+00 0.000000000000D+00 0.788600280934D-06 0.000000000000D+00  7 1 -1 23 -11 11 23 21 0 0.50205357D-01 0.46362243D-01 0.42930920D+05 0.42930920D+05 0.42930920D+05 0.11531642D+01  1  2  2  2  7  2       -1 0.301585329774D-03 0.100000000000D+01
-.295893396895D-06 0.000000000000D+00 -.258522097412D-07 0.788600280934D-06 0.000000000000D+00  7 1 -1 23 -11 11 23 21 2 0.50205357D-01 0.46362243D-01 0.42930920D+05 0.42930920D+05 0.42930920D+05 0.11531642D+01  1  2  3  2  7  2       -1 -.176275165828D-04 0.100000000000D+01
0.418984283270D-06 0.000000000000D+00 0.000000000000D+00 0.788600280934D-06 0.000000000000D+00  7 1 -1 23 -11 11 23 21 2 0.50205357D-01 0.46362243D-01 0.42930920D+05 0.42930920D+05 0.42930920D+05 0.11531642D+01  1  2 15  2  7  2       -1 0.249605178040D-04 0.100000000000D+01
0.284592646984D-04 0.000000000000D+00 0.000000000000D+00 0.788600280934D-06 0.000000000000D+00  7 1 -1 23 -11 11 23 21 2 0.50205357D-01 0.56957635D-01 0.51414673D+05 0.51414673D+05 0.51414673D+05 0.11462311D+01  1  2 12  2  7  2       -1 0.115667072883D-02 0.100000000000D+01
-.288761890130D-04 0.000000000000D+00 0.000000000000D+00 0.788600280934D-06 0.000000000000D+00  7 1 -1 23 -11 11 23 21 2 0.50205357D-01 0.46362243D-01 0.42930920D+05 0.42930920D+05 0.42930920D+05 0.11531642D+01  1  2  4  2  7  2       -1 -.172026650819D-02 0.100000000000D+01
-.349648276691D-04 0.000000000000D+00 -.456230887748D-05 0.788600280934D-06 0.000000000000D+00  7 1 -1 23 -11 11 23 21 2 0.50205357D-01 0.57247320D-01 0.42930920D+05 0.42930920D+05 0.42930920D+05 0.11531642D+01  1  2  5  2  7  2       -1 -.142867070626D-02 0.100000000000D+01
0.352400175439D-04 0.000000000000D+00 0.446269706401D-05 0.788600280934D-06 0.000000000000D+00  7 1 -1 23 -11 11 23 21 2 0.50205357D-01 0.46362243D-01 0.42930920D+05 0.42930920D+05 0.42930920D+05 0.11531642D+01  1  2  6  2  7  2       -1 0.209938444099D-02 0.100000000000D+01
0.832487485397D-06 0.000000000000D+00 0.000000000000D+00 0.788600280934D-06 0.000000000000D+00  7 1 21 23 -11 11 23 1 2 0.50205357D-01 0.56957635D-01 0.51414673D+05 0.51414673D+05 0.51414673D+05 0.11462311D+01  1  2 12  4  7  2       -1 0.306161335620D-03 0.100000000000D+01
-.984384243190D-06 0.000000000000D+00 -.135952585052D-06 0.788600280934D-06 0.000000000000D+00  7 1 21 23 -11 11 23 1 2 0.50205357D-01 0.57247320D-01 0.42930920D+05 0.42930920D+05 0.42930920D+05 0.11531642D+01  1  2  5  4  7  2       -1 -.365425496190D-03 0.100000000000D+01
  </mgrwgt>
  </event>
  <event>
  7     66 0.25924217E-05 0.10882553E+03 0.75467711E-02 0.10275582E+00
        1 -1    0    0  501    0 0.00000000E+00 0.00000000E+00 0.16266836E+04 0.16266836E+04 0.32000000E+00 0.0000E+00 0.9000E+01
       -1 -1    0    0    0  501 0.00000000E+00 0.00000000E+00 -.37742906E+02 0.37744263E+02 0.32000000E+00 0.0000E+00 0.9000E+01
       25  2    1    2    0    0 -.14564596E+02 0.12063106E+03 0.12794813E+04 0.13196898E+04 0.29957436E+03 0.0000E+00 0.0000E+00
       23  1    1    2    0    0 0.14564596E+02 -.12063106E+03 0.30945933E+03 0.34473803E+03 0.91188000E+02 0.0000E+00 0.9000E+01
      -11  1    3    3    0    0 -.54805997E+02 0.73316604E+02 0.96724898E+03 0.97157070E+03 0.51099893E-03 0.0000E+00 0.9000E+01
       11  1    3    3    0    0 0.16517611E+02 0.56866090E+02 0.11751146E+03 0.13158848E+03 0.51099893E-03 0.0000E+00 0.9000E+01
       23  1    3    3    0    0 0.23723790E+02 -.95516344E+01 0.19472089E+03 0.21653066E+03 0.91188000E+02 0.0000E+00 0.9000E+01
#aMCatNLO 1  0  0  1  2 0.10073549D+03 0.00000000D+00  -5  7  0 0.00000000D+00 0.00000000D+00 0.00000000D+00 0.00000000D+00 0.00000000D+00
  <mgrwgt>
 0.6598419438D-03    9    2    0
 0.247784020344499D+03 0.000000000000000D+00 0.000000000000000D+00 0.247784020344499D+03
 0.247784020344499D+03 0.000000000000000D+00 0.000000000000000D+00 -.247784020344499D+03
 0.165626232440938D+03 0.145645961106136D+02 -.120631060125187D+03 -.659758850019294D+02
 0.161850832182310D+03 -.548059952625338D+02 0.733166224681718D+02 0.133479090614406D+03
 0.651793033613086D+02 0.165175985744942D+02 0.568660860193212D+02 -.272352489403075D+02
 0.102911672704443D+03 0.237238005774260D+02 -.955164836230613D+01 -.402679566721691D+02
 0.000000000000000D+00 -.000000000000000D+00 -.000000000000000D+00 0.000000000000000D+00
 0.348741283929519D+03 0.000000000000000D+00 0.000000000000000D+00 0.348741283929519D+03
 0.279307892785865D+03 0.000000000000000D+00 0.000000000000000D+00 -.279307892785865D+03
 0.145441207053418D+03 0.202622365251990D+02 -.898583203402130D+02 -.659758850019294D+02
 0.177786789588164D+03 -.485850515235854D+02 0.106915703660724D+03 0.133479090614406D+03
 0.784896914302314D+02 0.191490995518313D+02 0.710787229930764D+02 -.272352489403075D+02
 0.103985112815194D+03 0.275134080295614D+02 0.109158777583724D+02 -.402679566721691D+02
 0.122346375828377D+03 -.183396925830062D+02 -.990519840719595D+02 0.694333911436543D+02
0.608611331954D-05 0.000000000000D+00 0.000000000000D+00 0.100440416679D-09 0.000000000000D+00  7 1 -1 23 -11 11 23 21 0 0.25025912D+00 0.58067077D-02 0.39477384D+05 0.39477384D+05 0.39477384D+05 0.11564328D+01  1  2  2  1  7  1        1 0.548162042195D-03 0.100000000000D+01
-.318072244515D-06 0.000000000000D+00 -.233722776575D-07 0.100440416679D-09 0.000000000000D+00  7 1 -1 23 -11 11 23 21 2 0.25025912D+00 0.58067077D-02 0.39477384D+05 0.39477384D+05 0.39477384D+05 0.11564328D+01  1  2  3  1  7  1        1 -.383120624791D-04 0.100000000000D+01
0.395398723350D-06 0.000000000000D+00 0.000000000000D+00 0.100440416679D-09 0.000000000000D+00  7 1 -1 23 -11 11 23 21 2 0.25025912D+00 0.58067077D-02 0.39477384D+05 0.39477384D+05 0.39477384D+05 0.11564328D+01  1  2 15  1  7  1        1 0.476261002159D-04 0.100000000000D+01
0.262985710145D-05 0.000000000000D+00 0.000000000000D+00 0.100440416679D-09 0.000000000000D+00  7 1 -1 23 -11 11 23 21 2 0.36304387D+00 0.58067077D-02 0.66892953D+05 0.66892953D+05 0.66892953D+05 0.11363396D+01  1  2 12  1  7  1        1 0.100732668231D-03 0.100000000000D+01
-.428658302468D-05 0.000000000000D+00 0.000000000000D+00 0.100440416679D-09 0.000000000000D+00  7 1 -1 23 -11 11 23 21 2 0.25025912D+00 0.58067077D-02 0.39477384D+05 0.39477384D+05 0.39477384D+05 0.11564328D+01  1  2  4  1  7  1        1 -.516322437734D-03 0.100000000000D+01
-.556213290955D-05 0.000000000000D+00 -.211312269429D-05 0.100440416679D-09 0.000000000000D+00  7 1 -1 23 -11 11 23 21 2 0.36853138D+00 0.58067077D-02 0.39477384D+05 0.39477384D+05 0.39477384D+05 0.11564328D+01  1  2  5  1  7  1        1 -.211914854243D-03 0.100000000000D+01
0.606870406071D-05 0.000000000000D+00 0.196416931655D-05 0.100440416679D-09 0.000000000000D+00  7 1 -1 23 -11 11 23 21 2 0.25025912D+00 0.58067077D-02 0.39477384D+05 0.39477384D+05 0.39477384D+05 0.11564328D+01  1  2  6  1  7  1        1 0.730980376788D-03 0.100000000000D+01
0.118733635861D-06 0.000000000000D+00 0.000000000000D+00 0.100440416679D-09 0.000000000000D+00  7 21 -1 23 -11 11 23 -1 2 0.36304387D+00 0.58067077D-02 0.66892953D+05 0.66892953D+05 0.66892953D+05 0.11363396D+01  1  2 12  3  7  1        1 0.186973720067D-05 0.100000000000D+01
-.189505670170D-06 0.000000000000D+00 -.981871817410D-07 0.100440416679D-09 0.000000000000D+00  7 21 -1 23 -11 11 23 -1 2 0.36853138D+00 0.58067077D-02 0.39477384D+05 0.39477384D+05 0.39477384D+05 0.11564328D+01  1  2  5  3  7  1        1 -.297962639810D-05 0.100000000000D+01
  </mgrwgt>
  </event>
  <event>
  9     66 0.25924217E-05 0.16873758E+03 0.75467711E-02 0.99386563E-01
       21 -1    0    0  501  502 0.00000000E+00 0.00000000E+00 0.37007214E+03 0.37007290E+03 0.75000000E+00 0.0000E+00 0.9000E+01
       -1 -1    0    0    0  501 0.00000000E+00 0.00000000E+00 -.46439720E+03 0.46439731E+03 0.32000000E+00 0.0000E+00 0.9000E+01
       25  2    1    2    0    0 -.21086558E+03 0.13506188E+03 0.98588293E+02 0.40458641E+03 0.30210016E+03 0.0000E+00 0.0000E+00
       23  2    3    3    0    0 -.18512693E+03 0.48831939E+02 0.15676599E+03 0.26388113E+03 0.91657736E+02 0.0000E+00 0.0000E+00
       23  1    1    2    0    0 -.11114884E+01 -.12078306E+02 0.31852399E+02 0.97349615E+02 0.91188000E+02 0.0000E+00 0.9000E+01
      -13  1    4    4    0    0 -.75564990E+02 0.58548318E+02 0.10600466E+03 0.14274093E+03 0.10565837E+00 0.0000E+00 0.9000E+01
       13  1    4    4    0    0 -.10956194E+03 -.97163794E+01 0.50761326E+02 0.12114020E+03 0.10565837E+00 0.0000E+00 0.9000E+01
       23  1    3    3    0    0 -.25738655E+02 0.86229938E+02 -.58177693E+02 0.14070528E+03 0.91188000E+02 0.0000E+00 0.9000E+01
       -1  1    1    2    0  502 0.21197707E+03 -.12298357E+03 -.22476575E+03 0.33253418E+03 0.32000000E+00 0.0000E+00 0.9000E+01
#aMCatNLO 2  0  0  1  1 0.24506986D+03 0.00000000D+00  -5  7  0 0.00000000D+00 0.00000000D+00 0.00000000D+00 0.00000000D+00 0.00000000D+00
  <mgrwgt>
 0.3737232057D-04    1    2    0
 0.209084770176378D+03 0.000000000000000D+00 0.000000000000000D+00 0.209084770176378D+03
 0.209084770176378D+03 0.000000000000000D+00 0.000000000000000D+00 -.209084770176378D+03
 0.109904299163571D+03 0.463500306425657D+02 -.396145771820664D+02 0.678701442131169D+01
 0.827437419127460D+02 -.281303739449820D+02 0.310284011289712D+02 0.713613845915160D+02
 0.768911712102459D+02 -.652628374517409D+02 -.354173762192925D+02 0.199655633422173D+02
 0.148630328066193D+03 0.470431807541573D+02 0.440035522723878D+02 -.981139623550450D+02
 0.000000000000000D+00 0.000000000000000D+00 -.000000000000000D+00 -.000000000000000D+00
 0.283645279396641D+03 0.000000000000000D+00 0.000000000000000D+00 0.283645279396641D+03
 0.605900296940703D+03 0.000000000000000D+00 0.000000000000000D+00 -.605900296940703D+03
 0.922412892684783D+02 -.111050750809736D+01 -.120792098346889D+02 0.678701442131169D+01
 0.119291552445270D+03 -.755650168181421D+02 0.585487447112084D+02 0.713613845915160D+02
 0.111789345709812D+03 -.109561993030797D+03 -.971616064993428D+01 0.199655633422173D+02
 0.161368436343217D+03 -.257395512313931D+02 0.862301965511749D+02 -.981139623550450D+02
 0.404854952570566D+03 0.211977068588430D+03 -.122983570777760D+03 -.322255017544062D+03
0.446772063176D-06 0.000000000000D+00 0.000000000000D+00 0.662057258905D-08 0.108749273871D-12  7 21 -1 23 -13 13 23 -1 2 0.56934231D-01 0.71445775D-01 0.11248008D+06 0.11248008D+06 0.11248008D+06 0.11175546D+01  1  2  1  3  7  1        1 0.373723205740D-04 0.100000000000D+01
  </mgrwgt>
  </event>
  <event>
  8     66 0.25924217E-05 0.45038392E+03 0.75467711E-02 0.87353226E-01
        1 -1    0    0  501    0 0.00000000E+00 0.00000000E+00 0.11221322E+04 0.11221323E+04 0.32000000E+00 0.0000E+00 0.9000E+01
       -1 -1    0    0    0  501 0.00000000E+00 0.00000000E+00 -.39378212E+03 0.39378225E+03 0.32000000E+00 0.0000E+00 0.9000E+01
       25  2    1    2    0    0 0.27315293E+03 0.31843092E+03 -.15089136E+03 0.53745064E+03 0.30012366E+03 0.0000E+00 0.0000E+00
       23  2    3    3    0    0 0.22610564E+03 0.26594736E+03 -.19975450E+03 0.41226746E+03 0.90613668E+02 0.0000E+00 0.0000E+00
       23  1    1    2    0    0 -.27315293E+03 -.31843092E+03 0.87924146E+03 0.97846388E+03 0.91188000E+02 0.0000E+00 0.9000E+01
      -13  1    4    4    0    0 0.76187339E+02 0.42901847E+02 -.78219166E+02 0.11731721E+03 0.10565837E+00 0.0000E+00 0.9000E+01
       13  1    4    4    0    0 0.14991830E+03 0.22304552E+03 -.12153533E+03 0.29495024E+03 0.10565837E+00 0.0000E+00 0.9000E+01
       23  1    3    3    0    0 0.47047292E+02 0.52483555E+02 0.48863133E+02 0.12518318E+03 0.91188000E+02 0.0000E+00 0.9000E+01
#aMCatNLO 1  0  0  2  1 0.80428249D+03 0.00000000D+00  -5  7  0 0.00000000D+00 0.00000000D+00 0.00000000D+00 0.00000000D+00 0.00000000D+00
  <mgrwgt>
 0.5172642490D-03    3    2    0
 0.664737347728844D+03 0.000000000000000D+00 0.000000000000000D+00 0.664737347728844D+03
 0.664737347728844D+03 0.000000000000000D+00 0.000000000000000D+00 -.664737347728844D+03
 0.633988752858644D+03 -.273152933194083D+03 -.318430918348775D+03 0.466492993231713D+03
 0.176621183086948D+03 0.761872391429942D+02 0.429016018580073D+02 -.153460090788512D+03
 0.402895999965083D+03 0.149918401752617D+03 0.223045761488344D+03 -.300167033309606D+03
 0.115968759547014D+03 0.470472922984720D+02 0.524835550024235D+02 -.128658691335944D+02
 0.000000000000000D+00 0.000000000000000D+00 -.000000000000000D+00 0.000000000000000D+00
 0.127895446917905D+04 0.000000000000000D+00 0.000000000000000D+00 0.127895446917905D+04
 0.109903244588974D+04 0.000000000000000D+00 0.000000000000000D+00 -.109903244588974D+04
 0.797936351602910D+03 -.626953531297286D+03 -.133044078128048D+03 0.466492993231713D+03
 0.177646839792750D+03 -.113454383644710D+02 0.887675686940366D+02 -.153460090788512D+03
 0.453177695394474D+03 -.616006117034131D+02 0.333878930684346D+03 -.300167033309606D+03
 0.125064483906323D+03 -.125072929454345D+02 0.836893710417826D+02 -.128658691335944D+02
 0.824161544372332D+03 0.712406874310605D+03 -.373291792292116D+03 0.179922023289313D+03
0.120244828436D-03 0.000000000000D+00 0.000000000000D+00 0.326724450471D-05 0.000000000000D+00  7 1 -1 23 -13 13 23 21 0 0.17263574D+00 0.60581879D-01 0.20284568D+06 0.20284568D+06 0.20284568D+06 0.10973545D+01  1  2  2  2  7  2       -1 0.508312273748D-03 0.100000000000D+01
-.544936052256D-05 0.000000000000D+00 -.461771802387D-06 0.326724450471D-05 0.000000000000D+00  7 1 -1 23 -13 13 23 21 2 0.17263574D+00 0.60581879D-01 0.20284568D+06 0.20284568D+06 0.20284568D+06 0.10973545D+01  1  2  3  2  7  2       -1 -.277398168761D-04 0.100000000000D+01
0.720793523677D-05 0.000000000000D+00 0.000000000000D+00 0.326724450471D-05 0.000000000000D+00  7 1 -1 23 -13 13 23 21 2 0.17263574D+00 0.60581879D-01 0.20284568D+06 0.20284568D+06 0.20284568D+06 0.10973545D+01  1  2 15  2  7  2       -1 0.366917921278D-04 0.100000000000D+01
  </mgrwgt>
  </event>
  <event>
  8     66 0.25924217E-05 0.32575542E+03 0.75467711E-02 0.97728514E-01
        3 -1    0    0  501    0 0.00000000E+00 0.00000000E+00 0.29329301E+03 0.29329344E+03 0.50000000E+00 0.0000E+00 0.9000E+01
       -3 -1    0    0    0  501 0.00000000E+00 0.00000000E+00 -.45366604E+03 0.45366632E+03 0.50000000E+00 0.0000E+00 0.9000E+01
       25  2    1    2    0    0 0.15562003E+03 0.19635444E+03 -.25200287E+03 0.46503079E+03 0.29995921E+03 0.0000E+00 0.0000E+00
       23  2    3    3    0    0 -.27368857E+02 0.43890018E+02 -.48281140E+02 0.13861368E+03 0.11919437E+03 0.0000E+00 0.0000E+00
       23  1    1    2    0    0 -.15562003E+03 -.19635444E+03 0.91629837E+02 0.28192896E+03 0.91188000E+02 0.0000E+00 0.9000E+01
      -13  1    4    4    0    0 -.20464772E+02 -.40393251E+02 -.14442924E+02 0.47529263E+02 0.10565837E+00 0.0000E+00 0.9000E+01
       13  1    4    4    0    0 -.69040855E+01 0.84283269E+02 -.33838215E+02 0.91084421E+02 0.10565837E+00 0.0000E+00 0.9000E+01
       23  1    3    3    0    0 0.18298888E+03 0.15246443E+03 -.20372173E+03 0.32641711E+03 0.91188000E+02 0.0000E+00 0.9000E+01
#aMCatNLO 1  0  0  1  1 0.10817453D+03 0.00000000D+00  -5  7  0 0.00000000D+00 0.00000000D+00 0.00000000D+00 0.00000000D+00 0.00000000D+00
  <mgrwgt>
 0.4528792343D-04    4    2    0
 0.364770256727778D+03 0.000000000000000D+00 0.000000000000000D+00 0.364770256727778D+03
 0.364770256727778D+03 0.000000000000000D+00 0.000000000000000D+00 -.364770256727778D+03
 0.308803331747434D+03 -.155620026675502D+03 -.196354444561650D+03 0.155793407282585D+03
 0.454890737207898D+02 -.204648840604881D+02 -.403932345001661D+02 -.433946482654516D+01
 0.858203712644718D+02 -.690426713305582D+01 0.842830330012184D+02 -.146231859539129D+02
 0.289427736722860D+03 0.182989177869046D+03 0.152464646060598D+03 -.136830756502127D+03
 0.000000000000000D+00 0.000000000000000D+00 -.000000000000000D+00 -.000000000000000D+00
 0.401229421157431D+03 0.000000000000000D+00 0.000000000000000D+00 0.401229421157431D+03
 0.458852115050691D+03 0.000000000000000D+00 0.000000000000000D+00 -.458852115050691D+03
 0.300590198575517D+03 -.180371154926246D+03 -.158851744886618D+03 0.155793407282585D+03
 0.426590530396730D+02 -.240451084671287D+02 -.349685088338755D+02 -.433946482654516D+01
 0.977530270345061D+02 -.143602844660837D+02 0.955803272489654D+02 -.146231859539129D+02
 0.296514562160973D+03 0.159190544858413D+03 0.188524133023469D+03 -.136830756502127D+03
 0.122564695397453D+03 0.595860030010454D+02 -.902842065519413D+02 -.576226938932594D+02
0.162239144716D-04 0.000000000000D+00 0.000000000000D+00 0.183731525005D-08 0.000000000000D+00  7 3 -3 23 -13 13 23 21 0 0.45122055D-01 0.69794829D-01 0.10611659D+06 0.10611659D+06 0.10611659D+06 0.11196123D+01  1  2  2  1  7  1        3 0.650913282681D-04 0.100000000000D+01
-.887305283332D-06 0.000000000000D+00 -.623041034258D-07 0.183731525005D-08 0.000000000000D+00  7 3 -3 23 -13 13 23 21 2 0.45122055D-01 0.69794829D-01 0.10611659D+06 0.10611659D+06 0.10611659D+06 0.11196123D+01  1  2  3  1  7  1        3 -.446247619949D-05 0.100000000000D+01
0.994143385077D-06 0.000000000000D+00 0.000000000000D+00 0.183731525005D-08 0.000000000000D+00  7 3 -3 23 -13 13 23 21 2 0.45122055D-01 0.69794829D-01 0.10611659D+06 0.10611659D+06 0.10611659D+06 0.11196123D+01  1  2 15  1  7  1        3 0.499979125350D-05 0.100000000000D+01
-.404448728037D-05 0.000000000000D+00 0.000000000000D+00 0.183731525005D-08 0.000000000000D+00  7 3 -3 23 -13 13 23 21 2 0.45122055D-01 0.69794829D-01 0.10611659D+06 0.10611659D+06 0.10611659D+06 0.11196123D+01  1  2  4  1  7  1        3 -.203407198929D-04 0.100000000000D+01
  </mgrwgt>
  </event>
  <event>
  8     66 0.25924217E-05 0.13189623E+03 0.75467711E-02 0.98997165E-01
        1 -1    0    0  501    0 0.00000000E+00 0.00000000E+00 0.14839396E+04 0.14839396E+04 0.32000000E+00 0.0000E+00 0.9000E+01
       -1 -1    0    0    0  501 0.00000000E+00 0.00000000E+00 -.14093573E+03 0.14093609E+03 0.32000000E+00 0.0000E+00 0.9000E+01
       25  2    1    2    0    0 -.28701006E+01 0.29391935E+03 0.24887690E+03 0.48829054E+03 0.30015183E+03 0.0000E+00 0.0000E+00
       23  2    3    3    0    0 0.23605287E+02 0.91210428E+02 0.22956291E+03 0.26361269E+03 0.88971741E+02 0.0000E+00 0.0000E+00
       23  1    1    2    0    0 0.28701006E+01 -.29391935E+03 0.10941269E+04 0.11365852E+04 0.91188000E+02 0.0000E+00 0.9000E+01
      -13  1    4    4    0    0 -.21924792E+02 0.78148021E+02 0.12828185E+03 0.15180268E+03 0.10565837E+00 0.0000E+00 0.9000E+01
       13  1    4    4    0    0 0.45530079E+02 0.13062407E+02 0.10128106E+03 0.11181002E+03 0.10565837E+00 0.0000E+00 0.9000E+01
       23  1    3    3    0    0 -.26475388E+02 0.20270892E+03 0.19313989E+02 0.22467784E+03 0.91188000E+02 0.0000E+00 0.9000E+01
#aMCatNLO 1  0  0  1  2 0.30499159D+02 0.00000000D+00  -5  7  0 0.00000000D+00 0.00000000D+00 0.00000000D+00 0.00000000D+00 0.00000000D+00
  <mgrwgt>
 0.5343245220D-03    9    2    0
 0.457318743569001D+03 0.000000000000000D+00 0.000000000000000D+00 0.457318743569001D+03
 0.457318743569001D+03 0.000000000000000D+00 0.000000000000000D+00 -.457318743569001D+03
 0.412614766250174D+03 0.287010055426200D+01 -.293919347619323D+03 0.274843361938261D+03
 0.813191146059677D+02 -.219248872348847D+02 0.781481125639267D+02 0.499702138597996D+01
 0.499175688163840D+02 0.455301742567885D+02 0.130623155456515D+02 0.157525496752350D+02
 0.370786037465475D+03 -.264753875761657D+02 0.202708919509744D+03 -.295592932999476D+03
 0.000000000000000D+00 0.000000000000000D+00 -.000000000000000D+00 0.000000000000000D+00
 0.476139747581630D+03 0.000000000000000D+00 0.000000000000000D+00 0.476139747581630D+03
 0.470097939407518D+03 0.000000000000000D+00 0.000000000000000D+00 -.470097939407518D+03
 0.410715293455218D+03 -.105541788015926D+02 -.291069642254743D+03 0.274843361938261D+03
 0.826205976299123D+02 -.245979008928099D+02 0.787155397723945D+02 0.499702138597996D+01
 0.485506224745939D+02 0.439246644227022D+02 0.134031330946461D+02 0.157525496752350D+02
 0.373259339075576D+03 -.386069414656146D+02 0.205284205175591D+03 -.295592932999476D+03
 0.310918343538479D+02 0.298343567373148D+02 -.633323578788835D+01 0.604180817411187D+01
0.133823134941D-04 0.000000000000D+00 0.000000000000D+00 0.347898294064D-06 0.000000000000D+00  7 1 -1 23 -13 13 23 21 0 0.22829843D+00 0.21682451D-01 0.10894348D+06 0.10894348D+06 0.10894348D+06 0.11186820D+01  1  2  2  1  7  1        1 0.192352325395D-03 0.100000000000D+01
-.647342506448D-06 0.000000000000D+00 -.513916074614D-07 0.347898294064D-06 0.000000000000D+00  7 1 -1 23 -13 13 23 21 2 0.22829843D+00 0.21682451D-01 0.10894348D+06 0.10894348D+06 0.10894348D+06 0.11186820D+01  1  2  3  1  7  1        1 -.116443070679D-04 0.100000000000D+01
0.838977083222D-06 0.000000000000D+00 0.000000000000D+00 0.347898294064D-06 0.000000000000D+00  7 1 -1 23 -13 13 23 21 2 0.22829843D+00 0.21682451D-01 0.10894348D+06 0.10894348D+06 0.10894348D+06 0.11186820D+01  1  2 15  1  7  1        1 0.150914032103D-04 0.100000000000D+01
0.312010518390D-04 0.000000000000D+00 0.000000000000D+00 0.347898294064D-06 0.000000000000D+00  7 1 -1 23 -13 13 23 21 2 0.24077359D+00 0.21682451D-01 0.11972086D+06 0.11972086D+06 0.11972086D+06 0.11153632D+01  1  2 12  1  7  1        1 0.491525578274D-03 0.100000000000D+01
-.271720247327D-04 0.000000000000D+00 0.000000000000D+00 0.347898294064D-06 0.000000000000D+00  7 1 -1 23 -13 13 23 21 2 0.22829843D+00 0.21682451D-01 0.10894348D+06 0.10894348D+06 0.10894348D+06 0.11186820D+01  1  2  4  1  7  1        1 -.488766605766D-03 0.100000000000D+01
-.147689468335D-03 0.000000000000D+00 -.261676384301D-04 0.347898294064D-06 0.000000000000D+00  7 1 -1 23 -13 13 23 21 2 0.24148483D+00 0.21682451D-01 0.10894348D+06 0.10894348D+06 0.10894348D+06 0.11186820D+01  1  2  5  1  7  1        1 -.233134316676D-02 0.100000000000D+01
0.148965143754D-03 0.000000000000D+00 0.261264372008D-04 0.347898294064D-06 0.000000000000D+00  7 1 -1 23 -13 13 23 21 2 0.22829843D+00 0.21682451D-01 0.10894348D+06 0.10894348D+06 0.10894348D+06 0.11186820D+01  1  2  6  1  7  1        1 0.267956430949D-02 0.100000000000D+01
0.366752792920D-06 0.000000000000D+00 0.000000000000D+00 0.347898294064D-06 0.000000000000D+00  7 21 -1 23 -13 13 23 -1 2 0.24077359D+00 0.21682451D-01 0.11972086D+06 0.11972086D+06 0.11972086D+06 0.11153632D+01  1  2 12  3  7  1        1 0.439399722919D-05 0.100000000000D+01
-.140325021364D-05 0.000000000000D+00 -.253733325885D-06 0.347898294064D-06 0.000000000000D+00  7 21 -1 23 -13 13 23 -1 2 0.24148483D+00 0.21682451D-01 0.10894348D+06 0.10894348D+06 0.10894348D+06 0.11186820D+01  1  2  5  3  7  1        1 -.168490120447D-04 0.100000000000D+01
  </mgrwgt>
  </event>
  <event>
  8     66 0.25924217E-05 0.69105816E+02 0.75467711E-02 0.10218456E+00
        1 -1    0    0  501    0 0.00000000E+00 0.00000000E+00 0.65914074E+03 0.65914082E+03 0.32000000E+00 0.0000E+00 0.9000E+01
       -1 -1    0    0    0  501 0.00000000E+00 0.00000000E+00 -.14743122E+03 0.14743157E+03 0.32000000E+00 0.0000E+00 0.9000E+01
       25  2    1    2    0    0 -.28004147E+01 -.19206017E+03 0.15127154E+03 0.38809211E+03 0.30139253E+03 0.0000E+00 0.0000E+00
       23  2    3    3    0    0 -.98355174E+02 -.13604002E+03 0.15364394E+03 0.24460048E+03 0.89678918E+02 0.0000E+00 0.0000E+00
       23  1    1    2    0    0 0.28004147E+01 0.19206017E+03 0.36043798E+03 0.41848028E+03 0.91188000E+02 0.0000E+00 0.9000E+01
      -13  1    4    4    0    0 -.53087526E+02 -.93496101E+02 0.39305770E+02 0.11447603E+03 0.10565837E+00 0.0000E+00 0.9000E+01
       13  1    4    4    0    0 -.45267648E+02 -.42543914E+02 0.11433817E+03 0.13012445E+03 0.10565837E+00 0.0000E+00 0.9000E+01
       23  1    3    3    0    0 0.95554759E+02 -.56020156E+02 -.23724029E+01 0.14349164E+03 0.91188000E+02 0.0000E+00 0.9000E+01
#aMCatNLO 1  0  0  1  2 0.14047246D+02 0.00000000D+00  -5  7  0 0.00000000D+00 0.00000000D+00 0.00000000D+00 0.00000000D+00 0.00000000D+00
  <mgrwgt>
 0.3312755063D-03    9    2    0
 0.311734018607823D+03 0.000000000000000D+00 0.000000000000000D+00 0.311734018607823D+03
 0.311734018607823D+03 0.000000000000000D+00 0.000000000000000D+00 -.311734018607823D+03
 0.245554038558103D+03 0.280041478622865D+01 0.192060175015782D+03 0.122827445459582D+03
 0.115836096659101D+03 -.530875356006775D+02 -.934961729038369D+02 -.431066178840235D+02
 0.744975200357880D+02 -.452676351454917D+02 -.425438425883609D+02 0.411186473225233D+02
 0.187580381962655D+03 0.955547559599405D+02 -.560201595235838D+02 -.120839474898082D+03
 0.000000000000000D+00 -.000000000000000D+00 -.000000000000000D+00 0.000000000000000D+00
 0.320738553792572D+03 0.000000000000000D+00 0.000000000000000D+00 0.320738553792572D+03
 0.317340186321985D+03 0.000000000000000D+00 0.000000000000000D+00 -.317340186321985D+03
 0.249934064227346D+03 0.326123929391686D+01 0.197622286388303D+03 0.122827445459582D+03
 0.113667381979486D+03 -.528740878368224D+02 -.909198771231861D+02 -.431066178840235D+02
 0.734769395990109D+02 -.451300127543015D+02 -.408827524024403D+02 0.411186473225233D+02
 0.186547879325138D+03 0.959027107763145D+02 -.518203754214185D+02 -.120839474898082D+03
 0.144524749835755D+02 -.115984947910746D+01 -.139992814412578D+02 0.339836747058727D+01
0.230069984430D-05 0.000000000000D+00 0.000000000000D+00 0.274989686549D-07 0.000000000000D+00  7 1 -1 23 -13 13 23 21 0 0.10140630D+00 0.22681760D-01 0.69099979D+05 0.69099979D+05 0.69099979D+05 0.11351377D+01  1  2  2  1  7  1        1 0.130422380881D-03 0.100000000000D+01
-.123299194797D-06 0.000000000000D+00 -.883529319029D-08 0.274989686549D-07 0.000000000000D+00  7 1 -1 23 -13 13 23 21 2 0.10140630D+00 0.22681760D-01 0.69099979D+05 0.69099979D+05 0.69099979D+05 0.11351377D+01  1  2  3  1  7  1        1 -.900636397426D-05 0.100000000000D+01
0.149133140489D-06 0.000000000000D+00 0.000000000000D+00 0.274989686549D-07 0.000000000000D+00  7 1 -1 23 -13 13 23 21 2 0.10140630D+00 0.22681760D-01 0.69099979D+05 0.69099979D+05 0.69099979D+05 0.11351377D+01  1  2 15  1  7  1        1 0.108933991505D-04 0.100000000000D+01
0.446445930190D-05 0.000000000000D+00 0.000000000000D+00 0.274989686549D-07 0.000000000000D+00  7 1 -1 23 -13 13 23 21 2 0.10522586D+00 0.22681760D-01 0.72875161D+05 0.72875161D+05 0.72875161D+05 0.11331765D+01  1  2 12  1  7  1        1 0.307580647962D-03 0.100000000000D+01
-.396067200727D-05 0.000000000000D+00 0.000000000000D+00 0.274989686549D-07 0.000000000000D+00  7 1 -1 23 -13 13 23 21 2 0.10140630D+00 0.22681760D-01 0.69099979D+05 0.69099979D+05 0.69099979D+05 0.11351377D+01  1  2  4  1  7  1        1 -.289306460912D-03 0.100000000000D+01
-.456138238785D-04 0.000000000000D+00 -.691724454882D-05 0.274989686549D-07 0.000000000000D+00  7 1 -1 23 -13 13 23 21 2 0.10577756D+00 0.22681760D-01 0.69099979D+05 0.69099979D+05 0.69099979D+05 0.11351377D+01  1  2  5  1  7  1        1 -.313063092363D-02 0.100000000000D+01
0.458710524208D-04 0.000000000000D+00 0.691108893958D-05 0.274989686549D-07 0.000000000000D+00  7 1 -1 23 -13 13 23 21 2 0.10140630D+00 0.22681760D-01 0.69099979D+05 0.69099979D+05 0.69099979D+05 0.11351377D+01  1  2  6  1  7  1        1 0.335064145929D-02 0.100000000000D+01
0.722222189753D-07 0.000000000000D+00 0.000000000000D+00 0.274989686549D-07 0.000000000000D+00  7 21 -1 23 -13 13 23 -1 2 0.10522586D+00 0.22681760D-01 0.72875161D+05 0.72875161D+05 0.72875161D+05 0.11331765D+01  1  2 12  3  7  1        1 0.109198722635D-04 0.100000000000D+01
-.334777578032D-06 0.000000000000D+00 -.514325868670D-07 0.274989686549D-07 0.000000000000D+00  7 21 -1 23 -13 13 23 -1 2 0.10577756D+00 0.22681760D-01 0.69099979D+05 0.69099979D+05 0.69099979D+05 0.11351377D+01  1  2  5  3  7  1        1 -.502385047170D-04 0.100000000000D+01
  </mgrwgt>
  </event>
  <event>
  8     66 0.25924217E-05 0.20479473E+03 0.75467711E-02 0.10248505E+00
        1 -1    0    0  501    0 0.00000000E+00 0.00000000E+00 0.31930865E+03 0.31930881E+03 0.32000000E+00 0.0000E+00 0.9000E+01
       -1 -1    0    0    0  501 0.00000000E+00 0.00000000E+00 -.33731825E+03 0.33731840E+03 0.32000000E+00 0.0000E+00 0.9000E+01
       25  2    1    2    0    0 -.19292125E+03 0.90490557E+02 -.14100765E+03 0.39423262E+03 0.30021501E+03 0.0000E+00 0.0000E+00
       23  2    3    3    0    0 -.84026062E+02 0.71260989E+02 -.18968581E+03 0.24286303E+03 0.10422686E+03 0.0000E+00 0.0000E+00
       23  1    1    2    0    0 0.19292125E+03 -.90490557E+02 0.12299805E+03 0.26239459E+03 0.91188000E+02 0.0000E+00 0.9000E+01
      -11  1    4    4    0    0 0.52145986E+01 0.40025435E+02 -.12888389E+02 0.42371430E+02 0.51099893E-03 0.0000E+00 0.9000E+01
       11  1    4    4    0    0 -.89240660E+02 0.31235555E+02 -.17679742E+03 0.20049160E+03 0.51099893E-03 0.0000E+00 0.9000E+01
       23  1    3    3    0    0 -.10889519E+03 0.19229567E+02 0.48678161E+02 0.15136959E+03 0.91188000E+02 0.0000E+00 0.9000E+01
#aMCatNLO 1  0  0  2  1 0.18515656D+02 0.00000000D+00  -5  7  0 0.00000000D+00 0.00000000D+00 0.00000000D+00 0.00000000D+00 0.00000000D+00
  <mgrwgt>
 0.3275796647D-03    9    2    0
 0.328190093726199D+03 0.000000000000000D+00 0.000000000000000D+00 0.328190093726199D+03
 0.328190093726199D+03 0.000000000000000D+00 0.000000000000000D+00 -.328190093726199D+03
 0.265868130857932D+03 0.192921251141061D+03 -.904905565570175D+02 0.130243854726660D+03
 0.420337472468749D+02 0.521459851755862D+01 0.400254347783450D+02 -.117306624160483D+02
 0.195716130996150D+03 -.892406599505510D+02 0.312355546687168D+02 -.171362915090255D+03
 0.152762178351441D+03 -.108895189708068D+03 0.192295671099558D+02 0.528497227796431D+02
 0.000000000000000D+00 -.000000000000000D+00 -.000000000000000D+00 -.000000000000000D+00
 0.335226695562826D+03 0.000000000000000D+00 0.000000000000000D+00 0.335226695562826D+03
 0.340731117949966D+03 0.000000000000000D+00 0.000000000000000D+00 -.340731117949966D+03
 0.268044800276896D+03 0.198271172202109D+03 -.851929820526497D+02 0.130243854726660D+03
 0.429494275529942D+02 0.606614799348205D+01 0.408686522279826D+02 -.117306624160483D+02
 0.194625180127913D+03 -.853293570402781D+02 0.351085872499227D+02 -.171362915090255D+03
 0.151021879203252D+03 -.105851208877583D+03 0.222437639654516D+02 0.528497227796431D+02
 0.193165263517368D+02 -.131567542777303D+02 -.130280213907071D+02 -.550442238713967D+01
0.475476002945D-05 0.000000000000D+00 0.000000000000D+00 0.619351671777D-08 0.000000000000D+00  7 1 -1 23 -11 11 23 21 0 0.49124432D-01 0.51895139D-01 0.65030815D+05 0.65030815D+05 0.65030815D+05 0.11373882D+01  1  2  2  2  7  2       -1 0.178605484826D-03 0.100000000000D+01
-.243711514826D-06 0.000000000000D+00 -.182595304702D-07 0.619351671777D-08 0.000000000000D+00  7 1 -1 23 -11 11 23 21 2 0.49124432D-01 0.51895139D-01 0.65030815D+05 0.65030815D+05 0.65030815D+05 0.11373882D+01  1  2  3  2  7  2       -1 -.118429441432D-04 0.100000000000D+01
0.295672828085D-06 0.000000000000D+00 0.000000000000D+00 0.619351671777D-08 0.000000000000D+00  7 1 -1 23 -11 11 23 21 2 0.49124432D-01 0.51895139D-01 0.65030815D+05 0.65030815D+05 0.65030815D+05 0.11373882D+01  1  2 15  2  7  2       -1 0.143679579120D-04 0.100000000000D+01
0.116798237880D-04 0.000000000000D+00 0.000000000000D+00 0.619351671777D-08 0.000000000000D+00  7 1 -1 23 -11 11 23 21 2 0.49124432D-01 0.54417799D-01 0.69656148D+05 0.69656148D+05 0.69656148D+05 0.11348415D+01  1  2 12  2  7  2       -1 0.518097688522D-03 0.100000000000D+01
-.106344349832D-04 0.000000000000D+00 0.000000000000D+00 0.619351671777D-08 0.000000000000D+00  7 1 -1 23 -11 11 23 21 2 0.49124432D-01 0.51895139D-01 0.65030815D+05 0.65030815D+05 0.65030815D+05 0.11373882D+01  1  2  4  2  7  2       -1 -.516770902641D-03 0.100000000000D+01
-.654163235919D-04 0.000000000000D+00 -.109859835231D-04 0.619351671777D-08 0.000000000000D+00  7 1 -1 23 -11 11 23 21 2 0.49124432D-01 0.54876127D-01 0.65030815D+05 0.65030815D+05 0.65030815D+05 0.11373882D+01  1  2  5  2  7  2       -1 -.287324853537D-02 0.100000000000D+01
0.659441543703D-04 0.000000000000D+00 0.109688698924D-04 0.619351671777D-08 0.000000000000D+00  7 1 -1 23 -11 11 23 21 2 0.49124432D-01 0.51895139D-01 0.65030815D+05 0.65030815D+05 0.65030815D+05 0.11373882D+01  1  2  6  2  7  2       -1 0.320449748687D-02 0.100000000000D+01
0.151990360048D-06 0.000000000000D+00 0.000000000000D+00 0.619351671777D-08 0.000000000000D+00  7 1 21 23 -11 11 23 1 2 0.49124432D-01 0.54417799D-01 0.69656148D+05 0.69656148D+05 0.69656148D+05 0.11348415D+01  1  2 12  4  7  2       -1 0.614108404816D-04 0.100000000000D+01
-.619218407378D-06 0.000000000000D+00 -.106001934706D-06 0.619351671777D-08 0.000000000000D+00  7 1 21 23 -11 11 23 1 2 0.49124432D-01 0.54876127D-01 0.65030815D+05 0.65030815D+05 0.65030815D+05 0.11373882D+01  1  2  5  4  7  2       -1 -.247537411800D-03 0.100000000000D+01
  </mgrwgt>
  </event>
  <event>
  9     66 0.25924217E-05 0.25136376E+03 0.75467711E-02 0.10281789E+00
        1 -1    0    0  501    0 0.00000000E+00 0.00000000E+00 0.22312559E+03 0.22312582E+03 0.32000000E+00 0.0000E+00 0.9000E+01
       -1 -1    0    0    0  502 0.00000000E+00 0.00000000E+00 -.35814087E+03 0.35814101E+03 0.32000000E+00 0.0000E+00 0.9000E+01
       25  2    1    2    0    0 0.11389113E+02 0.14576531E+03 -.18303465E+03 0.38055862E+03 0.29990989E+03 0.0000E+00 0.0000E+00
       23  2    3    3    0    0 0.11389353E+03 0.12318917E+03 -.12931923E+03 0.23150348E+03 0.93397469E+02 0.0000E+00 0.0000E+00
       23  1    1    2    0    0 -.11819345E+02 -.15787639E+03 0.45948158E+02 0.18839092E+03 0.91188000E+02 0.0000E+00 0.9000E+01
      -11  1    4    4    0    0 0.11636535E+03 0.88361826E+02 -.68493943E+02 0.16136954E+03 0.51099893E-03 0.0000E+00 0.9000E+01
       11  1    4    4    0    0 -.24718186E+01 0.34827347E+02 -.60825286E+02 0.70133939E+02 0.51099893E-03 0.0000E+00 0.9000E+01
       23  1    3    3    0    0 -.10250442E+03 0.22576134E+02 -.53715421E+02 0.14905514E+03 0.91188000E+02 0.0000E+00 0.9000E+01
       21  1    1    2  501  502 0.43023118E+00 0.12111087E+02 0.20712157E+01 0.12317303E+02 0.75000000E+00 0.0000E+00 0.9000E+01
#aMCatNLO 2  0  0  2  1 0.12118726D+02 0.00000000D+00  -5  7  0 0.00000000D+00 0.00000000D+00 0.00000000D+00 0.00000000D+00 0.00000000D+00
  <mgrwgt>
 0.1636904827D-03    2    2    0
 0.276027173367945D+03 0.000000000000000D+00 0.000000000000000D+00 0.276027173367945D+03
 0.276027173367945D+03 0.000000000000000D+00 0.000000000000000D+00 -.276027173367945D+03
 0.202093609501032D+03 -.116605327032874D+02 -.153405809349428D+03 0.941130452810767D+02
 0.151328851119245D+03 0.116482466581550D+03 0.916586610680868D+02 -.305114078887602D+02
 0.579382815577302D+02 -.242697346076992D+01 0.360897461554655D+02 -.452601866116083D+02
 0.140693604557883D+03 -.102394960417493D+03 0.256574021258758D+02 -.183414507807082D+02
 0.000000000000000D+00 0.000000000000000D+00 0.000000000000000D+00 0.000000000000000D+00
 0.285281579675323D+03 0.000000000000000D+00 0.000000000000000D+00 0.285281579675323D+03
 0.280089782655111D+03 0.000000000000000D+00 0.000000000000000D+00 -.280089782655111D+03
 0.205516834345613D+03 -.118193446059173D+02 -.157876393600977D+03 0.941130452810767D+02
 0.149263703445186D+03 0.116365350653272D+03 0.883618261590329D+02 -.305114078887602D+02
 0.571623866894499D+02 -.247181862211027D+01 0.348273466203785D+02 -.452601866116083D+02
 0.140244421694653D+03 -.102504418610098D+03 0.225761338836461D+02 -.183414507807082D+02
 0.131840161555327D+02 0.430231184852753D+00 0.121110869379195D+02 0.519179702021200D+01
-.347373631751D-05 0.000000000000D+00 0.000000000000D+00 0.109236313227D-06 0.000000000000D+00  7 1 -1 23 -11 11 23 21 2 0.33212233D-01 0.54297382D-01 0.63183740D+05 0.63183740D+05 0.63183740D+05 0.11384615D+01  1  2  8  2  7  2       -1 -.259005041357D-03 0.100000000000D+01
0.609584476228D-05 0.000000000000D+00 0.000000000000D+00 0.109236313227D-06 0.512834415255D-08  7 1 -1 23 -11 11 23 21 2 0.34325744D-01 0.55096539D-01 0.66277210D+05 0.66277210D+05 0.66277210D+05 0.11366828D+01  1  2  1  2  7  2       -1 0.422695524053D-03 0.100000000000D+01
  </mgrwgt>
  </event>
  <event>
  8     66 0.25924217E-05 0.25560718E+03 0.75467711E-02 0.92687926E-01
        1 -1    0    0  501    0 0.00000000E+00 0.00000000E+00 0.14396542E+04 0.14396542E+04 0.32000000E+00 0.0000E+00 0.9000E+01
       -1 -1    0    0    0  501 0.00000000E+00 0.00000000E+00 -.92940112E+03 0.92940118E+03 0.32000000E+00 0.0000E+00 0.9000E+01
       25  2    1    2    0    0 -.29876001E+03 -.38280389E+03 -.79206192E+03 0.97616777E+03 0.29957480E+03 0.0000E+00 0.0000E+00
       23  2    3    3    0    0 -.26410345E+03 -.22240384E+03 -.37068083E+03 0.51485818E+03 0.91981386E+02 0.0000E+00 0.0000E+00
       23  1    1    2    0    0 0.29876001E+03 0.38280389E+03 0.13023150E+04 0.13928876E+04 0.91188000E+02 0.0000E+00 0.9000E+01
      -11  1    4    4    0    0 -.24940881E+02 -.67905712E+02 -.67515316E+02 0.98952267E+02 0.51099893E-03 0.0000E+00 0.9000E+01
       11  1    4    4    0    0 -.23916257E+03 -.15449813E+03 -.30316551E+03 0.41590592E+03 0.51099893E-03 0.0000E+00 0.9000E+01
       23  1    3    3    0    0 -.34656560E+02 -.16040006E+03 -.42138110E+03 0.46130959E+03 0.91188000E+02 0.0000E+00 0.9000E+01
#aMCatNLO 1  0  0  1  2 0.13740411D+03 0.00000000D+00  -5  7  0 0.00000000D+00 0.00000000D+00 0.00000000D+00 0.00000000D+00 0.00000000D+00
  <mgrwgt>
 0.8668023520D-03    9    2    0
 0.115672656049278D+04 0.000000000000000D+00 0.000000000000000D+00 0.115672656049278D+04
 0.115672656049278D+04 0.000000000000000D+00 0.000000000000000D+00 -.115672656049278D+04
 0.113912736864277D+04 0.298760007734419D+03 0.382803893850479D+03 0.102640126036480D+04
 0.116221634185761D+03 -.249408808445863D+02 -.679057122018064D+02 -.909628218882332D+02
 0.492767839617575D+03 -.239162566538980D+03 -.154498125974866D+03 -.402183713740518D+03
 0.565336278539444D+03 -.346565603508536D+02 -.160400055673807D+03 -.533254724736045D+03
 0.000000000000000D+00 -.000000000000000D+00 -.000000000000000D+00 0.000000000000000D+00
 0.123627624268394D+04 0.000000000000000D+00 0.000000000000000D+00 0.123627624268394D+04
 0.121965902006612D+04 0.000000000000000D+00 0.000000000000000D+00 -.121965902006612D+04
 0.116160479889076D+04 0.366479127271520D+03 0.391412773754140D+03 0.102640126036480D+04
 0.114448318093290D+03 -.181514047410951D+02 -.670425913463779D+02 -.909628218882332D+02
 0.478387698831745D+03 -.210577840804532D+03 -.150864256063251D+03 -.402183713740518D+03
 0.563089169274846D+03 -.144279524269553D+01 -.156177713196246D+03 -.533254724736045D+03
 0.138405277659415D+03 -.136307086483197D+03 -.173282131482653D+02 0.166172226178214D+02
0.120266031812D-02 0.000000000000D+00 0.000000000000D+00 0.859129995537D-05 0.000000000000D+00  7 1 -1 23 -11 11 23 21 0 0.22148527D+00 0.14298479D+00 0.26981685D+06 0.26981685D+06 0.26981685D+06 0.10879755D+01  1  2  2  1  7  1        1 0.448117814735D-03 0.100000000000D+01
-.147449902801D-04 0.000000000000D+00 -.461853228932D-05 0.859129995537D-05 0.000000000000D+00  7 1 -1 23 -11 11 23 21 2 0.22148527D+00 0.14298479D+00 0.26981685D+06 0.26981685D+06 0.26981685D+06 0.10879755D+01  1  2  3  1  7  1        1 -.650327293577D-05 0.100000000000D+01
0.706578061154D-04 0.000000000000D+00 0.000000000000D+00 0.859129995537D-05 0.000000000000D+00  7 1 -1 23 -11 11 23 21 2 0.22148527D+00 0.14298479D+00 0.26981685D+06 0.26981685D+06 0.26981685D+06 0.10879755D+01  1  2 15  1  7  1        1 0.311636012965D-04 0.100000000000D+01
0.185862979062D-02 0.000000000000D+00 0.000000000000D+00 0.859129995537D-05 0.000000000000D+00  7 1 -1 23 -11 11 23 21 2 0.24237533D+00 0.14298479D+00 0.35441651D+06 0.35441651D+06 0.35441651D+06 0.10792362D+01  1  2 12  1  7  1        1 0.639953762194D-03 0.100000000000D+01
-.164233857334D-02 0.000000000000D+00 0.000000000000D+00 0.859129995537D-05 0.000000000000D+00  7 1 -1 23 -11 11 23 21 2 0.22148527D+00 0.14298479D+00 0.26981685D+06 0.26981685D+06 0.26981685D+06 0.10879755D+01  1  2  4  1  7  1        1 -.724352867817D-03 0.100000000000D+01
-.484193388597D-02 0.000000000000D+00 -.139329250496D-02 0.859129995537D-05 0.000000000000D+00  7 1 -1 23 -11 11 23 21 2 0.24427050D+00 0.14298479D+00 0.26981685D+06 0.26981685D+06 0.26981685D+06 0.10879755D+01  1  2  5  1  7  1        1 -.169819335003D-02 0.100000000000D+01
0.496121443499D-02 0.000000000000D+00 0.138663939762D-02 0.859129995537D-05 0.000000000000D+00  7 1 -1 23 -11 11 23 21 2 0.22148527D+00 0.14298479D+00 0.26981685D+06 0.26981685D+06 0.26981685D+06 0.10879755D+01  1  2  6  1  7  1        1 0.218814193503D-02 0.100000000000D+01
0.275795172615D-04 0.000000000000D+00 0.000000000000D+00 0.859129995537D-05 0.000000000000D+00  7 21 -1 23 -11 11 23 -1 2 0.24237533D+00 0.14298479D+00 0.35441651D+06 0.35441651D+06 0.35441651D+06 0.10792362D+01  1  2 12  3  7  1        1 0.681517914925D-05 0.100000000000D+01
-.728088191574D-04 0.000000000000D+00 -.222225103596D-04 0.859129995537D-05 0.000000000000D+00  7 21 -1 23 -11 11 23 -1 2 0.24427050D+00 0.14298479D+00 0.26981685D+06 0.26981685D+06 0.26981685D+06 0.10879755D+01  1  2  5  3  7  1        1 -.183404496330D-04 0.100000000000D+01
  </mgrwgt>
  </event>
  <event>
  8     66 0.25924217E-05 0.24779857E+03 0.75467711E-02 0.95492350E-01
        1 -1    0    0  501    0 0.00000000E+00 0.00000000E+00 0.25907049E+03 0.25907069E+03 0.32000000E+00 0.0000E+00 0.9000E+01
       -1 -1    0    0    0  501 0.00000000E+00 0.00000000E+00 -.11673484E+04 0.11673484E+04 0.32000000E+00 0.0000E+00 0.9000E+01
       25  2    1    2    0    0 0.80153499E+02 0.20367526E+03 0.10590658E+03 0.38488486E+03 0.29834872E+03 0.0000E+00 0.0000E+00
       23  2    3    3    0    0 0.66284770E+02 0.94403581E+02 0.16723955E+03 0.22929044E+03 0.10629831E+03 0.0000E+00 0.0000E+00
       23  1    1    2    0    0 -.80153499E+02 -.20367526E+03 -.10141845E+04 0.10415343E+04 0.91188000E+02 0.0000E+00 0.9000E+01
      -13  1    4    4    0    0 0.40496482E+02 0.52861399E+02 0.16765229E+03 0.18039289E+03 0.10565837E+00 0.0000E+00 0.9000E+01
       13  1    4    4    0    0 0.25788288E+02 0.41542182E+02 -.41274243E+00 0.48897548E+02 0.10565837E+00 0.0000E+00 0.9000E+01
       23  1    3    3    0    0 0.13868729E+02 0.10927168E+03 -.61332963E+02 0.15559443E+03 0.91188000E+02 0.0000E+00 0.9000E+01
#aMCatNLO 1  0  0  1  1 0.35157287D+03 0.00000000D+00  -5  7  0 0.00000000D+00 0.00000000D+00 0.00000000D+00 0.00000000D+00 0.00000000D+00
  <mgrwgt>
 0.4182702301D-03    7    2    0
 0.549932445414628D+03 0.000000000000000D+00 0.000000000000000D+00 0.549932445414628D+03
 0.549932445414628D+03 0.000000000000000D+00 0.000000000000000D+00 -.549932445414628D+03
 0.513247618923073D+03 -.801534993372582D+02 -.203675263471132D+03 -.455191905222578D+03
 0.372401261251415D+03 0.404965000170539D+02 0.528614113021711D+02 0.366399241351775D+03
 0.630742672543049D+02 0.257882700153338D+02 0.415421630337870D+02 0.398444100189472D+02
 0.151141743400464D+03 0.138687293048706D+02 0.109271689135174D+03 0.489482538518561D+02
 0.000000000000000D+00 0.000000000000000D+00 -.000000000000000D+00 0.000000000000000D+00
 0.762555449978045D+03 0.000000000000000D+00 0.000000000000000D+00 0.762555449978045D+03
 0.744185814921704D+03 0.000000000000000D+00 0.000000000000000D+00 -.744185814921704D+03
 0.478898768396704D+03 -.105905335386337D+03 -.511191586826961D+02 -.455191905222578D+03
 0.405470862253847D+03 0.203062986035602D+02 0.172469911320046D+03 0.366399241351775D+03
 0.779399560967796D+02 0.221281496875913D+02 0.632250325267889D+02 0.398444100189472D+02
 0.192379229109174D+03 0.495240820896243D+01 0.162092746742185D+03 0.489482538518561D+02
 0.352052449043245D+03 0.585184788862232D+02 -.346668531906324D+03 0.183696350563404D+02
0.154898236334D-03 0.000000000000D+00 0.000000000000D+00 0.289394474012D-08 0.000000000000D+00  7 1 -1 23 -13 13 23 21 0 0.39857017D-01 0.17959208D+00 0.61404133D+05 0.61404133D+05 0.61404133D+05 0.11395287D+01  1  2  2  1  7  1        1 0.450966694742D-03 0.100000000000D+01
-.195628787271D-05 0.000000000000D+00 -.594850013164D-06 0.289394474012D-08 0.000000000000D+00  7 1 -1 23 -13 13 23 21 2 0.39857017D-01 0.17959208D+00 0.61404133D+05 0.61404133D+05 0.61404133D+05 0.11395287D+01  1  2  3  1  7  1        1 -.739573426300D-05 0.100000000000D+01
0.916118915440D-05 0.000000000000D+00 0.000000000000D+00 0.289394474012D-08 0.000000000000D+00  7 1 -1 23 -13 13 23 21 2 0.39857017D-01 0.17959208D+00 0.61404133D+05 0.61404133D+05 0.61404133D+05 0.11395287D+01  1  2 15  1  7  1        1 0.346338192166D-04 0.100000000000D+01
-.471846311494D-04 0.000000000000D+00 0.000000000000D+00 0.289394474012D-08 0.000000000000D+00  7 1 -1 23 -13 13 23 21 2 0.39857017D-01 0.17959208D+00 0.61404133D+05 0.61404133D+05 0.61404133D+05 0.11395287D+01  1  2  4  1  7  1        1 -.178381207667D-03 0.100000000000D+01
0.260456566668D-04 0.000000000000D+00 -.532752093369D-04 0.289394474012D-08 0.000000000000D+00  7 1 -1 23 -13 13 23 21 2 0.74123112D-01 0.17959208D+00 0.61404133D+05 0.61404133D+05 0.61404133D+05 0.11395287D+01  1  2  5  1  7  1        1 0.434196383963D-04 0.100000000000D+01
0.132137696514D-04 0.000000000000D+00 0.444434274265D-04 0.289394474012D-08 0.000000000000D+00  7 1 -1 23 -13 13 23 21 2 0.39857017D-01 0.17959208D+00 0.61404133D+05 0.61404133D+05 0.61404133D+05 0.11395287D+01  1  2  6  1  7  1        1 0.499545748445D-04 0.100000000000D+01
0.472573593614D-05 0.000000000000D+00 -.360248742713D-05 0.289394474012D-08 0.000000000000D+00  7 21 -1 23 -13 13 23 -1 2 0.74123112D-01 0.17959208D+00 0.61404133D+05 0.61404133D+05 0.61404133D+05 0.11395287D+01  1  2  5  3  7  1        1 0.250724448195D-04 0.100000000000D+01
  </mgrwgt>
  </event>
  <event>
  8     66 0.25924217E-05 0.25401423E+03 0.75467711E-02 0.98353625E-01
        1 -1    0    0  501    0 0.00000000E+00 0.00000000E+00 0.10140156E+04 0.10140157E+04 0.32000000E+00 0.0000E+00 0.9000E+01
       -1 -1    0    0    0  501 0.00000000E+00 0.00000000E+00 -.98855561E+02 0.98856079E+02 0.32000000E+00 0.0000E+00 0.9000E+01
       25  2    1    2    0    0 0.49534921E+02 0.15215769E+03 0.24897316E+03 0.42169456E+03 0.30038808E+03 0.0000E+00 0.0000E+00
       23  2    3    3    0    0 0.73822299E+02 0.19307915E+03 0.21808679E+03 0.31429967E+03 0.92158269E+02 0.0000E+00 0.0000E+00
       23  1    1    2    0    0 -.49534921E+02 -.15215769E+03 0.66618689E+03 0.69117718E+03 0.91188000E+02 0.0000E+00 0.9000E+01
      -13  1    4    4    0    0 -.93265384E+01 -.14508559E+01 -.12986584E+01 0.95282201E+01 0.10565837E+00 0.0000E+00 0.9000E+01
       13  1    4    4    0    0 0.83148838E+02 0.19453001E+03 0.21938545E+03 0.30477145E+03 0.10565837E+00 0.0000E+00 0.9000E+01
       23  1    3    3    0    0 -.24287378E+02 -.40921464E+02 0.30886374E+02 0.10739489E+03 0.91188000E+02 0.0000E+00 0.9000E+01
#aMCatNLO 1  0  0  2  1 0.18619021D+03 0.00000000D+00  -5  7  0 0.00000000D+00 0.00000000D+00 0.00000000D+00 0.00000000D+00 0.00000000D+00
  <mgrwgt>
 0.6327473122D-03    7    2    0
 0.316609220937495D+03 0.000000000000000D+00 0.000000000000000D+00 0.316609220937495D+03
 0.316609220937495D+03 0.000000000000000D+00 0.000000000000000D+00 -.316609220937495D+03
 0.251925581240951D+03 -.495349212068072D+02 -.152157688135779D+03 0.171888267958582D+03
 0.186223266005090D+02 -.932665970741990D+01 -.145111325221919D+01 -.160529977589000D+02
 0.218564239839327D+03 0.831489589082774D+02 0.194530265369436D+03 -.549049489965077D+02
 0.144106294194203D+03 -.242873779940503D+02 -.409214639814383D+02 -.100930321203175D+03
 0.000000000000000D+00 0.000000000000000D+00 -.000000000000000D+00 -.000000000000000D+00
 0.421610236639970D+03 0.000000000000000D+00 0.000000000000000D+00 0.421610236639970D+03
 0.424628974847005D+03 0.000000000000000D+00 0.000000000000000D+00 -.424628974847005D+03
 0.259345093235609D+03 -.117789407513319D+03 -.124598173571070D+03 0.171888267958582D+03
 0.217938363311456D+02 -.147222057011435D+02 0.727478023536915D+00 -.160529977589000D+02
 0.226561909884976D+03 0.237247474137834D+02 0.218524328042831D+03 -.549049489965077D+02
 0.152323696308935D+03 -.638606954904039D+02 -.249427132951183D+02 -.100930321203175D+03
 0.186214675726310D+03 0.172647561291083D+03 -.697109192001798D+02 -.301873820703460D+01
0.109294260297D-04 0.000000000000D+00 0.000000000000D+00 0.433445197671D-06 0.000000000000D+00  7 1 -1 23 -13 13 23 21 0 0.15600245D+00 0.15208592D-01 0.64523227D+05 0.64523227D+05 0.64523227D+05 0.11376798D+01  1  2  2  2  7  2       -1 0.591126164790D-03 0.100000000000D+01
-.571368435934D-06 0.000000000000D+00 -.419718737381D-07 0.433445197671D-06 0.000000000000D+00  7 1 -1 23 -13 13 23 21 2 0.15600245D+00 0.15208592D-01 0.64523227D+05 0.64523227D+05 0.64523227D+05 0.11376798D+01  1  2  3  2  7  2       -1 -.399980799535D-04 0.100000000000D+01
0.681398569073D-06 0.000000000000D+00 0.000000000000D+00 0.433445197671D-06 0.000000000000D+00  7 1 -1 23 -13 13 23 21 2 0.15600245D+00 0.15208592D-01 0.64523227D+05 0.64523227D+05 0.64523227D+05 0.11376798D+01  1  2 15  2  7  2       -1 0.477006301572D-04 0.100000000000D+01
-.326592939465D-05 0.000000000000D+00 0.000000000000D+00 0.433445197671D-06 0.000000000000D+00  7 1 -1 23 -13 13 23 21 2 0.15600245D+00 0.15208592D-01 0.64523227D+05 0.64523227D+05 0.64523227D+05 0.11376798D+01  1  2  4  2  7  2       -1 -.228628144003D-03 0.100000000000D+01
-.288924830808D-05 0.000000000000D+00 -.377250827354D-05 0.433445197671D-06 0.000000000000D+00  7 1 -1 23 -13 13 23 21 2 0.15600245D+00 0.27350286D-01 0.64523227D+05 0.64523227D+05 0.64523227D+05 0.11376798D+01  1  2  5  2  7  2       -1 -.791085751784D-04 0.100000000000D+01
0.481741258900D-05 0.000000000000D+00 0.320462959185D-05 0.433445197671D-06 0.000000000000D+00  7 1 -1 23 -13 13 23 21 2 0.15600245D+00 0.15208592D-01 0.64523227D+05 0.64523227D+05 0.64523227D+05 0.11376798D+01  1  2  6  2  7  2       -1 0.337238184305D-03 0.100000000000D+01
0.142717861129D-07 0.000000000000D+00 -.242865709367D-06 0.433445197671D-06 0.000000000000D+00  7 1 21 23 -13 13 23 1 2 0.15600245D+00 0.27350286D-01 0.64523227D+05 0.64523227D+05 0.64523227D+05 0.11376798D+01  1  2  5  4  7  2       -1 0.441713203706D-05 0.100000000000D+01
  </mgrwgt>
  </event>
  <event>
  8     66 0.25924217E-05 0.74014100E+03 0.75467711E-02 0.85368600E-01
        1 -1    0    0  501    0 0.00000000E+00 0.00000000E+00 0.14193770E+04 0.14193770E+04 0.32000000E+00 0.0000E+00 0.9000E+01
       -1 -1    0    0    0  501 0.00000000E+00 0.00000000E+00 -.39021665E+03 0.39021678E+03 0.32000000E+00 0.0000E+00 0.9000E+01
       25  2    1    2    0    0 0.56356012E+03 0.43296440E+03 0.51111431E+03 0.92543027E+03 0.30020854E+03 0.0000E+00 0.0000E+00
       23  2    3    3    0    0 0.42353215E+03 0.41879018E+03 0.41045778E+03 0.72983955E+03 0.97084949E+02 0.0000E+00 0.0000E+00
       23  1    1    2    0    0 -.56356012E+03 -.43296440E+03 0.51804602E+03 0.88416351E+03 0.91188000E+02 0.0000E+00 0.9000E+01
      -11  1    4    4    0    0 0.25681391E+03 0.26984055E+03 0.31048098E+03 0.48493891E+03 0.51099893E-03 0.0000E+00 0.9000E+01
       11  1    4    4    0    0 0.16671824E+03 0.14894963E+03 0.99976793E+02 0.24490064E+03 0.51099893E-03 0.0000E+00 0.9000E+01
       23  1    3    3    0    0 0.14002797E+03 0.14174221E+02 0.10065653E+03 0.19559072E+03 0.91188000E+02 0.0000E+00 0.9000E+01
#aMCatNLO 1  0  0  2  1 0.79925299D+03 0.00000000D+00  -5  7  0 0.00000000D+00 0.00000000D+00 0.00000000D+00 0.00000000D+00 0.00000000D+00
  <mgrwgt>
 0.3702408300D-03    5    2    0
 0.744220850716421D+03 0.000000000000000D+00 0.000000000000000D+00 0.744220850716421D+03
 0.744220850716421D+03 0.000000000000000D+00 0.000000000000000D+00 -.744220850716421D+03
 0.716739116449077D+03 -.563560124010441D+03 -.432964403713383D+03 0.184802988789390D+02
 0.374893909016009D+03 0.256813907210597D+03 0.269840548956148D+03 0.421679762328687D+02
 0.228613948349444D+03 0.166718243698149D+03 0.148949633524966D+03 -.477846342552230D+02
 0.168194727618311D+03 0.140027973101696D+03 0.141742212322692D+02 -.128636408565847D+02
 0.000000000000000D+00 0.000000000000000D+00 0.000000000000000D+00 -.000000000000000D+00
 0.120109589938524D+04 0.000000000000000D+00 0.000000000000000D+00 0.120109589938524D+04
 0.129286496415146D+04 0.000000000000000D+00 0.000000000000000D+00 -.129286496415146D+04
 0.119501260904640D+04 -.952513532521784D+03 -.715623038583932D+03 0.184802988789390D+02
 0.228785936114668D+03 0.133992868117604D+03 0.180584544294100D+03 0.421679762328687D+02
 0.140049057293161D+03 0.917123050480530D+02 0.944416236654720D+02 -.477846342552230D+02
 0.125609126673978D+03 0.802524232555784D+02 -.292656225855469D+02 -.128636408565847D+02
 0.804504134408490D+03 0.646555936100549D+03 0.469862493209907D+03 -.917690647662153D+02
0.142850062248D-03 0.000000000000D+00 0.000000000000D+00 0.130415529317D-06 0.000000000000D+00  7 1 -1 23 -11 11 23 21 0 0.21836570D+00 0.60033343D-01 0.54780870D+06 0.54780870D+06 0.54780870D+06 0.10657188D+01  1  2  2  2  7  2       -1 0.362951780377D-03 0.100000000000D+01
-.793582298724D-05 0.000000000000D+00 -.548581852318D-06 0.130415529317D-06 0.000000000000D+00  7 1 -1 23 -11 11 23 21 2 0.21836570D+00 0.60033343D-01 0.54780870D+06 0.54780870D+06 0.54780870D+06 0.10657188D+01  1  2  3  2  7  2       -1 -.229005380882D-04 0.100000000000D+01
0.862314763237D-05 0.000000000000D+00 0.000000000000D+00 0.130415529317D-06 0.000000000000D+00  7 1 -1 23 -11 11 23 21 2 0.21836570D+00 0.60033343D-01 0.54780870D+06 0.54780870D+06 0.54780870D+06 0.10657188D+01  1  2 15  2  7  2       -1 0.248839623959D-04 0.100000000000D+01
0.194238188352D-05 0.000000000000D+00 -.432965608664D-04 0.130415529317D-06 0.000000000000D+00  7 1 -1 23 -11 11 23 21 2 0.21836570D+00 0.16259084D+00 0.54780870D+06 0.54780870D+06 0.54780870D+06 0.10657188D+01  1  2  5  2  7  2       -1 0.552175321092D-06 0.100000000000D+01
0.272830088187D-05 0.000000000000D+00 -.481456127469D-05 0.130415529317D-06 0.000000000000D+00  7 1 21 23 -11 11 23 1 2 0.21836570D+00 0.16259084D+00 0.54780870D+06 0.54780870D+06 0.54780870D+06 0.10657188D+01  1  2  5  4  7  2       -1 0.475344997141D-05 0.100000000000D+01
  </mgrwgt>
  </event>
  <event>
  8     66 0.25924217E-05 0.29726082E+03 0.75467711E-02 0.95145140E-01
        3 -1    0    0  501    0 0.00000000E+00 0.00000000E+00 0.15110786E+04 0.15110787E+04 0.50000000E+00 0.0000E+00 0.9000E+01
       -3 -1    0    0    0  501 0.00000000E+00 0.00000000E+00 -.33713215E+03 0.33713252E+03 0.50000000E+00 0.0000E+00 0.9000E+01
       25  2    1    2    0    0 0.20699780E+03 -.50601442E+02 0.14453030E+04 0.14913383E+04 0.29963405E+03 0.0000E+00 0.0000E+00
       23  2    3    3    0    0 0.18673671E+03 0.63079207E+02 0.78748907E+03 0.81726989E+03 0.94559242E+02 0.0000E+00 0.0000E+00
       23  1    1    2    0    0 -.20699780E+03 0.50601442E+02 -.27135658E+03 0.35687287E+03 0.91188000E+02 0.0000E+00 0.9000E+01
      -13  1    4    4    0    0 0.53090593E+02 0.62432263E+02 0.36758189E+03 0.37660703E+03 0.10565837E+00 0.0000E+00 0.9000E+01
       13  1    4    4    0    0 0.13364612E+03 0.64694430E+00 0.41990718E+03 0.44066286E+03 0.10565837E+00 0.0000E+00 0.9000E+01
       23  1    3    3    0    0 0.20261090E+02 -.11368065E+03 0.65781394E+03 0.67406842E+03 0.91188000E+02 0.0000E+00 0.9000E+01
#aMCatNLO 1  0  0  2  1 0.35234996D+03 0.00000000D+00  -5  7  0 0.00000000D+00 0.00000000D+00 0.00000000D+00 0.00000000D+00 0.00000000D+00
  <mgrwgt>
 0.1599648351D-04    4    2    0
 0.713746160868130D+03 0.000000000000000D+00 0.000000000000000D+00 0.713746160868130D+03
 0.713746160868130D+03 0.000000000000000D+00 0.000000000000000D+00 -.713746160868130D+03
 0.685211748187600D+03 -.206997804605474D+03 0.506014419788510D+02 -.644818805144889D+03
 0.185309440475447D+03 0.530904922012332D+02 0.624323397238351D+02 0.166202260284756D+03
 0.225212810465670D+03 0.133646222278533D+03 0.646867403064860D+00 0.181270733520571D+03
 0.331758322607542D+03 0.202610901257082D+02 -.113680649105751D+03 0.297345811339563D+03
 0.000000000000000D+00 -.000000000000000D+00 0.000000000000000D+00 0.000000000000000D+00
 0.120602589891511D+04 0.000000000000000D+00 0.000000000000000D+00 0.120602589891511D+04
 0.801084569722320D+03 0.000000000000000D+00 0.000000000000000D+00 -.801084569722320D+03
 0.654188837460322D+03 -.593783568144633D+02 -.181852409172730D+02 -.644818805144889D+03
 0.196240364094169D+03 0.951422667478963D+02 0.428373464878778D+02 0.166202260284756D+03
 0.261805762764998D+03 0.187322033394816D+03 -.243646134939180D+02 0.181270733520571D+03
 0.358099970919124D+03 0.962924891228895D+02 -.149109231255523D+03 0.297345811339563D+03
 0.536775533398814D+03 -.319378432451139D+03 0.148821739178836D+03 0.404941329192787D+03
0.157582372983D-03 0.000000000000D+00 0.000000000000D+00 0.452586368048D-06 0.000000000000D+00  7 3 -3 23 -13 13 23 21 0 0.23247366D+00 0.51866519D-01 0.88363997D+05 0.88363997D+05 0.88363997D+05 0.11261576D+01  1  2  2  2  7  2       -3 0.163709418308D-04 0.100000000000D+01
-.587944440187D-06 0.000000000000D+00 -.605157804646D-06 0.452586368048D-06 0.000000000000D+00  7 3 -3 23 -13 13 23 21 2 0.23247366D+00 0.51866519D-01 0.88363997D+05 0.88363997D+05 0.88363997D+05 0.11261576D+01  1  2  3  2  7  2       -3 -.774641344417D-07 0.100000000000D+01
0.919275180301D-05 0.000000000000D+00 0.000000000000D+00 0.452586368048D-06 0.000000000000D+00  7 3 -3 23 -13 13 23 21 2 0.23247366D+00 0.51866519D-01 0.88363997D+05 0.88363997D+05 0.88363997D+05 0.11261576D+01  1  2 15  2  7  2       -3 0.121118342633D-05 0.100000000000D+01
-.114469057058D-04 0.000000000000D+00 0.000000000000D+00 0.452586368048D-06 0.000000000000D+00  7 3 -3 23 -13 13 23 21 2 0.23247366D+00 0.51866519D-01 0.88363997D+05 0.88363997D+05 0.88363997D+05 0.11261576D+01  1  2  4  2  7  2       -3 -.150817761327D-05 0.100000000000D+01
  </mgrwgt>
  </event>
  <event>
  8     66 0.25924217E-05 0.24300812E+03 0.75467711E-02 0.98439381E-01
        1 -1    0    0  501    0 0.00000000E+00 0.00000000E+00 0.13336201E+03 0.13336239E+03 0.32000000E+00 0.0000E+00 0.9000E+01
       -1 -1    0    0    0  501 0.00000000E+00 0.00000000E+00 -.92169901E+03 0.92169906E+03 0.32000000E+00 0.0000E+00 0.9000E+01
       25  2    1    2    0    0 0.26579677E+03 0.20460842E+02 -.57813288E+03 0.70353963E+03 0.29943918E+03 0.0000E+00 0.0000E+00
       23  2    3    3    0    0 0.29072026E+03 0.25810739E+01 -.43774897E+03 0.53335221E+03 0.91189286E+02 0.0000E+00 0.0000E+00
       23  1    1    2    0    0 -.26579677E+03 -.20460842E+02 -.21020412E+03 0.35152182E+03 0.91188000E+02 0.0000E+00 0.9000E+01
      -13  1    4    4    0    0 0.32932321E+02 0.84307616E+01 -.12867971E+02 0.36348472E+02 0.10565837E+00 0.0000E+00 0.9000E+01
       13  1    4    4    0    0 0.25778794E+03 -.58496877E+01 -.42488100E+03 0.49700374E+03 0.10565837E+00 0.0000E+00 0.9000E+01
       23  1    3    3    0    0 -.24923492E+02 0.17879768E+02 -.14038391E+03 0.17018742E+03 0.91188000E+02 0.0000E+00 0.9000E+01
#aMCatNLO 1  0  0  2  1 0.52156836D+02 0.00000000D+00  -5  7  0 0.00000000D+00 0.00000000D+00 0.00000000D+00 0.00000000D+00 0.00000000D+00
  <mgrwgt>
 0.4434375813D-03    9    2    0
 0.350599291926340D+03 0.000000000000000D+00 0.000000000000000D+00 0.350599291926340D+03
 0.350599291926340D+03 0.000000000000000D+00 0.000000000000000D+00 -.350599291926340D+03
 0.292592492192753D+03 -.265796769071916D+03 -.204608423126802D+02 0.789211418211374D+02
 0.402244922096611D+02 0.329320195578820D+02 0.843078070562434D+01 0.215038089197714D+02
 0.270137870794731D+03 0.257788241658347D+03 -.584970684992305D+01 -.805324321623188D+02
 0.982437286555346D+02 -.249234921443123D+02 0.178797684569789D+02 -.198925185785900D+02
 0.000000000000000D+00 0.000000000000000D+00 -.000000000000000D+00 -.000000000000000D+00
 0.354923573055570D+03 0.000000000000000D+00 0.000000000000000D+00 0.354923573055570D+03
 0.554231237460398D+03 0.000000000000000D+00 0.000000000000000D+00 -.554231237460398D+03
 0.295330060256707D+03 -.269582931640158D+03 0.104378598207391D+01 0.789211418211374D+02
 0.405284734124970D+02 0.324119785177156D+02 0.113845073523885D+02 0.215038089197714D+02
 0.267130770021186D+03 0.254328285226208D+03 0.138021373717991D+02 -.805324321623188D+02
 0.100146379915150D+03 -.262011046459083D+02 0.251363459167035D+02 -.198925185785900D+02
 0.206019126910428D+03 0.904377254214277D+01 -.513667766229650D+02 -.199307664404827D+03
0.263688026036D-04 0.000000000000D+00 0.000000000000D+00 0.405392763301D-06 0.000000000000D+00  7 1 -1 23 -13 13 23 21 0 0.20517266D-01 0.14179988D+00 0.11215974D+06 0.11215974D+06 0.11215974D+06 0.11176551D+01  1  2  2  2  7  2       -1 0.359334538422D-03 0.100000000000D+01
-.146119658342D-05 0.000000000000D+00 -.101263145063D-06 0.405392763301D-06 0.000000000000D+00  7 1 -1 23 -13 13 23 21 2 0.20517266D-01 0.14179988D+00 0.11215974D+06 0.11215974D+06 0.11215974D+06 0.11176551D+01  1  2  3  2  7  2       -1 -.248732675968D-04 0.100000000000D+01
0.171089881535D-05 0.000000000000D+00 0.000000000000D+00 0.405392763301D-06 0.000000000000D+00  7 1 -1 23 -13 13 23 21 2 0.20517266D-01 0.14179988D+00 0.11215974D+06 0.11215974D+06 0.11215974D+06 0.11176551D+01  1  2 15  2  7  2       -1 0.291238321716D-04 0.100000000000D+01
0.178294713609D-03 0.000000000000D+00 0.000000000000D+00 0.405392763301D-06 0.000000000000D+00  7 1 -1 23 -13 13 23 21 2 0.20517266D-01 0.22460893D+00 0.13102702D+06 0.13102702D+06 0.13102702D+06 0.11122166D+01  1  2 12  2  7  2       -1 0.640130433850D-03 0.100000000000D+01
-.163876688753D-03 0.000000000000D+00 0.000000000000D+00 0.405392763301D-06 0.000000000000D+00  7 1 -1 23 -13 13 23 21 2 0.20517266D-01 0.14179988D+00 0.11215974D+06 0.11215974D+06 0.11215974D+06 0.11176551D+01  1  2  4  2  7  2       -1 -.278959640234D-02 0.100000000000D+01
-.183604288428D-03 0.000000000000D+00 -.896416993251D-05 0.405392763301D-06 0.000000000000D+00  7 1 -1 23 -13 13 23 21 2 0.20517266D-01 0.22504478D+00 0.11215974D+06 0.11215974D+06 0.11215974D+06 0.11176551D+01  1  2  5  2  7  2       -1 -.665046632982D-03 0.100000000000D+01
0.170148354490D-03 0.000000000000D+00 0.808619041849D-05 0.405392763301D-06 0.000000000000D+00  7 1 -1 23 -13 13 23 21 2 0.20517266D-01 0.14179988D+00 0.11215974D+06 0.11215974D+06 0.11215974D+06 0.11176551D+01  1  2  6  2  7  2       -1 0.289635604162D-02 0.100000000000D+01
0.942057351596D-05 0.000000000000D+00 0.000000000000D+00 0.405392763301D-06 0.000000000000D+00  7 1 21 23 -13 13 23 1 2 0.20517266D-01 0.22460893D+00 0.13102702D+06 0.13102702D+06 0.13102702D+06 0.11122166D+01  1  2 12  4  7  2       -1 0.232911007269D-03 0.100000000000D+01
-.936401031344D-05 0.000000000000D+00 -.475167034076D-06 0.405392763301D-06 0.000000000000D+00  7 1 21 23 -13 13 23 1 2 0.20517266D-01 0.22504478D+00 0.11215974D+06 0.11215974D+06 0.11215974D+06 0.11176551D+01  1  2  5  4  7  2       -1 -.234901969062D-03 0.100000000000D+01
  </mgrwgt>
  </event>
  <event>
  9     66 -.25924217E-05 0.19055932E+03 0.75467711E-02 0.10663691E+00
        1 -1    0    0  502    0 0.00000000E+00 0.00000000E+00 0.23023719E+03 0.23023742E+03 0.32000000E+00 0.0000E+00 0.9000E+01
       -1 -1    0    0    0  501 0.00000000E+00 0.00000000E+00 -.50882634E+03 0.50882644E+03 0.32000000E+00 0.0000E+00 0.9000E+01
       25  2    1    2    0    0 0.88973827E+01 0.58360969E+00 0.11080302E+03 0.31901279E+03 0.29901897E+03 0.0000E+00 0.0000E+00
       23  2    3    3    0    0 0.10767055E+03 -.48424158E+02 0.21925806E+02 0.15057196E+03 0.90847841E+02 0.0000E+00 0.0000E+00
       23  1    1    2    0    0 -.47190248E+00 0.56628979E+01 -.39680371E+03 0.40718636E+03 0.91188000E+02 0.0000E+00 0.9000E+01
      -13  1    4    4    0    0 0.93117423E+01 0.23130237E+02 0.14199622E+02 0.28694195E+02 0.10565837E+00 0.0000E+00 0.9000E+01
       13  1    4    4    0    0 0.98358803E+02 -.71554395E+02 0.77261837E+01 0.12187777E+03 0.10565837E+00 0.0000E+00 0.9000E+01
       23  1    3    3    0    0 -.98773162E+02 0.49007767E+02 0.88877219E+02 0.16844082E+03 0.91188000E+02 0.0000E+00 0.9000E+01
       21  1    1    2  502  501 -.84254802E+01 -.62465076E+01 0.74115398E+01 0.12864719E+02 0.75000000E+00 0.0000E+00 0.9000E+01
#aMCatNLO 2  0  0  1  2 0.10488450D+02 0.00000000D+00  -5  7  0 0.00000000D+00 0.00000000D+00 0.00000000D+00 0.00000000D+00 0.00000000D+00
  <mgrwgt>
 -.1136176909D-03    3    2    0
 0.333713497086095D+03 0.000000000000000D+00 0.000000000000000D+00 0.333713497086095D+03
 0.333713497086095D+03 0.000000000000000D+00 0.000000000000000D+00 -.333713497086095D+03
 0.272959967354135D+03 -.391757224815679D+01 0.310833698784308D+01 -.257229242705453D+03
 0.369714949583746D+02 0.884284998371138D+01 0.227828256371688D+02 0.277423556968232D+02
 0.135348973762799D+03 0.966469028948669D+02 -.728237852790585D+02 0.606252188210699D+02
 0.222146558096882D+03 -.101572180630422D+03 0.469326226540466D+02 0.168861668187559D+03
 0.000000000000000D+00 -.000000000000000D+00 -.000000000000000D+00 0.000000000000000D+00
 0.349119497206820D+03 0.000000000000000D+00 0.000000000000000D+00 0.349119497206820D+03
 0.335544629255376D+03 0.000000000000000D+00 0.000000000000000D+00 -.335544629255376D+03
 0.272973305931853D+03 -.471902477459808D+00 0.566289789738622D+01 -.257229242705453D+03
 0.373009168243326D+02 0.931162193185818D+01 0.231303651792369D+02 0.277423556968232D+02
 0.135904174393999D+03 0.983589230602336D+02 -.715545226735736D+02 0.606252188210699D+02
 0.221331003624983D+03 -.987731623196124D+02 0.490077671797050D+02 0.168861668187559D+03
 0.171547256870287D+02 -.842548019501960D+01 -.624650758275461D+01 0.135748679514433D+02
-.468764112539D-04 0.000000000000D+00 0.000000000000D+00 0.286121629285D-06 0.000000000000D+00  7 1 -1 23 -13 13 23 21 2 0.35510636D-01 0.77851913D-01 0.38319007D+05 0.38319007D+05 0.38319007D+05 0.11576005D+01  1  2 13  1  7  1        1 -.169002830436D-02 0.100000000000D+01
-.503579392242D-04 0.000000000000D+00 0.000000000000D+00 0.286121629285D-06 0.000000000000D+00  7 1 -1 23 -13 13 23 21 2 0.33857239D-01 0.77851913D-01 0.36312854D+05 0.36312854D+05 0.36312854D+05 0.11597180D+01  1  2  8  1  7  1        1 -.193860309618D-02 0.100000000000D+01
0.982334403979D-04 0.000000000000D+00 0.000000000000D+00 0.286121629285D-06 0.186055969421D-07  7 1 -1 23 -13 13 23 21 2 0.35420270D-01 0.78279097D-01 0.38319007D+05 0.38319007D+05 0.38319007D+05 0.11576005D+01  1  2  1  1  7  1        1 0.351501370969D-02 0.100000000000D+01
  </mgrwgt>
  </event>
  <event>
  8     66 0.25924217E-05 0.21125519E+03 0.75467711E-02 0.10141558E+00
        1 -1    0    0  501    0 0.00000000E+00 0.00000000E+00 0.19858153E+04 0.19858153E+04 0.32000000E+00 0.0000E+00 0.9000E+01
       -1 -1    0    0    0  501 0.00000000E+00 0.00000000E+00 -.15151636E+03 0.15151670E+03 0.32000000E+00 0.0000E+00 0.9000E+01
       25  2    1    2    0    0 0.95548991E+02 0.43583675E+02 0.19379704E+04 0.19638610E+04 0.29998640E+03 0.0000E+00 0.0000E+00
       23  2    3    3    0    0 0.11456295E+03 -.53876681E+02 0.63641524E+03 0.65534238E+03 0.91770968E+02 0.0000E+00 0.0000E+00
       23  1    1    2    0    0 -.95548991E+02 -.43583675E+02 -.10367147E+03 0.17347095E+03 0.91188000E+02 0.0000E+00 0.9000E+01
      -13  1    4    4    0    0 0.11939878E+03 -.28468235E+02 0.58557043E+03 0.59829696E+03 0.10565837E+00 0.0000E+00 0.9000E+01
       13  1    4    4    0    0 -.48358319E+01 -.25408446E+02 0.50844814E+02 0.57045426E+02 0.10565837E+00 0.0000E+00 0.9000E+01
       23  1    3    3    0    0 -.19013956E+02 0.97460356E+02 0.13015551E+04 0.13085187E+04 0.91188000E+02 0.0000E+00 0.9000E+01
#aMCatNLO 1  0  0  2  1 0.13204406D+03 0.00000000D+00  -5  7  0 0.00000000D+00 0.00000000D+00 0.00000000D+00 0.00000000D+00 0.00000000D+00
  <mgrwgt>
 0.2368161191D-03    4    2    0
 0.548528843472251D+03 0.000000000000000D+00 0.000000000000000D+00 0.548528843472251D+03
 0.548528843472251D+03 0.000000000000000D+00 0.000000000000000D+00 -.548528843472251D+03
 0.511303548654990D+03 -.955489906046196D+02 -.435836748336385D+02 -.492023293356747D+03
 0.186542842935174D+03 0.119398942824274D+03 -.284682394137127D+02 0.140469512875450D+03
 0.261246013146078D+02 -.483599651492944D+01 -.254084417742271D+02 0.367682174717604D+01
 0.373086694039731D+03 -.190139557047253D+02 0.974603560215783D+02 0.347876958734121D+03
 0.000000000000000D+00 0.000000000000000D+00 0.000000000000000D+00 0.000000000000000D+00
 0.649696099908571D+03 0.000000000000000D+00 0.000000000000000D+00 0.649696099908571D+03
 0.597328746551735D+03 0.000000000000000D+00 0.000000000000000D+00 -.597328746551735D+03
 0.522593331841460D+03 -.108900748259941D+03 -.104126101261708D+03 -.492023293356747D+03
 0.188140330749716D+03 0.114560279484691D+03 -.504087529258152D+02 0.140469512875450D+03
 0.294249582313949D+02 -.555336424367425D+01 -.286612856364802D+02 0.367682174717604D+01
 0.364817035556018D+03 -.285432539900529D+02 0.542505513468636D+02 0.347876958734121D+03
 0.142049190081717D+03 0.284370870089768D+02 0.128945588477139D+03 0.523673533568365D+02
0.547348589315D-04 0.000000000000D+00 0.000000000000D+00 0.297041785172D-05 0.000000000000D+00  7 1 -1 23 -13 13 23 21 0 0.30551007D+00 0.23310237D-01 0.44628756D+05 0.44628756D+05 0.44628756D+05 0.11516621D+01  1  2  2  2  7  2       -1 0.340755321350D-03 0.100000000000D+01
0.325276444770D-06 0.000000000000D+00 -.210196270316D-06 0.297041785172D-05 0.000000000000D+00  7 1 -1 23 -13 13 23 21 2 0.30551007D+00 0.23310237D-01 0.44628756D+05 0.44628756D+05 0.44628756D+05 0.11516621D+01  1  2  3  2  7  2       -1 0.268584794013D-05 0.100000000000D+01
0.314961732045D-05 0.000000000000D+00 0.000000000000D+00 0.297041785172D-05 0.000000000000D+00  7 1 -1 23 -13 13 23 21 2 0.30551007D+00 0.23310237D-01 0.44628756D+05 0.44628756D+05 0.44628756D+05 0.11516621D+01  1  2 15  2  7  2       -1 0.260067807810D-04 0.100000000000D+01
-.160627151602D-04 0.000000000000D+00 0.000000000000D+00 0.297041785172D-05 0.000000000000D+00  7 1 -1 23 -13 13 23 21 2 0.30551007D+00 0.23310237D-01 0.44628756D+05 0.44628756D+05 0.44628756D+05 0.11516621D+01  1  2  4  2  7  2       -1 -.132631830923D-03 0.100000000000D+01
  </mgrwgt>
  </event>
  <event>
  8     66 0.25924217E-05 0.71775341E+03 0.75467711E-02 0.83614672E-01
        1 -1    0    0  501    0 0.00000000E+00 0.00000000E+00 0.23945941E+04 0.23945941E+04 0.32000000E+00 0.0000E+00 0.9000E+01
       -1 -1    0    0    0  501 0.00000000E+00 0.00000000E+00 -.89479411E+03 0.89479416E+03 0.32000000E+00 0.0000E+00 0.9000E+01
       25  2    1    2    0    0 -.12273937E+04 0.65955531E+03 0.31885134E+03 0.14606008E+04 0.30030002E+03 0.0000E+00 0.0000E+00
       23  2    3    3    0    0 -.11326471E+03 0.63184761E+02 0.43968933E+02 0.16413763E+03 0.90480307E+02 0.0000E+00 0.0000E+00
       23  1    1    2    0    0 0.12273937E+04 -.65955531E+03 0.11809486E+04 0.18287874E+04 0.91188000E+02 0.0000E+00 0.9000E+01
      -13  1    4    4    0    0 -.19509092E+02 0.80000724E+01 0.50931770E+02 0.55124062E+02 0.10565837E+00 0.0000E+00 0.9000E+01
       13  1    4    4    0    0 -.93755619E+02 0.55184689E+02 -.69628370E+01 0.10901357E+03 0.10565837E+00 0.0000E+00 0.9000E+01
       23  1    3    3    0    0 -.11141290E+04 0.59637055E+03 0.27488241E+03 0.12964632E+04 0.91188000E+02 0.0000E+00 0.9000E+01
#aMCatNLO 1  0  0  2  1 0.20675059D+03 0.00000000D+00  -5  7  0 0.00000000D+00 0.00000000D+00 0.00000000D+00 0.00000000D+00 0.00000000D+00
  <mgrwgt>
 0.3869266427D-03    9    2    0
 0.146378577866719D+04 0.000000000000000D+00 0.000000000000000D+00 0.146378577866719D+04
 0.146378577866719D+04 0.000000000000000D+00 0.000000000000000D+00 -.146378577866719D+04
 0.144980407917396D+04 0.122739371328189D+04 -.659555308654582D+03 0.390010364050885D+03
 0.358442526190355D+02 -.195089910910034D+02 0.800000808725091D+01 0.289863689176879D+02
 0.126053684012025D+03 -.937557207328859D+02 0.551847532374876D+02 -.636713365100663D+02
 0.131586954152936D+04 -.111412900145800D+04 0.596370547329844D+03 -.355325396458507D+03
 0.000000000000000D+00 -.000000000000000D+00 -.000000000000000D+00 -.000000000000000D+00
 0.149370476157614D+04 0.000000000000000D+00 0.000000000000000D+00 0.149370476157614D+04
 0.187417425910267D+04 0.000000000000000D+00 0.000000000000000D+00 -.187417425910267D+04
 0.143513027268111D+04 0.125806174817784D+04 -.562544399960026D+03 0.390010364050885D+03
 0.360569317004135D+02 -.187446520243792D+02 0.104178098034527D+02 0.289863689176879D+02
 0.128087817809190D+03 -.910540923782056D+02 0.637307009166165D+02 -.636713365100663D+02
 0.133558801197925D+04 -.108594292064688D+04 0.685530394750815D+03 -.355325396458507D+03
 0.433015986508841D+03 -.623200831283683D+02 -.197134505510858D+03 -.380469497526526D+03
0.337864428413D-02 0.000000000000D+00 0.000000000000D+00 0.106463852249D-04 0.000000000000D+00  7 1 -1 23 -13 13 23 21 0 0.36839910D+00 0.13766064D+00 0.19505261D+07 0.19505261D+07 0.19505261D+07 0.10290788D+01  1  2  2  2  7  2       -1 0.268175398435D-03 0.100000000000D+01
-.187198828295D-03 0.000000000000D+00 -.129748836685D-04 0.106463852249D-04 0.000000000000D+00  7 1 -1 23 -13 13 23 21 2 0.36839910D+00 0.13766064D+00 0.19505261D+07 0.19505261D+07 0.19505261D+07 0.10290788D+01  1  2  3  2  7  2       -1 -.157353662171D-04 0.100000000000D+01
0.215429165705D-03 0.000000000000D+00 0.000000000000D+00 0.106463852249D-04 0.000000000000D+00  7 1 -1 23 -13 13 23 21 2 0.36839910D+00 0.13766064D+00 0.19505261D+07 0.19505261D+07 0.19505261D+07 0.10290788D+01  1  2 15  2  7  2       -1 0.181083228303D-04 0.100000000000D+01
0.120537036473D-01 0.000000000000D+00 0.000000000000D+00 0.106463852249D-04 0.000000000000D+00  7 1 -1 23 -13 13 23 21 2 0.36839910D+00 0.17738523D+00 0.22618825D+07 0.22618825D+07 0.22618825D+07 0.10250527D+01  1  2 12  2  7  2       -1 0.457756269420D-03 0.100000000000D+01
-.120251550758D-01 0.000000000000D+00 0.000000000000D+00 0.106463852249D-04 0.000000000000D+00  7 1 -1 23 -13 13 23 21 2 0.36839910D+00 0.13766064D+00 0.19505261D+07 0.19505261D+07 0.19505261D+07 0.10290788D+01  1  2  4  2  7  2       -1 -.101079809451D-02 0.100000000000D+01
-.151077923138D-01 0.000000000000D+00 -.176250563979D-02 0.106463852249D-04 0.000000000000D+00  7 1 -1 23 -13 13 23 21 2 0.36839910D+00 0.17778312D+00 0.19505261D+07 0.19505261D+07 0.19505261D+07 0.10290788D+01  1  2  5  2  7  2       -1 -.581932429242D-03 0.100000000000D+01
0.151175200425D-01 0.000000000000D+00 0.170638502701D-02 0.106463852249D-04 0.000000000000D+00  7 1 -1 23 -13 13 23 21 2 0.36839910D+00 0.13766064D+00 0.19505261D+07 0.19505261D+07 0.19505261D+07 0.10290788D+01  1  2  6  2  7  2       -1 0.127073292247D-02 0.100000000000D+01
0.412176018973D-03 0.000000000000D+00 0.000000000000D+00 0.106463852249D-04 0.000000000000D+00  7 1 21 23 -13 13 23 1 2 0.36839910D+00 0.17738523D+00 0.22618825D+07 0.22618825D+07 0.22618825D+07 0.10250527D+01  1  2 12  4  7  2       -1 0.929174692160D-04 0.100000000000D+01
-.489305577635D-03 0.000000000000D+00 -.606602238468D-04 0.106463852249D-04 0.000000000000D+00  7 1 21 23 -13 13 23 1 2 0.36839910D+00 0.17778312D+00 0.19505261D+07 0.19505261D+07 0.19505261D+07 0.10290788D+01  1  2  5  4  7  2       -1 -.112297849705D-03 0.100000000000D+01
  </mgrwgt>
  </event>
  <event>
  8     66 -.25924217E-05 0.15671577E+03 0.75467711E-02 0.10747010E+00
        1 -1    0    0  501    0 0.00000000E+00 0.00000000E+00 0.56856220E+02 0.56857121E+02 0.32000000E+00 0.0000E+00 0.9000E+01
       -1 -1    0    0    0  501 0.00000000E+00 0.00000000E+00 -.71195988E+03 0.71195996E+03 0.32000000E+00 0.0000E+00 0.9000E+01
       25  2    1    2    0    0 -.43606037E+01 -.37203159E+02 -.45899265E+03 0.54932250E+03 0.29946262E+03 0.0000E+00 0.0000E+00
       23  2    3    3    0    0 0.11582646E+03 -.54567366E+01 -.22507392E+03 0.26916898E+03 0.91368092E+02 0.0000E+00 0.0000E+00
       23  1    1    2    0    0 0.43606037E+01 0.37203159E+02 -.19611101E+03 0.21949458E+03 0.91188000E+02 0.0000E+00 0.9000E+01
      -13  1    4    4    0    0 0.41172673E+02 0.27738388E+01 -.11596078E+02 0.42864477E+02 0.10565837E+00 0.0000E+00 0.9000E+01
       13  1    4    4    0    0 0.74653788E+02 -.82305755E+01 -.21347784E+03 0.22630451E+03 0.10565837E+00 0.0000E+00 0.9000E+01
       23  1    3    3    0    0 -.12018706E+03 -.31746423E+02 -.23391874E+03 0.28015351E+03 0.91188000E+02 0.0000E+00 0.9000E+01
#aMCatNLO 1  0  0  1  2 0.69566219D+00 0.00000000D+00  -5  7  0 0.00000000D+00 0.00000000D+00 0.00000000D+00 0.00000000D+00 0.00000000D+00
  <mgrwgt>
 -.2669184076D-03   10    2    0
 0.201195729931503D+03 0.000000000000000D+00 0.000000000000000D+00 0.201195729931503D+03
 0.201195729931503D+03 0.000000000000000D+00 0.000000000000000D+00 -.201195729931503D+03
 0.100097076246896D+03 0.436064848898562D+01 0.372035415467015D+02 -.173509241919623D+02
 0.630189636837770D+02 0.411725756325226D+02 0.277376003398039D+01 0.476289308596708D+02
 0.848343565034327D+02 0.746537194896449D+02 -.823069911333047D+01 -.394454788514317D+02
 0.154441063428901D+03 -.120186943611153D+03 -.317466024673514D+02 0.916747218372323D+01
 0.000000000000000D+00 0.000000000000000D+00 -.000000000000000D+00 0.000000000000000D+00
 0.201800248284967D+03 0.000000000000000D+00 0.000000000000000D+00 0.201800248284967D+03
 0.201396267158457D+03 0.000000000000000D+00 0.000000000000000D+00 -.201396267158457D+03
 0.100098877279435D+03 0.418934353463600D+01 0.372280635950471D+02 -.173509241919623D+02
 0.629492756987681D+02 0.410647863235140D+02 0.278918991256555D+01 0.476289308596708D+02
 0.847047064784479D+02 0.745086472195365D+02 -.820993223455154D+01 -.394454788514317D+02
 0.154639201743072D+03 -.120451419389924D+03 -.317087431546545D+02 0.916747218372323D+01
 0.804454243700978D+00 0.688642312237590D+00 -.985781184066776D-01 0.403981126509615D+00
0.453551485272D-05 0.000000000000D+00 0.000000000000D+00 0.582408707916D-07 0.000000000000D+00  7 1 -1 23 -13 13 23 21 0 0.87471856D-02 0.10953236D+00 0.34062856D+05 0.34062856D+05 0.34062856D+05 0.11622524D+01  1  2  2  1  7  1        1 0.365039144968D-03 0.100000000000D+01
-.249691523267D-06 0.000000000000D+00 -.174175712629D-07 0.582408707916D-07 0.000000000000D+00  7 1 -1 23 -13 13 23 21 2 0.87471856D-02 0.10953236D+00 0.34062856D+05 0.34062856D+05 0.34062856D+05 0.11622524D+01  1  2  3  1  7  1        1 -.271467332507D-04 0.100000000000D+01
0.296303151967D-06 0.000000000000D+00 0.000000000000D+00 0.582408707916D-07 0.000000000000D+00  7 1 -1 23 -13 13 23 21 2 0.87471856D-02 0.10953236D+00 0.34062856D+05 0.34062856D+05 0.34062856D+05 0.11622524D+01  1  2 15  1  7  1        1 0.322144000827D-04 0.100000000000D+01
-.350891920455D-03 0.000000000000D+00 0.000000000000D+00 0.582408707916D-07 0.000000000000D+00  7 1 -1 23 -13 13 23 21 2 0.87471856D-02 0.10953236D+00 0.34062856D+05 0.34062856D+05 0.34062856D+05 0.11622524D+01  1  2  4  1  7  1        1 -.381493502054D-01 0.100000000000D+01
-.190797492302D-02 0.000000000000D+00 -.156465061353D-03 0.582408707916D-07 0.000000000000D+00  7 1 -1 23 -13 13 23 21 2 0.87820457D-02 0.10953236D+00 0.34062856D+05 0.34062856D+05 0.34062856D+05 0.11622524D+01  1  2  5  1  7  1        1 -.206350726872D+00 0.100000000000D+01
0.190858338447D-02 0.000000000000D+00 0.156463823761D-03 0.582408707916D-07 0.000000000000D+00  7 1 -1 23 -13 13 23 21 2 0.87471856D-02 0.10953236D+00 0.34062856D+05 0.34062856D+05 0.34062856D+05 0.11622524D+01  1  2  6  1  7  1        1 0.207503255806D+00 0.100000000000D+01
0.350893654397D-03 0.000000000000D+00 0.000000000000D+00 0.582408707916D-07 0.866821072085D-06  7 1 -1 23 -13 13 23 21 2 0.87734676D-02 0.10964154D+00 0.34181633D+05 0.34181633D+05 0.34181633D+05 0.11621141D+01  1  2 11  1  7  1        1 0.379038795348D-01 0.100000000000D+01
0.456906229444D-13 0.000000000000D+00 0.000000000000D+00 0.582408707916D-07 0.000000000000D+00  7 21 -1 23 -13 13 23 -1 2 0.87778182D-02 0.10953236D+00 0.34181633D+05 0.34181633D+05 0.34181633D+05 0.11621141D+01  1  2 12  3  7  1        1 0.598448738383D-10 0.100000000000D+01
-.141351226936D-05 0.000000000000D+00 -.115991982521D-06 0.582408707916D-07 0.000000000000D+00  7 21 -1 23 -13 13 23 -1 2 0.87820457D-02 0.10953236D+00 0.34062856D+05 0.34062856D+05 0.34062856D+05 0.11622524D+01  1  2  5  3  7  1        1 -.185042125317D-02 0.100000000000D+01
0.234219813238D-06 0.000000000000D+00 0.000000000000D+00 0.582408707916D-07 0.485666231467D-09  7 21 -1 23 -13 13 23 -1 2 0.87734676D-02 0.10964154D+00 0.34181633D+05 0.34181633D+05 0.34181633D+05 0.11621141D+01  1  2 11  3  7  1        1 0.306337711201D-03 0.100000000000D+01
  </mgrwgt>
  </event>
  <event>
  8     66 0.25924217E-05 0.24626895E+03 0.75467711E-02 0.91717036E-01
        1 -1    0    0  501    0 0.00000000E+00 0.00000000E+00 0.14942534E+04 0.14942534E+04 0.32000000E+00 0.0000E+00 0.9000E+01
       -1 -1    0    0    0  501 0.00000000E+00 0.00000000E+00 -.13042587E+03 0.13042626E+03 0.32000000E+00 0.0000E+00 0.9000E+01
       25  2    1    2    0    0 0.30986784E+03 -.20602888E+03 0.57531345E+03 0.74801801E+03 0.30013232E+03 0.0000E+00 0.0000E+00
       23  2    3    3    0    0 0.20388468E+03 -.28340662E+02 0.41039338E+03 0.46816196E+03 0.91546363E+02 0.0000E+00 0.0000E+00
       23  1    1    2    0    0 -.30986784E+03 0.20602888E+03 0.78851407E+03 0.87666166E+03 0.91188000E+02 0.0000E+00 0.9000E+01
      -13  1    4    4    0    0 0.29515706E+02 -.36916341E+02 0.57389993E+02 0.74347936E+02 0.10565837E+00 0.0000E+00 0.9000E+01
       13  1    4    4    0    0 0.17436897E+03 0.85756790E+01 0.35300339E+03 0.39381402E+03 0.10565837E+00 0.0000E+00 0.9000E+01
       23  1    3    3    0    0 0.10598316E+03 -.17768822E+03 0.16492007E+03 0.27985606E+03 0.91188000E+02 0.0000E+00 0.9000E+01
#aMCatNLO 1  0  0  2  1 0.38453826D+03 0.00000000D+00  -5  7  0 0.00000000D+00 0.00000000D+00 0.00000000D+00 0.00000000D+00 0.00000000D+00
  <mgrwgt>
 0.4091891756D-03    7    2    0
 0.441463065075925D+03 0.000000000000000D+00 0.000000000000000D+00 0.441463065075925D+03
 0.441463065075925D+03 0.000000000000000D+00 0.000000000000000D+00 -.441463065075925D+03
 0.395160121081367D+03 -.309867841622141D+03 0.206028877345198D+03 0.968002705438023D+02
 0.481596061372988D+02 0.295155131688682D+02 -.369164015679575D+02 -.923912555123170D+01
 0.179387664718900D+03 0.174369164271528D+03 0.857573958776933D+01 0.412527028820167D+02
 0.260218738214284D+03 0.105983164181745D+03 -.177688215365010D+03 -.128813847874587D+03
 0.000000000000000D+00 -.000000000000000D+00 0.000000000000000D+00 -.000000000000000D+00
 0.547341877436483D+03 0.000000000000000D+00 0.000000000000000D+00 0.547341877436483D+03
 0.104310406652144D+04 0.000000000000000D+00 0.000000000000000D+00 -.104310406652144D+04
 0.278945620702615D+03 -.227031483042721D+03 0.926381200977034D+02 0.968002705438023D+02
 0.730946736179594D+02 0.444156428881528D+02 -.573124815131632D+02 -.923912555123170D+01
 0.237445059102541D+03 0.225590957586521D+03 -.615393406881603D+02 0.412527028820167D+02
 0.373545397627630D+03 0.183862211870083D+03 -.284293145163171D+03 -.128813847874587D+03
 0.627415192907178D+03 -.226837329302036D+03 0.310506847266791D+03 -.495762189084957D+03
0.297051610380D-04 0.000000000000D+00 0.000000000000D+00 0.150711957190D-05 0.000000000000D+00  7 1 -1 23 -13 13 23 21 0 0.22988517D+00 0.20065551D-01 0.17266702D+06 0.17266702D+06 0.17266702D+06 0.11027609D+01  1  2  2  2  7  2       -1 0.469656392014D-03 0.100000000000D+01
-.164293409328D-05 0.000000000000D+00 -.114075639934D-06 0.150711957190D-05 0.000000000000D+00  7 1 -1 23 -13 13 23 21 2 0.22988517D+00 0.20065551D-01 0.17266702D+06 0.17266702D+06 0.17266702D+06 0.11027609D+01  1  2  3  2  7  2       -1 -.315886570397D-04 0.100000000000D+01
0.190392638505D-05 0.000000000000D+00 0.000000000000D+00 0.150711957190D-05 0.000000000000D+00  7 1 -1 23 -13 13 23 21 2 0.22988517D+00 0.20065551D-01 0.17266702D+06 0.17266702D+06 0.17266702D+06 0.11027609D+01  1  2 15  2  7  2       -1 0.366067499921D-04 0.100000000000D+01
0.180554515504D-06 0.000000000000D+00 0.000000000000D+00 0.150711957190D-05 0.000000000000D+00  7 1 -1 23 -13 13 23 21 2 0.22988517D+00 0.46754201D-01 0.42453327D+06 0.42453327D+06 0.42453327D+06 0.10735689D+01  1  2 12  2  7  2       -1 0.756236121982D-06 0.100000000000D+01
-.126884964628D-04 0.000000000000D+00 -.951619178128D-05 0.150711957190D-05 0.000000000000D+00  7 1 -1 23 -13 13 23 21 2 0.22988517D+00 0.57918245D-01 0.17266702D+06 0.17266702D+06 0.17266702D+06 0.11027609D+01  1  2  5  2  7  2       -1 -.395610364768D-04 0.100000000000D+01
0.166465289926D-07 0.000000000000D+00 0.000000000000D+00 0.150711957190D-05 0.000000000000D+00  7 1 21 23 -13 13 23 1 2 0.22988517D+00 0.46754201D-01 0.42453327D+06 0.42453327D+06 0.42453327D+06 0.10735689D+01  1  2 12  4  7  2       -1 0.635563360519D-06 0.100000000000D+01
-.101071586820D-05 0.000000000000D+00 -.113935906076D-05 0.150711957190D-05 0.000000000000D+00  7 1 21 23 -13 13 23 1 2 0.22988517D+00 0.57918245D-01 0.17266702D+06 0.17266702D+06 0.17266702D+06 0.11027609D+01  1  2  5  4  7  2       -1 -.273160723410D-04 0.100000000000D+01
  </mgrwgt>
  </event>
  <event>
  8     66 0.25924217E-05 0.17508159E+03 0.75467711E-02 0.91237684E-01
        1 -1    0    0  501    0 0.00000000E+00 0.00000000E+00 0.23954556E+03 0.23954577E+03 0.32000000E+00 0.0000E+00 0.9000E+01
       -1 -1    0    0    0  501 0.00000000E+00 0.00000000E+00 -.18323525E+03 0.18323553E+03 0.32000000E+00 0.0000E+00 0.9000E+01
       25  2    1    2    0    0 0.14740671E+02 0.61898505E+02 0.51240430E+02 0.31147242E+03 0.30056743E+03 0.0000E+00 0.0000E+00
       23  2    3    3    0    0 0.77022612E+02 0.62404332E+01 0.12034615E+03 0.16981187E+03 0.91550258E+02 0.0000E+00 0.0000E+00
       23  1    1    2    0    0 -.14740671E+02 -.61898505E+02 0.50698753E+01 0.11130888E+03 0.91188000E+02 0.0000E+00 0.9000E+01
      -11  1    4    4    0    0 0.83677183E+02 0.31331038E+02 0.11036788E+03 0.14200202E+03 0.51099893E-03 0.0000E+00 0.9000E+01
       11  1    4    4    0    0 -.66545702E+01 -.25090605E+02 0.99782644E+01 0.27809846E+02 0.51099893E-03 0.0000E+00 0.9000E+01
       23  1    3    3    0    0 -.62281941E+02 0.55658072E+02 -.69105718E+02 0.14166055E+03 0.91188000E+02 0.0000E+00 0.9000E+01
#aMCatNLO 1  0  0  1  1 0.65112433D+03 0.00000000D+00  -5  7  0 0.00000000D+00 0.00000000D+00 0.00000000D+00 0.00000000D+00 0.00000000D+00
  <mgrwgt>
 0.3961801358D-03    3    2    0
 0.209507268925579D+03 0.000000000000000D+00 0.000000000000000D+00 0.209507268925579D+03
 0.209507268925579D+03 0.000000000000000D+00 0.000000000000000D+00 -.209507268925579D+03
 0.111628176222641D+03 -.147406714032574D+02 -.618985055969822D+02 -.984306833434705D+01
 0.128446502433872D+03 0.836771824458719D+02 0.313310386436975D+02 0.922767529929506D+02
 0.267188911783917D+02 -.665457024593647D+01 -.250906050055712D+02 0.633066987759114D+01
 0.152220968016254D+03 -.622819407966781D+02 0.556580719588560D+02 -.887643545361947D+02
 0.000000000000000D+00 0.000000000000000D+00 -.000000000000000D+00 -.000000000000000D+00
 0.505480827371628D+03 0.000000000000000D+00 0.000000000000000D+00 0.505480827371628D+03
 0.128285298561231D+04 0.000000000000000D+00 0.000000000000000D+00 -.128285298561231D+04
 0.225806734228161D+03 -.198747696677299D+03 -.554607694683444D+02 -.984306833434705D+01
 0.109108686079773D+03 -.458643149599903D+02 0.358632241771876D+02 0.922767529929506D+02
 0.583450831359870D+02 -.530409054673434D+02 -.234677159572579D+02 0.633066987759114D+01
 0.381036643173134D+03 -.353073271808076D+03 0.658318023083289D+02 -.887643545361947D+02
 0.101403666636689D+04 0.650726188912709D+03 -.227665410599141D+02 -.777372158240686D+03
0.253377799773D-05 0.000000000000D+00 0.000000000000D+00 0.747801035975D-07 0.000000000000D+00  7 1 -1 23 -11 11 23 21 0 0.36853201D-01 0.28190077D-01 0.30653563D+05 0.30653563D+05 0.30653563D+05 0.11664685D+01  1  2  2  1  7  1        1 0.391327704691D-03 0.100000000000D+01
-.135250550768D-06 0.000000000000D+00 -.973037467035D-08 0.747801035975D-07 0.000000000000D+00  7 1 -1 23 -11 11 23 21 2 0.36853201D-01 0.28190077D-01 0.30653563D+05 0.30653563D+05 0.30653563D+05 0.11664685D+01  1  2  3  1  7  1        1 -.284221620508D-04 0.100000000000D+01
0.158341474622D-06 0.000000000000D+00 0.000000000000D+00 0.747801035975D-07 0.000000000000D+00  7 1 -1 23 -11 11 23 21 2 0.36853201D-01 0.28190077D-01 0.30653563D+05 0.30653563D+05 0.30653563D+05 0.11664685D+01  1  2 15  1  7  1        1 0.332745931570D-04 0.100000000000D+01
  </mgrwgt>
  </event>
  <event>
  8     66 0.25924217E-05 0.22147717E+03 0.75467711E-02 0.94159314E-01
        1 -1    0    0  501    0 0.00000000E+00 0.00000000E+00 0.52418550E+03 0.52418560E+03 0.32000000E+00 0.0000E+00 0.9000E+01
       -1 -1    0    0    0  501 0.00000000E+00 0.00000000E+00 -.24681136E+03 0.24681157E+03 0.32000000E+00 0.0000E+00 0.9000E+01
       25  2    1    2    0    0 -.12393526E+03 0.83482104E+02 -.10236333E+03 0.35285244E+03 0.30281576E+03 0.0000E+00 0.0000E+00
       23  2    3    3    0    0 -.12260610E+03 0.11739763E+03 -.15387615E+03 0.24275771E+03 0.80243233E+02 0.0000E+00 0.0000E+00
       23  1    1    2    0    0 0.12393526E+03 -.83482104E+02 0.37973747E+03 0.41814472E+03 0.91188000E+02 0.0000E+00 0.9000E+01
      -11  1    4    4    0    0 -.10867753E+03 0.11074846E+03 -.16282419E+03 0.22491719E+03 0.51099893E-03 0.0000E+00 0.9000E+01
       11  1    4    4    0    0 -.13928578E+02 0.66491642E+01 0.89480393E+01 0.17840517E+02 0.51099893E-03 0.0000E+00 0.9000E+01
       23  1    3    3    0    0 -.13291531E+01 -.33915525E+02 0.51512816E+02 0.11009474E+03 0.91188000E+02 0.0000E+00 0.9000E+01
#aMCatNLO 1  0  0  2  1 0.44493240D+03 0.00000000D+00  -5  7  0 0.00000000D+00 0.00000000D+00 0.00000000D+00 0.00000000D+00 0.00000000D+00
  <mgrwgt>
 0.1063783477D-02    3    2    0
 0.359687439102377D+03 0.000000000000000D+00 0.000000000000000D+00 0.359687439102377D+03
 0.359687439102377D+03 0.000000000000000D+00 0.000000000000000D+00 -.359687439102377D+03
 0.301732861057113D+03 0.123935256138837D+03 -.834821035675125D+02 0.245760572035985D+03
 0.303838431669843D+03 -.108677525445855D+03 0.110748464100109D+03 -.261231249512807D+03
 0.156705968439880D+02 -.139285775766155D+02 0.664916414625088D+01 0.271126322868594D+01
 0.981329886338114D+02 -.132915311636690D+01 -.339155246788470D+02 0.127594142481354D+02
 0.000000000000000D+00 0.000000000000000D+00 -.000000000000000D+00 0.000000000000000D+00
 0.695514020409058D+03 0.000000000000000D+00 0.000000000000000D+00 0.695514020409058D+03
 0.604486201727769D+03 0.000000000000000D+00 0.000000000000000D+00 -.604486201727769D+03
 0.265690651864028D+03 0.189522422761083D+02 0.389721039871475D+02 0.245760572035985D+03
 0.453009990843433D+03 -.248707373739679D+03 0.274081973740443D+03 -.261231249512807D+03
 0.271550095742511D+02 -.218520441406644D+02 0.158912480176009D+02 0.271126322868594D+01
 0.999960220969097D+02 -.379863945004455D+02 0.884218706580368D+01 0.127594142481354D+02
 0.454148547758205D+03 0.289593570104680D+03 -.337787512810996D+03 0.910278186812889D+02
0.308330074860D-04 0.000000000000D+00 0.000000000000D+00 0.612126900118D-09 0.000000000000D+00  7 1 -1 23 -11 11 23 21 0 0.80643947D-01 0.37971002D-01 0.49052135D+05 0.49052135D+05 0.49052135D+05 0.11480272D+01  1  2  2  2  7  2       -1 0.103552157699D-02 0.100000000000D+01
-.122321362966D-05 0.000000000000D+00 -.118406867264D-06 0.612126900118D-09 0.000000000000D+00  7 1 -1 23 -11 11 23 21 2 0.80643947D-01 0.37971002D-01 0.49052135D+05 0.49052135D+05 0.49052135D+05 0.11480272D+01  1  2  3  2  7  2       -1 -.541439526383D-04 0.100000000000D+01
0.186170305862D-05 0.000000000000D+00 0.000000000000D+00 0.612126900118D-09 0.000000000000D+00  7 1 -1 23 -11 11 23 21 2 0.80643947D-01 0.37971002D-01 0.49052135D+05 0.49052135D+05 0.49052135D+05 0.11480272D+01  1  2 15  2  7  2       -1 0.824058527376D-04 0.100000000000D+01
  </mgrwgt>
  </event>
  <event>
  8     66 0.25924217E-05 0.20297838E+03 0.75467711E-02 0.97675533E-01
        3 -1    0    0  501    0 0.00000000E+00 0.00000000E+00 0.12541991E+03 0.12542091E+03 0.50000000E+00 0.0000E+00 0.9000E+01
       -3 -1    0    0    0  501 0.00000000E+00 0.00000000E+00 -.98049283E+03 0.98049296E+03 0.50000000E+00 0.0000E+00 0.9000E+01
       25  2    1    2    0    0 -.57581090E+02 -.19995772E+02 -.70973447E+02 0.31417992E+03 0.29992729E+03 0.0000E+00 0.0000E+00
       23  2    3    3    0    0 -.12531101E+03 0.60340724E+02 -.34922576E+02 0.17045723E+03 0.92153275E+02 0.0000E+00 0.0000E+00
       23  1    1    2    0    0 0.57581090E+02 0.19995772E+02 -.78409948E+03 0.79173395E+03 0.91188000E+02 0.0000E+00 0.9000E+01
      -11  1    4    4    0    0 -.50508641E+02 -.13243340E+02 0.14900861E+02 0.54300502E+02 0.51099893E-03 0.0000E+00 0.9000E+01
       11  1    4    4    0    0 -.74802374E+02 0.73584064E+02 -.49823438E+02 0.11615672E+03 0.51099893E-03 0.0000E+00 0.9000E+01
       23  1    3    3    0    0 0.67729924E+02 -.80336496E+02 -.36050871E+02 0.14372269E+03 0.91188000E+02 0.0000E+00 0.9000E+01
#aMCatNLO 1  0  0  1  2 0.27490763D+03 0.00000000D+00  -5  7  0 0.00000000D+00 0.00000000D+00 0.00000000D+00 0.00000000D+00 0.00000000D+00
  <mgrwgt>
 0.4482697849D-04    5    2    0
 0.350676411661542D+03 0.000000000000000D+00 0.000000000000000D+00 0.350676411661542D+03
 0.350676411661542D+03 0.000000000000000D+00 0.000000000000000D+00 -.350676411661542D+03
 0.292473804635661D+03 0.575810902718027D+02 0.199957719473217D+02 -.271127759923989D+03
 0.103789418057891D+03 -.505086410366170D+02 -.132433397678731D+02 0.896980180005254D+02
 0.122415788997054D+03 -.748023735772491D+02 0.735840635821449D+02 0.630524851986006D+02
 0.182673811632479D+03 0.677299243420635D+02 -.803364957615935D+02 0.118377256724863D+03
 0.000000000000000D+00 -.000000000000000D+00 0.000000000000000D+00 0.000000000000000D+00
 0.115500594059809D+04 0.000000000000000D+00 0.000000000000000D+00 0.115500594059809D+04
 0.400926779547552D+03 0.000000000000000D+00 0.000000000000000D+00 -.400926779547552D+03
 0.319429636579765D+03 0.118764709001694D+03 -.781327273031185D+02 -.271127759923989D+03
 0.105407854015505D+03 -.295912131031371D+02 -.467914667649580D+02 0.896980180005254D+02
 0.914960697138384D+02 -.534135387977402D+02 0.392798772460166D+02 0.630524851986006D+02
 0.236972479508914D+03 0.109689941150612D+03 -.147633487397927D+03 0.118377256724863D+03
 0.802626680327617D+03 -.145449898251429D+03 0.233277804219987D+03 0.754079161050536D+03
0.290121706626D-04 0.000000000000D+00 0.000000000000D+00 0.729691740699D-06 0.000000000000D+00  7 3 -3 23 -11 11 23 21 0 0.19295457D-01 0.15084514D+00 0.41200224D+05 0.41200224D+05 0.41200224D+05 0.11547644D+01  1  2  2  1  7  1        3 0.729032832891D-04 0.100000000000D+01
-.102593286582D-05 0.000000000000D+00 -.111414374424D-06 0.729691740699D-06 0.000000000000D+00  7 3 -3 23 -11 11 23 21 2 0.19295457D-01 0.15084514D+00 0.41200224D+05 0.41200224D+05 0.41200224D+05 0.11547644D+01  1  2  3  1  7  1        3 -.343773661999D-05 0.100000000000D+01
0.176224221794D-05 0.000000000000D+00 0.000000000000D+00 0.729691740699D-06 0.000000000000D+00  7 3 -3 23 -11 11 23 21 2 0.19295457D-01 0.15084514D+00 0.41200224D+05 0.41200224D+05 0.41200224D+05 0.11547644D+01  1  2 15  1  7  1        3 0.590499125988D-05 0.100000000000D+01
-.333651410333D-04 0.000000000000D+00 -.105685708439D-04 0.729691740699D-06 0.000000000000D+00  7 3 -3 23 -11 11 23 21 2 0.69693641D-01 0.15084514D+00 0.41200224D+05 0.41200224D+05 0.41200224D+05 0.11547644D+01  1  2  5  1  7  1        3 -.967940546393D-05 0.100000000000D+01
-.474802340824D-05 0.000000000000D+00 -.159603506716D-05 0.729691740699D-06 0.000000000000D+00  7 21 -3 23 -11 11 23 -3 2 0.69693641D-01 0.15084514D+00 0.41200224D+05 0.41200224D+05 0.41200224D+05 0.11547644D+01  1  2  5  3  7  1        3 -.208641539703D-04 0.100000000000D+01
  </mgrwgt>
  </event>
  <event>
  8     66 0.25924217E-05 0.16151174E+03 0.75467711E-02 0.10865828E+00
        1 -1    0    0  501    0 0.00000000E+00 0.00000000E+00 0.23478543E+04 0.23478543E+04 0.32000000E+00 0.0000E+00 0.9000E+01
       -1 -1    0    0    0  501 0.00000000E+00 0.00000000E+00 -.16712259E+02 0.16715323E+02 0.32000000E+00 0.0000E+00 0.9000E+01
       25  2    1    2    0    0 0.32138860E+01 -.20723459E+02 0.17439054E+04 0.17699253E+04 0.30164495E+03 0.0000E+00 0.0000E+00
       23  2    3    3    0    0 0.16518345E+02 0.58800409E+02 0.28041357E+03 0.30138020E+03 0.92021278E+02 0.0000E+00 0.0000E+00
       23  1    1    2    0    0 -.32138860E+01 0.20723459E+02 0.58723665E+03 0.59464437E+03 0.91188000E+02 0.0000E+00 0.9000E+01
      -11  1    4    4    0    0 -.89736770E+01 0.76291273E+02 0.16685435E+03 0.18368794E+03 0.51099893E-03 0.0000E+00 0.9000E+01
       11  1    4    4    0    0 0.25492022E+02 -.17490863E+02 0.11355922E+03 0.11769227E+03 0.51099893E-03 0.0000E+00 0.9000E+01
       23  1    3    3    0    0 -.13304459E+02 -.79523868E+02 0.14634918E+04 0.14685451E+04 0.91188000E+02 0.0000E+00 0.9000E+01
#aMCatNLO 1  0  0  1  2 0.18645547D+02 0.00000000D+00  -5  7  0 0.00000000D+00 0.00000000D+00 0.00000000D+00 0.00000000D+00 0.00000000D+00
  <mgrwgt>
 0.4183497975D-03    4    2    0
 0.198094919583505D+03 0.000000000000000D+00 0.000000000000000D+00 0.198094919583505D+03
 0.198094919583505D+03 0.000000000000000D+00 0.000000000000000D+00 -.198094919583505D+03
 0.937581203593955D+02 -.321394028646285D+01 0.207238082767036D+02 0.596054927606283D+01
 0.114545299549571D+03 -.897367031588258D+01 0.762911120077502D+02 -.849692010000314D+02
 0.342485092005637D+02 0.254920333520345D+02 -.174909155606544D+02 -.147371805610814D+02
 0.153637910057479D+03 -.133044227496890D+02 -.795240047237994D+02 0.937458322850500D+02
 0.000000000000000D+00 -.000000000000000D+00 0.000000000000000D+00 -.000000000000000D+00
 0.200887577872801D+03 0.000000000000000D+00 0.000000000000000D+00 0.200887577872801D+03
 0.232088146432660D+03 0.000000000000000D+00 0.000000000000000D+00 -.232088146432660D+03
 0.929168655668795D+02 -.131849207104668D+01 0.167638299251624D+02 0.596054927606283D+01
 0.111251193936768D+03 -.668099270563791D+01 0.715012403405684D+02 -.849692010000314D+02
 0.355468690686731D+02 0.262007170812887D+02 -.189715005764367D+02 -.147371805610814D+02
 0.156913417704493D+03 -.101511670679983D+02 -.861117997027446D+02 0.937458322850500D+02
 0.363473780286476D+02 -.805006523660582D+01 0.168182300134504D+02 -.312005685598593D+02
0.514633467859D-05 0.000000000000D+00 0.000000000000D+00 0.929042574070D-08 0.000000000000D+00  7 1 -1 23 -11 11 23 21 0 0.36120859D+00 0.25713541D-02 0.26086042D+05 0.26086042D+05 0.26086042D+05 0.11730112D+01  1  2  2  1  7  1        1 0.515952268849D-03 0.100000000000D+01
-.271416947631D-06 0.000000000000D+00 -.197632802268D-07 0.929042574070D-08 0.000000000000D+00  7 1 -1 23 -11 11 23 21 2 0.36120859D+00 0.25713541D-02 0.26086042D+05 0.26086042D+05 0.26086042D+05 0.11730112D+01  1  2  3  1  7  1        1 -.374414623517D-04 0.100000000000D+01
0.322227101987D-06 0.000000000000D+00 0.000000000000D+00 0.929042574070D-08 0.000000000000D+00  7 1 -1 23 -11 11 23 21 2 0.36120859D+00 0.25713541D-02 0.26086042D+05 0.26086042D+05 0.26086042D+05 0.11730112D+01  1  2 15  1  7  1        1 0.444506285000D-04 0.100000000000D+01
-.758340341088D-06 0.000000000000D+00 0.000000000000D+00 0.929042574070D-08 0.000000000000D+00  7 1 -1 23 -11 11 23 21 2 0.36120859D+00 0.25713541D-02 0.26086042D+05 0.26086042D+05 0.26086042D+05 0.11730112D+01  1  2  4  1  7  1        1 -.104611637477D-03 0.100000000000D+01
  </mgrwgt>
  </event>
  <event>
  8     66 0.25924217E-05 0.18453206E+03 0.75467711E-02 0.98779050E-01
        1 -1    0    0  501    0 0.00000000E+00 0.00000000E+00 0.19801246E+04 0.19801247E+04 0.32000000E+00 0.0000E+00 0.9000E+01
       -1 -1    0    0    0  501 0.00000000E+00 0.00000000E+00 -.35274571E+03 0.35274585E+03 0.32000000E+00 0.0000E+00 0.9000E+01
       25  2    1    2    0    0 0.86755826E+02 0.39686121E+02 -.28011573E+03 0.42081594E+03 0.29919839E+03 0.0000E+00 0.0000E+00
       23  2    3    3    0    0 0.11051735E+03 -.29441398E+02 -.26496400E+03 0.30296837E+03 0.92211879E+02 0.0000E+00 0.0000E+00
       23  1    1    2    0    0 -.86755826E+02 -.39686121E+02 0.19074947E+04 0.19120546E+04 0.91188000E+02 0.0000E+00 0.9000E+01
      -13  1    4    4    0    0 0.11315074E+03 -.30786930E+02 -.27152841E+03 0.29576783E+03 0.10565837E+00 0.0000E+00 0.9000E+01
       13  1    4    4    0    0 -.26333849E+01 0.13455321E+01 0.65644049E+01 0.72005380E+01 0.10565837E+00 0.0000E+00 0.9000E+01
       23  1    3    3    0    0 -.23761525E+02 0.69127520E+02 -.15151728E+02 0.11784757E+03 0.91188000E+02 0.0000E+00 0.9000E+01
#aMCatNLO 1  0  0  1  1 0.29901780D+03 0.00000000D+00  -5  7  0 0.00000000D+00 0.00000000D+00 0.00000000D+00 0.00000000D+00 0.00000000D+00
  <mgrwgt>
 0.3251303137D-03    7    2    0
 0.835751560255019D+03 0.000000000000000D+00 0.000000000000000D+00 0.835751560255019D+03
 0.835751560255019D+03 0.000000000000000D+00 0.000000000000000D+00 -.835751560255019D+03
 0.811460722194220D+03 -.867558262715289D+02 -.396861214355143D+02 0.800657036872414D+03
 0.677156469773626D+03 0.113150887978267D+03 -.307869725712606D+02 -.666925725569126D+03
 0.365758854968346D+01 -.263353691686342D+01 0.134557430760623D+01 0.215217729032781D+01
 0.179228339992508D+03 -.237615247898745D+02 0.691275196991686D+02 -.135883488593616D+03
 0.000000000000000D+00 0.000000000000000D+00 -.000000000000000D+00 0.000000000000000D+00
 0.104306230255012D+04 0.000000000000000D+00 0.000000000000000D+00 0.104306230255012D+04
 0.964214775168615D+03 0.000000000000000D+00 0.000000000000000D+00 -.964214775168615D+03
 0.839191352812591D+03 -.232689481611571D+03 -.270331231168431D+02 0.800657036872414D+03
 0.667264567089831D+03 -.570897304043039D+01 -.204813743312746D+02 -.666925725569126D+03
 0.420580231910984D+01 -.332873694733973D+01 0.140585077225217D+01 0.215217729032781D+01
 0.187376653173815D+03 -.561729623839853D+02 0.719377135809597D+02 -.135883488593616D+03
 0.309238702323392D+03 0.297900153983327D+03 -.258290669050942D+02 0.788475273815096D+02
0.321084643444D-03 0.000000000000D+00 0.000000000000D+00 0.241208339428D-05 0.000000000000D+00  7 1 -1 23 -13 13 23 21 0 0.30463457D+00 0.54268584D-01 0.34052082D+05 0.34052082D+05 0.34052082D+05 0.11622650D+01  1  2  2  1  7  1        1 0.490591511591D-03 0.100000000000D+01
0.316470907810D-04 0.000000000000D+00 -.123304957435D-05 0.241208339428D-05 0.000000000000D+00  7 1 -1 23 -13 13 23 21 2 0.30463457D+00 0.54268584D-01 0.34052082D+05 0.34052082D+05 0.34052082D+05 0.11622650D+01  1  2  3  1  7  1        1 0.653197657327D-04 0.100000000000D+01
0.177519405901D-04 0.000000000000D+00 0.000000000000D+00 0.241208339428D-05 0.000000000000D+00  7 1 -1 23 -13 13 23 21 2 0.30463457D+00 0.54268584D-01 0.34052082D+05 0.34052082D+05 0.34052082D+05 0.11622650D+01  1  2 15  1  7  1        1 0.366401009391D-04 0.100000000000D+01
-.175065948439D-03 0.000000000000D+00 0.000000000000D+00 0.241208339428D-05 0.000000000000D+00  7 1 -1 23 -13 13 23 21 2 0.30463457D+00 0.54268584D-01 0.34052082D+05 0.34052082D+05 0.34052082D+05 0.11622650D+01  1  2  4  1  7  1        1 -.361337059983D-03 0.100000000000D+01
-.862089934533D-05 0.000000000000D+00 -.131271942208D-03 0.241208339428D-05 0.000000000000D+00  7 1 -1 23 -13 13 23 21 2 0.40308053D+00 0.54268584D-01 0.34052082D+05 0.34052082D+05 0.34052082D+05 0.11622650D+01  1  2  5  1  7  1        1 -.672135663369D-05 0.100000000000D+01
0.484518078467D-04 0.000000000000D+00 0.126288178480D-03 0.241208339428D-05 0.000000000000D+00  7 1 -1 23 -13 13 23 21 2 0.30463457D+00 0.54268584D-01 0.34052082D+05 0.34052082D+05 0.34052082D+05 0.11622650D+01  1  2  6  1  7  1        1 0.100004792219D-03 0.100000000000D+01
0.232464012472D-05 0.000000000000D+00 -.482721605867D-05 0.241208339428D-05 0.000000000000D+00  7 21 -1 23 -13 13 23 -1 2 0.40308053D+00 0.54268584D-01 0.34052082D+05 0.34052082D+05 0.34052082D+05 0.11622650D+01  1  2  5  3  7  1        1 0.632559860946D-06 0.100000000000D+01
  </mgrwgt>
  </event>
  <event>
  8     66 0.25924217E-05 0.58716804E+02 0.75467711E-02 0.10553976E+00
        1 -1    0    0  501    0 0.00000000E+00 0.00000000E+00 0.56941566E+03 0.56941575E+03 0.32000000E+00 0.0000E+00 0.9000E+01
       -1 -1    0    0    0  501 0.00000000E+00 0.00000000E+00 -.98410593E+02 0.98411113E+02 0.32000000E+00 0.0000E+00 0.9000E+01
       25  2    1    2    0    0 -.10616083E+03 0.49645041E+02 0.35195372E+03 0.47750285E+03 0.30067059E+03 0.0000E+00 0.0000E+00
       23  2    3    3    0    0 -.93915483E+02 0.41053123E+02 0.24339291E+02 0.13710568E+03 0.87750157E+02 0.0000E+00 0.0000E+00
       23  1    1    2    0    0 0.10616083E+03 -.49645041E+02 0.11905135E+03 0.19032401E+03 0.91188000E+02 0.0000E+00 0.9000E+01
      -11  1    4    4    0    0 -.56700936E+02 0.36863776E+02 0.56202246E+02 0.87935355E+02 0.51099893E-03 0.0000E+00 0.9000E+01
       11  1    4    4    0    0 -.37214548E+02 0.41893469E+01 -.31862955E+02 0.49170328E+02 0.51099893E-03 0.0000E+00 0.9000E+01
       23  1    3    3    0    0 -.12245351E+02 0.85919182E+01 0.32761443E+03 0.34039717E+03 0.91188000E+02 0.0000E+00 0.9000E+01
#aMCatNLO 1  0  0  1  2 0.66673423D+02 0.00000000D+00  -5  7  0 0.00000000D+00 0.00000000D+00 0.00000000D+00 0.00000000D+00 0.00000000D+00
  <mgrwgt>
 0.2630411547D-03    9    2    0
 0.236720797367394D+03 0.000000000000000D+00 0.000000000000000D+00 0.236720797367394D+03
 0.236720797367394D+03 0.000000000000000D+00 0.000000000000000D+00 -.236720797367394D+03
 0.150028424438818D+03 0.106160835021671D+03 -.496450414409577D+02 -.214131679912426D+02
 0.681267752003024D+02 -.567009356678346D+02 0.368637763026666D+02 -.820508319833401D+01
 0.101057615672139D+03 -.372145478166634D+02 0.418934689407279D+01 -.938624977759493D+02
 0.154228779423529D+03 -.122453515371731D+02 0.859191824421826D+01 0.123480748965526D+03
 0.000000000000000D+00 0.000000000000000D+00 0.000000000000000D+00 0.000000000000000D+00
 0.282563002562938D+03 0.000000000000000D+00 0.000000000000000D+00 0.282563002562938D+03
 0.264600849002278D+03 0.000000000000000D+00 0.000000000000000D+00 -.264600849002278D+03
 0.150365878435350D+03 0.959457549486243D+02 -.680480300784062D+02 -.214131679912426D+02
 0.681352957429491D+02 -.613346053223072D+02 0.285159836871246D+02 -.820508319833401D+01
 0.104082454118345D+03 -.441904532151690D+02 -.837810307857553D+01 -.938624977759493D+02
 0.155529631221016D+03 -.227788634505439D+02 -.103847416221759D+02 0.123480748965526D+03
 0.690505920475571D+02 0.323581670393958D+02 0.582948910920330D+02 0.179621535606599D+02
0.142326675100D-05 0.000000000000D+00 0.000000000000D+00 0.831081153622D-08 0.000000000000D+00  7 1 -1 23 -11 11 23 21 0 0.87602456D-01 0.15140138D-01 0.29925495D+05 0.29925495D+05 0.29925495D+05 0.11674361D+01  1  2  2  1  7  1        1 0.188548688605D-03 0.100000000000D+01
-.696127672313D-07 0.000000000000D+00 -.546571907857D-08 0.831081153622D-08 0.000000000000D+00  7 1 -1 23 -11 11 23 21 2 0.87602456D-01 0.15140138D-01 0.29925495D+05 0.29925495D+05 0.29925495D+05 0.11674361D+01  1  2  3  1  7  1        1 -.125687581038D-04 0.100000000000D+01
0.931294964498D-07 0.000000000000D+00 0.000000000000D+00 0.831081153622D-08 0.000000000000D+00  7 1 -1 23 -11 11 23 21 2 0.87602456D-01 0.15140138D-01 0.29925495D+05 0.29925495D+05 0.29925495D+05 0.11674361D+01  1  2 15  1  7  1        1 0.168147620006D-04 0.100000000000D+01
0.982997086154D-06 0.000000000000D+00 0.000000000000D+00 0.831081153622D-08 0.000000000000D+00  7 1 -1 23 -11 11 23 21 2 0.10890937D+00 0.15140138D-01 0.44665840D+05 0.44665840D+05 0.44665840D+05 0.11516300D+01  1  2 12  1  7  1        1 0.126413759197D-03 0.100000000000D+01
-.109375903591D-05 0.000000000000D+00 0.000000000000D+00 0.831081153622D-08 0.000000000000D+00  7 1 -1 23 -11 11 23 21 2 0.87602456D-01 0.15140138D-01 0.29925495D+05 0.29925495D+05 0.29925495D+05 0.11674361D+01  1  2  4  1  7  1        1 -.197480911805D-03 0.100000000000D+01
-.209239906479D-05 0.000000000000D+00 -.802374763502D-06 0.831081153622D-08 0.000000000000D+00  7 1 -1 23 -11 11 23 21 2 0.11397120D+00 0.15140138D-01 0.29925495D+05 0.29925495D+05 0.29925495D+05 0.11674361D+01  1  2  5  1  7  1        1 -.258481637454D-03 0.100000000000D+01
0.225211236637D-05 0.000000000000D+00 0.775375632084D-06 0.831081153622D-08 0.000000000000D+00  7 1 -1 23 -11 11 23 21 2 0.87602456D-01 0.15140138D-01 0.29925495D+05 0.29925495D+05 0.29925495D+05 0.11674361D+01  1  2  6  1  7  1        1 0.406624484002D-03 0.100000000000D+01
0.300060371075D-07 0.000000000000D+00 0.000000000000D+00 0.831081153622D-08 0.000000000000D+00  7 21 -1 23 -11 11 23 -1 2 0.10890937D+00 0.15140138D-01 0.44665840D+05 0.44665840D+05 0.44665840D+05 0.11516300D+01  1  2 12  3  7  1        1 0.831135796066D-05 0.100000000000D+01
-.589141656269D-07 0.000000000000D+00 -.281965494849D-07 0.831081153622D-08 0.000000000000D+00  7 21 -1 23 -11 11 23 -1 2 0.11397120D+00 0.15140138D-01 0.29925495D+05 0.29925495D+05 0.29925495D+05 0.11674361D+01  1  2  5  3  7  1        1 -.151405897494D-04 0.100000000000D+01
  </mgrwgt>
  </event>
  <event>
  8     66 0.25924217E-05 0.26038019E+03 0.75467711E-02 0.94823855E-01
        1 -1    0    0  501    0 0.00000000E+00 0.00000000E+00 0.13865342E+03 0.13865379E+03 0.32000000E+00 0.0000E+00 0.9000E+01
       -1 -1    0    0    0  501 0.00000000E+00 0.00000000E+00 -.66318098E+03 0.66318105E+03 0.32000000E+00 0.0000E+00 0.9000E+01
       25  2    1    2    0    0 -.17867874E+03 0.14490781E+02 -.48391668E+03 0.59665061E+03 0.29946706E+03 0.0000E+00 0.0000E+00
       23  2    3    3    0    0 -.15509048E+03 -.83973961E+02 -.21916835E+03 0.29889460E+03 0.10098778E+03 0.0000E+00 0.0000E+00
       23  1    1    2    0    0 0.17867874E+03 -.14490781E+02 -.40610881E+02 0.20518423E+03 0.91188000E+02 0.0000E+00 0.9000E+01
      -11  1    4    4    0    0 -.14958886E+02 0.67783325E+01 0.69399587E+01 0.17829108E+02 0.51099893E-03 0.0000E+00 0.9000E+01
       11  1    4    4    0    0 -.14013160E+03 -.90752294E+02 -.22610831E+03 0.28106549E+03 0.51099893E-03 0.0000E+00 0.9000E+01
       23  1    3    3    0    0 -.23588251E+02 0.98464743E+02 -.26474833E+03 0.29775601E+03 0.91188000E+02 0.0000E+00 0.9000E+01
#aMCatNLO 1  0  0  1  2 0.36178382D+03 0.00000000D+00  -5  7  0 0.00000000D+00 0.00000000D+00 0.00000000D+00 0.00000000D+00 0.00000000D+00
  <mgrwgt>
 0.5230312605D-03    3    2    0
 0.303236684442291D+03 0.000000000000000D+00 0.000000000000000D+00 0.303236684442291D+03
 0.303236684442291D+03 0.000000000000000D+00 0.000000000000000D+00 -.303236684442291D+03
 0.236156021569354D+03 0.178678735629282D+03 -.144907814795318D+02 0.123767289157914D+03
 0.295745868761405D+02 -.149588859552598D+02 0.677833240710707D+01 0.245955713422290D+02
 0.176047407555775D+03 -.140131598654661D+03 -.907522937859303D+02 -.558555810836338D+02
 0.164695352883312D+03 -.235882510193617D+02 0.984647428583551D+02 -.925072794165094D+02
 0.000000000000000D+00 0.000000000000000D+00 -.000000000000000D+00 -.000000000000000D+00
 0.381167412780033D+03 0.000000000000000D+00 0.000000000000000D+00 0.381167412780033D+03
 0.151861634831440D+04 0.000000000000000D+00 0.000000000000000D+00 -.151861634831440D+04
 0.173135410430082D+03 0.743749436888300D+02 0.284718261897208D+02 0.123767289157914D+03
 0.442280213234976D+02 -.337667360309691D+02 0.145252634522040D+02 0.245955713422290D+02
 0.261666970469417D+03 -.251678691619331D+03 -.448061790519352D+02 -.558555810836338D+02
 0.227154759500440D+03 -.123447298628191D+03 0.139596565631324D+03 -.925072794165094D+02
 0.119359859937100D+04 0.334517782589661D+03 -.137787476221314D+03 -.113744893553437D+04
0.176756437828D-04 0.000000000000D+00 0.000000000000D+00 0.519866930429D-08 0.000000000000D+00  7 1 -1 23 -11 11 23 21 0 0.21331329D-01 0.10202788D+00 0.67797844D+05 0.67797844D+05 0.67797844D+05 0.11358416D+01  1  2  2  1  7  1        1 0.516825189541D-03 0.100000000000D+01
-.954260561165D-06 0.000000000000D+00 -.678791262299D-07 0.519866930429D-08 0.000000000000D+00  7 1 -1 23 -11 11 23 21 2 0.21331329D-01 0.10202788D+00 0.67797844D+05 0.67797844D+05 0.67797844D+05 0.11358416D+01  1  2  3  1  7  1        1 -.359973868033D-04 0.100000000000D+01
0.111877830279D-05 0.000000000000D+00 0.000000000000D+00 0.519866930429D-08 0.000000000000D+00  7 1 -1 23 -11 11 23 21 2 0.21331329D-01 0.10202788D+00 0.67797844D+05 0.67797844D+05 0.67797844D+05 0.11358416D+01  1  2 15  1  7  1        1 0.422034577890D-04 0.100000000000D+01
  </mgrwgt>
  </event>
  <event>
  8     66 0.25924217E-05 0.61322013E+02 0.75467711E-02 0.10001413E+00
        1 -1    0    0  501    0 0.00000000E+00 0.00000000E+00 0.23118038E+04 0.23118038E+04 0.32000000E+00 0.0000E+00 0.9000E+01
       -1 -1    0    0    0  501 0.00000000E+00 0.00000000E+00 -.40258385E+02 0.40259657E+02 0.32000000E+00 0.0000E+00 0.9000E+01
       25  2    1    2    0    0 -.15927665E+03 0.14079630E+03 0.11811424E+04 0.12373947E+04 0.30142239E+03 0.0000E+00 0.0000E+00
       23  2    3    3    0    0 -.74333160E+02 -.28459519E+02 0.72458479E+03 0.73477844E+03 0.92416902E+02 0.0000E+00 0.0000E+00
       23  1    1    2    0    0 0.15927665E+03 -.14079630E+03 0.10904030E+04 0.11146688E+04 0.91188000E+02 0.0000E+00 0.9000E+01
      -11  1    4    4    0    0 -.91801599E+02 -.90832980E+01 0.62771010E+03 0.63445253E+03 0.51099893E-03 0.0000E+00 0.9000E+01
       11  1    4    4    0    0 0.17468440E+02 -.19376221E+02 0.96874684E+02 0.10032591E+03 0.51099893E-03 0.0000E+00 0.9000E+01
       23  1    3    3    0    0 -.84943495E+02 0.16925582E+03 0.45655764E+03 0.50261622E+03 0.91188000E+02 0.0000E+00 0.9000E+01
#aMCatNLO 1  0  0  2  1 0.74115945D+02 0.00000000D+00  -5  7  0 0.00000000D+00 0.00000000D+00 0.00000000D+00 0.00000000D+00 0.00000000D+00
  <mgrwgt>
 0.5324363959D-03    6    2    0
 0.305075413997159D+03 0.000000000000000D+00 0.000000000000000D+00 0.305075413997159D+03
 0.305075413997159D+03 0.000000000000000D+00 0.000000000000000D+00 -.305075413997159D+03
 0.237436232479154D+03 0.159276654266410D+03 -.140796302087360D+03 0.535542890356902D+02
 0.108826566207028D+03 -.918015991571497D+02 -.908329796400295D+01 0.577337128781777D+02
 0.260880912807836D+02 0.174684396280282D+02 -.193762210209407D+02 -.646729007093576D-01
 0.237799938027353D+03 -.849434947372884D+02 0.169255821072304D+03 -.111223329013159D+03
 0.000000000000000D+00 0.000000000000000D+00 0.000000000000000D+00 0.000000000000000D+00
 0.348310386347346D+03 0.000000000000000D+00 0.000000000000000D+00 0.348310386347346D+03
 0.340819027783533D+03 0.000000000000000D+00 0.000000000000000D+00 -.340819027783533D+03
 0.245094724340557D+03 0.145461169925653D+03 -.166520745630434D+03 0.535542890356902D+02
 0.115874676875004D+03 -.982350858822477D+02 -.210624556947721D+02 0.577337128781777D+02
 0.273494347245771D+02 0.159384542596247D+02 -.222250550726802D+02 -.646729007093576D-01
 0.226316996240799D+03 -.982317618360926D+02 0.144513056480256D+03 -.111223329013159D+03
 0.744935819499419D+02 0.350672235330629D+02 0.652951999176302D+02 0.749135856381316D+01
0.153490144609D-04 0.000000000000D+00 0.000000000000D+00 0.204378638788D-06 0.000000000000D+00  7 1 -1 23 -11 11 23 21 0 0.35566222D+00 0.61936972D-02 0.78355684D+05 0.78355684D+05 0.78355684D+05 0.11305198D+01  1  2  2  2  7  2       -1 0.443260605444D-03 0.100000000000D+01
-.845045654296D-06 0.000000000000D+00 -.589442570182D-07 0.204378638788D-06 0.000000000000D+00  7 1 -1 23 -11 11 23 21 2 0.35566222D+00 0.61936972D-02 0.78355684D+05 0.78355684D+05 0.78355684D+05 0.11305198D+01  1  2  3  2  7  2       -1 -.311899867616D-04 0.100000000000D+01
0.973102566916D-06 0.000000000000D+00 0.000000000000D+00 0.204378638788D-06 0.000000000000D+00  7 1 -1 23 -11 11 23 21 2 0.35566222D+00 0.61936972D-02 0.78355684D+05 0.78355684D+05 0.78355684D+05 0.11305198D+01  1  2 15  2  7  2       -1 0.359164691582D-04 0.100000000000D+01
0.895528990313D-05 0.000000000000D+00 0.000000000000D+00 0.204378638788D-06 0.000000000000D+00  7 1 -1 23 -11 11 23 21 2 0.35566222D+00 0.73059421D-02 0.10182676D+06 0.10182676D+06 0.10182676D+06 0.11210775D+01  1  2 12  2  7  2       -1 0.251564923344D-03 0.100000000000D+01
-.701211199731D-05 0.000000000000D+00 0.000000000000D+00 0.204378638788D-06 0.000000000000D+00  7 1 -1 23 -11 11 23 21 2 0.35566222D+00 0.61936972D-02 0.78355684D+05 0.78355684D+05 0.78355684D+05 0.11305198D+01  1  2  4  2  7  2       -1 -.258811673967D-03 0.100000000000D+01
0.220681823248D-06 0.000000000000D+00 0.000000000000D+00 0.204378638788D-06 0.000000000000D+00  7 1 21 23 -11 11 23 1 2 0.35566222D+00 0.73059421D-02 0.10182676D+06 0.10182676D+06 0.10182676D+06 0.11210775D+01  1  2 12  4  7  2       -1 0.916960586422D-04 0.100000000000D+01
  </mgrwgt>
  </event>
  <event>
  8     66 0.25924217E-05 0.92193815E+02 0.75467711E-02 0.10674062E+00
        1 -1    0    0  501    0 0.00000000E+00 0.00000000E+00 0.20381137E+04 0.20381137E+04 0.32000000E+00 0.0000E+00 0.9000E+01
       -1 -1    0    0    0  501 0.00000000E+00 0.00000000E+00 -.36756712E+02 0.36758105E+02 0.32000000E+00 0.0000E+00 0.9000E+01
       25  2    1    2    0    0 0.16624576E+02 0.35015560E+02 0.61927366E+03 0.68924127E+03 0.30008532E+03 0.0000E+00 0.0000E+00
       23  2    3    3    0    0 0.66238753E+02 0.10793421E+03 0.45714082E+03 0.48337480E+03 0.92930628E+02 0.0000E+00 0.0000E+00
       23  1    1    2    0    0 -.16624576E+02 -.35015560E+02 0.13820833E+04 0.13856305E+04 0.91188000E+02 0.0000E+00 0.9000E+01
      -13  1    4    4    0    0 0.59978452E+02 0.12183044E+03 0.43980365E+03 0.46029049E+03 0.10565837E+00 0.0000E+00 0.9000E+01
       13  1    4    4    0    0 0.62603005E+01 -.13896237E+02 0.17337168E+02 0.23084309E+02 0.10565837E+00 0.0000E+00 0.9000E+01
       23  1    3    3    0    0 -.49614176E+02 -.72918646E+02 0.16213284E+03 0.20586647E+03 0.91188000E+02 0.0000E+00 0.9000E+01
#aMCatNLO 1  0  0  2  1 0.10709294D+02 0.00000000D+00  -5  7  0 0.00000000D+00 0.00000000D+00 0.00000000D+00 0.00000000D+00 0.00000000D+00
  <mgrwgt>
 0.4152289141D-03    6    2    0
 0.273707559232503D+03 0.000000000000000D+00 0.000000000000000D+00 0.273707559232503D+03
 0.273707559232503D+03 0.000000000000000D+00 0.000000000000000D+00 -.273707559232503D+03
 0.199051284777419D+03 -.166245763588932D+02 -.350155604158506D+02 0.172637471648517D+03
 0.136714779332230D+03 0.599785220163265D+02 0.121830617299065D+03 -.158369338296979D+02
 0.241115720284562D+02 0.626023134431459D+01 -.138964102097315D+02 -.186833399712675D+02
 0.187537482326901D+03 -.496141770017478D+02 -.729186466734829D+02 -.138117197847552D+03
 0.000000000000000D+00 -.000000000000000D+00 0.000000000000000D+00 0.000000000000000D+00
 0.279880314231324D+03 0.000000000000000D+00 0.000000000000000D+00 0.279880314231324D+03
 0.278444646498004D+03 0.000000000000000D+00 0.000000000000000D+00 -.278444646498004D+03
 0.199479279691402D+03 -.144640924058897D+02 -.382599672749698D+02 0.172637471648517D+03
 0.135407486057842D+03 0.614537307958935D+02 0.119615290739288D+03 -.158369338296979D+02
 0.244103480100997D+02 0.652327473159391D+01 -.142914234514399D+02 -.186833399712675D+02
 0.188222749723904D+03 -.475771338640285D+02 -.759776819970967D+02 -.138117197847552D+03
 0.108050972460807D+02 -.593577925756914D+01 0.891378198421841D+01 0.143566773331985D+01
0.459392572845D-05 0.000000000000D+00 0.000000000000D+00 0.261567083196D-06 0.000000000000D+00  7 1 -1 23 -13 13 23 21 0 0.31355606D+00 0.56549879D-02 0.35528884D+05 0.35528884D+05 0.35528884D+05 0.11605809D+01  1  2  2  2  7  2       -1 0.233995279385D-03 0.100000000000D+01
-.212043033656D-06 0.000000000000D+00 -.176418844057D-07 0.261567083196D-06 0.000000000000D+00  7 1 -1 23 -13 13 23 21 2 0.31355606D+00 0.56549879D-02 0.35528884D+05 0.35528884D+05 0.35528884D+05 0.11605809D+01  1  2  3  2  7  2       -1 -.145478217214D-04 0.100000000000D+01
0.264868346898D-06 0.000000000000D+00 0.000000000000D+00 0.261567083196D-06 0.000000000000D+00  7 1 -1 23 -13 13 23 21 2 0.31355606D+00 0.56549879D-02 0.35528884D+05 0.35528884D+05 0.35528884D+05 0.11605809D+01  1  2 15  2  7  2       -1 0.181720541527D-04 0.100000000000D+01
0.477476292808D-05 0.000000000000D+00 0.000000000000D+00 0.261567083196D-06 0.000000000000D+00  7 1 -1 23 -13 13 23 21 2 0.31355606D+00 0.58153751D-02 0.37774147D+05 0.37774147D+05 0.37774147D+05 0.11581633D+01  1  2 12  2  7  2       -1 0.312658204511D-03 0.100000000000D+01
-.322227952366D-05 0.000000000000D+00 0.000000000000D+00 0.261567083196D-06 0.000000000000D+00  7 1 -1 23 -13 13 23 21 2 0.31355606D+00 0.56549879D-02 0.35528884D+05 0.35528884D+05 0.35528884D+05 0.11605809D+01  1  2  4  2  7  2       -1 -.221073747335D-03 0.100000000000D+01
0.843254551054D-07 0.000000000000D+00 0.000000000000D+00 0.261567083196D-06 0.000000000000D+00  7 1 21 23 -13 13 23 1 2 0.31355606D+00 0.58153751D-02 0.37774147D+05 0.37774147D+05 0.37774147D+05 0.11581633D+01  1  2 12  4  7  2       -1 0.860249450623D-04 0.100000000000D+01
  </mgrwgt>
  </event>
  <event>
  9     66 0.25924217E-05 0.24959038E+03 0.75467711E-02 0.98654287E-01
        1 -1    0    0  501    0 0.00000000E+00 0.00000000E+00 0.13569505E+04 0.13569505E+04 0.32000000E+00 0.0000E+00 0.9000E+01
       -1 -1    0    0    0  502 0.00000000E+00 0.00000000E+00 -.17562934E+03 0.17562964E+03 0.32000000E+00 0.0000E+00 0.9000E+01
       25  2    1    2    0    0 -.13925200E+03 -.45475389E+02 0.72349000E+02 0.34106053E+03 0.29938066E+03 0.0000E+00 0.0000E+00
       23  2    3    3    0    0 -.18160789E+03 0.31403273E+02 0.28695673E+02 0.20717545E+03 0.90170031E+02 0.0000E+00 0.0000E+00
       23  1    1    2    0    0 0.50022049E+02 0.18881545E+03 0.88591128E+03 0.91176068E+03 0.91188000E+02 0.0000E+00 0.9000E+01
      -11  1    4    4    0    0 -.12989718E+03 0.58053642E+02 -.65784303E-01 0.14227968E+03 0.51099893E-03 0.0000E+00 0.9000E+01
       11  1    4    4    0    0 -.51710712E+02 -.26650369E+02 0.28761458E+02 0.64895773E+02 0.51099893E-03 0.0000E+00 0.9000E+01
       23  1    3    3    0    0 0.42355894E+02 -.76878662E+02 0.43653326E+02 0.13388508E+03 0.91188000E+02 0.0000E+00 0.9000E+01
       21  1    1    2  501  502 0.89229951E+02 -.14334006E+03 0.22306083E+03 0.27975892E+03 0.75000000E+00 0.0000E+00 0.9000E+01
#aMCatNLO 2  0  0  2  1 0.16884418D+03 0.00000000D+00  -5  7  0 0.00000000D+00 0.00000000D+00 0.00000000D+00 0.00000000D+00 0.00000000D+00
  <mgrwgt>
 0.8859990674D-04    1    2    0
 0.394585181043896D+03 0.000000000000000D+00 0.000000000000000D+00 0.394585181043896D+03
 0.394585181043896D+03 0.000000000000000D+00 0.000000000000000D+00 -.394585181043896D+03
 0.343066819232026D+03 0.895190500418139D+02 0.125366994204962D+03 0.292658585313337D+03
 0.200719536484619D+03 -.106325196277483D+03 0.201873222916565D+02 -.169043654071508D+03
 0.670929401849930D+02 -.442375249594980D+02 -.386553866073575D+02 -.324077937286783D+02
 0.178291066186154D+03 0.610436711951675D+02 -.106898929889261D+03 -.912071375131502D+02
 0.000000000000000D+00 0.000000000000000D+00 -.000000000000000D+00 0.000000000000000D+00
 0.495277386623023D+03 0.000000000000000D+00 0.000000000000000D+00 0.495277386623023D+03
 0.481184416151869D+03 0.000000000000000D+00 0.000000000000000D+00 -.481184416151869D+03
 0.363480092554298D+03 0.500220491310001D+02 0.188815447944317D+03 0.292658585313337D+03
 0.220950809869164D+03 -.129897182477085D+03 0.580536423018084D+02 -.169043654071508D+03
 0.665920794088875D+02 -.517107121641694D+02 -.266503694742387D+02 -.324077937286783D+02
 0.156007511516507D+03 0.423558940529204D+02 -.768786616117122D+02 -.912071375131502D+02
 0.169431309426036D+03 0.892299514573342D+02 -.143340059160174D+03 0.140929704711533D+02
0.588314571037D-05 0.000000000000D+00 0.000000000000D+00 0.407271240046D-06 0.970060184138D-10  7 1 -1 23 -11 11 23 21 2 0.20876128D+00 0.27019879D-01 0.12653412D+06 0.12653412D+06 0.12653412D+06 0.11134300D+01  1  2  1  2  7  2       -1 0.885999067363D-04 0.100000000000D+01
  </mgrwgt>
  </event>
  <event>
  7     66 0.25924217E-05 0.12666110E+03 0.75467711E-02 0.10214854E+00
        1 -1    0    0  501    0 0.00000000E+00 0.00000000E+00 0.38791838E+03 0.38791852E+03 0.32000000E+00 0.0000E+00 0.9000E+01
       -1 -1    0    0    0  501 0.00000000E+00 0.00000000E+00 -.10791668E+03 0.10791716E+03 0.32000000E+00 0.0000E+00 0.9000E+01
       23  2    1    2    0    0 -.33878998E+02 -.41556813E+02 0.14628253E+03 0.18032581E+03 0.90796834E+02 0.0000E+00 0.0000E+00
       23  1    1    2    0    0 0.26178108E+02 -.76824985E+01 0.17854848E+03 0.20233419E+03 0.91188000E+02 0.0000E+00 0.9000E+01
      -13  1    3    3    0    0 -.13317369E+02 -.22728345E+02 -.47275575E+01 0.26763612E+02 0.10565837E+00 0.0000E+00 0.9000E+01
       13  1    3    3    0    0 -.20561629E+02 -.18828468E+02 0.15101009E+03 0.15356220E+03 0.10565837E+00 0.0000E+00 0.9000E+01
       23  1    1    2    0    0 0.77008904E+01 0.49239312E+02 -.44829310E+02 0.11317567E+03 0.91188000E+02 0.0000E+00 0.9000E+01
#aMCatNLO 1  0  0  2  1 0.21040955D+03 0.00000000D+00  -5  7  0 0.00000000D+00 0.00000000D+00 0.00000000D+00 0.00000000D+00 0.00000000D+00
  <mgrwgt>
 0.4899977520D-02    3    2    0
 0.204604535015697D+03 0.000000000000000D+00 0.000000000000000D+00 0.204604535015697D+03
 0.204604535015697D+03 0.000000000000000D+00 0.000000000000000D+00 -.204604535015697D+03
 0.122996261230438D+03 0.261787468534153D+02 -.768268612023297D+01 0.779004395355304D+02
 0.356643982883804D+02 -.133174772155581D+02 -.227282473313307D+02 -.240420647851049D+02
 0.827399875089766D+02 -.205614945409508D+02 -.188278959875706D+02 0.779014814230723D+02
 0.167808423003600D+03 0.770022490309355D+01 0.492388294391343D+02 -.131759856173498D+03
 0.000000000000000D+00 0.000000000000000D+00 0.000000000000000D+00 0.000000000000000D+00
 0.364880587113124D+03 0.000000000000000D+00 0.000000000000000D+00 0.364880587113124D+03
 0.312166704854786D+03 0.000000000000000D+00 0.000000000000000D+00 -.312166704854786D+03
 0.132885778133097D+03 -.128563750048976D+02 -.557639115193977D+02 0.779004395355304D+02
 0.534917916329040D+02 -.269183643534624D+02 -.394810404308331D+02 -.240420647851049D+02
 0.107216629512482D+03 -.495396116126651D+02 -.545214794129228D+02 0.779014814230723D+02
 0.166540825679143D+03 -.433051668705121D+02 -.135866882405850D+02 -.131759856173498D+03
 0.216912267010285D+03 0.132619517841537D+03 0.163353119603738D+03 0.527138822583386D+02
0.249278856105D-04 0.000000000000D+00 0.000000000000D+00 0.397504341958D-09 0.000000000000D+00  7 1 -1 23 -13 13 23 21 0 0.59679798D-01 0.16602613D-01 0.16043034D+05 0.16043034D+05 0.16043034D+05 0.11934302D+01  1  2  2  2  7  2       -1 0.475772305848D-02 0.100000000000D+01
-.997635959404D-06 0.000000000000D+00 -.957296444073D-07 0.397504341958D-09 0.000000000000D+00  7 1 -1 23 -13 13 23 21 2 0.59679798D-01 0.16602613D-01 0.16043034D+05 0.16043034D+05 0.16043034D+05 0.11934302D+01  1  2  3  2  7  2       -1 -.271193843827D-03 0.100000000000D+01
0.152094491269D-05 0.000000000000D+00 0.000000000000D+00 0.397504341958D-09 0.000000000000D+00  7 1 -1 23 -13 13 23 21 2 0.59679798D-01 0.16602613D-01 0.16043034D+05 0.16043034D+05 0.16043034D+05 0.11934302D+01  1  2 15  2  7  2       -1 0.413448305700D-03 0.100000000000D+01
  </mgrwgt>
  </event>
  <event>
  8     66 0.25924217E-05 0.88890265E+02 0.75467711E-02 0.96067524E-01
        1 -1    0    0  501    0 0.00000000E+00 0.00000000E+00 0.28686508E+03 0.28686526E+03 0.32000000E+00 0.0000E+00 0.9000E+01
       -1 -1    0    0    0  501 0.00000000E+00 0.00000000E+00 -.39708813E+03 0.39708826E+03 0.32000000E+00 0.0000E+00 0.9000E+01
       25  2    1    2    0    0 -.14881120E+03 0.21242073E+03 -.93710105E+02 0.40853516E+03 0.30141674E+03 0.0000E+00 0.0000E+00
       23  2    3    3    0    0 -.14240718E+03 0.16868839E+03 -.16016430E+03 0.28735372E+03 0.90465336E+02 0.0000E+00 0.0000E+00
       23  1    1    2    0    0 0.14881120E+03 -.21242073E+03 -.16512947E+02 0.27541835E+03 0.91188000E+02 0.0000E+00 0.9000E+01
      -11  1    4    4    0    0 -.98406147E+02 0.53518161E+02 -.10003455E+03 0.15018281E+03 0.51099893E-03 0.0000E+00 0.9000E+01
       11  1    4    4    0    0 -.44001038E+02 0.11517023E+03 -.60129751E+02 0.13717091E+03 0.51099893E-03 0.0000E+00 0.9000E+01
       23  1    3    3    0    0 -.64040155E+01 0.43732347E+02 0.66454200E+02 0.12118144E+03 0.91188000E+02 0.0000E+00 0.9000E+01
#aMCatNLO 1  0  0  1  2 0.24096144D+03 0.00000000D+00  -5  7  0 0.00000000D+00 0.00000000D+00 0.00000000D+00 0.00000000D+00 0.00000000D+00
  <mgrwgt>
 0.1685051272D-03    7    2    0
 0.337506773223262D+03 0.000000000000000D+00 0.000000000000000D+00 0.337506773223262D+03
 0.337506773223262D+03 0.000000000000000D+00 0.000000000000000D+00 -.337506773223262D+03
 0.276369629754220D+03 0.148811199913067D+03 -.212420733460858D+03 0.282414532711917D+02
 0.135837191222452D+03 -.984061469045085D+02 0.535181605042109D+02 -.768360544722257D+02
 0.129169026622209D+03 -.440010375465761D+02 0.115170225882384D+03 -.385274603828820D+02
 0.133637698847641D+03 -.640401546198278D+01 0.437323470742634D+02 0.871220615839161D+02
 0.000000000000000D+00 -.000000000000000D+00 0.000000000000000D+00 0.000000000000000D+00
 0.751636424009375D+03 0.000000000000000D+00 0.000000000000000D+00 0.751636424009375D+03
 0.395276338767638D+03 0.000000000000000D+00 0.000000000000000D+00 -.395276338767638D+03
 0.386008841648673D+03 0.212365505050379D+03 -.307881287298821D+03 0.282414532711917D+02
 0.108862622288094D+03 -.749275356779773D+02 0.182525521998091D+02 -.768360544722257D+02
 0.942256801561227D+02 -.225666220671898D+02 0.829750635179391D+02 -.385274603828820D+02
 0.127635512614523D+03 0.186647905490323D+02 0.607821647370718D+01 0.871220615839161D+02
 0.430180106069600D+03 -.133536137854244D+03 0.200575455107366D+03 0.356360085241737D+03
0.701553549926D-05 0.000000000000D+00 0.000000000000D+00 0.518096518968D-07 0.000000000000D+00  7 1 -1 23 -11 11 23 21 0 0.44133112D-01 0.61090505D-01 0.93502923D+05 0.93502923D+05 0.93502923D+05 0.11241241D+01  1  2  2  1  7  1        1 0.223700338294D-03 0.100000000000D+01
-.385134480658D-06 0.000000000000D+00 -.269415035501D-07 0.518096518968D-07 0.000000000000D+00  7 1 -1 23 -11 11 23 21 2 0.44133112D-01 0.61090505D-01 0.93502923D+05 0.93502923D+05 0.93502923D+05 0.11241241D+01  1  2  3  1  7  1        1 -.155183916006D-04 0.100000000000D+01
0.446115948031D-06 0.000000000000D+00 0.000000000000D+00 0.518096518968D-07 0.000000000000D+00  7 1 -1 23 -11 11 23 21 2 0.44133112D-01 0.61090505D-01 0.93502923D+05 0.93502923D+05 0.93502923D+05 0.11241241D+01  1  2 15  1  7  1        1 0.179755444617D-04 0.100000000000D+01
0.601258658651D-06 0.000000000000D+00 0.000000000000D+00 0.518096518968D-07 0.000000000000D+00  7 1 -1 23 -11 11 23 21 2 0.97658620D-01 0.61090505D-01 0.19462230D+06 0.19462230D+06 0.19462230D+06 0.10987357D+01  1  2 12  1  7  1        1 0.769363865572D-05 0.100000000000D+01
-.500684897490D-05 0.000000000000D+00 -.223757195881D-05 0.518096518968D-07 0.000000000000D+00  7 1 -1 23 -11 11 23 21 2 0.10911586D+00 0.61090505D-01 0.93502923D+05 0.93502923D+05 0.93502923D+05 0.11241241D+01  1  2  5  1  7  1        1 -.581645716530D-04 0.100000000000D+01
0.517850042843D-07 0.000000000000D+00 0.000000000000D+00 0.518096518968D-07 0.000000000000D+00  7 21 -1 23 -11 11 23 -1 2 0.97658620D-01 0.61090505D-01 0.19462230D+06 0.19462230D+06 0.19462230D+06 0.10987357D+01  1  2 12  3  7  1        1 0.152193176638D-05 0.100000000000D+01
-.358975414484D-06 0.000000000000D+00 -.222568036725D-06 0.518096518968D-07 0.000000000000D+00  7 21 -1 23 -11 11 23 -1 2 0.10911586D+00 0.61090505D-01 0.93502923D+05 0.93502923D+05 0.93502923D+05 0.11241241D+01  1  2  5  3  7  1        1 -.870336271638D-05 0.100000000000D+01
  </mgrwgt>
  </event>
  <event>
  8     66 0.25924217E-05 0.18087849E+03 0.75467711E-02 0.10493514E+00
        1 -1    0    0  501    0 0.00000000E+00 0.00000000E+00 0.67454458E+02 0.67455217E+02 0.32000000E+00 0.0000E+00 0.9000E+01
       -1 -1    0    0    0  501 0.00000000E+00 0.00000000E+00 -.58881702E+03 0.58881711E+03 0.32000000E+00 0.0000E+00 0.9000E+01
       25  2    1    2    0    0 -.28570994E+02 -.16919051E+02 -.42687343E+03 0.52082490E+03 0.29653853E+03 0.0000E+00 0.0000E+00
       23  2    3    3    0    0 -.11909195E+03 -.25971088E+02 -.14235432E+03 0.20850719E+03 0.91395314E+02 0.0000E+00 0.0000E+00
       23  1    1    2    0    0 0.28570994E+02 0.16919051E+02 -.94489135E+02 0.13544742E+03 0.91188000E+02 0.0000E+00 0.9000E+01
      -13  1    4    4    0    0 -.54898141E+01 -.21526918E+02 -.70730919E+02 0.74137847E+02 0.10565837E+00 0.0000E+00 0.9000E+01
       13  1    4    4    0    0 -.11360214E+03 -.44441697E+01 -.71623403E+02 0.13436934E+03 0.10565837E+00 0.0000E+00 0.9000E+01
       23  1    3    3    0    0 0.90520958E+02 0.90520372E+01 -.28451910E+03 0.31231772E+03 0.91188000E+02 0.0000E+00 0.9000E+01
#aMCatNLO 1  0  0  2  2 0.71448533D+02 0.00000000D+00  -5  7  0 0.00000000D+00 0.00000000D+00 0.00000000D+00 0.00000000D+00 0.00000000D+00
  <mgrwgt>
 0.1826345909D-02    4    2    0
 0.199295284845045D+03 0.000000000000000D+00 0.000000000000000D+00 0.199295284845045D+03
 0.199295284845045D+03 0.000000000000000D+00 0.000000000000000D+00 -.199295284845045D+03
 0.994201721414662D+02 0.285739306356410D+02 0.169207900838244D+02 0.215948289089658D+02
 0.295499564354719D+02 -.549004448550635D+01 -.215272153203043D+02 -.194843100324005D+02
 0.127551727664600D+03 -.113602217373823D+03 -.444458229989152D+01 0.578292756841585D+02
 0.142068713448552D+03 0.905183312236887D+02 0.905100753637149D+01 -.599397945607238D+02
 0.000000000000000D+00 0.000000000000000D+00 0.000000000000000D+00 0.000000000000000D+00
 0.343145735311271D+03 0.000000000000000D+00 0.000000000000000D+00 0.343145735311271D+03
 0.211544018480636D+03 0.000000000000000D+00 0.000000000000000D+00 -.211544018480636D+03
 0.968471331587744D+02 0.244494967053066D+02 -.365010012254778D-01 0.215948289089658D+02
 0.340030284414180D+02 -.682557047542759D+01 -.270181271266930D+02 -.194843100324005D+02
 0.135171491160371D+03 -.119123180513103D+03 -.271435952078291D+02 0.578292756841585D+02
 0.138921966860864D+03 0.846134888751221D+02 -.152262950479989D+02 -.599397945607238D+02
 0.149746134170480D+03 0.168857654081021D+02 0.694245183837465D+02 0.131601716830635D+03
0.200603439118D-04 0.000000000000D+00 0.000000000000D+00 0.377590172179D-08 0.000000000000D+00  7 1 -1 23 -13 13 23 21 0 0.10377674D-01 0.90587299D-01 0.32717028D+05 0.32717028D+05 0.32717028D+05 0.11638585D+01  1  2  2  2  7  2       -1 0.194676800393D-02 0.100000000000D+01
-.110172408191D-05 0.000000000000D+00 -.770370026313D-07 0.377590172179D-08 0.000000000000D+00  7 1 -1 23 -13 13 23 21 2 0.10377674D-01 0.90587299D-01 0.32717028D+05 0.32717028D+05 0.32717028D+05 0.11638585D+01  1  2  3  2  7  2       -1 -.144826830043D-03 0.100000000000D+01
0.130207934263D-05 0.000000000000D+00 0.000000000000D+00 0.377590172179D-08 0.000000000000D+00  7 1 -1 23 -13 13 23 21 2 0.10377674D-01 0.90587299D-01 0.32717028D+05 0.32717028D+05 0.32717028D+05 0.11638585D+01  1  2 15  2  7  2       -1 0.171164474622D-03 0.100000000000D+01
-.111642807575D-05 0.000000000000D+00 0.000000000000D+00 0.377590172179D-08 0.000000000000D+00  7 1 -1 23 -13 13 23 21 2 0.10377674D-01 0.90587299D-01 0.32717028D+05 0.32717028D+05 0.32717028D+05 0.11638585D+01  1  2  4  2  7  2       -1 -.146759739427D-03 0.100000000000D+01
  </mgrwgt>
  </event>
  <event>
  9     66 0.25924217E-05 0.34800022E+03 0.75467711E-02 0.95802728E-01
        1 -1    0    0  502    0 0.00000000E+00 0.00000000E+00 0.13844343E+04 0.13844343E+04 0.32000000E+00 0.0000E+00 0.9000E+01
       -1 -1    0    0    0  501 0.00000000E+00 0.00000000E+00 -.40110588E+03 0.40110601E+03 0.32000000E+00 0.0000E+00 0.9000E+01
       25  2    1    2    0    0 -.51799810E+01 -.31729693E+03 0.11202029E+04 0.12023529E+04 0.30015629E+03 0.0000E+00 0.0000E+00
       23  2    3    3    0    0 -.10606928E+03 -.23692840E+03 0.77086029E+03 0.81895590E+03 0.95275531E+02 0.0000E+00 0.0000E+00
       23  1    1    2    0    0 0.16037765E+03 0.21305794E+03 -.23955720E+03 0.36988860E+03 0.91188000E+02 0.0000E+00 0.9000E+01
      -13  1    4    4    0    0 -.80600106E+02 -.69356235E+02 0.26945831E+03 0.28967992E+03 0.10565837E+00 0.0000E+00 0.9000E+01
       13  1    4    4    0    0 -.25469169E+02 -.16757216E+03 0.50140198E+03 0.52927598E+03 0.10565837E+00 0.0000E+00 0.9000E+01
       23  1    3    3    0    0 0.10088929E+03 -.80368529E+02 0.34934262E+03 0.38339701E+03 0.91188000E+02 0.0000E+00 0.9000E+01
       21  1    1    2  502  501 -.15519767E+03 0.10423899E+03 0.10268268E+03 0.21329880E+03 0.75000000E+00 0.0000E+00 0.9000E+01
#aMCatNLO 2  0  0  1  2 0.18695476D+03 0.00000000D+00  -5  7  0 0.00000000D+00 0.00000000D+00 0.00000000D+00 0.00000000D+00 0.00000000D+00
  <mgrwgt>
 0.1117429907D-03    1    2    0
 0.644487090764540D+03 0.000000000000000D+00 0.000000000000000D+00 0.644487090764540D+03
 0.644487090764540D+03 0.000000000000000D+00 0.000000000000000D+00 -.644487090764540D+03
 0.612764754745080D+03 0.872390394544430D+02 0.262181710122197D+03 -.539273116506158D+03
 0.173338326317913D+03 -.101011930068425D+03 -.556464968219882D+02 0.129407236065018D+03
 0.292540818847417D+03 -.609488684133259D+02 -.143742188725983D+03 0.247393511053375D+03
 0.210330281618670D+03 0.747217590273081D+02 -.627930245742260D+02 0.162472369387765D+03
 0.000000000000000D+00 -.000000000000000D+00 0.000000000000000D+00 -.000000000000000D+00
 0.735121824901578D+03 0.000000000000000D+00 0.000000000000000D+00 0.735121824901578D+03
 0.755390114594779D+03 0.000000000000000D+00 0.000000000000000D+00 -.755390114594779D+03
 0.608477955429485D+03 0.160377650710481D+03 0.213057940161754D+03 -.539273116506158D+03
 0.167489974090221D+03 -.806001737804034D+02 -.693561148084610D+02 0.129407236065018D+03
 0.299887802410615D+03 -.254691015609629D+02 -.167572281684738D+03 0.247393511053375D+03
 0.226605984738186D+03 0.100889294327618D+03 -.803685289822081D+02 0.162472369387765D+03
 0.188050222827848D+03 -.155197669696732D+03 0.104238985313653D+03 -.202682896932009D+02
0.346810123420D-04 0.000000000000D+00 0.000000000000D+00 0.332238401219D-06 0.618227065822D-10  7 1 -1 23 -13 13 23 21 2 0.21298969D+00 0.61708547D-01 0.20366385D+06 0.20366385D+06 0.20366385D+06 0.10972204D+01  1  2  1  1  7  1        1 0.111742990737D-03 0.100000000000D+01
  </mgrwgt>
  </event>
  <event>
  8     66 0.25924217E-05 0.70491897E+02 0.75467711E-02 0.10083162E+00
        3 -1    0    0  501    0 0.00000000E+00 0.00000000E+00 0.25417114E+03 0.25417163E+03 0.50000000E+00 0.0000E+00 0.9000E+01
       -3 -1    0    0    0  501 0.00000000E+00 0.00000000E+00 -.35000196E+03 0.35000232E+03 0.50000000E+00 0.0000E+00 0.9000E+01
       25  2    1    2    0    0 -.17059191E+03 -.49203555E+02 0.54547718E+02 0.35427088E+03 0.30167832E+03 0.0000E+00 0.0000E+00
       23  2    3    3    0    0 -.16303646E+03 0.23491152E+02 0.11702382E+03 0.22175627E+03 0.91370385E+02 0.0000E+00 0.0000E+00
       23  1    1    2    0    0 0.17059191E+03 0.49203555E+02 -.15037854E+03 0.24990308E+03 0.91188000E+02 0.0000E+00 0.9000E+01
      -13  1    4    4    0    0 0.11437661E+02 0.62335709E+01 0.74468097E+01 0.15004787E+02 0.10565837E+00 0.0000E+00 0.9000E+01
       13  1    4    4    0    0 -.17447413E+03 0.17257581E+02 0.10957701E+03 0.20675149E+03 0.10565837E+00 0.0000E+00 0.9000E+01
       23  1    3    3    0    0 -.75554497E+01 -.72694708E+02 -.62476104E+02 0.13251460E+03 0.91188000E+02 0.0000E+00 0.9000E+01
#aMCatNLO 1  0  0  2  1 0.86189965D+02 0.00000000D+00  -5  7  0 0.00000000D+00 0.00000000D+00 0.00000000D+00 0.00000000D+00 0.00000000D+00
  <mgrwgt>
 0.1010211638D-03    9    2    0
 0.298262728324977D+03 0.000000000000000D+00 0.000000000000000D+00 0.298262728324977D+03
 0.298262728324977D+03 0.000000000000000D+00 0.000000000000000D+00 -.298262728324977D+03
 0.228949214250654D+03 0.170591919653699D+03 0.492035571297965D+02 -.112160145669631D+03
 0.163932098037685D+02 0.114379096222475D+02 0.623355525678137D+01 0.995260468441916D+01
 0.227006045930355D+03 -.174474373514385D+03 0.172575923715763D+02 0.144196440251603D+03
 0.124176986665176D+03 -.755545576156179D+01 -.726947047581541D+02 -.419888992663914D+02
 0.000000000000000D+00 0.000000000000000D+00 0.000000000000000D+00 -.000000000000000D+00
 0.325712634659764D+03 0.000000000000000D+00 0.000000000000000D+00 0.325712634659764D+03
 0.377621756848705D+03 0.000000000000000D+00 0.000000000000000D+00 -.377621756848705D+03
 0.209315912118354D+03 0.149107893772393D+03 0.261693993065624D+02 -.112160145669631D+03
 0.147775890009576D+02 0.990989790520788D+01 0.459529326433663D+01 0.995260468441916D+01
 0.244734383748170D+03 -.197599379340055D+03 -.753594664176152D+01 0.144196440251603D+03
 0.133892058860301D+03 -.202061589995030D+02 -.862581912558687D+02 -.419888992663914D+02
 0.100614447780685D+03 0.587877466619569D+02 0.630294453267311D+02 -.519091221889411D+02
0.826754762744D-05 0.000000000000D+00 0.000000000000D+00 0.613689742839D-07 0.000000000000D+00  7 3 -3 23 -13 13 23 21 0 0.39103318D-01 0.53846521D-01 0.63707977D+05 0.63707977D+05 0.63707977D+05 0.11381534D+01  1  2  2  2  7  2       -3 0.769463369147D-04 0.100000000000D+01
-.443744316381D-06 0.000000000000D+00 -.317495597847D-07 0.613689742839D-07 0.000000000000D+00  7 3 -3 23 -13 13 23 21 2 0.39103318D-01 0.53846521D-01 0.63707977D+05 0.63707977D+05 0.63707977D+05 0.11381534D+01  1  2  3  2  7  2       -3 -.534989960624D-05 0.100000000000D+01
0.532329410189D-06 0.000000000000D+00 0.000000000000D+00 0.613689742839D-07 0.000000000000D+00  7 3 -3 23 -13 13 23 21 2 0.39103318D-01 0.53846521D-01 0.63707977D+05 0.63707977D+05 0.63707977D+05 0.11381534D+01  1  2 15  2  7  2       -3 0.641790507918D-05 0.100000000000D+01
0.729948257847D-05 0.000000000000D+00 0.000000000000D+00 0.613689742839D-07 0.000000000000D+00  7 3 -3 23 -13 13 23 21 2 0.39103318D-01 0.70149779D-01 0.89617486D+05 0.89617486D+05 0.89617486D+05 0.11256498D+01  1  2 12  2  7  2       -3 0.484985160418D-04 0.100000000000D+01
-.810951887346D-05 0.000000000000D+00 0.000000000000D+00 0.613689742839D-07 0.000000000000D+00  7 3 -3 23 -13 13 23 21 2 0.39103318D-01 0.53846521D-01 0.63707977D+05 0.63707977D+05 0.63707977D+05 0.11381534D+01  1  2  4  2  7  2       -3 -.977705183511D-04 0.100000000000D+01
-.128731619080D-04 0.000000000000D+00 -.410392818095D-05 0.613689742839D-07 0.000000000000D+00  7 3 -3 23 -13 13 23 21 2 0.39103318D-01 0.73146109D-01 0.63707977D+05 0.63707977D+05 0.63707977D+05 0.11381534D+01  1  2  5  2  7  2       -3 -.793776115160D-04 0.100000000000D+01
0.136692316087D-04 0.000000000000D+00 0.391863802796D-05 0.613689742839D-07 0.000000000000D+00  7 3 -3 23 -13 13 23 21 2 0.39103318D-01 0.53846521D-01 0.63707977D+05 0.63707977D+05 0.63707977D+05 0.11381534D+01  1  2  6  2  7  2       -3 0.164799895123D-03 0.100000000000D+01
0.257482363117D-06 0.000000000000D+00 0.000000000000D+00 0.613689742839D-07 0.000000000000D+00  7 3 21 23 -13 13 23 3 2 0.39103318D-01 0.70149779D-01 0.89617486D+05 0.89617486D+05 0.89617486D+05 0.11256498D+01  1  2 12  4  7  2       -3 0.264492473853D-04 0.100000000000D+01
-.410134485967D-06 0.000000000000D+00 -.161045012321D-06 0.613689742839D-07 0.000000000000D+00  7 3 21 23 -13 13 23 3 2 0.39103318D-01 0.73146109D-01 0.63707977D+05 0.63707977D+05 0.63707977D+05 0.11381534D+01  1  2  5  4  7  2       -3 -.395927072275D-04 0.100000000000D+01
  </mgrwgt>
  </event>
  <event>
  8     66 0.25924217E-05 0.28758795E+03 0.75467711E-02 0.94778199E-01
        1 -1    0    0  501    0 0.00000000E+00 0.00000000E+00 0.90904928E+03 0.90904934E+03 0.32000000E+00 0.0000E+00 0.9000E+01
       -1 -1    0    0    0  501 0.00000000E+00 0.00000000E+00 -.30091057E+03 0.30091074E+03 0.32000000E+00 0.0000E+00 0.9000E+01
       25  2    1    2    0    0 0.23184874E+03 -.23927180E+03 0.71883754E+03 0.84722834E+03 0.30010600E+03 0.0000E+00 0.0000E+00
       23  2    3    3    0    0 0.35478384E+02 -.19803005E+03 0.42857983E+03 0.48277397E+03 0.94421459E+02 0.0000E+00 0.0000E+00
       23  1    1    2    0    0 -.23184874E+03 0.23927180E+03 -.11069883E+03 0.36273174E+03 0.91188000E+02 0.0000E+00 0.9000E+01
      -11  1    4    4    0    0 -.16259396E+02 -.13314918E+03 0.31259455E+03 0.34015941E+03 0.51099893E-03 0.0000E+00 0.9000E+01
       11  1    4    4    0    0 0.51737780E+02 -.64880876E+02 0.11598528E+03 0.14261456E+03 0.51099893E-03 0.0000E+00 0.9000E+01
       23  1    3    3    0    0 0.19637036E+03 -.41241748E+02 0.29025771E+03 0.36445437E+03 0.91188000E+02 0.0000E+00 0.9000E+01
#aMCatNLO 1  0  0  2  1 0.19532531D+03 0.00000000D+00  -5  7  0 0.00000000D+00 0.00000000D+00 0.00000000D+00 0.00000000D+00 0.00000000D+00
  <mgrwgt>
 0.2610587726D-03    7    2    0
 0.523013076273450D+03 0.000000000000000D+00 0.000000000000000D+00 0.523013076273450D+03
 0.523013076273450D+03 0.000000000000000D+00 0.000000000000000D+00 -.523013076273450D+03
 0.483937399304615D+03 -.231848744584998D+03 0.239271801753050D+03 -.338932618114462D+03
 0.211733198055493D+03 -.162593962617562D+02 -.133149178535625D+03 0.163822695153322D+03
 0.975336804309633D+02 0.517377802751370D+02 -.648808756380311D+02 0.512493208448000D+02
 0.252821874755829D+03 0.196370360571617D+03 -.412417475793939D+02 0.123860602116341D+03
 0.000000000000000D+00 -.000000000000000D+00 0.000000000000000D+00 -.000000000000000D+00
 0.548590772511398D+03 0.000000000000000D+00 0.000000000000000D+00 0.548590772511398D+03
 0.110880234847506D+04 0.000000000000000D+00 0.000000000000000D+00 -.110880234847506D+04
 0.443644985862603D+03 -.146693273044230D+03 0.228279184681118D+03 -.338932618114462D+03
 0.215564951779624D+03 0.229681440835123D+02 -.138213014386534D+03 0.163822695153322D+03
 0.110352140895320D+03 0.708224625898926D+02 -.673444942503142D+02 0.512493208448000D+02
 0.294544443565737D+03 0.246620599997849D+03 -.477284903545894D+02 0.123860602116341D+03
 0.593286598883173D+03 -.193717933627024D+03 0.250068143103200D+02 -.560211575963661D+03
0.363226934434D-04 0.000000000000D+00 0.000000000000D+00 0.373007786873D-06 0.000000000000D+00  7 1 -1 23 -11 11 23 21 0 0.13985375D+00 0.46293952D-01 0.15325364D+06 0.15325364D+06 0.15325364D+06 0.11068172D+01  1  2  2  2  7  2       -1 0.368137656137D-03 0.100000000000D+01
-.181204037080D-05 0.000000000000D+00 -.139488706808D-06 0.373007786873D-06 0.000000000000D+00  7 1 -1 23 -11 11 23 21 2 0.13985375D+00 0.46293952D-01 0.15325364D+06 0.15325364D+06 0.15325364D+06 0.11068172D+01  1  2  3  2  7  2       -1 -.224984121631D-04 0.100000000000D+01
0.224120075252D-05 0.000000000000D+00 0.000000000000D+00 0.373007786873D-06 0.000000000000D+00  7 1 -1 23 -11 11 23 21 2 0.13985375D+00 0.46293952D-01 0.15325364D+06 0.15325364D+06 0.15325364D+06 0.11068172D+01  1  2 15  2  7  2       -1 0.278268956272D-04 0.100000000000D+01
0.621498639312D-04 0.000000000000D+00 0.000000000000D+00 0.373007786873D-06 0.000000000000D+00  7 1 -1 23 -11 11 23 21 2 0.13985375D+00 0.98004353D-01 0.24337480D+06 0.24337480D+06 0.24337480D+06 0.10913377D+01  1  2 12  2  7  2       -1 0.169907252747D-03 0.100000000000D+01
-.902747800863D-04 0.000000000000D+00 -.111733616938D-04 0.373007786873D-06 0.000000000000D+00  7 1 -1 23 -11 11 23 21 2 0.13985375D+00 0.10034462D+00 0.15325364D+06 0.15325364D+06 0.15325364D+06 0.11068172D+01  1  2  5  2  7  2       -1 -.246630291483D-03 0.100000000000D+01
0.504226811960D-05 0.000000000000D+00 0.000000000000D+00 0.373007786873D-06 0.000000000000D+00  7 1 21 23 -11 11 23 1 2 0.13985375D+00 0.98004353D-01 0.24337480D+06 0.24337480D+06 0.24337480D+06 0.10913377D+01  1  2 12  4  7  2       -1 0.971760079506D-04 0.100000000000D+01
-.686139667545D-05 0.000000000000D+00 -.935997589210D-06 0.373007786873D-06 0.000000000000D+00  7 1 21 23 -11 11 23 1 2 0.13985375D+00 0.10034462D+00 0.15325364D+06 0.15325364D+06 0.15325364D+06 0.11068172D+01  1  2  5  4  7  2       -1 -.132860336239D-03 0.100000000000D+01
  </mgrwgt>
  </event>
  <event>
  8     66 0.25924217E-05 0.80050639E+02 0.75467711E-02 0.10319414E+00
        1 -1    0    0  501    0 0.00000000E+00 0.00000000E+00 0.50676431E+03 0.50676441E+03 0.32000000E+00 0.0000E+00 0.9000E+01
       -1 -1    0    0    0  501 0.00000000E+00 0.00000000E+00 -.90758372E+02 0.90758936E+02 0.32000000E+00 0.0000E+00 0.9000E+01
       25  2    1    2    0    0 -.63160280E+02 -.39926539E+02 0.32525454E+03 0.44874695E+03 0.29999993E+03 0.0000E+00 0.0000E+00
       23  2    3    3    0    0 -.12688557E+03 0.26287333E+02 0.95132790E+02 0.18470820E+03 0.90971961E+02 0.0000E+00 0.0000E+00
       23  1    1    2    0    0 0.63160280E+02 0.39926539E+02 0.90751391E+02 0.14877640E+03 0.91188000E+02 0.0000E+00 0.9000E+01
      -11  1    4    4    0    0 -.97668662E+02 -.22147733E+02 0.73164509E+02 0.12402715E+03 0.51099893E-03 0.0000E+00 0.9000E+01
       11  1    4    4    0    0 -.29216909E+02 0.48435066E+02 0.21968281E+02 0.60681041E+02 0.51099893E-03 0.0000E+00 0.9000E+01
       23  1    3    3    0    0 0.63725291E+02 -.66213873E+02 0.23012175E+03 0.26403875E+03 0.91188000E+02 0.0000E+00 0.9000E+01
#aMCatNLO 1  0  0  2  1 0.87057854D+02 0.00000000D+00  -5  7  0 0.00000000D+00 0.00000000D+00 0.00000000D+00 0.00000000D+00 0.00000000D+00
  <mgrwgt>
 0.2887119247D-03    9    2    0
 0.214460490265772D+03 0.000000000000000D+00 0.000000000000000D+00 0.214460490265772D+03
 0.214460490265772D+03 0.000000000000000D+00 0.000000000000000D+00 -.214460490265772D+03
 0.119239333618138D+03 0.631602799927913D+02 0.399265394492054D+02 -.178722638896384D+02
 0.101818870653820D+03 -.976686620351381D+02 -.221477329899661D+02 -.183682552489456D+02
 0.632270386284278D+02 -.292169090907403D+02 0.484350661854471D+02 -.282502212471950D+02
 0.144635737631159D+03 0.637252911330872D+02 -.662138726446864D+02 0.644907403857789D+02
 0.000000000000000D+00 -.000000000000000D+00 -.000000000000000D+00 -.000000000000000D+00
 0.255485652400851D+03 0.000000000000000D+00 0.000000000000000D+00 0.255485652400851D+03
 0.270529268297734D+03 0.000000000000000D+00 0.000000000000000D+00 -.270529268297734D+03
 0.136073494575309D+03 0.880426719412580D+02 0.461499153069618D+02 -.178722638896384D+02
 0.835729064261453D+02 -.796006671992842D+02 -.176287171697667D+02 -.183682552489456D+02
 0.611486651819311D+02 -.170954460488171D+02 0.514667851862581D+02 -.282502212471950D+02
 0.156871790630232D+03 0.931097468484459D+02 -.588644782347352D+02 0.644907403857789D+02
 0.883480638849690D+02 -.844563055416025D+02 -.211235050887179D+02 -.150436158968832D+02
0.122945924587D-05 0.000000000000D+00 0.000000000000D+00 0.138728862158D-06 0.000000000000D+00  7 1 -1 23 -11 11 23 21 0 0.77963790D-01 0.13962878D-01 0.40817666D+05 0.40817666D+05 0.40817666D+05 0.11551282D+01  1  2  2  2  7  2       -1 0.217246275599D-03 0.100000000000D+01
-.680074002063D-07 0.000000000000D+00 -.472144722818D-08 0.138728862158D-06 0.000000000000D+00  7 1 -1 23 -11 11 23 21 2 0.77963790D-01 0.13962878D-01 0.40817666D+05 0.40817666D+05 0.40817666D+05 0.11551282D+01  1  2  3  2  7  2       -1 -.160344740095D-04 0.100000000000D+01
0.753610403992D-07 0.000000000000D+00 0.000000000000D+00 0.138728862158D-06 0.000000000000D+00  7 1 -1 23 -11 11 23 21 2 0.77963790D-01 0.13962878D-01 0.40817666D+05 0.40817666D+05 0.40817666D+05 0.11551282D+01  1  2 15  2  7  2       -1 0.177682816862D-04 0.100000000000D+01
0.503008927858D-06 0.000000000000D+00 0.000000000000D+00 0.138728862158D-06 0.000000000000D+00  7 1 -1 23 -11 11 23 21 2 0.77963790D-01 0.18654107D-01 0.62679163D+05 0.62679163D+05 0.62679163D+05 0.11387607D+01  1  2 12  2  7  2       -1 0.733801234752D-04 0.100000000000D+01
-.598030204209D-06 0.000000000000D+00 0.000000000000D+00 0.138728862158D-06 0.000000000000D+00  7 1 -1 23 -11 11 23 21 2 0.77963790D-01 0.13962878D-01 0.40817666D+05 0.40817666D+05 0.40817666D+05 0.11551282D+01  1  2  4  2  7  2       -1 -.141000828398D-03 0.100000000000D+01
-.109034979816D-05 0.000000000000D+00 -.523228317755D-06 0.138728862158D-06 0.000000000000D+00  7 1 -1 23 -11 11 23 21 2 0.77963790D-01 0.20883673D-01 0.40817666D+05 0.40817666D+05 0.40817666D+05 0.11551282D+01  1  2  5  2  7  2       -1 -.136743052374D-03 0.100000000000D+01
0.123894073847D-05 0.000000000000D+00 0.483517195649D-06 0.138728862158D-06 0.000000000000D+00  7 1 -1 23 -11 11 23 21 2 0.77963790D-01 0.13962878D-01 0.40817666D+05 0.40817666D+05 0.40817666D+05 0.11551282D+01  1  2  6  2  7  2       -1 0.292111785042D-03 0.100000000000D+01
0.189569333324D-07 0.000000000000D+00 0.000000000000D+00 0.138728862158D-06 0.000000000000D+00  7 1 21 23 -11 11 23 1 2 0.77963790D-01 0.18654107D-01 0.62679163D+05 0.62679163D+05 0.62679163D+05 0.11387607D+01  1  2 12  4  7  2       -1 0.344176816538D-04 0.100000000000D+01
-.341305939030D-07 0.000000000000D+00 -.250227688237D-07 0.138728862158D-06 0.000000000000D+00  7 1 21 23 -11 11 23 1 2 0.77963790D-01 0.20883673D-01 0.40817666D+05 0.40817666D+05 0.40817666D+05 0.11551282D+01  1  2  5  4  7  2       -1 -.524338680033D-04 0.100000000000D+01
  </mgrwgt>
  </event>
  <event>
  8     66 0.25924217E-05 0.60453127E+03 0.75467711E-02 0.90434773E-01
        3 -1    0    0  501    0 0.00000000E+00 0.00000000E+00 0.11383855E+04 0.11383856E+04 0.50000000E+00 0.0000E+00 0.9000E+01
       -3 -1    0    0    0  501 0.00000000E+00 0.00000000E+00 -.11432366E+04 0.11432367E+04 0.50000000E+00 0.0000E+00 0.9000E+01
       25  2    1    2    0    0 0.55700647E+03 -.19057520E+03 -.95440205E+03 0.11606685E+04 0.29948786E+03 0.0000E+00 0.0000E+00
       23  2    3    3    0    0 0.33446558E+03 -.11994288E+03 -.35226431E+03 0.50844271E+03 0.90389849E+02 0.0000E+00 0.0000E+00
       23  1    1    2    0    0 -.55700647E+03 0.19057520E+03 0.94955101E+03 0.11209538E+04 0.91188000E+02 0.0000E+00 0.9000E+01
      -11  1    4    4    0    0 0.39747800E+02 0.93747792E+01 -.18664271E+02 0.44901327E+02 0.51099893E-03 0.0000E+00 0.9000E+01
       11  1    4    4    0    0 0.29471778E+03 -.12931766E+03 -.33360004E+03 0.46354138E+03 0.51099893E-03 0.0000E+00 0.9000E+01
       23  1    3    3    0    0 0.22254089E+03 -.70632326E+02 -.60213775E+03 0.65222580E+03 0.91188000E+02 0.0000E+00 0.9000E+01
#aMCatNLO 1  0  0  2  1 0.24054262D+03 0.00000000D+00  -5  7  0 0.00000000D+00 0.00000000D+00 0.00000000D+00 0.00000000D+00 0.00000000D+00
  <mgrwgt>
 0.1466723741D-04    4    2    0
 0.114080859065958D+04 0.000000000000000D+00 0.000000000000000D+00 0.114080859065958D+04
 0.114080859065958D+04 0.000000000000000D+00 0.000000000000000D+00 -.114080859065958D+04
 0.112297524753560D+04 -.557006473839598D+03 0.190575201529671D+03 0.951936466312923D+03
 0.448617451251337D+02 0.397478004090776D+02 0.937477923194915D+01 -.185688462933159D+02
 0.462833145955875D+03 0.294717779131256D+03 -.129317655186801D+03 -.332615236747116D+03
 0.650947042702555D+03 0.222540894299264D+03 -.706323255748187D+02 -.600752383272492D+03
 0.000000000000000D+00 0.000000000000000D+00 0.000000000000000D+00 0.000000000000000D+00
 0.134867140946939D+04 0.000000000000000D+00 0.000000000000000D+00 0.134867140946939D+04
 0.121890408129305D+04 0.000000000000000D+00 0.000000000000000D+00 -.121890408129305D+04
 0.115318085992514D+04 -.636475760114053D+03 0.101125739772747D+03 0.951936466312923D+03
 0.415883129088552D+02 0.367294993409621D+02 0.597742386838318D+01 -.185688462933159D+02
 0.454953838219742D+03 0.262674336967798D+03 -.165385283181616D+03 -.332615236747116D+03
 0.644538899799423D+03 0.177310541736112D+03 -.121542946287797D+03 -.600752383272492D+03
 0.273313579909282D+03 0.159761382069182D+03 0.179825065828283D+03 0.129767328176341D+03
0.196732701770D-02 0.000000000000D+00 0.000000000000D+00 0.558659500068D-05 0.000000000000D+00  7 3 -3 23 -11 11 23 21 0 0.17513625D+00 0.17588257D+00 0.36545805D+06 0.36545805D+06 0.36545805D+06 0.10782666D+01  1  2  2  2  7  2       -3 0.209366847415D-04 0.100000000000D+01
-.557055941053D-04 0.000000000000D+00 -.755505375705D-05 0.558659500068D-05 0.000000000000D+00  7 3 -3 23 -11 11 23 21 2 0.17513625D+00 0.17588257D+00 0.36545805D+06 0.36545805D+06 0.36545805D+06 0.10782666D+01  1  2  3  2  7  2       -3 -.689259040927D-06 0.100000000000D+01
0.117795268973D-03 0.000000000000D+00 0.000000000000D+00 0.558659500068D-05 0.000000000000D+00  7 3 -3 23 -11 11 23 21 2 0.17513625D+00 0.17588257D+00 0.36545805D+06 0.36545805D+06 0.36545805D+06 0.10782666D+01  1  2 15  2  7  2       -3 0.145750988607D-05 0.100000000000D+01
-.568783482860D-03 0.000000000000D+00 0.000000000000D+00 0.558659500068D-05 0.000000000000D+00  7 3 -3 23 -11 11 23 21 2 0.17513625D+00 0.17588257D+00 0.36545805D+06 0.36545805D+06 0.36545805D+06 0.10782666D+01  1  2  4  2  7  2       -3 -.703769817355D-05 0.100000000000D+01
  </mgrwgt>
  </event>
  <event>
  8     66 0.25924217E-05 0.24119044E+03 0.75467711E-02 0.96297144E-01
        1 -1    0    0  501    0 0.00000000E+00 0.00000000E+00 0.89563145E+03 0.89563151E+03 0.32000000E+00 0.0000E+00 0.9000E+01
       -1 -1    0    0    0  501 0.00000000E+00 0.00000000E+00 -.25111378E+03 0.25111399E+03 0.32000000E+00 0.0000E+00 0.9000E+01
       25  2    1    2    0    0 -.21619854E+03 0.29540168E+03 0.87143593E+02 0.47370384E+03 0.28774530E+03 0.0000E+00 0.0000E+00
       23  2    3    3    0    0 -.11719065E+03 0.29226095E+03 0.88518450E+02 0.33905776E+03 0.89300258E+02 0.0000E+00 0.0000E+00
       23  1    1    2    0    0 0.21619854E+03 -.29540168E+03 0.55737407E+03 0.67304166E+03 0.91188000E+02 0.0000E+00 0.9000E+01
      -13  1    4    4    0    0 -.65831111E+02 0.22191260E+03 0.28363502E+02 0.23320257E+03 0.10565837E+00 0.0000E+00 0.9000E+01
       13  1    4    4    0    0 -.51359543E+02 0.70348347E+02 0.60154948E+02 0.10585519E+03 0.10565837E+00 0.0000E+00 0.9000E+01
       23  1    3    3    0    0 -.99007886E+02 0.31407323E+01 -.13748575E+01 0.13464608E+03 0.91188000E+02 0.0000E+00 0.9000E+01
#aMCatNLO 1  0  0  2  1 0.33694686D+02 0.00000000D+00  -5  7  0 0.00000000D+00 0.00000000D+00 0.00000000D+00 0.00000000D+00 0.00000000D+00
  <mgrwgt>
 0.7999365497D-03    9    2    0
 0.474242081073492D+03 0.000000000000000D+00 0.000000000000000D+00 0.474242081073492D+03
 0.474242081073492D+03 0.000000000000000D+00 0.000000000000000D+00 -.474242081073492D+03
 0.434978321445245D+03 0.216198540659711D+03 -.295401678922601D+03 0.216533895475149D+03
 0.262675388890085D+03 -.658311315155010D+02 0.221912811659311D+03 -.124174579014407D+03
 0.871050952749257D+02 -.513595226416026D+02 0.703481342970641D+02 0.798159008489492D+00
 0.163725356536729D+03 -.990078865026077D+02 0.314073296622539D+01 -.931574754692322D+02
 0.000000000000000D+00 0.000000000000000D+00 0.000000000000000D+00 -.000000000000000D+00
 0.489003207573814D+03 0.000000000000000D+00 0.000000000000000D+00 0.489003207573814D+03
 0.494167395429630D+03 0.000000000000000D+00 0.000000000000000D+00 -.494167395429630D+03
 0.440598836060022D+03 0.208536406078667D+03 -.308929963654542D+03 0.216533895475149D+03
 0.257134037926371D+03 -.703799593950578D+02 0.213881389331716D+03 -.124174579014407D+03
 0.858846724913593D+02 -.528733479743071D+02 0.676753203548609D+02 0.798159008489492D+00
 0.165464925026471D+03 -.101888615195092D+03 -.194548910090075D+01 -.931574754692322D+02
 0.340881314992206D+02 0.166055164857895D+02 0.293187430688657D+02 -.516418785581660D+01
0.318566314144D-04 0.000000000000D+00 0.000000000000D+00 0.845378156610D-09 0.000000000000D+00  7 1 -1 23 -13 13 23 21 0 0.13778947D+00 0.38632910D-01 0.17241767D+06 0.17241767D+06 0.17241767D+06 0.11028097D+01  1  2  2  2  7  2       -1 0.453279290892D-03 0.100000000000D+01
-.173181751822D-05 0.000000000000D+00 -.122337852675D-06 0.845378156610D-09 0.000000000000D+00  7 1 -1 23 -13 13 23 21 2 0.13778947D+00 0.38632910D-01 0.17241767D+06 0.17241767D+06 0.17241767D+06 0.11028097D+01  1  2  3  2  7  2       -1 -.299687994657D-04 0.100000000000D+01
0.198855604732D-05 0.000000000000D+00 0.000000000000D+00 0.845378156610D-09 0.000000000000D+00  7 1 -1 23 -13 13 23 21 2 0.13778947D+00 0.38632910D-01 0.17241767D+06 0.17241767D+06 0.17241767D+06 0.11028097D+01  1  2 15  2  7  2       -1 0.344116148389D-04 0.100000000000D+01
0.732617935857D-04 0.000000000000D+00 0.000000000000D+00 0.845378156610D-09 0.000000000000D+00  7 1 -1 23 -13 13 23 21 2 0.13778947D+00 0.40835410D-01 0.18714597D+06 0.18714597D+06 0.18714597D+06 0.11000480D+01  1  2 12  2  7  2       -1 0.114262176168D-02 0.100000000000D+01
-.622964391547D-04 0.000000000000D+00 0.000000000000D+00 0.845378156610D-09 0.000000000000D+00  7 1 -1 23 -13 13 23 21 2 0.13778947D+00 0.38632910D-01 0.17241767D+06 0.17241767D+06 0.17241767D+06 0.11028097D+01  1  2  4  2  7  2       -1 -.107802899140D-02 0.100000000000D+01
-.332020445225D-03 0.000000000000D+00 -.600494053552D-04 0.845378156610D-09 0.000000000000D+00  7 1 -1 23 -13 13 23 21 2 0.13778947D+00 0.41432797D-01 0.17241767D+06 0.17241767D+06 0.17241767D+06 0.11028097D+01  1  2  5  2  7  2       -1 -.508567718604D-02 0.100000000000D+01
0.335547006070D-03 0.000000000000D+00 0.599027169354D-04 0.845378156610D-09 0.000000000000D+00  7 1 -1 23 -13 13 23 21 2 0.13778947D+00 0.38632910D-01 0.17241767D+06 0.17241767D+06 0.17241767D+06 0.11028097D+01  1  2  6  2  7  2       -1 0.580658229312D-02 0.100000000000D+01
0.840058289896D-06 0.000000000000D+00 0.000000000000D+00 0.845378156610D-09 0.000000000000D+00  7 1 21 23 -13 13 23 1 2 0.13778947D+00 0.40835410D-01 0.18714597D+06 0.18714597D+06 0.18714597D+06 0.11000480D+01  1  2 12  4  7  2       -1 0.127750961460D-03 0.100000000000D+01
-.383274056238D-05 0.000000000000D+00 -.711430310502D-06 0.845378156610D-09 0.000000000000D+00  7 1 21 23 -13 13 23 1 2 0.13778947D+00 0.41432797D-01 0.17241767D+06 0.17241767D+06 0.17241767D+06 0.11028097D+01  1  2  5  4  7  2       -1 -.571034395351D-03 0.100000000000D+01
  </mgrwgt>
  </event>
  <event>
  8     66 0.25924217E-05 0.24697336E+03 0.75467711E-02 0.10309358E+00
        1 -1    0    0  501    0 0.00000000E+00 0.00000000E+00 0.25901298E+04 0.25901298E+04 0.32000000E+00 0.0000E+00 0.9000E+01
       -1 -1    0    0    0  501 0.00000000E+00 0.00000000E+00 -.25658043E+02 0.25660038E+02 0.32000000E+00 0.0000E+00 0.9000E+01
       25  2    1    2    0    0 0.38450329E+02 0.14771282E+03 0.17567030E+04 0.17886846E+04 0.30014935E+03 0.0000E+00 0.0000E+00
       23  2    3    3    0    0 0.11838217E+03 0.11909464E+03 0.74430440E+03 0.76864819E+03 0.92914578E+02 0.0000E+00 0.0000E+00
       23  1    1    2    0    0 -.38450329E+02 -.14771282E+03 0.80776881E+03 0.82710532E+03 0.91188000E+02 0.0000E+00 0.9000E+01
      -13  1    4    4    0    0 0.87811222E+02 0.23085226E+02 0.32937587E+03 0.34166096E+03 0.10565837E+00 0.0000E+00 0.9000E+01
       13  1    4    4    0    0 0.30570946E+02 0.96009416E+02 0.41492854E+03 0.42698723E+03 0.10565837E+00 0.0000E+00 0.9000E+01
       23  1    3    3    0    0 -.79931839E+02 0.28618179E+02 0.10123986E+04 0.10200364E+04 0.91188000E+02 0.0000E+00 0.9000E+01
#aMCatNLO 1  0  0  2  1 0.10548307D+02 0.00000000D+00  -5  7  0 0.00000000D+00 0.00000000D+00 0.00000000D+00 0.00000000D+00 0.00000000D+00
  <mgrwgt>
 0.2430127278D-03    4    2    0
 0.257798947266856D+03 0.000000000000000D+00 0.000000000000000D+00 0.257798947266856D+03
 0.257798947266856D+03 0.000000000000000D+00 0.000000000000000D+00 -.257798947266856D+03
 0.178498408374781D+03 -.384503296409121D+02 -.147712822312640D+03 -.157773484232851D+02
 0.951093085458250D+02 0.878112940207198D+02 0.230851348938105D+02 -.283202005890882D+02
 0.102475883857932D+03 0.305708756023410D+02 0.960095075634341D+02 -.186789398734924D+02
 0.139514293755173D+03 -.799318399821488D+02 0.286181798553956D+02 0.627764888858657D+02
 0.000000000000000D+00 -.000000000000000D+00 0.000000000000000D+00 0.000000000000000D+00
 0.298100395083239D+03 0.000000000000000D+00 0.000000000000000D+00 0.298100395083239D+03
 0.258544032916142D+03 0.000000000000000D+00 0.000000000000000D+00 -.258544032916142D+03
 0.180721765892720D+03 -.365591604317615D+02 -.150862879425782D+03 -.157773484232851D+02
 0.956489822457858D+02 0.888155700379867D+02 0.214123460199000D+02 -.283202005890882D+02
 0.101135230241379D+03 0.316428172615495D+02 0.942240102995593D+02 -.186789398734924D+02
 0.138199805603188D+03 -.784697718933381D+02 0.261828620843728D+02 0.627764888858657D+02
 0.409386440163079D+02 -.542945497443660D+01 0.904366102194984D+01 0.395563621670979D+02
0.697006501034D-05 0.000000000000D+00 0.000000000000D+00 0.807664802656D-07 0.000000000000D+00  7 1 -1 23 -13 13 23 21 0 0.39848167D+00 0.39475462D-02 0.60995842D+05 0.60995842D+05 0.60995842D+05 0.11397784D+01  1  2  2  2  7  2       -1 0.255448254741D-03 0.100000000000D+01
-.386359369613D-06 0.000000000000D+00 -.267668849000D-07 0.807664802656D-07 0.000000000000D+00  7 1 -1 23 -13 13 23 21 2 0.39848167D+00 0.39475462D-02 0.60995842D+05 0.60995842D+05 0.60995842D+05 0.11397784D+01  1  2  3  2  7  2       -1 -.183949400699D-04 0.100000000000D+01
0.422867558511D-06 0.000000000000D+00 0.000000000000D+00 0.807664802656D-07 0.000000000000D+00  7 1 -1 23 -13 13 23 21 2 0.39848167D+00 0.39475462D-02 0.60995842D+05 0.60995842D+05 0.60995842D+05 0.11397784D+01  1  2 15  2  7  2       -1 0.201331299512D-04 0.100000000000D+01
-.297698622020D-06 0.000000000000D+00 0.000000000000D+00 0.807664802656D-07 0.000000000000D+00  7 1 -1 23 -13 13 23 21 2 0.39848167D+00 0.39475462D-02 0.60995842D+05 0.60995842D+05 0.60995842D+05 0.11397784D+01  1  2  4  2  7  2       -1 -.141737168596D-04 0.100000000000D+01
  </mgrwgt>
  </event>
  <event>
  8     66 0.25924217E-05 0.98038828E+02 0.75467711E-02 0.10358524E+00
        1 -1    0    0  501    0 0.00000000E+00 0.00000000E+00 0.72884710E+03 0.72884717E+03 0.32000000E+00 0.0000E+00 0.9000E+01
       -1 -1    0    0    0  501 0.00000000E+00 0.00000000E+00 -.87383754E+02 0.87384340E+02 0.32000000E+00 0.0000E+00 0.9000E+01
       25  2    1    2    0    0 -.10013826E+03 -.78482916E+02 0.53264298E+03 0.62558954E+03 0.30243426E+03 0.0000E+00 0.0000E+00
       23  2    3    3    0    0 -.15671392E+03 -.59351999E+02 0.22563129E+03 0.29980091E+03 0.10435130E+03 0.0000E+00 0.0000E+00
       23  1    1    2    0    0 0.10013826E+03 0.78482916E+02 0.10882036E+03 0.19064198E+03 0.91188000E+02 0.0000E+00 0.9000E+01
      -11  1    4    4    0    0 -.13793014E+03 -.90165259E+01 0.12812596E+03 0.18847356E+03 0.51099893E-03 0.0000E+00 0.9000E+01
       11  1    4    4    0    0 -.18783788E+02 -.50335473E+02 0.97505332E+02 0.11132736E+03 0.51099893E-03 0.0000E+00 0.9000E+01
       23  1    3    3    0    0 0.56575661E+02 -.19130916E+02 0.30701169E+03 0.32578863E+03 0.91188000E+02 0.0000E+00 0.9000E+01
#aMCatNLO 1  0  0  2  1 0.27767757D+02 0.00000000D+00  -5  7  0 0.00000000D+00 0.00000000D+00 0.00000000D+00 0.00000000D+00 0.00000000D+00
  <mgrwgt>
 0.2091813761D-03    9    2    0
 0.252368111653614D+03 0.000000000000000D+00 0.000000000000000D+00 0.252368111653614D+03
 0.252368111653614D+03 0.000000000000000D+00 0.000000000000000D+00 -.252368111653614D+03
 0.169997136255809D+03 0.100138262411054D+03 0.784829157506106D+02 -.663063747143024D+02
 0.141955234392602D+03 -.137930134973089D+03 -.901652671896677D+01 -.323306152692830D+02
 0.561140617777023D+02 -.187837887008120D+02 -.503354724898135D+02 0.161955987991263D+02
 0.136669790881115D+03 0.565756612628465D+02 -.191309165418304D+02 0.824413911844590D+02
 0.000000000000000D+00 -.000000000000000D+00 -.000000000000000D+00 -.000000000000000D+00
 0.257964757263281D+03 0.000000000000000D+00 0.000000000000000D+00 0.257964757263281D+03
 0.289712540629482D+03 0.000000000000000D+00 0.000000000000000D+00 -.289712540629482D+03
 0.176624640235352D+03 0.104528214567107D+03 0.869386520825284D+02 -.663063747143024D+02
 0.138233246331645D+03 -.134381558084735D+03 -.218141110612740D+01 -.323306152692830D+02
 0.532650679330066D+02 -.173985060126859D+02 -.476672007776005D+02 0.161955987991263D+02
 0.137376504878092D+03 0.600464476026572D+02 -.124456377254324D+02 0.824413911844590D+02
 0.421778385146677D+02 -.127945980723432D+02 -.246444024733681D+02 -.317477833662009D+02
0.180179450925D-05 0.000000000000D+00 0.000000000000D+00 0.141474659202D-09 0.000000000000D+00  7 1 -1 23 -11 11 23 21 0 0.11213037D+00 0.13443705D-01 0.52323846D+05 0.52323846D+05 0.52323846D+05 0.11455640D+01  1  2  2  2  7  2       -1 0.201118264640D-03 0.100000000000D+01
-.989240150551D-07 0.000000000000D+00 -.691936533890D-08 0.141474659202D-09 0.000000000000D+00  7 1 -1 23 -11 11 23 21 2 0.11213037D+00 0.13443705D-01 0.52323846D+05 0.52323846D+05 0.52323846D+05 0.11455640D+01  1  2  3  2  7  2       -1 -.144906114597D-04 0.100000000000D+01
0.114644277254D-06 0.000000000000D+00 0.000000000000D+00 0.141474659202D-09 0.000000000000D+00  7 1 -1 23 -11 11 23 21 2 0.11213037D+00 0.13443705D-01 0.52323846D+05 0.52323846D+05 0.52323846D+05 0.11455640D+01  1  2 15  2  7  2       -1 0.167933507030D-04 0.100000000000D+01
0.630395506384D-05 0.000000000000D+00 0.000000000000D+00 0.141474659202D-09 0.000000000000D+00  7 1 -1 23 -11 11 23 21 2 0.11213037D+00 0.15567589D-01 0.59172024D+05 0.59172024D+05 0.59172024D+05 0.11409165D+01  1  2 12  2  7  2       -1 0.728845126783D-03 0.100000000000D+01
-.640575988402D-05 0.000000000000D+00 0.000000000000D+00 0.141474659202D-09 0.000000000000D+00  7 1 -1 23 -11 11 23 21 2 0.11213037D+00 0.13443705D-01 0.52323846D+05 0.52323846D+05 0.52323846D+05 0.11455640D+01  1  2  4  2  7  2       -1 -.938330066079D-03 0.100000000000D+01
-.104892397338D-04 0.000000000000D+00 -.162817593311D-05 0.141474659202D-09 0.000000000000D+00  7 1 -1 23 -11 11 23 21 2 0.11213037D+00 0.15744038D-01 0.52323846D+05 0.52323846D+05 0.52323846D+05 0.11455640D+01  1  2  5  2  7  2       -1 -.120174360590D-02 0.100000000000D+01
0.106335908131D-04 0.000000000000D+00 0.160807470869D-05 0.141474659202D-09 0.000000000000D+00  7 1 -1 23 -11 11 23 21 2 0.11213037D+00 0.13443705D-01 0.52323846D+05 0.52323846D+05 0.52323846D+05 0.11455640D+01  1  2  6  2  7  2       -1 0.155763221710D-02 0.100000000000D+01
0.141212337343D-06 0.000000000000D+00 0.000000000000D+00 0.141474659202D-09 0.000000000000D+00  7 1 21 23 -11 11 23 1 2 0.11213037D+00 0.15567589D-01 0.59172024D+05 0.59172024D+05 0.59172024D+05 0.11409165D+01  1  2 12  4  7  2       -1 0.211795977179D-03 0.100000000000D+01
-.237041499508D-06 0.000000000000D+00 -.387184225744D-07 0.141474659202D-09 0.000000000000D+00  7 1 21 23 -11 11 23 1 2 0.11213037D+00 0.15744038D-01 0.52323846D+05 0.52323846D+05 0.52323846D+05 0.11455640D+01  1  2  5  4  7  2       -1 -.352439276906D-03 0.100000000000D+01
  </mgrwgt>
  </event>
  <event>
  9     66 0.25924217E-05 0.26947714E+03 0.75467711E-02 0.97208290E-01
        1 -1    0    0  501    0 0.00000000E+00 0.00000000E+00 0.40901693E+04 0.40901693E+04 0.32000000E+00 0.0000E+00 0.9000E+01
       21 -1    0    0  502  501 0.00000000E+00 0.00000000E+00 -.60694270E+02 0.60698904E+02 0.75000000E+00 0.0000E+00 0.9000E+01
       25  2    1    2    0    0 -.30421355E+03 -.52316992E+02 0.14691849E+04 0.15309062E+04 0.29981128E+03 0.0000E+00 0.0000E+00
       23  2    3    3    0    0 -.58970365E+02 0.51780536E+02 0.28101627E+03 0.30982461E+03 0.10422290E+03 0.0000E+00 0.0000E+00
       23  1    1    2    0    0 0.10343274E+03 0.16165051E+03 0.20477716E+04 0.20587649E+04 0.91188000E+02 0.0000E+00 0.9000E+01
      -13  1    4    4    0    0 -.13349597E+02 0.13891675E+02 -.31621847E+01 0.19524368E+02 0.10565837E+00 0.0000E+00 0.9000E+01
       13  1    4    4    0    0 -.45620768E+02 0.37888861E+02 0.28417846E+03 0.29030024E+03 0.10565837E+00 0.0000E+00 0.9000E+01
       23  1    3    3    0    0 -.24524319E+03 -.10409753E+03 0.11881686E+04 0.12210816E+04 0.91188000E+02 0.0000E+00 0.9000E+01
        1  1    1    2  502    0 0.20078081E+03 -.10933352E+03 0.51251861E+03 0.56119709E+03 0.32000000E+00 0.0000E+00 0.9000E+01
#aMCatNLO 2  0  0  2  1 0.22861923D+03 0.00000000D+00  -5  7  0 0.00000000D+00 0.00000000D+00 0.00000000D+00 0.00000000D+00 0.00000000D+00
  <mgrwgt>
 0.2689890224D-04    2    2    0
 0.340767347154621D+03 0.000000000000000D+00 0.000000000000000D+00 0.340767347154621D+03
 0.340767347154621D+03 0.000000000000000D+00 0.000000000000000D+00 -.340767347154621D+03
 0.280923324761045D+03 0.181279151091374D+03 0.119259897533456D+03 0.153354521520234D+03
 0.112992315497670D+03 0.190473296578207D+02 -.374974654334969D+01 -.111312182600522D+03
 0.430451315910220D+02 -.309448841112488D+02 0.298972602038643D+02 -.120471296673449D+01
 0.244573922459505D+03 -.169381596637946D+03 -.145407411193971D+03 -.408376259529776D+02
 0.000000000000000D+00 0.000000000000000D+00 -.000000000000000D+00 -.000000000000000D+00
 0.413733587069981D+03 0.000000000000000D+00 0.000000000000000D+00 0.413733587069981D+03
 0.600046491923719D+03 0.000000000000000D+00 0.000000000000000D+00 -.600046491923719D+03
 0.262034502828626D+03 0.103432742615906D+03 0.161650511328907D+03 0.153354521520234D+03
 0.112967215719603D+03 -.133495473595937D+02 0.138917031872015D+02 -.111312182600522D+03
 0.593150036432006D+02 -.456207364411085D+02 0.378888734384067D+02 -.120471296673449D+01
 0.284540907682004D+03 -.245243269689932D+03 -.104097568553808D+03 -.408376259529776D+02
 0.294922449120267D+03 0.200780810874728D+03 -.109333519400707D+03 -.186312904853738D+03
-.670180518444D-07 0.000000000000D+00 0.000000000000D+00 0.663053883196D-08 0.000000000000D+00  7 1 21 23 -13 13 23 1 2 0.51828100D+00 0.95433457D-02 0.16050267D+06 0.16050267D+06 0.16050267D+06 0.11052400D+01  1  2 13  4  7  2       -1 -.287842576929D-05 0.100000000000D+01
0.280626229086D-05 0.000000000000D+00 0.000000000000D+00 0.663053883196D-08 0.808493327435D-13  7 1 21 23 -13 13 23 1 2 0.62925706D+00 0.93379356D-02 0.16050267D+06 0.16050267D+06 0.16050267D+06 0.11052400D+01  1  2  1  4  7  2       -1 0.297773280085D-04 0.100000000000D+01
  </mgrwgt>
  </event>
  <event>
  8     66 0.25924217E-05 0.71036656E+03 0.75467711E-02 0.86163431E-01
        1 -1    0    0  501    0 0.00000000E+00 0.00000000E+00 0.21481705E+04 0.21481705E+04 0.32000000E+00 0.0000E+00 0.9000E+01
       -1 -1    0    0    0  501 0.00000000E+00 0.00000000E+00 -.55861589E+03 0.55861598E+03 0.32000000E+00 0.0000E+00 0.9000E+01
       25  2    1    2    0    0 0.68005915E+03 0.82574620E+03 0.90982440E+03 0.14360837E+04 0.30036417E+03 0.0000E+00 0.0000E+00
       23  2    3    3    0    0 0.12666954E+03 0.27525844E+03 0.18274717E+03 0.36546078E+03 0.91392933E+02 0.0000E+00 0.0000E+00
       23  1    1    2    0    0 -.68005915E+03 -.82574620E+03 0.67973018E+03 0.12707028E+04 0.91188000E+02 0.0000E+00 0.9000E+01
      -11  1    4    4    0    0 0.44260361E+02 0.19665369E+03 0.10245473E+03 0.22611639E+03 0.51099893E-03 0.0000E+00 0.9000E+01
       11  1    4    4    0    0 0.82409178E+02 0.78604753E+02 0.80292448E+02 0.13934438E+03 0.51099893E-03 0.0000E+00 0.9000E+01
       23  1    3    3    0    0 0.55338961E+03 0.55048776E+03 0.72707723E+03 0.10706229E+04 0.91188000E+02 0.0000E+00 0.9000E+01
#aMCatNLO 1  0  0  1  2 0.95325178D+02 0.00000000D+00  -5  7  0 0.00000000D+00 0.00000000D+00 0.00000000D+00 0.00000000D+00 0.00000000D+00
  <mgrwgt>
 0.1162014345D-02    9    2    0
 0.109544616977001D+04 0.000000000000000D+00 0.000000000000000D+00 0.109544616977001D+04
 0.109544616977001D+04 0.000000000000000D+00 0.000000000000000D+00 -.109544616977001D+04
 0.107675438353973D+04 -.680059151203044D+03 -.825746201758037D+03 -.821432424195214D+02
 0.205026697344444D+03 0.442603608083613D+02 0.196653689688670D+03 -.374739031449396D+02
 0.113901653641346D+03 0.824091775099900D+02 0.786047525357906D+02 -.189922172141896D+01
 0.795209605014504D+03 0.553389612884692D+03 0.550487759533576D+03 0.121516367285880D+03
 0.000000000000000D+00 0.000000000000000D+00 -.000000000000000D+00 0.000000000000000D+00
 0.114756274936507D+04 0.000000000000000D+00 0.000000000000000D+00 0.114756274936507D+04
 0.114095623354358D+04 0.000000000000000D+00 0.000000000000000D+00 -.114095623354358D+04
 0.106832991761625D+04 -.709299340278621D+03 -.789405152716307D+03 -.821432424195214D+02
 0.210679842151917D+03 0.385937593567181D+02 0.203696402056974D+03 -.374739031449396D+02
 0.114426304832158D+03 0.792967811004840D+02 0.824729816454867D+02 -.189922172141896D+01
 0.799529081745102D+03 0.531651324696271D+03 0.577505101832451D+03 0.121516367285880D+03
 0.955538365632328D+02 0.597574751251480D+02 -.742693328186049D+02 0.660651582149117D+01
0.104956695468D-02 0.000000000000D+00 0.000000000000D+00 0.767593810700D-05 0.000000000000D+00  7 1 -1 23 -11 11 23 21 0 0.33048777D+00 0.85940914D-01 0.11825971D+07 0.11825971D+07 0.11825971D+07 0.10430496D+01  1  2  2  1  7  1        1 0.397888901489D-03 0.100000000000D+01
-.583054917728D-04 0.000000000000D+00 -.403061346329D-05 0.767593810700D-05 0.000000000000D+00  7 1 -1 23 -11 11 23 21 2 0.33048777D+00 0.85940914D-01 0.11825971D+07 0.11825971D+07 0.11825971D+07 0.10430496D+01  1  2  3  1  7  1        1 -.240475623065D-04 0.100000000000D+01
0.660654805281D-04 0.000000000000D+00 0.000000000000D+00 0.767593810700D-05 0.000000000000D+00  7 1 -1 23 -11 11 23 21 2 0.33048777D+00 0.85940914D-01 0.11825971D+07 0.11825971D+07 0.11825971D+07 0.10430496D+01  1  2 15  1  7  1        1 0.272480980951D-04 0.100000000000D+01
0.200342256095D-02 0.000000000000D+00 0.000000000000D+00 0.767593810700D-05 0.000000000000D+00  7 1 -1 23 -11 11 23 21 2 0.35277429D+00 0.85940914D-01 0.12910232D+07 0.12910232D+07 0.12910232D+07 0.10405583D+01  1  2 12  1  7  1        1 0.649858311583D-03 0.100000000000D+01
-.162158238304D-02 0.000000000000D+00 0.000000000000D+00 0.767593810700D-05 0.000000000000D+00  7 1 -1 23 -11 11 23 21 2 0.33048777D+00 0.85940914D-01 0.11825971D+07 0.11825971D+07 0.11825971D+07 0.10430496D+01  1  2  4  1  7  1        1 -.668806697372D-03 0.100000000000D+01
-.887912951393D-02 0.000000000000D+00 -.152945964305D-02 0.767593810700D-05 0.000000000000D+00  7 1 -1 23 -11 11 23 21 2 0.35293699D+00 0.85940914D-01 0.11825971D+07 0.11825971D+07 0.11825971D+07 0.10430496D+01  1  2  5  1  7  1        1 -.290796403872D-02 0.100000000000D+01
0.896357814731D-02 0.000000000000D+00 0.152616263095D-02 0.767593810700D-05 0.000000000000D+00  7 1 -1 23 -11 11 23 21 2 0.33048777D+00 0.85940914D-01 0.11825971D+07 0.11825971D+07 0.11825971D+07 0.10430496D+01  1  2  6  1  7  1        1 0.369694513214D-02 0.100000000000D+01
0.231568941929D-04 0.000000000000D+00 0.000000000000D+00 0.767593810700D-05 0.000000000000D+00  7 21 -1 23 -11 11 23 -1 2 0.35277429D+00 0.85940914D-01 0.12910232D+07 0.12910232D+07 0.12910232D+07 0.10405583D+01  1  2 12  3  7  1        1 0.280419131978D-05 0.100000000000D+01
-.971236227786D-04 0.000000000000D+00 -.171223579487D-04 0.767593810700D-05 0.000000000000D+00  7 21 -1 23 -11 11 23 -1 2 0.35293699D+00 0.85940914D-01 0.11825971D+07 0.11825971D+07 0.11825971D+07 0.10430496D+01  1  2  5  3  7  1        1 -.119119908258D-04 0.100000000000D+01
  </mgrwgt>
  </event>
  <event>
  8     66 0.25924217E-05 0.25155429E+03 0.75467711E-02 0.93357848E-01
        1 -1    0    0  501    0 0.00000000E+00 0.00000000E+00 0.23305117E+04 0.23305118E+04 0.32000000E+00 0.0000E+00 0.9000E+01
       -1 -1    0    0    0  501 0.00000000E+00 0.00000000E+00 -.17221603E+03 0.17221633E+03 0.32000000E+00 0.0000E+00 0.9000E+01
       25  2    1    2    0    0 0.44156187E+03 -.11980392E+03 0.18834581E+04 0.19612664E+04 0.29970209E+03 0.0000E+00 0.0000E+00
       23  2    3    3    0    0 0.43806908E+02 -.18390343E+02 0.18278428E+03 0.20938152E+03 0.90406166E+02 0.0000E+00 0.0000E+00
       23  1    1    2    0    0 -.44156187E+03 0.11980392E+03 0.27483759E+03 0.54146174E+03 0.91188000E+02 0.0000E+00 0.9000E+01
      -13  1    4    4    0    0 0.47537212E+02 -.45137027E+02 0.81676048E+02 0.10472882E+03 0.10565837E+00 0.0000E+00 0.9000E+01
       13  1    4    4    0    0 -.37303034E+01 0.26746685E+02 0.10110823E+03 0.10465269E+03 0.10565837E+00 0.0000E+00 0.9000E+01
       23  1    3    3    0    0 0.39775497E+03 -.10141357E+03 0.17006738E+04 0.17518848E+04 0.91188000E+02 0.0000E+00 0.9000E+01
#aMCatNLO 1  0  0  2  1 0.13510424D+03 0.00000000D+00  -5  7  0 0.00000000D+00 0.00000000D+00 0.00000000D+00 0.00000000D+00 0.00000000D+00
  <mgrwgt>
 0.2406305111D-03    9    2    0
 0.633523391255601D+03 0.000000000000000D+00 0.000000000000000D+00 0.633523391255601D+03
 0.633523391255601D+03 0.000000000000000D+00 0.000000000000000D+00 -.633523391255601D+03
 0.601359586496524D+03 -.441561874305812D+03 0.119803916711180D+03 -.379457815346409D+03
 0.677376355879049D+02 0.475372815122393D+02 -.451371255381287D+02 -.170655805532987D+02
 0.344862668880545D+02 -.373037345144907D+01 0.267467829863044D+02 0.214475294071459D+02
 0.563463293538718D+03 0.397754966245022D+03 -.101413574159356D+03 0.375075866492562D+03
 0.000000000000000D+00 0.000000000000000D+00 -.000000000000000D+00 -.000000000000000D+00
 0.646950272505289D+03 0.000000000000000D+00 0.000000000000000D+00 0.646950272505289D+03
 0.110107368932221D+04 0.000000000000000D+00 0.000000000000000D+00 -.110107368932221D+04
 0.652986726427501D+03 -.502516731684787D+03 0.146850653031824D+03 -.379457815346409D+03
 0.615363444817665D+02 0.412552229317900D+02 -.423496662726616D+02 -.170655805532987D+02
 0.362020655513224D+02 -.716546723520287D+01 0.282709941780103D+02 0.214475294071459D+02
 0.523504319134606D+03 0.344933863234309D+03 -.779759269114257D+02 0.375075866492562D+03
 0.473794506232308D+03 0.123493112753891D+03 -.547960540257469D+02 -.454123416816925D+03
0.965452690321D-04 0.000000000000D+00 0.000000000000D+00 0.174026830841D-05 0.000000000000D+00  7 1 -1 23 -13 13 23 21 0 0.35854029D+00 0.26494799D-01 0.23988908D+06 0.23988908D+06 0.23988908D+06 0.10918105D+01  1  2  2  2  7  2       -1 0.265392441800D-03 0.100000000000D+01
-.493178483892D-05 0.000000000000D+00 -.370759254036D-06 0.174026830841D-05 0.000000000000D+00  7 1 -1 23 -13 13 23 21 2 0.35854029D+00 0.26494799D-01 0.23988908D+06 0.23988908D+06 0.23988908D+06 0.10918105D+01  1  2  3  2  7  2       -1 -.161605528706D-04 0.100000000000D+01
0.602401051948D-05 0.000000000000D+00 0.000000000000D+00 0.174026830841D-05 0.000000000000D+00  7 1 -1 23 -13 13 23 21 2 0.35854029D+00 0.26494799D-01 0.23988908D+06 0.23988908D+06 0.23988908D+06 0.10918105D+01  1  2 15  2  7  2       -1 0.197395757667D-04 0.100000000000D+01
0.456813729463D-03 0.000000000000D+00 0.000000000000D+00 0.174026830841D-05 0.000000000000D+00  7 1 -1 23 -13 13 23 21 2 0.35854029D+00 0.46143517D-01 0.31360756D+06 0.31360756D+06 0.31360756D+06 0.10831294D+01  1  2 12  2  7  2       -1 0.557549464023D-03 0.100000000000D+01
-.425816775221D-03 0.000000000000D+00 0.000000000000D+00 0.174026830841D-05 0.000000000000D+00  7 1 -1 23 -13 13 23 21 2 0.35854029D+00 0.26494799D-01 0.23988908D+06 0.23988908D+06 0.23988908D+06 0.10918105D+01  1  2  4  2  7  2       -1 -.139532334315D-02 0.100000000000D+01
-.473693575768D-03 0.000000000000D+00 -.335261015821D-04 0.174026830841D-05 0.000000000000D+00  7 1 -1 23 -13 13 23 21 2 0.35854029D+00 0.46567759D-01 0.23988908D+06 0.23988908D+06 0.23988908D+06 0.10918105D+01  1  2  5  2  7  2       -1 -.587892246735D-03 0.100000000000D+01
0.427502091687D-03 0.000000000000D+00 0.288201903092D-04 0.174026830841D-05 0.000000000000D+00  7 1 -1 23 -13 13 23 21 2 0.35854029D+00 0.26494799D-01 0.23988908D+06 0.23988908D+06 0.23988908D+06 0.10918105D+01  1  2  6  2  7  2       -1 0.140084581558D-02 0.100000000000D+01
0.280330969721D-04 0.000000000000D+00 0.000000000000D+00 0.174026830841D-05 0.000000000000D+00  7 1 21 23 -13 13 23 1 2 0.35854029D+00 0.46143517D-01 0.31360756D+06 0.31360756D+06 0.31360756D+06 0.10831294D+01  1  2 12  4  7  2       -1 0.315860649539D-03 0.100000000000D+01
-.277570758555D-04 0.000000000000D+00 -.208593352046D-05 0.174026830841D-05 0.000000000000D+00  7 1 21 23 -13 13 23 1 2 0.35854029D+00 0.46567759D-01 0.23988908D+06 0.23988908D+06 0.23988908D+06 0.10918105D+01  1  2  5  4  7  2       -1 -.319381292817D-03 0.100000000000D+01
  </mgrwgt>
  </event>
  <event>
  8     66 0.25924217E-05 0.17664636E+03 0.75467711E-02 0.88027393E-01
        1 -1    0    0  501    0 0.00000000E+00 0.00000000E+00 0.94921800E+03 0.94921805E+03 0.32000000E+00 0.0000E+00 0.9000E+01
       -1 -1    0    0    0  501 0.00000000E+00 0.00000000E+00 -.45096780E+02 0.45097915E+02 0.32000000E+00 0.0000E+00 0.9000E+01
       25  2    1    2    0    0 -.14302723E+02 0.58142391E+02 0.67266514E+03 0.73844046E+03 0.29871529E+03 0.0000E+00 0.0000E+00
       23  2    3    3    0    0 0.68072628E+02 -.85313163E+01 0.11097448E+03 0.15961171E+03 0.91945072E+02 0.0000E+00 0.0000E+00
       23  1    1    2    0    0 0.14302723E+02 -.58142391E+02 0.23145608E+03 0.25587551E+03 0.91188000E+02 0.0000E+00 0.9000E+01
      -13  1    4    4    0    0 0.10634066E+02 -.38266486E+02 0.76793849E+02 0.86456427E+02 0.10565837E+00 0.0000E+00 0.9000E+01
       13  1    4    4    0    0 0.57438561E+02 0.29735170E+02 0.34180634E+02 0.73155284E+02 0.10565837E+00 0.0000E+00 0.9000E+01
       23  1    3    3    0    0 -.82375350E+02 0.66673707E+02 0.56169065E+03 0.57882875E+03 0.91188000E+02 0.0000E+00 0.9000E+01
#aMCatNLO 1  0  0  2  1 0.90023510D+03 0.00000000D+00  -5  7  0 0.00000000D+00 0.00000000D+00 0.00000000D+00 0.00000000D+00 0.00000000D+00
  <mgrwgt>
 0.1469266009D-02    3    2    0
 0.206899170178143D+03 0.000000000000000D+00 0.000000000000000D+00 0.206899170178143D+03
 0.206899170178143D+03 0.000000000000000D+00 0.000000000000000D+00 -.206899170178143D+03
 0.109127494308392D+03 0.143027535789526D+02 -.581425152996954D+02 -.290479340274164D+01
 0.399566793073603D+02 0.106339824035425D+02 -.382665429491892D+02 -.437336600689214D+01
 0.101102519105109D+03 0.574385947786616D+02 0.297353011941891D+02 -.777067504284054D+02
 0.163611647635424D+03 -.823753307611568D+02 0.666737570546955D+02 0.849849098380392D+02
 0.000000000000000D+00 0.000000000000000D+00 -.000000000000000D+00 0.000000000000000D+00
 0.100260486462229D+04 0.000000000000000D+00 0.000000000000000D+00 0.100260486462229D+04
 0.894840985596280D+03 0.000000000000000D+00 0.000000000000000D+00 -.894840985596280D+03
 0.138698423697933D+03 -.735501051195821D+02 0.741885813618048D+02 -.290479340274164D+01
 0.135177394488336D+02 -.832239065367047D+01 -.971291734670953D+01 -.437336600689214D+01
 0.226856024523713D+03 -.588208175708764D+02 0.204854651450375D+03 -.777067504284054D+02
 0.611711493175392D+03 -.357222912819214D+03 0.480671462847176D+03 0.849849098380392D+02
 0.906662169372699D+03 0.497916226163343D+03 -.750001778312646D+03 0.107763879026010D+03
0.723678406776D-05 0.000000000000D+00 0.000000000000D+00 0.152265846291D-07 0.000000000000D+00  7 1 -1 23 -13 13 23 21 0 0.14603363D+00 0.69380576D-02 0.31203936D+05 0.31203936D+05 0.31203936D+05 0.11657538D+01  1  2  2  2  7  2       -1 0.145063961901D-02 0.100000000000D+01
-.389827856637D-06 0.000000000000D+00 -.277911563092D-07 0.152265846291D-07 0.000000000000D+00  7 1 -1 23 -13 13 23 21 2 0.14603363D+00 0.69380576D-02 0.31203936D+05 0.31203936D+05 0.31203936D+05 0.11657538D+01  1  2  3  2  7  2       -1 -.106194114095D-03 0.100000000000D+01
0.458203450696D-06 0.000000000000D+00 0.000000000000D+00 0.152265846291D-07 0.000000000000D+00  7 1 -1 23 -13 13 23 21 2 0.14603363D+00 0.69380576D-02 0.31203936D+05 0.31203936D+05 0.31203936D+05 0.11657538D+01  1  2 15  2  7  2       -1 0.124820503957D-03 0.100000000000D+01
  </mgrwgt>
  </event>
  <event>
  8     66 0.25924217E-05 0.11444771E+04 0.75467711E-02 0.74816977E-01
        1 -1    0    0  501    0 0.00000000E+00 0.00000000E+00 0.22543626E+04 0.22543627E+04 0.32000000E+00 0.0000E+00 0.9000E+01
       -1 -1    0    0    0  501 0.00000000E+00 0.00000000E+00 -.82974603E+03 0.82974609E+03 0.32000000E+00 0.0000E+00 0.9000E+01
       25  2    1    2    0    0 0.41806528E+03 0.10516410E+04 -.10907207E+03 0.11759045E+04 0.30021206E+03 0.0000E+00 0.0000E+00
       23  2    3    3    0    0 0.22637251E+03 0.71625675E+03 0.24331585E+02 0.75716770E+03 0.91883901E+02 0.0000E+00 0.0000E+00
       23  1    1    2    0    0 -.41806528E+03 -.10516410E+04 0.15336887E+04 0.19082043E+04 0.91188000E+02 0.0000E+00 0.9000E+01
      -11  1    4    4    0    0 0.16405601E+03 0.62499302E+03 0.16412293E+02 0.64637451E+03 0.51099893E-03 0.0000E+00 0.9000E+01
       11  1    4    4    0    0 0.62316496E+02 0.91263732E+02 0.79192912E+01 0.11079318E+03 0.51099893E-03 0.0000E+00 0.9000E+01
       23  1    3    3    0    0 0.19169277E+03 0.33538424E+03 -.13340366E+03 0.41873678E+03 0.91188000E+02 0.0000E+00 0.9000E+01
#aMCatNLO 1  0  0  1  1 0.43665929D+04 0.00000000D+00  -5  7  0 0.00000000D+00 0.00000000D+00 0.00000000D+00 0.00000000D+00 0.00000000D+00
  <mgrwgt>
 0.4027385369D-03    3    2    0
 0.136768000335409D+04 0.000000000000000D+00 0.000000000000000D+00 0.136768000335409D+04
 0.136768000335409D+04 0.000000000000000D+00 0.000000000000000D+00 -.136768000335409D+04
 0.135272547593958D+04 -.418065281781304D+03 -.105164098737963D+04 0.735407108848081D+03
 0.720237216248523D+03 0.164056011758603D+03 0.624993019308036D+03 -.318136760672997D+03
 0.120794438195372D+03 0.623164963650452D+02 0.912637315301421D+02 -.487737827825047D+02
 0.541602876324696D+03 0.191692773657656D+03 0.335384236541449D+03 -.368496565392580D+03
 0.000000000000000D+00 -.000000000000000D+00 -.000000000000000D+00 -.000000000000000D+00
 0.375147621818741D+04 0.000000000000000D+00 0.000000000000000D+00 0.375147621818741D+04
 0.663253741638253D+04 0.000000000000000D+00 0.000000000000000D+00 -.663253741638253D+04
 0.119119163111358D+04 0.836618042253320D+03 -.412151533204661D+03 0.735407108848081D+03
 0.204310452808043D+04 0.152696158584570D+04 0.131964140186750D+04 -.318136760672997D+03
 0.382329052645501D+03 0.310461631337377D+03 0.217738829971198D+03 -.487737827825047D+02
 0.153597876516400D+04 0.121637515527658D+04 0.857646359877128D+03 -.368496565392580D+03
 0.523140965756643D+04 -.389041641471298D+04 -.198287505851116D+04 -.288106119819512D+04
0.318488048394D-02 0.000000000000D+00 0.000000000000D+00 0.135845007378D-04 0.000000000000D+00  7 1 -1 23 -11 11 23 21 0 0.34682503D+00 0.12765324D+00 0.13098277D+07 0.13098277D+07 0.13098277D+07 0.10401494D+01  1  2  2  1  7  1        1 0.400491446990D-03 0.100000000000D+01
-.170108729739D-03 0.000000000000D+00 -.122307796566D-04 0.135845007378D-04 0.000000000000D+00  7 1 -1 23 -11 11 23 21 2 0.34682503D+00 0.12765324D+00 0.13098277D+07 0.13098277D+07 0.13098277D+07 0.10401494D+01  1  2  3  1  7  1        1 -.231429196665D-04 0.100000000000D+01
0.186625643268D-03 0.000000000000D+00 0.000000000000D+00 0.135845007378D-04 0.000000000000D+00  7 1 -1 23 -11 11 23 21 2 0.34682503D+00 0.12765324D+00 0.13098277D+07 0.13098277D+07 0.13098277D+07 0.10401494D+01  1  2 15  1  7  1        1 0.253900095339D-04 0.100000000000D+01
  </mgrwgt>
  </event>
  <event>
  8     66 0.25924217E-05 0.14045730E+03 0.75467711E-02 0.10129141E+00
        3 -1    0    0  501    0 0.00000000E+00 0.00000000E+00 0.11919179E+03 0.11919284E+03 0.50000000E+00 0.0000E+00 0.9000E+01
       -3 -1    0    0    0  501 0.00000000E+00 0.00000000E+00 -.10754776E+04 0.10754778E+04 0.50000000E+00 0.0000E+00 0.9000E+01
       25  2    1    2    0    0 0.10675867E+03 -.22427182E+02 -.11291475E+03 0.33939844E+03 0.30090060E+03 0.0000E+00 0.0000E+00
       23  2    3    3    0    0 0.47286694E+02 0.10091498E+03 -.96125148E+02 0.17402811E+03 0.92875574E+02 0.0000E+00 0.0000E+00
       23  1    1    2    0    0 -.10675867E+03 0.22427182E+02 -.84337111E+03 0.85527216E+03 0.91188000E+02 0.0000E+00 0.9000E+01
      -13  1    4    4    0    0 -.52108419E+01 -.86547874E+01 -.38042876E+02 0.39361526E+02 0.10565837E+00 0.0000E+00 0.9000E+01
       13  1    4    4    0    0 0.52497536E+02 0.10956977E+03 -.58082272E+02 0.13466658E+03 0.10565837E+00 0.0000E+00 0.9000E+01
       23  1    3    3    0    0 0.59471979E+02 -.12334217E+03 -.16789598E+02 0.16537034E+03 0.91188000E+02 0.0000E+00 0.9000E+01
#aMCatNLO 1  0  0  2  1 0.12911663D+03 0.00000000D+00  -5  7  0 0.00000000D+00 0.00000000D+00 0.00000000D+00 0.00000000D+00 0.00000000D+00
  <mgrwgt>
 0.8757182932D-04    9    2    0
 0.358034643088474D+03 0.000000000000000D+00 0.000000000000000D+00 0.358034643088474D+03
 0.358034643088474D+03 0.000000000000000D+00 0.000000000000000D+00 -.358034643088474D+03
 0.300619864608769D+03 -.106758673807023D+03 0.224271825414119D+02 -.264871022770733D+03
 0.148645838664365D+02 -.521091638354120D+01 -.865494006010175D+01 -.109038624588772D+02
 0.147107373444658D+03 0.524976107349824D+02 0.109569924802525D+03 0.829398081000521D+02
 0.253477464257084D+03 0.594719794555817D+02 -.123342167283835D+03 0.192835077129558D+03
 0.000000000000000D+00 -.000000000000000D+00 0.000000000000000D+00 -.000000000000000D+00
 0.419384906583273D+03 0.000000000000000D+00 0.000000000000000D+00 0.419384906583273D+03
 0.438800190841437D+03 0.000000000000000D+00 0.000000000000000D+00 -.438800190841437D+03
 0.290779581640711D+03 -.753391334416306D+02 -.201213822536330D+02 -.264871022770733D+03
 0.158015564890640D+02 -.358170276005739D+01 -.108612327243995D+02 -.109038624588772D+02
 0.139209521495286D+03 0.677088952481987D+02 0.889706952402957D+02 0.829398081000521D+02
 0.281826223103761D+03 0.879112955885941D+02 -.161854891249240D+03 0.192835077129558D+03
 0.130568214695887D+03 -.766993546351048D+02 0.103866810986977D+03 -.194152842581641D+02
0.342907005887D-04 0.000000000000D+00 0.000000000000D+00 0.134115659661D-06 0.000000000000D+00  7 3 -3 23 -13 13 23 21 0 0.18337289D-01 0.16545819D+00 0.48026132D+05 0.48026132D+05 0.48026132D+05 0.11488372D+01  1  2  2  2  7  2       -3 0.687030730898D-04 0.100000000000D+01
-.134690927612D-05 0.000000000000D+00 -.131685319210D-06 0.134115659661D-06 0.000000000000D+00  7 3 -3 23 -13 13 23 21 2 0.18337289D-01 0.16545819D+00 0.48026132D+05 0.48026132D+05 0.48026132D+05 0.11488372D+01  1  2  3  2  7  2       -3 -.356168186876D-05 0.100000000000D+01
0.203758389721D-05 0.000000000000D+00 0.000000000000D+00 0.134115659661D-06 0.000000000000D+00  7 3 -3 23 -13 13 23 21 2 0.18337289D-01 0.16545819D+00 0.48026132D+05 0.48026132D+05 0.48026132D+05 0.11488372D+01  1  2 15  2  7  2       -3 0.538805823927D-05 0.100000000000D+01
0.820059286313D-05 0.000000000000D+00 0.000000000000D+00 0.134115659661D-06 0.000000000000D+00  7 3 -3 23 -13 13 23 21 2 0.18337289D-01 0.21422550D+00 0.83482547D+05 0.83482547D+05 0.83482547D+05 0.11282134D+01  1  2 12  2  7  2       -3 0.696178241519D-05 0.100000000000D+01
-.174159710306D-04 0.000000000000D+00 0.000000000000D+00 0.134115659661D-06 0.000000000000D+00  7 3 -3 23 -13 13 23 21 2 0.18337289D-01 0.16545819D+00 0.48026132D+05 0.48026132D+05 0.48026132D+05 0.11488372D+01  1  2  4  2  7  2       -3 -.460536944441D-04 0.100000000000D+01
-.271273820041D-04 0.000000000000D+00 -.150918842282D-04 0.134115659661D-06 0.000000000000D+00  7 3 -3 23 -13 13 23 21 2 0.18337289D-01 0.22429552D+00 0.48026132D+05 0.48026132D+05 0.48026132D+05 0.11488372D+01  1  2  5  2  7  2       -3 -.189454001763D-04 0.100000000000D+01
0.309481100566D-04 0.000000000000D+00 0.144193524551D-04 0.134115659661D-06 0.000000000000D+00  7 3 -3 23 -13 13 23 21 2 0.18337289D-01 0.16545819D+00 0.48026132D+05 0.48026132D+05 0.48026132D+05 0.11488372D+01  1  2  6  2  7  2       -3 0.818372286946D-04 0.100000000000D+01
0.284294903075D-06 0.000000000000D+00 0.000000000000D+00 0.134115659661D-06 0.000000000000D+00  7 3 21 23 -13 13 23 3 2 0.18337289D-01 0.21422550D+00 0.83482547D+05 0.83482547D+05 0.83482547D+05 0.11282134D+01  1  2 12  4  7  2       -3 0.523810430724D-05 0.100000000000D+01
-.713491137313D-06 0.000000000000D+00 -.589332184843D-06 0.134115659661D-06 0.000000000000D+00  7 3 21 23 -13 13 23 3 2 0.18337289D-01 0.22429552D+00 0.48026132D+05 0.48026132D+05 0.48026132D+05 0.11488372D+01  1  2  5  4  7  2       -3 -.119956409346D-04 0.100000000000D+01
  </mgrwgt>
  </event>
  <event>
  8     66 0.25924217E-05 0.18387571E+03 0.75467711E-02 0.90139545E-01
        1 -1    0    0  501    0 0.00000000E+00 0.00000000E+00 0.17372108E+03 0.17372137E+03 0.32000000E+00 0.0000E+00 0.9000E+01
       -1 -1    0    0    0  501 0.00000000E+00 0.00000000E+00 -.26920293E+03 0.26920312E+03 0.32000000E+00 0.0000E+00 0.9000E+01
       25  2    1    2    0    0 0.56960581E+02 0.90456187E+01 -.12571784E+03 0.33087184E+03 0.30057423E+03 0.0000E+00 0.0000E+00
       23  2    3    3    0    0 -.36354299E+02 0.59487697E+02 -.14564310E+03 0.18957663E+03 0.99332594E+02 0.0000E+00 0.0000E+00
       23  1    1    2    0    0 -.56960581E+02 -.90456187E+01 0.30235987E+02 0.11205265E+03 0.91188000E+02 0.0000E+00 0.9000E+01
      -11  1    4    4    0    0 -.60688714E+02 0.70703038E+02 -.10024955E+03 0.13686494E+03 0.51099893E-03 0.0000E+00 0.9000E+01
       11  1    4    4    0    0 0.24334415E+02 -.11215341E+02 -.45393550E+02 0.52711688E+02 0.51099893E-03 0.0000E+00 0.9000E+01
       23  1    3    3    0    0 0.93314880E+02 -.50442078E+02 0.19925257E+02 0.14129521E+03 0.91188000E+02 0.0000E+00 0.9000E+01
#aMCatNLO 1  0  0  2  2 0.72009963D+03 0.00000000D+00  -5  7  0 0.00000000D+00 0.00000000D+00 0.00000000D+00 0.00000000D+00 0.00000000D+00
  <mgrwgt>
 0.3288719166D-03    5    2    0
 0.216255245150267D+03 0.000000000000000D+00 0.000000000000000D+00 0.216255245150267D+03
 0.216255245150267D+03 0.000000000000000D+00 0.000000000000000D+00 -.216255245150267D+03
 0.121425617958754D+03 -.569605811208593D+02 -.904561870697090D+01 0.557009724623136D+02
 0.118029095218794D+03 -.606887135354873D+02 0.707030378288159D+02 -.724487943954328D+02
 0.439597127644922D+02 0.243344144173068D+02 -.112153404248089D+02 -.348498028754694D+02
 0.149096064358494D+03 0.933148802390398D+02 -.504420786970361D+02 0.515976248085887D+02
 0.000000000000000D+00 -.000000000000000D+00 0.000000000000000D+00 -.000000000000000D+00
 0.744003057721360D+03 0.000000000000000D+00 0.000000000000000D+00 0.744003057721360D+03
 0.820112777279846D+03 0.000000000000000D+00 0.000000000000000D+00 -.820112777279846D+03
 0.143468067839214D+03 0.918677877177073D+02 -.269359683717543D+02 0.557009724623136D+02
 0.114862121797275D+03 0.701593277868931D+02 0.549740660576572D+02 -.724487943954328D+02
 0.127830939670718D+03 0.120853599110691D+03 -.228177115117183D+02 -.348498028754694D+02
 0.453844106017397D+03 0.432071924575427D+03 -.911633606803137D+02 0.515976248085887D+02
 0.724110599676601D+03 -.714952639190719D+03 0.859429745061291D+02 -.761097195584865D+02
0.262011319868D-05 0.000000000000D+00 0.000000000000D+00 0.232992468434D-08 0.000000000000D+00  7 1 -1 23 -11 11 23 21 0 0.26726357D-01 0.41415873D-01 0.33810276D+05 0.33810276D+05 0.33810276D+05 0.11625484D+01  1  2  2  2  7  2       -1 0.321119240762D-03 0.100000000000D+01
-.140905689493D-06 0.000000000000D+00 -.100619245746D-07 0.232992468434D-08 0.000000000000D+00  7 1 -1 23 -11 11 23 21 2 0.26726357D-01 0.41415873D-01 0.33810276D+05 0.33810276D+05 0.33810276D+05 0.11625484D+01  1  2  3  2  7  2       -1 -.233397889462D-04 0.100000000000D+01
0.168326581814D-06 0.000000000000D+00 0.000000000000D+00 0.232992468434D-08 0.000000000000D+00  7 1 -1 23 -11 11 23 21 2 0.26726357D-01 0.41415873D-01 0.33810276D+05 0.33810276D+05 0.33810276D+05 0.11625484D+01  1  2 15  2  7  2       -1 0.278818187377D-04 0.100000000000D+01
0.447597553919D-05 0.000000000000D+00 -.167488771275D-05 0.232992468434D-08 0.000000000000D+00  7 1 -1 23 -11 11 23 21 2 0.26726357D-01 0.36591837D+00 0.33810276D+05 0.33810276D+05 0.33810276D+05 0.11625484D+01  1  2  5  2  7  2       -1 0.780299388944D-06 0.100000000000D+01
0.943744453820D-06 0.000000000000D+00 -.439549253145D-06 0.232992468434D-08 0.000000000000D+00  7 1 21 23 -11 11 23 1 2 0.26726357D-01 0.36591837D+00 0.33810276D+05 0.33810276D+05 0.33810276D+05 0.11625484D+01  1  2  5  4  7  2       -1 0.243034662102D-05 0.100000000000D+01
  </mgrwgt>
  </event>
  <event>
  8     66 0.25924217E-05 0.38333657E+03 0.75467711E-02 0.91491054E-01
        1 -1    0    0  501    0 0.00000000E+00 0.00000000E+00 0.21144964E+03 0.21144988E+03 0.32000000E+00 0.0000E+00 0.9000E+01
       -1 -1    0    0    0  501 0.00000000E+00 0.00000000E+00 -.22520951E+04 0.22520951E+04 0.32000000E+00 0.0000E+00 0.9000E+01
       25  2    1    2    0    0 0.20241702E+03 0.27482137E+03 -.67598952E+02 0.45911810E+03 0.29953361E+03 0.0000E+00 0.0000E+00
       23  2    3    3    0    0 -.44607405E+01 0.15910710E+03 -.55359869E+02 0.20484808E+03 0.11646052E+03 0.0000E+00 0.0000E+00
       23  1    1    2    0    0 -.20241702E+03 -.27482137E+03 -.19730465E+04 0.20044269E+04 0.91188000E+02 0.0000E+00 0.9000E+01
      -13  1    4    4    0    0 0.11754617E+01 0.10503225E+03 -.91715298E+02 0.13944484E+03 0.10565837E+00 0.0000E+00 0.9000E+01
       13  1    4    4    0    0 -.56362022E+01 0.54074845E+02 0.36355429E+02 0.65403241E+02 0.10565837E+00 0.0000E+00 0.9000E+01
       23  1    3    3    0    0 0.20687776E+03 0.11571427E+03 -.12239083E+02 0.25427002E+03 0.91188000E+02 0.0000E+00 0.9000E+01
#aMCatNLO 1  0  0  2  2 0.46536614D+03 0.00000000D+00  -5  7  0 0.00000000D+00 0.00000000D+00 0.00000000D+00 0.00000000D+00 0.00000000D+00
  <mgrwgt>
 0.2121771324D-03    7    2    0
 0.690076102685873D+03 0.000000000000000D+00 0.000000000000000D+00 0.690076102685873D+03
 0.690076102685873D+03 0.000000000000000D+00 0.000000000000000D+00 -.690076102685873D+03
 0.660584742767667D+03 -.202417017567488D+03 -.274821366619952D+03 -.558173376722367D+03
 0.113299205394597D+03 0.117545659078429D+01 0.105032283263094D+03 0.424681965403679D+02
 0.170497422601184D+03 -.563622008938439D+01 0.540748055087473D+02 0.161596780741269D+03
 0.435770834608299D+03 0.206877781066088D+03 0.115714277848110D+03 0.354108399440730D+03
 0.000000000000000D+00 0.000000000000000D+00 0.000000000000000D+00 -.000000000000000D+00
 0.910258220376810D+03 0.000000000000000D+00 0.000000000000000D+00 0.910258220376810D+03
 0.102571390967289D+04 0.000000000000000D+00 0.000000000000000D+00 -.102571390967289D+04
 0.811875456263580D+03 -.360162289956021D+03 -.457768622287703D+03 -.558173376722367D+03
 0.924861793350178D+02 -.208704171035330D+02 0.794642771345862D+02 0.424681965403679D+02
 0.167361007676734D+03 -.418311339811259D+02 0.120972548325218D+02 0.161596780741269D+03
 0.384775127171927D+03 0.118972351545146D+03 0.137647433508714D+02 0.354108399440730D+03
 0.479474359602445D+03 0.303891489495534D+03 0.352442346969724D+03 -.115455689296084D+03
0.153152749579D-02 0.000000000000D+00 0.000000000000D+00 0.736101060332D-08 0.000000000000D+00  7 1 -1 23 -13 13 23 21 0 0.32530734D-01 0.34647619D+00 0.14694693D+06 0.14694693D+06 0.14694693D+06 0.11082574D+01  1  2  2  2  7  2       -1 0.207493739187D-03 0.100000000000D+01
-.493309346322D-04 0.000000000000D+00 -.588146884429D-05 0.736101060332D-08 0.000000000000D+00  7 1 -1 23 -13 13 23 21 2 0.32530734D-01 0.34647619D+00 0.14694693D+06 0.14694693D+06 0.14694693D+06 0.11082574D+01  1  2  3  2  7  2       -1 -.820882095977D-05 0.100000000000D+01
0.890104959284D-04 0.000000000000D+00 0.000000000000D+00 0.736101060332D-08 0.000000000000D+00  7 1 -1 23 -13 13 23 21 2 0.32530734D-01 0.34647619D+00 0.14694693D+06 0.14694693D+06 0.14694693D+06 0.11082574D+01  1  2 15  2  7  2       -1 0.148116233772D-04 0.100000000000D+01
-.458381171684D-03 0.000000000000D+00 0.000000000000D+00 0.736101060332D-08 0.000000000000D+00  7 1 -1 23 -13 13 23 21 2 0.32530734D-01 0.34647619D+00 0.14694693D+06 0.14694693D+06 0.14694693D+06 0.11082574D+01  1  2  4  2  7  2       -1 -.762760526988D-04 0.100000000000D+01
-.275936837985D-03 0.000000000000D+00 -.388753634249D-03 0.736101060332D-08 0.000000000000D+00  7 1 -1 23 -13 13 23 21 2 0.32530734D-01 0.55874773D+00 0.14694693D+06 0.14694693D+06 0.14694693D+06 0.11082574D+01  1  2  5  2  7  2       -1 -.593601896556D-06 0.100000000000D+01
0.449885473566D-03 0.000000000000D+00 0.348228146735D-03 0.736101060332D-08 0.000000000000D+00  7 1 -1 23 -13 13 23 21 2 0.32530734D-01 0.34647619D+00 0.14694693D+06 0.14694693D+06 0.14694693D+06 0.11082574D+01  1  2  6  2  7  2       -1 0.748623421073D-04 0.100000000000D+01
0.162616236650D-05 0.000000000000D+00 -.211549540718D-04 0.736101060332D-08 0.000000000000D+00  7 1 21 23 -13 13 23 1 2 0.32530734D-01 0.55874773D+00 0.14694693D+06 0.14694693D+06 0.14694693D+06 0.11082574D+01  1  2  5  4  7  2       -1 0.879032809141D-07 0.100000000000D+01
  </mgrwgt>
  </event>
  <event>
  8     66 0.25924217E-05 0.21663854E+03 0.75467711E-02 0.97352403E-01
        1 -1    0    0  501    0 0.00000000E+00 0.00000000E+00 0.24484153E+04 0.24484154E+04 0.32000000E+00 0.0000E+00 0.9000E+01
       -1 -1    0    0    0  501 0.00000000E+00 0.00000000E+00 -.20872933E+02 0.20875386E+02 0.32000000E+00 0.0000E+00 0.9000E+01
       25  2    1    2    0    0 0.96354984E+02 -.31887910E+02 0.16661982E+04 0.16958171E+04 0.29879476E+03 0.0000E+00 0.0000E+00
       23  2    3    3    0    0 -.67116035E+02 -.34092486E+02 0.44078792E+03 0.45619092E+03 0.90273504E+02 0.0000E+00 0.0000E+00
       23  1    1    2    0    0 -.96354984E+02 0.31887910E+02 0.76134424E+03 0.77347361E+03 0.91188000E+02 0.0000E+00 0.9000E+01
      -13  1    4    4    0    0 -.40541233E+02 -.60072920E+02 0.36058025E+03 0.36779134E+03 0.10565837E+00 0.0000E+00 0.9000E+01
       13  1    4    4    0    0 -.26574801E+02 0.25980434E+02 0.80207668E+02 0.88399571E+02 0.10565837E+00 0.0000E+00 0.9000E+01
       23  1    3    3    0    0 0.16347102E+03 0.22045759E+01 0.12254102E+04 0.12396262E+04 0.91188000E+02 0.0000E+00 0.9000E+01
#aMCatNLO 1  0  0  1  2 0.27571762D+03 0.00000000D+00  -5  7  0 0.00000000D+00 0.00000000D+00 0.00000000D+00 0.00000000D+00 0.00000000D+00
  <mgrwgt>
 0.3701762107D-03    5    2    0
 0.226072254617138D+03 0.000000000000000D+00 0.000000000000000D+00 0.226072254617138D+03
 0.226072254617138D+03 0.000000000000000D+00 0.000000000000000D+00 -.226072254617138D+03
 0.136539980857804D+03 -.963549946841337D+02 0.318879139133103D+02 0.517599983843710D+01
 0.726757332700603D+02 -.405412470727033D+02 -.600730364727778D+02 -.542215649638545D+01
 0.521441975871695D+02 -.265747774435342D+02 0.259805500608715D+02 -.365760791279074D+02
 0.190784597519241D+03 0.163471019200371D+03 0.220457249859597D+01 0.368222357858558D+02
 0.000000000000000D+00 0.000000000000000D+00 -.000000000000000D+00 0.000000000000000D+00
 0.510963606445794D+03 0.000000000000000D+00 0.000000000000000D+00 0.510963606445794D+03
 0.341991754737702D+03 0.000000000000000D+00 0.000000000000000D+00 -.341991754737702D+03
 0.219844934312400D+03 -.180480104762976D+03 0.861201753902130D+02 0.517599983843710D+01
 0.860523139952750D+02 -.780092034322445D+02 -.359188688955651D+02 -.542215649638545D+01
 0.832790773393244D+02 -.585416128102548D+02 0.465883539920917D+02 -.365760791279074D+02
 0.140403567888812D+03 0.852936337786111D+02 0.526025619193528D+02 0.368222357858558D+02
 0.323375467647685D+03 0.231737287226864D+03 -.149392222406092D+03 0.168971851708091D+03
0.591023490340D-05 0.000000000000D+00 0.000000000000D+00 0.173254321972D-07 0.000000000000D+00  7 1 -1 23 -13 13 23 21 0 0.37667947D+00 0.32114108D-02 0.46932257D+05 0.46932257D+05 0.46932257D+05 0.11497220D+01  1  2  2  1  7  1        1 0.366509094891D-03 0.100000000000D+01
-.327621061984D-06 0.000000000000D+00 -.226968582297D-07 0.173254321972D-07 0.000000000000D+00  7 1 -1 23 -13 13 23 21 2 0.37667947D+00 0.32114108D-02 0.46932257D+05 0.46932257D+05 0.46932257D+05 0.11497220D+01  1  2  3  1  7  1        1 -.268557653998D-04 0.100000000000D+01
0.372661433633D-06 0.000000000000D+00 0.000000000000D+00 0.173254321972D-07 0.000000000000D+00  7 1 -1 23 -13 13 23 21 2 0.37667947D+00 0.32114108D-02 0.46932257D+05 0.46932257D+05 0.46932257D+05 0.11497220D+01  1  2 15  1  7  1        1 0.305478163541D-04 0.100000000000D+01
-.980007669030D-06 0.000000000000D+00 -.123020777213D-05 0.173254321972D-07 0.000000000000D+00  7 1 -1 23 -13 13 23 21 2 0.87546418D+00 0.32114108D-02 0.46932257D+05 0.46932257D+05 0.46932257D+05 0.11497220D+01  1  2  5  1  7  1        1 -.249290655481D-07 0.100000000000D+01
-.122858151690D-07 0.000000000000D+00 -.113046548869D-06 0.173254321972D-07 0.000000000000D+00  7 21 -1 23 -13 13 23 -1 2 0.87546418D+00 0.32114108D-02 0.46932257D+05 0.46932257D+05 0.46932257D+05 0.11497220D+01  1  2  5  3  7  1        1 -.611002904817D-11 0.100000000000D+01
  </mgrwgt>
  </event>
  <event>
  9     66 0.25924217E-05 0.24812107E+03 0.75467711E-02 0.94971139E-01
        1 -1    0    0  501    0 0.00000000E+00 0.00000000E+00 0.16448894E+04 0.16448895E+04 0.32000000E+00 0.0000E+00 0.9000E+01
       21 -1    0    0  502  501 0.00000000E+00 0.00000000E+00 -.19312868E+03 0.19313013E+03 0.75000000E+00 0.0000E+00 0.9000E+01
       25  2    1    2    0    0 -.15039712E+01 0.38897681E+02 0.15031311E+03 0.33746290E+03 0.29961957E+03 0.0000E+00 0.0000E+00
       23  2    3    3    0    0 -.67613217E+02 0.42918778E+02 0.18391667E+03 0.21985740E+03 0.89990924E+02 0.0000E+00 0.0000E+00
       23  1    1    2    0    0 -.26125475E+03 0.23158838E+03 0.52067403E+03 0.63348553E+03 0.91188000E+02 0.0000E+00 0.9000E+01
      -13  1    4    4    0    0 -.75973879E+02 0.23893495E+00 0.10293746E+03 0.12793834E+03 0.10565837E+00 0.0000E+00 0.9000E+01
       13  1    4    4    0    0 0.83606618E+01 0.42679843E+02 0.80979220E+02 0.91919067E+02 0.10565837E+00 0.0000E+00 0.9000E+01
       23  1    3    3    0    0 0.66109246E+02 -.40210977E+01 -.33603569E+02 0.11760550E+03 0.91188000E+02 0.0000E+00 0.9000E+01
        1  1    1    2  502    0 0.26275872E+03 -.27048606E+03 0.78077362E+03 0.86707116E+03 0.32000000E+00 0.0000E+00 0.9000E+01
#aMCatNLO 2  0  0  2  2 0.37710059D+03 0.00000000D+00  -5  7  0 0.00000000D+00 0.00000000D+00 0.00000000D+00 0.00000000D+00 0.00000000D+00
  <mgrwgt>
 0.3737520138D-04    1    2    0
 0.295935917486364D+03 0.000000000000000D+00 0.000000000000000D+00 0.295935917486364D+03
 0.295935917486364D+03 0.000000000000000D+00 0.000000000000000D+00 -.295935917486364D+03
 0.227123184836872D+03 -.138220674288994D+03 0.104936058568753D+03 0.114687220550483D+03
 0.593446135924365D+02 -.479585481946736D+02 -.286004624023584D+02 0.200941376492262D+02
 0.431937769915686D+02 0.272382336623367D+02 0.232472879092217D+02 0.241525278722345D+02
 0.262210259551851D+03 0.158940988821330D+03 -.995828840756160D+02 -.158933886071943D+03
 0.000000000000000D+00 0.000000000000000D+00 -.000000000000000D+00 0.000000000000000D+00
 0.703058420595265D+03 0.000000000000000D+00 0.000000000000000D+00 0.703058420595265D+03
 0.451849528409981D+03 0.000000000000000D+00 0.000000000000000D+00 -.451849528409981D+03
 0.378623338523269D+03 -.261254748841550D+03 0.231588382222963D+03 0.114687220550483D+03
 0.785867627557957D+02 -.759739945675712D+02 0.238876571347667D+00 0.200941376492262D+02
 0.497475749116403D+02 0.836077786507701D+01 0.426799015985398D+02 0.241525278722345D+02
 0.194837966307366D+03 0.661092459620418D+02 -.402109775944639D+01 -.158933886071943D+03
 0.453112306507176D+03 0.262758719582003D+03 -.270486062633405D+03 0.251208892185284D+03
0.450868929212D-06 0.000000000000D+00 0.000000000000D+00 0.160889682548D-06 0.113104779551D-11  7 1 21 23 -13 13 23 1 2 0.25306000D+00 0.29712215D-01 0.23527562D+06 0.23527562D+06 0.23527562D+06 0.10924480D+01  1  2  1  4  7  2       -1 0.373752013757D-04 0.100000000000D+01
  </mgrwgt>
  </event>
  <event>
  8     66 0.25924217E-05 0.15021120E+03 0.75467711E-02 0.10522348E+00
        1 -1    0    0  501    0 0.00000000E+00 0.00000000E+00 0.16034307E+04 0.16034308E+04 0.32000000E+00 0.0000E+00 0.9000E+01
       -1 -1    0    0    0  501 0.00000000E+00 0.00000000E+00 -.39161686E+02 0.39162993E+02 0.32000000E+00 0.0000E+00 0.9000E+01
       25  2    1    2    0    0 0.79285559E+02 -.48611021E+02 0.13889940E+04 0.14242229E+04 0.30076131E+03 0.0000E+00 0.0000E+00
       23  2    3    3    0    0 0.31893826E+02 -.12075279E+03 0.44439303E+03 0.47131335E+03 0.95145431E+02 0.0000E+00 0.0000E+00
       23  1    1    2    0    0 -.79285559E+02 0.48611021E+02 0.17527508E+03 0.21837087E+03 0.91188000E+02 0.0000E+00 0.9000E+01
      -13  1    4    4    0    0 0.24454932E+02 -.73140851E+02 0.11532388E+03 0.13873441E+03 0.10565837E+00 0.0000E+00 0.9000E+01
       13  1    4    4    0    0 0.74388940E+01 -.47611944E+02 0.32906914E+03 0.33257893E+03 0.10565837E+00 0.0000E+00 0.9000E+01
       23  1    3    3    0    0 0.47391733E+02 0.72141773E+02 0.94460096E+03 0.95290956E+03 0.91188000E+02 0.0000E+00 0.9000E+01
#aMCatNLO 1  0  0  1  2 0.47734083D+02 0.00000000D+00  -5  7  0 0.00000000D+00 0.00000000D+00 0.00000000D+00 0.00000000D+00 0.00000000D+00
  <mgrwgt>
 0.2804633504D-03    9    2    0
 0.250587610845173D+03 0.000000000000000D+00 0.000000000000000D+00 0.250587610845173D+03
 0.250587610845173D+03 0.000000000000000D+00 0.000000000000000D+00 -.250587610845173D+03
 0.168638121113442D+03 -.792855635937849D+02 0.486110242302315D+02 -.107118309721427D+03
 0.947507223086915D+02 0.244549500334003D+02 -.731408876321418D+02 -.550460294050814D+02
 0.629308385427293D+02 0.743887408301845D+01 -.476119137390300D+02 0.404729448171890D+02
 0.174855539725483D+03 0.473917394773662D+02 0.721417771409402D+02 0.121691394309319D+03
 0.000000000000000D+00 0.000000000000000D+00 -.000000000000000D+00 0.000000000000000D+00
 0.450991683857896D+03 0.000000000000000D+00 0.000000000000000D+00 0.450991683857896D+03
 0.254580256335056D+03 0.000000000000000D+00 0.000000000000000D+00 -.254580256335056D+03
 0.175341396982570D+03 -.822922742709173D+02 0.646761429705245D+02 -.107118309721427D+03
 0.879036696617669D+02 0.228583755815185D+02 -.646102503672148D+02 -.550460294050814D+02
 0.586279229941696D+02 0.637633399855340D+01 -.419346689169468D+02 0.404729448171890D+02
 0.181570299622807D+03 0.442762360232471D+02 0.887881852263211D+02 0.121691394309319D+03
 0.202128650931638D+03 0.878132866759837D+01 -.469194089126840D+02 0.196411427522840D+03
0.328407547715D-05 0.000000000000D+00 0.000000000000D+00 0.110685514219D-07 0.000000000000D+00  7 1 -1 23 -13 13 23 21 0 0.24668176D+00 0.60249777D-02 0.36313040D+05 0.36313040D+05 0.36313040D+05 0.11597178D+01  1  2  2  1  7  1        1 0.290146716346D-03 0.100000000000D+01
-.165813597050D-06 0.000000000000D+00 -.126117145492D-07 0.110685514219D-07 0.000000000000D+00  7 1 -1 23 -13 13 23 21 2 0.24668176D+00 0.60249777D-02 0.36313040D+05 0.36313040D+05 0.36313040D+05 0.11597178D+01  1  2  3  1  7  1        1 -.197028627217D-04 0.100000000000D+01
0.206237273393D-06 0.000000000000D+00 0.000000000000D+00 0.110685514219D-07 0.000000000000D+00  7 1 -1 23 -13 13 23 21 2 0.24668176D+00 0.60249777D-02 0.36313040D+05 0.36313040D+05 0.36313040D+05 0.11597178D+01  1  2 15  1  7  1        1 0.245062211908D-04 0.100000000000D+01
0.176214880875D-04 0.000000000000D+00 0.000000000000D+00 0.110685514219D-07 0.000000000000D+00  7 1 -1 23 -13 13 23 21 2 0.44448001D+00 0.60249777D-02 0.46711746D+05 0.46711746D+05 0.46711746D+05 0.11499032D+01  1  2 12  1  7  1        1 0.285581735349D-03 0.100000000000D+01
-.157823717959D-04 0.000000000000D+00 0.000000000000D+00 0.110685514219D-07 0.000000000000D+00  7 1 -1 23 -13 13 23 21 2 0.24668176D+00 0.60249777D-02 0.36313040D+05 0.36313040D+05 0.36313040D+05 0.11597178D+01  1  2  4  1  7  1        1 -.187534623487D-02 0.100000000000D+01
-.178966903054D-04 0.000000000000D+00 -.903650075237D-06 0.110685514219D-07 0.000000000000D+00  7 1 -1 23 -13 13 23 21 2 0.44541884D+00 0.60249777D-02 0.36313040D+05 0.36313040D+05 0.36313040D+05 0.11597178D+01  1  2  5  1  7  1        1 -.294951952816D-03 0.100000000000D+01
0.157394752148D-04 0.000000000000D+00 0.765979979270D-06 0.110685514219D-07 0.000000000000D+00  7 1 -1 23 -13 13 23 21 2 0.24668176D+00 0.60249777D-02 0.36313040D+05 0.36313040D+05 0.36313040D+05 0.11597178D+01  1  2  6  1  7  1        1 0.187024903256D-02 0.100000000000D+01
0.113768840587D-05 0.000000000000D+00 0.000000000000D+00 0.110685514219D-07 0.000000000000D+00  7 21 -1 23 -13 13 23 -1 2 0.44448001D+00 0.60249777D-02 0.46711746D+05 0.46711746D+05 0.46711746D+05 0.11499032D+01  1  2 12  3  7  1        1 0.502664471494D-05 0.100000000000D+01
-.111079275584D-05 0.000000000000D+00 -.585239310605D-07 0.110685514219D-07 0.000000000000D+00  7 21 -1 23 -13 13 23 -1 2 0.44541884D+00 0.60249777D-02 0.36313040D+05 0.36313040D+05 0.36313040D+05 0.11597178D+01  1  2  5  3  7  1        1 -.504594935558D-05 0.100000000000D+01
  </mgrwgt>
  </event>
  <event>
  9     66 0.25924217E-05 0.45822721E+03 0.75467711E-02 0.92468968E-01
        1 -1    0    0  501    0 0.00000000E+00 0.00000000E+00 0.45376553E+03 0.45376565E+03 0.32000000E+00 0.0000E+00 0.9000E+01
       -1 -1    0    0    0  502 0.00000000E+00 0.00000000E+00 -.88645969E+03 0.88645975E+03 0.32000000E+00 0.0000E+00 0.9000E+01
       25  2    1    2    0    0 -.32257721E+03 -.25421552E+03 -.20139596E+03 0.54635096E+03 0.29875985E+03 0.0000E+00 0.0000E+00
       23  2    3    3    0    0 -.25583907E+02 -.95797193E+02 -.13651980E+03 0.19163198E+03 0.90848883E+02 0.0000E+00 0.0000E+00
       23  1    1    2    0    0 0.13100076E+03 0.43852794E+03 -.44136546E+02 0.46875499E+03 0.91188000E+02 0.0000E+00 0.9000E+01
      -11  1    4    4    0    0 -.40561818E+01 -.10857594E+03 -.11859714E+03 0.16084300E+03 0.51099893E-03 0.0000E+00 0.9000E+01
       11  1    4    4    0    0 -.21527725E+02 0.12778750E+02 -.17922657E+02 0.30788976E+02 0.51099893E-03 0.0000E+00 0.9000E+01
       23  1    3    3    0    0 -.29699331E+03 -.15841832E+03 -.64876161E+02 0.35471898E+03 0.91188000E+02 0.0000E+00 0.9000E+01
       21  1    1    2  501  502 0.19157645E+03 -.18431243E+03 -.18716165E+03 0.32511945E+03 0.75000000E+00 0.0000E+00 0.9000E+01
#aMCatNLO 2  0  0  2  1 0.26584320D+03 0.00000000D+00  -5  7  0 0.00000000D+00 0.00000000D+00 0.00000000D+00 0.00000000D+00 0.00000000D+00
  <mgrwgt>
 0.3277748874D-04    2    2    0
 0.474204931771693D+03 0.000000000000000D+00 0.000000000000000D+00 0.474204931771693D+03
 0.474204931771693D+03 0.000000000000000D+00 0.000000000000000D+00 -.474204931771693D+03
 0.431532348550070D+03 0.220540718970241D+03 0.352383081088436D+03 0.713643604318659D+02
 0.161731825776378D+03 0.254657589820734D+02 -.136978497231792D+03 -.821314183765731D+02
 0.214822626699606D+02 -.166975550652485D+02 0.813172625077058D+01 -.107960313285348D+02
 0.333663426546977D+03 -.229308922887066D+03 -.223536310107414D+03 0.215630892732420D+02
 0.000000000000000D+00 0.000000000000000D+00 -.000000000000000D+00 -.000000000000000D+00
 0.580766400139493D+03 0.000000000000000D+00 0.000000000000000D+00 0.580766400139493D+03
 0.692609510308889D+03 0.000000000000000D+00 0.000000000000000D+00 -.692609510308889D+03
 0.472097532873760D+03 0.131000760329818D+03 0.438527944439863D+03 0.713643604318659D+02
 0.136201166809612D+03 -.405618178391013D+01 -.108575942754774D+03 -.821314183765731D+02
 0.272634129128476D+02 -.215277248784764D+02 0.127787500471035D+02 -.107960313285348D+02
 0.349401784043299D+03 -.296993305577680D+03 -.158418322714505D+03 0.215630892732420D+02
 0.288412013808863D+03 0.191576451910249D+03 -.184312429017687D+03 -.111843110169396D+03
-.810546327543D-05 0.000000000000D+00 0.000000000000D+00 0.237629485201D-06 0.000000000000D+00  7 1 -1 23 -11 11 23 21 2 0.57000999D-01 0.14297678D+00 0.36901853D+06 0.36901853D+06 0.36901853D+06 0.10779607D+01  1  2 13  2  7  2       -1 -.312814201264D-04 0.100000000000D+01
0.192426094836D-04 0.000000000000D+00 0.000000000000D+00 0.237629485201D-06 0.228748634031D-10  7 1 -1 23 -11 11 23 21 2 0.69810040D-01 0.13637832D+00 0.36901853D+06 0.36901853D+06 0.36901853D+06 0.10779607D+01  1  2  1  2  7  2       -1 0.640589088695D-04 0.100000000000D+01
  </mgrwgt>
  </event>
  <event>
  8     66 0.25924217E-05 0.12764027E+03 0.75467711E-02 0.10751500E+00
        1 -1    0    0  501    0 0.00000000E+00 0.00000000E+00 0.40093336E+02 0.40094613E+02 0.32000000E+00 0.0000E+00 0.9000E+01
       -1 -1    0    0    0  501 0.00000000E+00 0.00000000E+00 -.10934019E+04 0.10934019E+04 0.32000000E+00 0.0000E+00 0.9000E+01
       25  2    1    2    0    0 0.25897529E+02 -.34131637E+01 -.60414605E+03 0.67442734E+03 0.29862595E+03 0.0000E+00 0.0000E+00
       23  2    3    3    0    0 -.85412931E+02 -.69749449E+02 -.29414100E+03 0.32627665E+03 0.88188269E+02 0.0000E+00 0.0000E+00
       23  1    1    2    0    0 -.25897529E+02 0.34131637E+01 -.44916249E+03 0.45906920E+03 0.91188000E+02 0.0000E+00 0.9000E+01
      -13  1    4    4    0    0 -.70646308E+02 -.68345165E+02 -.29546267E+03 0.31138426E+03 0.10565837E+00 0.0000E+00 0.9000E+01
       13  1    4    4    0    0 -.14766623E+02 -.14042843E+01 0.13216671E+01 0.14892385E+02 0.10565837E+00 0.0000E+00 0.9000E+01
       23  1    3    3    0    0 0.11131046E+03 0.66336286E+02 -.31000505E+03 0.34815069E+03 0.91188000E+02 0.0000E+00 0.9000E+01
#aMCatNLO 1  0  0  2  1 0.21898565D+01 0.00000000D+00  -5  7  0 0.00000000D+00 0.00000000D+00 0.00000000D+00 0.00000000D+00 0.00000000D+00
  <mgrwgt>
 0.2023014789D-02   11    2    0
 0.209377361289776D+03 0.000000000000000D+00 0.000000000000000D+00 0.209377361289776D+03
 0.209377361289776D+03 0.000000000000000D+00 0.000000000000000D+00 -.209377361289776D+03
 0.112826611288995D+03 -.258975613144896D+02 0.341316802833619D+01 -.610922210508890D+02
 0.996756525514926D+02 -.706463479922706D+02 -.683452384033586D+02 -.165305055733012D+02
 0.436354731942835D+02 -.147665349050013D+02 -.140419008049773D+01 0.410369616078755D+02
 0.162616985544780D+03 0.111310444211761D+03 0.663362604555202D+02 0.365857650163146D+02
 0.000000000000000D+00 0.000000000000000D+00 0.000000000000000D+00 -.000000000000000D+00
 0.210096917905056D+03 0.000000000000000D+00 0.000000000000000D+00 0.210096917905056D+03
 0.211052999991865D+03 0.000000000000000D+00 0.000000000000000D+00 -.211052999991865D+03
 0.112812392237740D+03 -.259066446858582D+02 0.282325815178467D+01 -.610922210508890D+02
 0.100040068992502D+03 -.706543877905262D+02 -.688673745358534D+02 -.165305055733012D+02
 0.436446010106212D+02 -.147700484700973D+02 -.163237482247440D+01 0.410369616078755D+02
 0.162263386171043D+03 0.111297365758921D+03 0.654868942689239D+02 0.365857650163146D+02
 0.238946948501572D+01 0.337151875609825D-01 0.218959693761922D+01 -.956082086809272D+00
0.142203783441D-04 0.000000000000D+00 0.000000000000D+00 0.356169573914D-08 0.000000000000D+00  7 1 -1 23 -13 13 23 21 0 0.61683074D-02 0.16821578D+00 0.33568121D+05 0.33568121D+05 0.33568121D+05 0.11628345D+01  1  2  2  2  7  2       -1 0.592800092144D-03 0.100000000000D+01
-.772908999370D-06 0.000000000000D+00 -.546099971528D-07 0.356169573914D-08 0.000000000000D+00  7 1 -1 23 -13 13 23 21 2 0.61683074D-02 0.16821578D+00 0.33568121D+05 0.33568121D+05 0.33568121D+05 0.11628345D+01  1  2  3  2  7  2       -1 -.435673680809D-04 0.100000000000D+01
0.901872108825D-06 0.000000000000D+00 0.000000000000D+00 0.356169573914D-08 0.000000000000D+00  7 1 -1 23 -13 13 23 21 2 0.61683074D-02 0.16821578D+00 0.33568121D+05 0.33568121D+05 0.33568121D+05 0.11628345D+01  1  2 15  2  7  2       -1 0.508367662416D-04 0.100000000000D+01
0.107111245232D-07 0.000000000000D+00 0.000000000000D+00 0.356169573914D-08 0.000000000000D+00  7 1 -1 23 -13 13 23 21 2 0.61683074D-02 0.16984939D+00 0.33973579D+05 0.33973579D+05 0.33973579D+05 0.11623568D+01  1  2 12  2  7  2       -1 0.585479289797D-06 0.100000000000D+01
-.288469894005D-03 0.000000000000D+00 0.000000000000D+00 0.356169573914D-08 0.000000000000D+00  7 1 -1 23 -13 13 23 21 2 0.61683074D-02 0.16821578D+00 0.33568121D+05 0.33568121D+05 0.33568121D+05 0.11628345D+01  1  2  4  2  7  2       -1 -.162604835273D-01 0.100000000000D+01
-.154368316358D-02 0.000000000000D+00 -.155974294831D-03 0.356169573914D-08 0.000000000000D+00  7 1 -1 23 -13 13 23 21 2 0.61683074D-02 0.16991906D+00 0.33568121D+05 0.33568121D+05 0.33568121D+05 0.11628345D+01  1  2  5  2  7  2       -1 -.843514398438D-01 0.100000000000D+01
0.154518404885D-02 0.000000000000D+00 0.155966379568D-03 0.356169573914D-08 0.000000000000D+00  7 1 -1 23 -13 13 23 21 2 0.61683074D-02 0.16821578D+00 0.33568121D+05 0.33568121D+05 0.33568121D+05 0.11628345D+01  1  2  6  2  7  2       -1 0.870990016465D-01 0.100000000000D+01
0.288469291098D-03 0.000000000000D+00 0.000000000000D+00 0.356169573914D-08 0.535201780360D-08  7 1 -1 23 -13 13 23 21 2 0.61895057D-02 0.16956200D+00 0.33973579D+05 0.33973579D+05 0.33973579D+05 0.11623568D+01  1  2 11  2  7  2       -1 0.157782507587D-01 0.100000000000D+01
0.118923494968D-08 0.000000000000D+00 0.000000000000D+00 0.356169573914D-08 0.000000000000D+00  7 1 21 23 -13 13 23 1 2 0.61683074D-02 0.16984939D+00 0.33973579D+05 0.33973579D+05 0.33973579D+05 0.11623568D+01  1  2 12  4  7  2       -1 0.432494587460D-06 0.100000000000D+01
-.286657836214D-05 0.000000000000D+00 -.290232415227D-06 0.356169573914D-08 0.000000000000D+00  7 1 21 23 -13 13 23 1 2 0.61683074D-02 0.16991906D+00 0.33568121D+05 0.33568121D+05 0.33568121D+05 0.11628345D+01  1  2  5  4  7  2       -1 -.104255437926D-02 0.100000000000D+01
0.547289008655D-06 0.000000000000D+00 0.000000000000D+00 0.356169573914D-08 0.791817475534D-11  7 1 21 23 -13 13 23 1 2 0.61895057D-02 0.16956200D+00 0.33973579D+05 0.33973579D+05 0.33973579D+05 0.11623568D+01  1  2 11  4  7  2       -1 0.199152669974D-03 0.100000000000D+01
  </mgrwgt>
  </event>
  <event>
  8     66 0.25924217E-05 0.15557254E+03 0.75467711E-02 0.98947097E-01
        1 -1    0    0  501    0 0.00000000E+00 0.00000000E+00 0.23652644E+03 0.23652665E+03 0.32000000E+00 0.0000E+00 0.9000E+01
       -1 -1    0    0    0  501 0.00000000E+00 0.00000000E+00 -.53755935E+03 0.53755945E+03 0.32000000E+00 0.0000E+00 0.9000E+01
       25  2    1    2    0    0 0.20062846E+03 0.86697891E+02 -.37368499E+03 0.52637280E+03 0.29943205E+03 0.0000E+00 0.0000E+00
       23  2    3    3    0    0 0.63472099E+02 -.69360067E+02 -.20602774E+03 0.24425552E+03 0.91508494E+02 0.0000E+00 0.0000E+00
       23  1    1    2    0    0 -.20062846E+03 -.86697891E+02 0.72652080E+02 0.24771330E+03 0.91188000E+02 0.0000E+00 0.9000E+01
      -13  1    4    4    0    0 0.84829462E+02 -.42544480E+02 -.16879999E+03 0.19364792E+03 0.10565837E+00 0.0000E+00 0.9000E+01
       13  1    4    4    0    0 -.21357362E+02 -.26815587E+02 -.37227752E+02 0.50607601E+02 0.10565837E+00 0.0000E+00 0.9000E+01
       23  1    3    3    0    0 0.13715636E+03 0.15605796E+03 -.16765725E+03 0.28211728E+03 0.91188000E+02 0.0000E+00 0.9000E+01
#aMCatNLO 1  0  0  2  1 0.93209266D+02 0.00000000D+00  -5  7  0 0.00000000D+00 0.00000000D+00 0.00000000D+00 0.00000000D+00 0.00000000D+00
  <mgrwgt>
 0.3032467980D-03    9    2    0
 0.356576948167440D+03 0.000000000000000D+00 0.000000000000000D+00 0.356576948167440D+03
 0.356576948167440D+03 0.000000000000000D+00 0.000000000000000D+00 -.356576948167440D+03
 0.299545570220194D+03 -.200628459482120D+03 -.866978908077396D+02 0.183422992751349D+03
 0.138940428697706D+03 0.848296028466304D+02 -.425445011226655D+02 -.101480769763580D+03
 0.392170154749234D+02 -.213575038569300D+02 -.268155661102157D+02 -.190461740501931D+02
 0.235450881942058D+03 0.137156360492420D+03 0.156057958040621D+03 -.628960489375761D+02
 0.000000000000000D+00 -.000000000000000D+00 0.000000000000000D+00 -.000000000000000D+00
 0.375258896022925D+03 0.000000000000000D+00 0.000000000000000D+00 0.375258896022925D+03
 0.498401911902552D+03 0.000000000000000D+00 0.000000000000000D+00 -.498401911902552D+03
 0.289564949155311D+03 -.171528560340712D+03 -.111653782528399D+03 0.183422992751349D+03
 0.152158177788487D+03 0.992088064261771D+02 -.548760162876048D+02 -.101480769763580D+03
 0.397132048574179D+02 -.174586404427864D+02 -.301592070185292D+02 -.190461740501931D+02
 0.237782999890430D+03 0.160532378707510D+03 0.136010830846086D+03 -.628960489375761D+02
 0.154441476233832D+03 -.707539843501889D+02 0.606781749884466D+02 -.123143015879627D+03
0.109931499128D-04 0.000000000000D+00 0.000000000000D+00 0.367780104933D-06 0.000000000000D+00  7 1 -1 23 -13 13 23 21 0 0.36388707D-01 0.82701463D-01 0.87881496D+05 0.87881496D+05 0.87881496D+05 0.11263552D+01  1  2  2  2  7  2       -1 0.250202825061D-03 0.100000000000D+01
-.585404908215D-06 0.000000000000D+00 -.422165902281D-07 0.367780104933D-06 0.000000000000D+00  7 1 -1 23 -13 13 23 21 2 0.36388707D-01 0.82701463D-01 0.87881496D+05 0.87881496D+05 0.87881496D+05 0.11263552D+01  1  2  3  2  7  2       -1 -.169035197356D-04 0.100000000000D+01
0.690039146506D-06 0.000000000000D+00 0.000000000000D+00 0.367780104933D-06 0.000000000000D+00  7 1 -1 23 -13 13 23 21 2 0.36388707D-01 0.82701463D-01 0.87881496D+05 0.87881496D+05 0.87881496D+05 0.11263552D+01  1  2 15  2  7  2       -1 0.199248249675D-04 0.100000000000D+01
0.169419513417D-04 0.000000000000D+00 0.000000000000D+00 0.367780104933D-06 0.000000000000D+00  7 1 -1 23 -13 13 23 21 2 0.36388707D-01 0.11710310D+00 0.12068945D+06 0.12068945D+06 0.12068945D+06 0.11150811D+01  1  2 12  2  7  2       -1 0.221180828255D-03 0.100000000000D+01
-.182353776555D-04 0.000000000000D+00 0.000000000000D+00 0.367780104933D-06 0.000000000000D+00  7 1 -1 23 -13 13 23 21 2 0.36388707D-01 0.82701463D-01 0.87881496D+05 0.87881496D+05 0.87881496D+05 0.11263552D+01  1  2  4  2  7  2       -1 -.526545066088D-03 0.100000000000D+01
-.220351336304D-04 0.000000000000D+00 -.466334347535D-05 0.367780104933D-06 0.000000000000D+00  7 1 -1 23 -13 13 23 21 2 0.36388707D-01 0.11898397D+00 0.87881496D+05 0.87881496D+05 0.87881496D+05 0.11263552D+01  1  2  5  2  7  2       -1 -.285235027720D-03 0.100000000000D+01
0.225175987181D-04 0.000000000000D+00 0.437096819526D-05 0.367780104933D-06 0.000000000000D+00  7 1 -1 23 -13 13 23 21 2 0.36388707D-01 0.82701463D-01 0.87881496D+05 0.87881496D+05 0.87881496D+05 0.11263552D+01  1  2  6  2  7  2       -1 0.650193855549D-03 0.100000000000D+01
0.728575010535D-06 0.000000000000D+00 0.000000000000D+00 0.367780104933D-06 0.000000000000D+00  7 1 21 23 -13 13 23 1 2 0.36388707D-01 0.11710310D+00 0.12068945D+06 0.12068945D+06 0.12068945D+06 0.11150811D+01  1  2 12  4  7  2       -1 0.645690823501D-04 0.100000000000D+01
-.839338729413D-06 0.000000000000D+00 -.207138492111D-06 0.367780104933D-06 0.000000000000D+00  7 1 21 23 -13 13 23 1 2 0.36388707D-01 0.11898397D+00 0.87881496D+05 0.87881496D+05 0.87881496D+05 0.11263552D+01  1  2  5  4  7  2       -1 -.741410046043D-04 0.100000000000D+01
  </mgrwgt>
  </event>
  <event>
  8     66 0.25924217E-05 0.25884535E+03 0.75467711E-02 0.87970422E-01
        3 -1    0    0  501    0 0.00000000E+00 0.00000000E+00 0.73491557E+03 0.73491574E+03 0.50000000E+00 0.0000E+00 0.9000E+01
       -3 -1    0    0    0  501 0.00000000E+00 0.00000000E+00 -.55215482E+03 0.55215505E+03 0.50000000E+00 0.0000E+00 0.9000E+01
       25  2    1    2    0    0 -.15983380E+03 -.77619589E+02 0.67240078E+03 0.75826623E+03 0.30211460E+03 0.0000E+00 0.0000E+00
       23  2    3    3    0    0 -.13111924E+03 0.64918706E+02 0.26480276E+03 0.31600716E+03 0.91287083E+02 0.0000E+00 0.0000E+00
       23  1    1    2    0    0 0.15983380E+03 0.77619589E+02 -.48964003E+03 0.52880455E+03 0.91188000E+02 0.0000E+00 0.9000E+01
      -11  1    4    4    0    0 -.72565140E+02 0.34198180E+02 0.58275278E+02 0.99152524E+02 0.51099893E-03 0.0000E+00 0.9000E+01
       11  1    4    4    0    0 -.58554102E+02 0.30720526E+02 0.20652748E+03 0.21685464E+03 0.51099893E-03 0.0000E+00 0.9000E+01
       23  1    3    3    0    0 -.28714554E+02 -.14253829E+03 0.40759802E+03 0.44225907E+03 0.91188000E+02 0.0000E+00 0.9000E+01
#aMCatNLO 1  0  0  2  1 0.90247793D+03 0.00000000D+00  -5  7  0 0.00000000D+00 0.00000000D+00 0.00000000D+00 0.00000000D+00 0.00000000D+00
  <mgrwgt>
 0.3563554546D-04    3    2    0
 0.637014465506149D+03 0.000000000000000D+00 0.000000000000000D+00 0.637014465506149D+03
 0.637014465506149D+03 0.000000000000000D+00 0.000000000000000D+00 -.637014465506149D+03
 0.604457126883692D+03 0.159833796514087D+03 0.776195891831946D+02 -.570509880513399D+03
 0.918078713074601D+02 -.725651400926082D+02 0.341981800461165D+02 0.446482940198246D+02
 0.189447936825759D+03 -.585541019219025D+02 0.307205255362513D+02 0.177533622805464D+03
 0.388315995995387D+03 -.287145544995766D+02 -.142538294765562D+03 0.348327963688111D+03
 0.000000000000000D+00 0.000000000000000D+00 0.000000000000000D+00 0.000000000000000D+00
 0.132055199078706D+04 0.000000000000000D+00 0.000000000000000D+00 0.132055199078706D+04
 0.115777493564325D+04 0.000000000000000D+00 0.000000000000000D+00 -.115777493564325D+04
 0.625499998846741D+03 -.231372480759441D+03 0.626118886241356D+02 -.570509880513399D+03
 0.162944172381416D+03 -.153592841428265D+03 0.310897445498626D+02 0.446482940198246D+02
 0.272776128245104D+03 -.205571385679028D+03 0.250805562928885D+02 0.177533622805464D+03
 0.500066393398849D+03 -.311277873236307D+03 -.153378166012336D+03 0.348327963688111D+03
 0.917040233558202D+03 0.901814581103041D+03 0.345959765454497D+02 0.162777055143817D+03
0.967581810737D-04 0.000000000000D+00 0.000000000000D+00 0.279398873093D-06 0.000000000000D+00  7 3 -3 23 -11 11 23 21 0 0.11306396D+00 0.84946926D-01 0.67000915D+05 0.67000915D+05 0.67000915D+05 0.11362798D+01  1  2  2  2  7  2       -3 0.331996409935D-04 0.100000000000D+01
-.748729038341D-07 0.000000000000D+00 -.371576892337D-06 0.279398873093D-06 0.000000000000D+00  7 3 -3 23 -11 11 23 21 2 0.11306396D+00 0.84946926D-01 0.67000915D+05 0.67000915D+05 0.67000915D+05 0.11362798D+01  1  2  3  2  7  2       -3 -.331696560285D-07 0.100000000000D+01
0.557336950959D-05 0.000000000000D+00 0.000000000000D+00 0.279398873093D-06 0.000000000000D+00  7 3 -3 23 -11 11 23 21 2 0.11306396D+00 0.84946926D-01 0.67000915D+05 0.67000915D+05 0.67000915D+05 0.11362798D+01  1  2 15  2  7  2       -3 0.246907412543D-05 0.100000000000D+01
  </mgrwgt>
  </event>
  <event>
  8     66 0.25924217E-05 0.63784232E+03 0.75467711E-02 0.90718187E-01
        1 -1    0    0  501    0 0.00000000E+00 0.00000000E+00 0.21349848E+04 0.21349849E+04 0.32000000E+00 0.0000E+00 0.9000E+01
       -1 -1    0    0    0  501 0.00000000E+00 0.00000000E+00 -.42107683E+03 0.42107696E+03 0.32000000E+00 0.0000E+00 0.9000E+01
       25  2    1    2    0    0 -.50839358E+02 0.61918628E+03 0.17947977E+04 0.19229468E+04 0.30074747E+03 0.0000E+00 0.0000E+00
       23  2    3    3    0    0 -.80376571E+02 0.26776590E+03 0.52225328E+03 0.59929523E+03 0.90814721E+02 0.0000E+00 0.0000E+00
       23  1    1    2    0    0 0.50839358E+02 -.61918628E+03 -.80889728E+02 0.63311506E+03 0.91188000E+02 0.0000E+00 0.9000E+01
      -13  1    4    4    0    0 -.53727983E+02 0.23599046E+03 0.49084708E+03 0.54727421E+03 0.10565837E+00 0.0000E+00 0.9000E+01
       13  1    4    4    0    0 -.26648589E+02 0.31775443E+02 0.31406198E+02 0.52021019E+02 0.10565837E+00 0.0000E+00 0.9000E+01
       23  1    3    3    0    0 0.29537214E+02 0.35142038E+03 0.12725445E+04 0.13236515E+04 0.91188000E+02 0.0000E+00 0.9000E+01
#aMCatNLO 1  0  0  2  1 0.15126008D+03 0.00000000D+00  -5  7  0 0.00000000D+00 0.00000000D+00 0.00000000D+00 0.00000000D+00 0.00000000D+00
  <mgrwgt>
 0.2758354839D-03    4    2    0
 0.948152333430720D+03 0.000000000000000D+00 0.000000000000000D+00 0.948152333430720D+03
 0.948152333430720D+03 0.000000000000000D+00 0.000000000000000D+00 -.948152333430720D+03
 0.926496058457014D+03 0.508393576034152D+02 -.619186275936817D+03 -.681251356257256D+03
 0.294045903908589D+03 -.537280191736886D+02 0.235990734298547D+03 0.166987026101801D+03
 0.417343066274022D+02 -.266485519941415D+02 0.317751663962207D+02 -.468463731552968D+01
 0.634028397868435D+03 0.295372135644149D+02 0.351420375242049D+03 0.518948967470985D+03
 0.000000000000000D+00 0.000000000000000D+00 -.000000000000000D+00 0.000000000000000D+00
 0.113915842499238D+04 0.000000000000000D+00 0.000000000000000D+00 0.113915842499238D+04
 0.981589792893176D+03 0.000000000000000D+00 0.000000000000000D+00 -.981589792893176D+03
 0.897763439948661D+03 -.863791854404311D+01 -.577482396896501D+03 -.681251356257256D+03
 0.309295842914230D+03 -.733990822644565D+02 0.249783558867344D+03 0.166987026101801D+03
 0.450624108380077D+02 -.294784302751069D+02 0.337594015389937D+02 -.468463731552968D+01
 0.650206091218415D+03 -.123333478399597D+02 0.380778895693272D+03 0.518948967470985D+03
 0.218420432966245D+03 0.123848778923566D+03 -.868394592031078D+02 0.157568632099207D+03
0.438425828837D-03 0.000000000000D+00 0.000000000000D+00 0.259024068879D-05 0.000000000000D+00  7 1 -1 23 -13 13 23 21 0 0.32845922D+00 0.64781063D-01 0.40684283D+06 0.40684283D+06 0.40684283D+06 0.10748970D+01  1  2  2  2  7  2       -1 0.323710233712D-03 0.100000000000D+01
-.197030036228D-04 0.000000000000D+00 -.168367062291D-05 0.259024068879D-05 0.000000000000D+00  7 1 -1 23 -13 13 23 21 2 0.32845922D+00 0.64781063D-01 0.40684283D+06 0.40684283D+06 0.40684283D+06 0.10748970D+01  1  2  3  2  7  2       -1 -.168084014103D-04 0.100000000000D+01
0.258341662153D-04 0.000000000000D+00 0.000000000000D+00 0.259024068879D-05 0.000000000000D+00  7 1 -1 23 -13 13 23 21 2 0.32845922D+00 0.64781063D-01 0.40684283D+06 0.40684283D+06 0.40684283D+06 0.10748970D+01  1  2 15  2  7  2       -1 0.220388243418D-04 0.100000000000D+01
-.622505011461D-04 0.000000000000D+00 0.000000000000D+00 0.259024068879D-05 0.000000000000D+00  7 1 -1 23 -13 13 23 21 2 0.32845922D+00 0.64781063D-01 0.40684283D+06 0.40684283D+06 0.40684283D+06 0.10748970D+01  1  2  4  2  7  2       -1 -.531051727589D-04 0.100000000000D+01
  </mgrwgt>
  </event>
  <event>
  8     66 0.25924217E-05 0.39635328E+03 0.75467711E-02 0.94216219E-01
        1 -1    0    0  501    0 0.00000000E+00 0.00000000E+00 0.63906285E+03 0.63906293E+03 0.32000000E+00 0.0000E+00 0.9000E+01
       -1 -1    0    0    0  501 0.00000000E+00 0.00000000E+00 -.26418122E+03 0.26418141E+03 0.32000000E+00 0.0000E+00 0.9000E+01
       25  2    1    2    0    0 -.64285545E+01 0.34974312E+03 0.19551401E+03 0.49969809E+03 0.29851445E+03 0.0000E+00 0.0000E+00
       23  2    3    3    0    0 0.99228672E+02 0.13481980E+03 0.23152935E+02 0.19086306E+03 0.88712700E+02 0.0000E+00 0.0000E+00
       23  1    1    2    0    0 0.64285545E+01 -.34974312E+03 0.17936762E+03 0.40354625E+03 0.91188000E+02 0.0000E+00 0.9000E+01
      -13  1    4    4    0    0 0.20664632E+02 0.70346082E+02 0.46186122E+02 0.86653144E+02 0.10565837E+00 0.0000E+00 0.9000E+01
       13  1    4    4    0    0 0.78564040E+02 0.64473715E+02 -.23033187E+02 0.10420992E+03 0.10565837E+00 0.0000E+00 0.9000E+01
       23  1    3    3    0    0 -.10565723E+03 0.21492333E+03 0.17236107E+03 0.30883503E+03 0.91188000E+02 0.0000E+00 0.9000E+01
#aMCatNLO 1  0  0  2  2 0.21178779D+03 0.00000000D+00  -5  7  0 0.00000000D+00 0.00000000D+00 0.00000000D+00 0.00000000D+00 0.00000000D+00
  <mgrwgt>
 0.6233629292D-03    3    2    0
 0.410887485851049D+03 0.000000000000000D+00 0.000000000000000D+00 0.410887485851049D+03
 0.410887485851049D+03 0.000000000000000D+00 0.000000000000000D+00 -.410887485851049D+03
 0.361728269696979D+03 0.642855454036626D+01 -.349743124010762D+03 0.130579725717584D+02
 0.741742880883900D+02 0.206645503664303D+02 0.703460899570780D+02 0.112351679704146D+02
 0.125048584636824D+03 0.785641218398519D+02 0.644737068456995D+02 -.728558055667534D+02
 0.260823829279904D+03 -.105657226746648D+03 0.214923327207985D+03 0.485626650245804D+02
 0.000000000000000D+00 -.000000000000000D+00 -.000000000000000D+00 0.000000000000000D+00
 0.814359790974160D+03 0.000000000000000D+00 0.000000000000000D+00 0.814359790974160D+03
 0.453062819337469D+03 0.000000000000000D+00 0.000000000000000D+00 -.453062819337469D+03
 0.287733102685125D+03 0.302141192132507D+02 -.270908994662951D+03 0.130579725717584D+02
 0.954931242282236D+02 0.268783690478029D+02 0.909409756538472D+02 0.112351679704146D+02
 0.150891130222509D+03 0.886700068281010D+02 0.979683350075422D+02 -.728558055667534D+02
 0.314509871868039D+03 -.845864786789817D+02 0.284759553569060D+03 0.485626650245804D+02
 0.418795381307734D+03 -.611760164101729D+02 -.202759869567498D+03 0.361296971636691D+03
0.279562971040D-04 0.000000000000D+00 0.000000000000D+00 0.243970331640D-07 0.000000000000D+00  7 1 -1 23 -13 13 23 21 0 0.98317382D-01 0.40643286D-01 0.15709592D+06 0.15709592D+06 0.15709592D+06 0.11059713D+01  1  2  2  2  7  2       -1 0.617234497822D-03 0.100000000000D+01
-.155067844651D-05 0.000000000000D+00 -.107359541942D-06 0.243970331640D-07 0.000000000000D+00  7 1 -1 23 -13 13 23 21 2 0.98317382D-01 0.40643286D-01 0.15709592D+06 0.15709592D+06 0.15709592D+06 0.11059713D+01  1  2  3  2  7  2       -1 -.418774271690D-04 0.100000000000D+01
0.177760801271D-05 0.000000000000D+00 0.000000000000D+00 0.243970331640D-07 0.000000000000D+00  7 1 -1 23 -13 13 23 21 2 0.98317382D-01 0.40643286D-01 0.15709592D+06 0.15709592D+06 0.15709592D+06 0.11059713D+01  1  2 15  2  7  2       -1 0.480058585035D-04 0.100000000000D+01
  </mgrwgt>
  </event>
  <event>
  8     66 0.25924217E-05 0.24897955E+03 0.75467711E-02 0.10212523E+00
        1 -1    0    0  501    0 0.00000000E+00 0.00000000E+00 0.23411048E+04 0.23411048E+04 0.32000000E+00 0.0000E+00 0.9000E+01
       -1 -1    0    0    0  501 0.00000000E+00 0.00000000E+00 -.69951705E+02 0.69952437E+02 0.32000000E+00 0.0000E+00 0.9000E+01
       25  2    1    2    0    0 -.50940465E+02 -.22687216E+03 0.20247576E+04 0.20602127E+04 0.30127590E+03 0.0000E+00 0.0000E+00
       23  2    3    3    0    0 0.29085672E+02 -.13709990E+03 0.48665691E+03 0.51472501E+03 0.92002891E+02 0.0000E+00 0.0000E+00
       23  1    1    2    0    0 0.50940465E+02 0.22687216E+03 0.24639551E+03 0.35084456E+03 0.91188000E+02 0.0000E+00 0.9000E+01
      -13  1    4    4    0    0 0.29138067E+02 -.12834192E+03 0.48837682E+03 0.50579898E+03 0.10565837E+00 0.0000E+00 0.9000E+01
       13  1    4    4    0    0 -.52394731E-01 -.87579744E+01 -.17199091E+01 0.89260356E+01 0.10565837E+00 0.0000E+00 0.9000E+01
       23  1    3    3    0    0 -.80026138E+02 -.89772264E+02 0.15381007E+04 0.15454877E+04 0.91188000E+02 0.0000E+00 0.9000E+01
#aMCatNLO 1  0  0  1  2 0.12316131D+01 0.00000000D+00  -5  7  0 0.00000000D+00 0.00000000D+00 0.00000000D+00 0.00000000D+00 0.00000000D+00
  <mgrwgt>
 0.7392431242D-03   10    2    0
 0.404679109144823D+03 0.000000000000000D+00 0.000000000000000D+00 0.404679109144823D+03
 0.404679109144823D+03 0.000000000000000D+00 0.000000000000000D+00 -.404679109144823D+03
 0.353742507971160D+03 0.509404654026330D+02 0.226872162423552D+03 -.250504693575891D+03
 0.136320210014510D+03 0.291381052969532D+02 -.128342081351339D+03 0.355314034694655D+02
 0.314165558654839D+02 -.524333322639148D-01 -.875781660393147D+01 -.301711431922398D+02
 0.287878944438492D+03 -.800261373673222D+02 -.897722644682814D+02 0.245144433298665D+03
 0.000000000000000D+00 0.000000000000000D+00 0.000000000000000D+00 0.000000000000000D+00
 0.407513642434629D+03 0.000000000000000D+00 0.000000000000000D+00 0.407513642434629D+03
 0.404813384693004D+03 0.000000000000000D+00 0.000000000000000D+00 -.404813384693004D+03
 0.353390162607116D+03 0.507820522705263D+02 0.226357984942273D+03 -.250504693575891D+03
 0.136493955598703D+03 0.290769889771224D+02 -.128540452755135D+03 0.355314034694655D+02
 0.314293518845647D+02 -.665121854989521D-01 -.880351375794531D+01 -.301711431922398D+02
 0.288045685281247D+03 -.801551570382373D+02 -.901910366277885D+02 0.245144433298665D+03
 0.296787175600184D+01 0.362627976087498D+00 0.117701819859589D+01 0.270025774162509D+01
0.146444380852D-04 0.000000000000D+00 0.000000000000D+00 0.134703805277D-06 0.000000000000D+00  7 1 -1 23 -13 13 23 21 0 0.36017003D+00 0.10761859D-01 0.73184815D+05 0.73184815D+05 0.73184815D+05 0.11330206D+01  1  2  2  1  7  1        1 0.175328904302D-03 0.100000000000D+01
-.653146719011D-06 0.000000000000D+00 -.562384982163D-07 0.134703805277D-06 0.000000000000D+00  7 1 -1 23 -13 13 23 21 2 0.36017003D+00 0.10761859D-01 0.73184815D+05 0.73184815D+05 0.73184815D+05 0.11330206D+01  1  2  3  1  7  1        1 -.100384622843D-04 0.100000000000D+01
0.938883381895D-06 0.000000000000D+00 0.000000000000D+00 0.134703805277D-06 0.000000000000D+00  7 1 -1 23 -13 13 23 21 2 0.36017003D+00 0.10761859D-01 0.73184815D+05 0.73184815D+05 0.73184815D+05 0.11330206D+01  1  2 15  1  7  1        1 0.144300585829D-04 0.100000000000D+01
-.209369297826D-02 0.000000000000D+00 0.000000000000D+00 0.134703805277D-06 0.000000000000D+00  7 1 -1 23 -13 13 23 21 2 0.36017003D+00 0.10761859D-01 0.73184815D+05 0.73184815D+05 0.73184815D+05 0.11330206D+01  1  2  4  1  7  1        1 -.321787699234D-01 0.100000000000D+01
-.355896571432D-02 0.000000000000D+00 -.183263652987D-03 0.134703805277D-06 0.000000000000D+00  7 1 -1 23 -13 13 23 21 2 0.36273212D+00 0.10761859D-01 0.73184815D+05 0.73184815D+05 0.73184815D+05 0.11330206D+01  1  2  5  1  7  1        1 -.533126128491D-01 0.100000000000D+01
0.356017991766D-02 0.000000000000D+00 0.183259049044D-03 0.134703805277D-06 0.000000000000D+00  7 1 -1 23 -13 13 23 21 2 0.36017003D+00 0.10761859D-01 0.73184815D+05 0.73184815D+05 0.73184815D+05 0.11330206D+01  1  2  6  1  7  1        1 0.547177698191D-01 0.100000000000D+01
0.209373113061D-02 0.000000000000D+00 0.000000000000D+00 0.134703805277D-06 0.607828152128D-06  7 1 -1 23 -13 13 23 21 2 0.36269280D+00 0.10765430D-01 0.73530382D+05 0.73530382D+05 0.73530382D+05 0.11328475D+01  1  2 11  1  7  1        1 0.313450121810D-01 0.100000000000D+01
0.132703403243D-09 0.000000000000D+00 0.000000000000D+00 0.134703805277D-06 0.000000000000D+00  7 21 -1 23 -13 13 23 -1 2 0.36275233D+00 0.10761859D-01 0.73530382D+05 0.73530382D+05 0.73530382D+05 0.11328475D+01  1  2 12  3  7  1        1 0.813360926703D-09 0.100000000000D+01
-.467679262041D-05 0.000000000000D+00 -.241000658078D-06 0.134703805277D-06 0.000000000000D+00  7 21 -1 23 -13 13 23 -1 2 0.36273212D+00 0.10761859D-01 0.73184815D+05 0.73184815D+05 0.73184815D+05 0.11330206D+01  1  2  5  3  7  1        1 -.286947694016D-04 0.100000000000D+01
0.274275565188D-05 0.000000000000D+00 0.000000000000D+00 0.134703805277D-06 0.788079640297D-09  7 21 -1 23 -13 13 23 -1 2 0.36269280D+00 0.10765430D-01 0.73530382D+05 0.73530382D+05 0.73530382D+05 0.11328475D+01  1  2 11  3  7  1        1 0.168173519826D-04 0.100000000000D+01
  </mgrwgt>
  </event>
  <event>
  9     66 -.25924217E-05 0.40042460E+03 0.75467711E-02 0.97037380E-01
        1 -1    0    0  501    0 0.00000000E+00 0.00000000E+00 0.50777301E+03 0.50777311E+03 0.32000000E+00 0.0000E+00 0.9000E+01
       -1 -1    0    0    0  502 0.00000000E+00 0.00000000E+00 -.17321327E+04 0.17321327E+04 0.32000000E+00 0.0000E+00 0.9000E+01
       25  2    1    2    0    0 0.34557875E+03 0.15772640E+03 0.36310443E+03 0.60488664E+03 0.29956756E+03 0.0000E+00 0.0000E+00
       23  2    3    3    0    0 0.99559393E+02 0.11164921E+03 0.29591028E+02 0.17804348E+03 0.91903402E+02 0.0000E+00 0.0000E+00
       23  1    1    2    0    0 -.33622279E+03 -.14992777E+03 -.15386627E+04 0.15847152E+04 0.91188000E+02 0.0000E+00 0.9000E+01
      -13  1    4    4    0    0 0.32864374E+02 0.11874351E+02 -.28140606E+02 0.44866158E+02 0.10565837E+00 0.0000E+00 0.9000E+01
       13  1    4    4    0    0 0.66695019E+02 0.99774857E+02 0.57731634E+02 0.13317733E+03 0.10565837E+00 0.0000E+00 0.9000E+01
       23  1    3    3    0    0 0.24601936E+03 0.46077195E+02 0.33351340E+03 0.42684315E+03 0.91188000E+02 0.0000E+00 0.9000E+01
       21  1    1    2  501  502 -.93559622E+01 -.77986327E+01 -.48801388E+02 0.50303983E+02 0.75000000E+00 0.0000E+00 0.9000E+01
#aMCatNLO 2  0  0  2  1 0.12180012D+02 0.00000000D+00  -5  7  0 0.00000000D+00 0.00000000D+00 0.00000000D+00 0.00000000D+00 0.00000000D+00
  <mgrwgt>
 -.4069924438D-03    5    2    0
 0.923616612932571D+03 0.000000000000000D+00 0.000000000000000D+00 0.923616612932571D+03
 0.923616612932571D+03 0.000000000000000D+00 0.000000000000000D+00 -.923616612932571D+03
 0.901576767675819D+03 -.340783129989170D+03 -.153729025808894D+03 -.815327947274844D+03
 0.350565537612013D+02 0.326862282805140D+02 0.117257794994885D+02 -.480401264938957D+01
 0.193841523521511D+03 0.657113841845019D+02 0.989550302141778D+02 0.153181109230246D+03
 0.716758380906612D+03 0.242385517524154D+03 0.430482160952276D+02 0.666950850693988D+03
 0.000000000000000D+00 -.000000000000000D+00 -.000000000000000D+00 -.000000000000000D+00
 0.925000405090996D+03 0.000000000000000D+00 0.000000000000000D+00 0.925000405090996D+03
 0.950833123201147D+03 0.000000000000000D+00 0.000000000000000D+00 -.950833123201147D+03
 0.899221338244185D+03 -.336222791973955D+03 -.149927770474621D+03 -.815327947274844D+03
 0.352723705027890D+02 0.328643291269309D+02 0.118742348969222D+02 -.480401264938957D+01
 0.194596323094703D+03 0.666950635168206D+02 0.997749730115572D+02 0.153181109230246D+03
 0.718183348965705D+03 0.246019361484142D+03 0.460771952390400D+02 0.666950850693988D+03
 0.285601474847608D+02 -.935596215393858D+01 -.779863267289871D+01 -.258327181101516D+02
-.170431091989D-02 0.000000000000D+00 0.000000000000D+00 0.422481925437D-05 0.000000000000D+00  7 1 -1 23 -13 13 23 21 2 0.78001655D-01 0.26667133D+00 0.16515666D+06 0.16515666D+06 0.16515666D+06 0.11042679D+01  1  2 13  2  7  2       -1 -.458009662001D-03 0.100000000000D+01
-.934228830861D-02 0.000000000000D+00 0.000000000000D+00 0.422481925437D-05 0.000000000000D+00  7 1 -1 23 -13 13 23 21 2 0.78001655D-01 0.25885284D+00 0.16033986D+06 0.16033986D+06 0.16033986D+06 0.11052745D+01  1  2  8  2  7  2       -1 -.293049198695D-02 0.100000000000D+01
-.361501338476D-05 0.000000000000D+00 0.000000000000D+00 0.422481925437D-05 0.000000000000D+00  7 1 -1 23 -13 13 23 21 2 0.78001655D-01 0.26663166D+00 0.16033986D+06 0.16033986D+06 0.16033986D+06 0.11052745D+01  1  2  9  2  7  2       -1 -.976230666137D-06 0.100000000000D+01
0.361342939647D-05 0.000000000000D+00 0.000000000000D+00 0.422481925437D-05 0.000000000000D+00  7 1 -1 23 -13 13 23 21 2 0.78001655D-01 0.25885284D+00 0.16033986D+06 0.16033986D+06 0.16033986D+06 0.11052745D+01  1  2 10  2  7  2       -1 0.113346168968D-05 0.100000000000D+01
0.110761467805D-01 0.000000000000D+00 0.000000000000D+00 0.422481925437D-05 0.185296973392D-06  7 1 -1 23 -13 13 23 21 2 0.78118520D-01 0.26648054D+00 0.16515666D+06 0.16515666D+06 0.16515666D+06 0.11042679D+01  1  2  1  2  7  2       -1 0.298135197414D-02 0.100000000000D+01
  </mgrwgt>
  </event>
  <event>
  8     66 0.25924217E-05 0.28385327E+03 0.75467711E-02 0.84805562E-01
        1 -1    0    0  501    0 0.00000000E+00 0.00000000E+00 0.51036614E+03 0.51036624E+03 0.32000000E+00 0.0000E+00 0.9000E+01
       -1 -1    0    0    0  501 0.00000000E+00 0.00000000E+00 -.21858953E+03 0.21858976E+03 0.32000000E+00 0.0000E+00 0.9000E+01
       25  2    1    2    0    0 0.94776901E+02 0.21763805E+03 0.28012855E+03 0.47439774E+03 0.30038680E+03 0.0000E+00 0.0000E+00
       23  2    3    3    0    0 0.66521081E+02 0.17688833E+03 0.30267350E+03 0.36817883E+03 0.90718598E+02 0.0000E+00 0.0000E+00
       23  1    1    2    0    0 -.94776901E+02 -.21763805E+03 0.11648065E+02 0.25455827E+03 0.91188000E+02 0.0000E+00 0.9000E+01
      -11  1    4    4    0    0 0.15780935E+02 -.81400649E+01 0.24511454E+02 0.30267308E+02 0.51099893E-03 0.0000E+00 0.9000E+01
       11  1    4    4    0    0 0.50740146E+02 0.18502839E+03 0.27816205E+03 0.33791152E+03 0.51099893E-03 0.0000E+00 0.9000E+01
       23  1    3    3    0    0 0.28255820E+02 0.40749722E+02 -.22544951E+02 0.10621891E+03 0.91188000E+02 0.0000E+00 0.9000E+01
#aMCatNLO 1  0  0  2  1 0.12581544D+04 0.00000000D+00  -5  7  0 0.00000000D+00 0.00000000D+00 0.00000000D+00 0.00000000D+00 0.00000000D+00
  <mgrwgt>
 0.4964343192D-03    5    2    0
 0.334007208812966D+03 0.000000000000000D+00 0.000000000000000D+00 0.334007208812966D+03
 0.334007208812966D+03 0.000000000000000D+00 0.000000000000000D+00 -.334007208812966D+03
 0.272693430207968D+03 -.947769011868304D+02 -.217638049574235D+03 -.984757529218873D+02
 0.223223728303628D+02 0.157809352670051D+02 -.814006492891288D+01 0.135273705438046D+02
 0.247242341124953D+03 0.507401461797766D+02 0.185028392128205D+03 0.155944563602113D+03
 0.125756273462648D+03 0.282558197400487D+02 0.407497223749424D+02 -.709961812240307D+02
 0.000000000000000D+00 0.000000000000000D+00 -.000000000000000D+00 -.000000000000000D+00
 0.102959715882173D+04 0.000000000000000D+00 0.000000000000000D+00 0.102959715882173D+04
 0.195926573478740D+04 0.000000000000000D+00 0.000000000000000D+00 -.195926573478740D+04
 0.567356182940452D+03 -.551251566169166D+03 -.142262407854085D+01 -.984757529218873D+02
 0.141769201189531D+02 -.405242012100265D+01 0.125427325279400D+01 0.135273705438046D+02
 0.590039230542625D+03 -.404230392394014D+03 0.400531367719509D+03 0.155944563602113D+03
 0.252926096222101D+03 -.177516440768120D+03 0.138216548628500D+03 -.709961812240307D+02
 0.156436446378500D+04 0.113705081945230D+04 -.538579565522263D+03 -.929668575965667D+03
0.114745230722D-04 0.000000000000D+00 0.000000000000D+00 0.517895842000D-06 0.000000000000D+00  7 1 -1 23 -11 11 23 21 0 0.78517894D-01 0.33629184D-01 0.80572679D+05 0.80572679D+05 0.80572679D+05 0.11295027D+01  1  2  2  2  7  2       -1 0.488081254028D-03 0.100000000000D+01
-.616954980238D-06 0.000000000000D+00 -.440651899087D-07 0.517895842000D-06 0.000000000000D+00  7 1 -1 23 -11 11 23 21 2 0.78517894D-01 0.33629184D-01 0.80572679D+05 0.80572679D+05 0.80572679D+05 0.11295027D+01  1  2  3  2  7  2       -1 -.334800035865D-04 0.100000000000D+01
0.729876584769D-06 0.000000000000D+00 0.000000000000D+00 0.517895842000D-06 0.000000000000D+00  7 1 -1 23 -11 11 23 21 2 0.78517894D-01 0.33629184D-01 0.80572679D+05 0.80572679D+05 0.80572679D+05 0.11295027D+01  1  2 15  2  7  2       -1 0.396078667949D-04 0.100000000000D+01
0.249995006049D-04 0.000000000000D+00 -.955822755840D-05 0.517895842000D-06 0.000000000000D+00  7 1 -1 23 -11 11 23 21 2 0.78517894D-01 0.39880006D+00 0.80572679D+05 0.80572679D+05 0.80572679D+05 0.11295027D+01  1  2  5  2  7  2       -1 0.485530486838D-06 0.100000000000D+01
0.541645203175D-05 0.000000000000D+00 -.275563552800D-05 0.517895842000D-06 0.000000000000D+00  7 1 21 23 -11 11 23 1 2 0.78517894D-01 0.39880006D+00 0.80572679D+05 0.80572679D+05 0.80572679D+05 0.11295027D+01  1  2  5  4  7  2       -1 0.173967146893D-05 0.100000000000D+01
  </mgrwgt>
  </event>
  <event>
  8     66 0.25924217E-05 0.18031881E+03 0.75467711E-02 0.97891152E-01
        1 -1    0    0  501    0 0.00000000E+00 0.00000000E+00 0.22761118E+03 0.22761141E+03 0.32000000E+00 0.0000E+00 0.9000E+01
       -1 -1    0    0    0  501 0.00000000E+00 0.00000000E+00 -.20565981E+03 0.20566006E+03 0.32000000E+00 0.0000E+00 0.9000E+01
       25  2    1    2    0    0 -.38852909E+02 -.70331630E+02 0.22713694E+02 0.31173169E+03 0.30034088E+03 0.0000E+00 0.0000E+00
       23  2    3    3    0    0 -.83942531E+02 0.35152850E+02 -.62515260E+02 0.14220507E+03 0.89621714E+02 0.0000E+00 0.0000E+00
       23  1    1    2    0    0 0.38852909E+02 0.70331630E+02 -.76232463E+00 0.12153978E+03 0.91188000E+02 0.0000E+00 0.9000E+01
      -13  1    4    4    0    0 -.28761672E+02 0.20930817E+02 -.75765680E+02 0.83700551E+02 0.10565837E+00 0.0000E+00 0.9000E+01
       13  1    4    4    0    0 -.55180859E+02 0.14222033E+02 0.13250420E+02 0.58504514E+02 0.10565837E+00 0.0000E+00 0.9000E+01
       23  1    3    3    0    0 0.45089622E+02 -.10548448E+03 0.85228954E+02 0.16952662E+03 0.91188000E+02 0.0000E+00 0.9000E+01
#aMCatNLO 1  0  0  1  1 0.29220850D+03 0.00000000D+00  -5  7  0 0.00000000D+00 0.00000000D+00 0.00000000D+00 0.00000000D+00 0.00000000D+00
  <mgrwgt>
 0.3749452280D-03    5    2    0
 0.216357520077739D+03 0.000000000000000D+00 0.000000000000000D+00 0.216357520077739D+03
 0.216357520077739D+03 0.000000000000000D+00 0.000000000000000D+00 -.216357520077739D+03
 0.121734768914299D+03 0.388529257234905D+02 0.703316605627546D+02 -.692894680511873D+01
 0.876517565584894D+02 -.287616334157403D+02 0.209308119922469D+02 -.801093002116013D+02
 0.579075159517904D+02 -.551808949622678D+02 0.142220133261307D+02 0.102996879477676D+02
 0.165420998730899D+03 0.450896026545176D+02 -.105484485881132D+03 0.767385590689524D+02
 0.000000000000000D+00 -.000000000000000D+00 -.000000000000000D+00 0.000000000000000D+00
 0.486711613907627D+04 0.000000000000000D+00 0.000000000000000D+00 0.486711613907627D+04
 0.265703452766393D+03 0.000000000000000D+00 0.000000000000000D+00 -.265703452766393D+03
 0.201044633168322D+03 0.919451433830752D+02 0.153628687054934D+03 -.692894680511873D+01
 0.107245263145766D+03 0.329591091509055D+01 0.712262834777437D+02 -.801093002116013D+02
 0.579447063773955D+02 -.361249968332003D+02 0.441190438375818D+02 0.102996879477676D+02
 0.155903421326121D+03 0.979424982821029D+02 -.225629346378380D+02 0.767385590689524D+02
 0.461068156782506D+04 -.157058555747068D+03 -.246411079732421D+03 0.460141268630988D+04
0.271215255769D-05 0.000000000000D+00 0.000000000000D+00 0.400476731777D-07 0.000000000000D+00  7 1 -1 23 -13 13 23 21 0 0.35017142D-01 0.31640008D-01 0.32514872D+05 0.32514872D+05 0.32514872D+05 0.11641060D+01  1  2  2  1  7  1        1 0.370144624750D-03 0.100000000000D+01
-.144593127578D-06 0.000000000000D+00 -.104153799477D-07 0.400476731777D-07 0.000000000000D+00  7 1 -1 23 -13 13 23 21 2 0.35017142D-01 0.31640008D-01 0.32514872D+05 0.32514872D+05 0.32514872D+05 0.11641060D+01  1  2  3  1  7  1        1 -.267417646745D-04 0.100000000000D+01
0.174731465533D-06 0.000000000000D+00 0.000000000000D+00 0.400476731777D-07 0.000000000000D+00  7 1 -1 23 -13 13 23 21 2 0.35017142D-01 0.31640008D-01 0.32514872D+05 0.32514872D+05 0.32514872D+05 0.11641060D+01  1  2 15  1  7  1        1 0.323156972312D-04 0.100000000000D+01
-.971533995002D-04 0.000000000000D+00 -.429333435551D-05 0.400476731777D-07 0.000000000000D+00  7 1 -1 23 -13 13 23 21 2 0.79338945D+00 0.31640008D-01 0.32514872D+05 0.32514872D+05 0.32514872D+05 0.11641060D+01  1  2  5  1  7  1        1 -.764499280106D-06 0.100000000000D+01
-.329770298194D-04 0.000000000000D+00 -.140635150963D-05 0.400476731777D-07 0.000000000000D+00  7 21 -1 23 -13 13 23 -1 2 0.79338945D+00 0.31640008D-01 0.32514872D+05 0.32514872D+05 0.32514872D+05 0.11641060D+01  1  2  5  3  7  1        1 -.883001232408D-08 0.100000000000D+01
  </mgrwgt>
  </event>
  <event>
  8     66 0.25924217E-05 0.23097698E+03 0.75467711E-02 0.96744634E-01
        1 -1    0    0  501    0 0.00000000E+00 0.00000000E+00 0.93109764E+03 0.93109770E+03 0.32000000E+00 0.0000E+00 0.9000E+01
       -1 -1    0    0    0  501 0.00000000E+00 0.00000000E+00 -.17768662E+03 0.17768691E+03 0.32000000E+00 0.0000E+00 0.9000E+01
       25  2    1    2    0    0 -.44911093E+02 -.27584103E+03 0.14779969E+03 0.43559399E+03 0.29965329E+03 0.0000E+00 0.0000E+00
       23  2    3    3    0    0 0.95350816E+02 -.10944015E+03 0.50807609E+02 0.18047564E+03 0.94451678E+02 0.0000E+00 0.0000E+00
       23  1    1    2    0    0 0.44911093E+02 0.27584103E+03 0.60561132E+03 0.67319062E+03 0.91188000E+02 0.0000E+00 0.9000E+01
      -13  1    4    4    0    0 -.88542051E+01 -.33354984E+02 -.12565234E+02 0.36726668E+02 0.10565837E+00 0.0000E+00 0.9000E+01
       13  1    4    4    0    0 0.10420502E+03 -.76085164E+02 0.63372843E+02 0.14374897E+03 0.10565837E+00 0.0000E+00 0.9000E+01
       23  1    3    3    0    0 -.14026191E+03 -.16640088E+03 0.96992084E+02 0.25511835E+03 0.91188000E+02 0.0000E+00 0.9000E+01
#aMCatNLO 1  0  0  2  1 0.13087062D+03 0.00000000D+00  -5  7  0 0.00000000D+00 0.00000000D+00 0.00000000D+00 0.00000000D+00 0.00000000D+00
  <mgrwgt>
 0.4214946703D-03    9    2    0
 0.406747817569632D+03 0.000000000000000D+00 0.000000000000000D+00 0.406747817569632D+03
 0.406747817569632D+03 0.000000000000000D+00 0.000000000000000D+00 -.406747817569632D+03
 0.356669587345614D+03 0.449110933185000D+02 0.275841031450118D+03 0.201971934334359D+03
 0.616950719029328D+02 -.885434492681156D+01 -.333549295619893D+02 -.511403084361038D+02
 0.137236048368079D+03 0.104205162202859D+03 -.760852168291801D+02 -.467552876369936D+02
 0.257894927522639D+03 -.140261910594548D+03 -.166400885058949D+03 -.104076338261262D+03
 0.000000000000000D+00 0.000000000000000D+00 0.000000000000000D+00 -.000000000000000D+00
 0.437918806095870D+03 0.000000000000000D+00 0.000000000000000D+00 0.437918806095870D+03
 0.577034902734067D+03 0.000000000000000D+00 0.000000000000000D+00 -.577034902734067D+03
 0.321234534780348D+03 0.127928802315398D+02 0.232206922696472D+03 0.201971934334359D+03
 0.676541968254552D+02 -.149827445633739D+02 -.416806497850777D+02 -.511403084361038D+02
 0.138920489129043D+03 0.911212256590401D+02 -.938603623060810D+02 -.467552876369936D+02
 0.296146037797383D+03 -.166511648872061D+03 -.202062393737985D+03 -.104076338261262D+03
 0.190998450297708D+03 0.775802875448547D+02 0.105396483132671D+03 -.139116096638197D+03
0.155100131678D-04 0.000000000000D+00 0.000000000000D+00 0.140344845707D-06 0.000000000000D+00  7 1 -1 23 -13 13 23 21 0 0.14324582D+00 0.27336430D-01 0.12022564D+06 0.12022564D+06 0.12022564D+06 0.11152159D+01  1  2  2  2  7  2       -1 0.374650553518D-03 0.100000000000D+01
-.834970959943D-06 0.000000000000D+00 -.595625344447D-07 0.140344845707D-06 0.000000000000D+00  7 1 -1 23 -13 13 23 21 2 0.14324582D+00 0.27336430D-01 0.12022564D+06 0.12022564D+06 0.12022564D+06 0.11152159D+01  1  2  3  2  7  2       -1 -.250843858168D-04 0.100000000000D+01
0.977464226090D-06 0.000000000000D+00 0.000000000000D+00 0.140344845707D-06 0.000000000000D+00  7 1 -1 23 -13 13 23 21 2 0.14324582D+00 0.27336430D-01 0.12022564D+06 0.12022564D+06 0.12022564D+06 0.11152159D+01  1  2 15  2  7  2       -1 0.293652006425D-04 0.100000000000D+01
0.162158757174D-04 0.000000000000D+00 0.000000000000D+00 0.140344845707D-06 0.000000000000D+00  7 1 -1 23 -13 13 23 21 2 0.14324582D+00 0.39487781D-01 0.17348548D+06 0.17348548D+06 0.17348548D+06 0.11026010D+01  1  2 12  2  7  2       -1 0.252992227172D-03 0.100000000000D+01
-.190055389010D-04 0.000000000000D+00 0.000000000000D+00 0.140344845707D-06 0.000000000000D+00  7 1 -1 23 -13 13 23 21 2 0.14324582D+00 0.27336430D-01 0.12022564D+06 0.12022564D+06 0.12022564D+06 0.11152159D+01  1  2  4  2  7  2       -1 -.570968684325D-03 0.100000000000D+01
-.230125373933D-04 0.000000000000D+00 -.641908303713D-05 0.140344845707D-06 0.000000000000D+00  7 1 -1 23 -13 13 23 21 2 0.14324582D+00 0.41250364D-01 0.12022564D+06 0.12022564D+06 0.12022564D+06 0.11152159D+01  1  2  5  2  7  2       -1 -.344084749584D-03 0.100000000000D+01
0.240928848841D-04 0.000000000000D+00 0.591161742401D-05 0.140344845707D-06 0.000000000000D+00  7 1 -1 23 -13 13 23 21 2 0.14324582D+00 0.27336430D-01 0.12022564D+06 0.12022564D+06 0.12022564D+06 0.11152159D+01  1  2  6  2  7  2       -1 0.723803879256D-03 0.100000000000D+01
0.726038453258D-06 0.000000000000D+00 0.000000000000D+00 0.140344845707D-06 0.000000000000D+00  7 1 21 23 -13 13 23 1 2 0.14324582D+00 0.39487781D-01 0.17348548D+06 0.17348548D+06 0.17348548D+06 0.11026010D+01  1  2 12  4  7  2       -1 0.111876699661D-03 0.100000000000D+01
-.890809176508D-06 0.000000000000D+00 -.311956084506D-06 0.140344845707D-06 0.000000000000D+00  7 1 21 23 -13 13 23 1 2 0.14324582D+00 0.41250364D-01 0.12022564D+06 0.12022564D+06 0.12022564D+06 0.11152159D+01  1  2  5  4  7  2       -1 -.131056070222D-03 0.100000000000D+01
  </mgrwgt>
  </event>
  <event>
  8     66 0.25924217E-05 0.10432566E+03 0.75467711E-02 0.10087807E+00
        1 -1    0    0  501    0 0.00000000E+00 0.00000000E+00 0.83823876E+03 0.83823882E+03 0.32000000E+00 0.0000E+00 0.9000E+01
       -1 -1    0    0    0  501 0.00000000E+00 0.00000000E+00 -.10067408E+03 0.10067459E+03 0.32000000E+00 0.0000E+00 0.9000E+01
       25  2    1    2    0    0 -.81988221E+02 -.14896840E+03 0.28626631E+03 0.44809866E+03 0.29988390E+03 0.0000E+00 0.0000E+00
       23  2    3    3    0    0 -.13442514E+02 -.18307066E+03 0.25124541E+03 0.32398906E+03 0.90272297E+02 0.0000E+00 0.0000E+00
       23  1    1    2    0    0 0.81988221E+02 0.14896840E+03 0.45129836E+03 0.49081475E+03 0.91188000E+02 0.0000E+00 0.9000E+01
      -13  1    4    4    0    0 -.37384483E+02 -.89168577E+02 0.17782111E+03 0.20240798E+03 0.10565837E+00 0.0000E+00 0.9000E+01
       13  1    4    4    0    0 0.23941969E+02 -.93902079E+02 0.73424305E+02 0.12158108E+03 0.10565837E+00 0.0000E+00 0.9000E+01
       23  1    3    3    0    0 -.68545707E+02 0.34102253E+02 0.35020902E+02 0.12410960E+03 0.91188000E+02 0.0000E+00 0.9000E+01
#aMCatNLO 1  0  0  2  1 0.84978358D+02 0.00000000D+00  -5  7  0 0.00000000D+00 0.00000000D+00 0.00000000D+00 0.00000000D+00 0.00000000D+00
  <mgrwgt>
 0.2904472012D-03    9    2    0
 0.290498164582472D+03 0.000000000000000D+00 0.000000000000000D+00 0.290498164582472D+03
 0.290498164582472D+03 0.000000000000000D+00 0.000000000000000D+00 -.290498164582472D+03
 0.220260973551876D+03 0.819882208667279D+02 0.148968403984798D+03 0.106235546684483D+03
 0.101358645538657D+03 -.373845668218887D+02 -.891685707274226D+02 0.304127470544761D+02
 0.103269035171415D+03 0.239420529160963D+02 -.939020859033857D+02 -.356885134236631D+02
 0.156107674902996D+03 -.685457069609355D+02 0.341022526460106D+02 -.100959780315296D+03
 0.000000000000000D+00 -.000000000000000D+00 -.000000000000000D+00 -.000000000000000D+00
 0.308591410204368D+03 0.000000000000000D+00 0.000000000000000D+00 0.308591410204368D+03
 0.413925220688099D+03 0.000000000000000D+00 0.000000000000000D+00 -.413925220688099D+03
 0.239165642464961D+03 0.114562449871845D+03 0.156442982877750D+03 0.106235546684483D+03
 0.941907417922458D+02 -.235197398774836D+02 -.859871065455135D+02 0.304127470544761D+02
 0.104709229805804D+03 0.386881111444826D+02 -.905184117857012D+02 -.356885134236631D+02
 0.149112430365008D+03 -.469050155874923D+02 0.390679896690856D+02 -.100959780315296D+03
 0.135338586464448D+03 -.828258055513512D+02 -.190054542156208D+02 -.105333810483731D+03
0.354524175233D-05 0.000000000000D+00 0.000000000000D+00 0.258807183713D-06 0.000000000000D+00  7 1 -1 23 -13 13 23 21 0 0.12895985D+00 0.15488364D-01 0.63910022D+05 0.63910022D+05 0.63910022D+05 0.11380354D+01  1  2  2  2  7  2       -1 0.255547463996D-03 0.100000000000D+01
-.192332265145D-06 0.000000000000D+00 -.136146618125D-07 0.258807183713D-06 0.000000000000D+00  7 1 -1 23 -13 13 23 21 2 0.12895985D+00 0.15488364D-01 0.63910022D+05 0.63910022D+05 0.63910022D+05 0.11380354D+01  1  2  3  2  7  2       -1 -.179551648947D-04 0.100000000000D+01
0.220429229455D-06 0.000000000000D+00 0.000000000000D+00 0.258807183713D-06 0.000000000000D+00  7 1 -1 23 -13 13 23 21 2 0.12895985D+00 0.15488364D-01 0.63910022D+05 0.63910022D+05 0.63910022D+05 0.11380354D+01  1  2 15  2  7  2       -1 0.205781549939D-04 0.100000000000D+01
0.477471491997D-05 0.000000000000D+00 0.000000000000D+00 0.258807183713D-06 0.000000000000D+00  7 1 -1 23 -13 13 23 21 2 0.12895985D+00 0.22392452D-01 0.88975164D+05 0.88975164D+05 0.88975164D+05 0.11259091D+01  1  2 12  2  7  2       -1 0.241929840414D-03 0.100000000000D+01
-.525038322930D-05 0.000000000000D+00 0.000000000000D+00 0.258807183713D-06 0.000000000000D+00  7 1 -1 23 -13 13 23 21 2 0.12895985D+00 0.15488364D-01 0.63910022D+05 0.63910022D+05 0.63910022D+05 0.11380354D+01  1  2  4  2  7  2       -1 -.490149151893D-03 0.100000000000D+01
-.630164609489D-05 0.000000000000D+00 -.149323832671D-05 0.258807183713D-06 0.000000000000D+00  7 1 -1 23 -13 13 23 21 2 0.12895985D+00 0.23291706D-01 0.63910022D+05 0.63910022D+05 0.63910022D+05 0.11380354D+01  1  2  5  2  7  2       -1 -.307569111024D-03 0.100000000000D+01
0.648020866214D-05 0.000000000000D+00 0.137702244776D-05 0.258807183713D-06 0.000000000000D+00  7 1 -1 23 -13 13 23 21 2 0.12895985D+00 0.15488364D-01 0.63910022D+05 0.63910022D+05 0.63910022D+05 0.11380354D+01  1  2  6  2  7  2       -1 0.604959417459D-03 0.100000000000D+01
0.214143531894D-06 0.000000000000D+00 0.000000000000D+00 0.258807183713D-06 0.000000000000D+00  7 1 21 23 -13 13 23 1 2 0.12895985D+00 0.22392452D-01 0.88975164D+05 0.88975164D+05 0.88975164D+05 0.11259091D+01  1  2 12  4  7  2       -1 0.128131696728D-03 0.100000000000D+01
-.252015069197D-06 0.000000000000D+00 -.721217087913D-07 0.258807183713D-06 0.000000000000D+00  7 1 21 23 -13 13 23 1 2 0.12895985D+00 0.23291706D-01 0.63910022D+05 0.63910022D+05 0.63910022D+05 0.11380354D+01  1  2  5  4  7  2       -1 -.145025944605D-03 0.100000000000D+01
  </mgrwgt>
  </event>
  <event>
  8     66 0.25924217E-05 0.24540251E+03 0.75467711E-02 0.96672390E-01
        1 -1    0    0  501    0 0.00000000E+00 0.00000000E+00 0.52397540E+03 0.52397549E+03 0.32000000E+00 0.0000E+00 0.9000E+01
       -1 -1    0    0    0  501 0.00000000E+00 0.00000000E+00 -.17266400E+03 0.17266430E+03 0.32000000E+00 0.0000E+00 0.9000E+01
       25  2    1    2    0    0 0.26867852E+02 -.13973817E+03 0.39893359E+03 0.52105004E+03 0.30347403E+03 0.0000E+00 0.0000E+00
       23  2    3    3    0    0 0.21923551E+02 -.19501580E+03 0.20567932E+03 0.30027294E+03 0.96685296E+02 0.0000E+00 0.0000E+00
       23  1    1    2    0    0 -.26867852E+02 0.13973817E+03 -.47622196E+02 0.17558976E+03 0.91188000E+02 0.0000E+00 0.9000E+01
      -13  1    4    4    0    0 -.78342506E+01 -.18265767E+03 0.15243181E+03 0.23803502E+03 0.10565837E+00 0.0000E+00 0.9000E+01
       13  1    4    4    0    0 0.29757802E+02 -.12358133E+02 0.53247509E+02 0.62237920E+02 0.10565837E+00 0.0000E+00 0.9000E+01
       23  1    3    3    0    0 0.49443005E+01 0.55277634E+02 0.19325427E+03 0.22077710E+03 0.91188000E+02 0.0000E+00 0.9000E+01
#aMCatNLO 1  0  0  1  1 0.26720518D+03 0.00000000D+00  -5  7  0 0.00000000D+00 0.00000000D+00 0.00000000D+00 0.00000000D+00 0.00000000D+00
  <mgrwgt>
 0.3844928187D-03    5    2    0
 0.300785346692799D+03 0.000000000000000D+00 0.000000000000000D+00 0.300785346692799D+03
 0.300785346692799D+03 0.000000000000000D+00 0.000000000000000D+00 -.300785346692799D+03
 0.231149967957364D+03 -.268678554871624D+02 0.139738187744747D+03 -.157690879793427D+03
 0.186634300047568D+03 -.783428642885823D+01 -.182657854784659D+03 0.375112515901946D+02
 0.409774735733709D+02 0.297578381882900D+02 -.123579372045042D+02 0.253161172944311D+02
 0.142808951807296D+03 0.494430372773065D+01 0.552776042444152D+02 0.948635109088010D+02
 0.000000000000000D+00 -.000000000000000D+00 -.000000000000000D+00 0.000000000000000D+00
 0.484392057105584D+03 0.000000000000000D+00 0.000000000000000D+00 0.484392057105584D+03
 0.444081239316636D+03 0.000000000000000D+00 0.000000000000000D+00 -.444081239316636D+03
 0.284589697474675D+03 0.557547904976041D+02 0.211426191214027D+03 -.157690879793427D+03
 0.148417745162874D+03 0.458417993434163D+02 -.136085497082998D+03 0.375112515901946D+02
 0.512242770158035D+02 0.445287645077219D+02 0.458140090177759D+00 0.253161172944311D+02
 0.174012843754593D+03 0.556998628004259D+02 0.993159505297602D+02 0.948635109088010D+02
 0.270228733014275D+03 -.201825217149168D+03 -.175114784750967D+03 0.403108177889480D+02
0.639285742709D-05 0.000000000000D+00 0.000000000000D+00 0.111476007851D-08 0.000000000000D+00  7 1 -1 23 -13 13 23 21 0 0.80611630D-01 0.26563722D-01 0.60222392D+05 0.60222392D+05 0.60222392D+05 0.11402564D+01  1  2  2  1  7  1        1 0.388868748205D-03 0.100000000000D+01
-.337276562727D-06 0.000000000000D+00 -.245502557980D-07 0.111476007851D-08 0.000000000000D+00  7 1 -1 23 -13 13 23 21 2 0.80611630D-01 0.26563722D-01 0.60222392D+05 0.60222392D+05 0.60222392D+05 0.11402564D+01  1  2  3  1  7  1        1 -.266746799972D-04 0.100000000000D+01
0.403817749319D-06 0.000000000000D+00 0.000000000000D+00 0.111476007851D-08 0.000000000000D+00  7 1 -1 23 -13 13 23 21 2 0.80611630D-01 0.26563722D-01 0.60222392D+05 0.60222392D+05 0.60222392D+05 0.11402564D+01  1  2 15  1  7  1        1 0.319373191933D-04 0.100000000000D+01
-.505457634003D-06 0.000000000000D+00 -.198286346259D-05 0.111476007851D-08 0.000000000000D+00  7 1 -1 23 -13 13 23 21 2 0.17411230D+00 0.26563722D-01 0.60222392D+05 0.60222392D+05 0.60222392D+05 0.11402564D+01  1  2  5  1  7  1        1 -.120024154024D-04 0.100000000000D+01
0.821122460009D-07 0.000000000000D+00 -.165312852448D-06 0.111476007851D-08 0.000000000000D+00  7 21 -1 23 -13 13 23 -1 2 0.17411230D+00 0.26563722D-01 0.60222392D+05 0.60222392D+05 0.60222392D+05 0.11402564D+01  1  2  5  3  7  1        1 0.236384666583D-05 0.100000000000D+01
  </mgrwgt>
  </event>
  <event>
  9     66 0.25924217E-05 0.17669882E+03 0.75467711E-02 0.10755953E+00
        1 -1    0    0  501    0 0.00000000E+00 0.00000000E+00 0.87468343E+03 0.87468349E+03 0.32000000E+00 0.0000E+00 0.9000E+01
       21 -1    0    0  502  501 0.00000000E+00 0.00000000E+00 -.52357658E+02 0.52363030E+02 0.75000000E+00 0.0000E+00 0.9000E+01
       25  2    1    2    0    0 0.27354414E+02 -.23420489E+02 0.68918887E+03 0.75288596E+03 0.30093053E+03 0.0000E+00 0.0000E+00
       23  2    3    3    0    0 -.36215799E+02 0.65228731E+02 0.51407189E+03 0.52731765E+03 0.90706217E+02 0.0000E+00 0.0000E+00
       23  1    1    2    0    0 -.13699365E+02 0.19977607E+02 0.12832039E+03 0.15927382E+03 0.91188000E+02 0.0000E+00 0.9000E+01
      -11  1    4    4    0    0 -.42661454E+02 -.79957977E+01 0.16713821E+03 0.17268211E+03 0.51099893E-03 0.0000E+00 0.9000E+01
       11  1    4    4    0    0 0.64456554E+01 0.73224529E+02 0.34693369E+03 0.35463553E+03 0.51099893E-03 0.0000E+00 0.9000E+01
       23  1    3    3    0    0 0.63570212E+02 -.88649220E+02 0.17511697E+03 0.22556831E+03 0.91188000E+02 0.0000E+00 0.9000E+01
        1  1    1    2  502    0 -.13655049E+02 0.34428824E+01 0.48165169E+01 0.14886740E+02 0.32000000E+00 0.0000E+00 0.9000E+01
#aMCatNLO 2  0  0  2  1 0.14082393D+02 0.00000000D+00  -5  7  0 0.00000000D+00 0.00000000D+00 0.00000000D+00 0.00000000D+00 0.00000000D+00
  <mgrwgt>
 0.9535081280D-05    2    2    0
 0.202185413618468D+03 0.000000000000000D+00 0.000000000000000D+00 0.202185413618468D+03
 0.202185413618468D+03 0.000000000000000D+00 0.000000000000000D+00 -.202185413618468D+03
 0.100491715233088D+03 -.170801073341228D+02 0.208300058896474D+02 -.325225194992647D+02
 0.530000243347041D+02 -.444269531948865D+02 -.755065937218117D+01 0.278968806920036D+02
 0.989855192659840D+02 0.311192245514961D+01 0.740650690235402D+02 0.655958421969552D+02
 0.151893568403161D+03 0.583951380738597D+02 -.873444155410063D+02 -.609702033896941D+02
 0.000000000000000D+00 -.000000000000000D+00 0.000000000000000D+00 -.000000000000000D+00
 0.204611478225442D+03 0.000000000000000D+00 0.000000000000000D+00 0.204611478225442D+03
 0.223831121401581D+03 0.000000000000000D+00 0.000000000000000D+00 -.223831121401581D+03
 0.997985134588609D+02 -.136993687539565D+02 0.199776116130410D+02 -.325225194992647D+02
 0.515962043740577D+02 -.426614526607617D+02 -.799579954346272D+01 0.278968806920036D+02
 0.985200091464014D+02 0.644565752580476D+01 0.732245258621673D+02 0.655958421969552D+02
 0.154701238745672D+03 0.635702127631043D+02 -.886492203762578D+02 -.609702033896941D+02
 0.238266339020307D+02 -.136550488741909D+02 0.344288244451224D+01 -.192196431761395D+02
-.144476669252D-06 0.000000000000D+00 0.000000000000D+00 0.281867289453D-07 0.000000000000D+00  7 1 21 23 -11 11 23 1 2 0.13297085D+00 0.80961487D-02 0.33768612D+05 0.33768612D+05 0.33768612D+05 0.11625975D+01  1  2 13  4  7  2       -1 -.536768189963D-03 0.100000000000D+01
0.148617250943D-06 0.000000000000D+00 0.000000000000D+00 0.281867289453D-07 0.171012248433D-10  7 1 21 23 -11 11 23 1 2 0.13456640D+00 0.80554002D-02 0.33768612D+05 0.33768612D+05 0.33768612D+05 0.11625975D+01  1  2  1  4  7  2       -1 0.546303271243D-03 0.100000000000D+01
  </mgrwgt>
  </event>
  <event>
  8     66 0.25924217E-05 0.65646095E+02 0.75467711E-02 0.10704583E+00
        1 -1    0    0  501    0 0.00000000E+00 0.00000000E+00 0.49505090E+03 0.49505101E+03 0.32000000E+00 0.0000E+00 0.9000E+01
       -1 -1    0    0    0  501 0.00000000E+00 0.00000000E+00 -.15735231E+03 0.15735264E+03 0.32000000E+00 0.0000E+00 0.9000E+01
       25  2    1    2    0    0 0.91507832E+02 0.24845738E+02 0.39808003E+03 0.50765502E+03 0.30042456E+03 0.0000E+00 0.0000E+00
       23  2    3    3    0    0 0.35429143E+02 0.27057755E+02 0.14424281E+02 0.10933769E+03 0.98789292E+02 0.0000E+00 0.0000E+00
       23  1    1    2    0    0 -.91507832E+02 -.24845738E+02 -.60381439E+02 0.14474862E+03 0.91188000E+02 0.0000E+00 0.9000E+01
      -13  1    4    4    0    0 0.13869884E+02 -.29190057E+02 0.33110126E+02 0.46267966E+02 0.10565837E+00 0.0000E+00 0.9000E+01
       13  1    4    4    0    0 0.21559259E+02 0.56247812E+02 -.18685845E+02 0.63069723E+02 0.10565837E+00 0.0000E+00 0.9000E+01
       23  1    3    3    0    0 0.56078689E+02 -.22120169E+01 0.38365575E+03 0.39831733E+03 0.91188000E+02 0.0000E+00 0.9000E+01
#aMCatNLO 1  0  0  1  2 0.46924079D+02 0.00000000D+00  -5  7  0 0.00000000D+00 0.00000000D+00 0.00000000D+00 0.00000000D+00 0.00000000D+00
  <mgrwgt>
 0.3299176593D-03    9    2    0
 0.279101314724565D+03 0.000000000000000D+00 0.000000000000000D+00 0.279101314724565D+03
 0.279101314724565D+03 0.000000000000000D+00 0.000000000000000D+00 -.279101314724565D+03
 0.205705329140429D+03 -.915078322110911D+02 -.248457381708120D+02 -.158140560994157D+03
 0.340451436897771D+02 0.138698643130780D+02 -.291901214859845D+02 0.107067959926319D+02
 0.850177425192073D+02 0.215592659545006D+02 0.562478785254108D+02 -.599949227514794D+02
 0.233434414099716D+03 0.560787019435125D+02 -.221201886861421D+01 0.207428687753004D+03
 0.000000000000000D+00 0.000000000000000D+00 0.000000000000000D+00 0.000000000000000D+00
 0.315814250844240D+03 0.000000000000000D+00 0.000000000000000D+00 0.315814250844240D+03
 0.295492660744939D+03 0.000000000000000D+00 0.000000000000000D+00 -.295492660744939D+03
 0.209457281604558D+03 -.936679861145060D+02 -.421304262840654D+02 -.158140560994157D+03
 0.364554967521037D+02 0.135030388097638D+02 -.321253125419321D+02 0.107067959926319D+02
 0.804010011179605D+02 0.206985671932980D+02 0.493609110628930D+02 -.599949227514794D+02
 0.233857662785072D+03 0.536473105373688D+02 -.216670410640240D+02 0.207428687753004D+03
 0.511354693294848D+02 0.581906957407545D+01 0.465618688271286D+02 0.203215900993013D+02
0.293602361877D-05 0.000000000000D+00 0.000000000000D+00 0.106818369707D-07 0.000000000000D+00  7 1 -1 23 -13 13 23 21 0 0.76161710D-01 0.24208081D-01 0.27420644D+05 0.27420644D+05 0.27420644D+05 0.11709759D+01  1  2  2  1  7  1        1 0.225022550765D-03 0.100000000000D+01
-.109062970444D-06 0.000000000000D+00 -.112751037689D-07 0.106818369707D-07 0.000000000000D+00  7 1 -1 23 -13 13 23 21 2 0.76161710D-01 0.24208081D-01 0.27420644D+05 0.27420644D+05 0.27420644D+05 0.11709759D+01  1  2  3  1  7  1        1 -.114614538592D-04 0.100000000000D+01
0.175827543803D-06 0.000000000000D+00 0.000000000000D+00 0.106818369707D-07 0.000000000000D+00  7 1 -1 23 -13 13 23 21 2 0.76161710D-01 0.24208081D-01 0.27420644D+05 0.27420644D+05 0.27420644D+05 0.11709759D+01  1  2 15  1  7  1        1 0.184777589704D-04 0.100000000000D+01
0.418903186706D-05 0.000000000000D+00 0.000000000000D+00 0.106818369707D-07 0.000000000000D+00  7 1 -1 23 -13 13 23 21 2 0.88193297D-01 0.24208081D-01 0.36221144D+05 0.36221144D+05 0.36221144D+05 0.11598179D+01  1  2 12  1  7  1        1 0.352741843910D-03 0.100000000000D+01
-.427461963649D-05 0.000000000000D+00 0.000000000000D+00 0.106818369707D-07 0.000000000000D+00  7 1 -1 23 -13 13 23 21 2 0.76161710D-01 0.24208081D-01 0.27420644D+05 0.27420644D+05 0.27420644D+05 0.11709759D+01  1  2  4  1  7  1        1 -.449220808213D-03 0.100000000000D+01
-.835701036165D-05 0.000000000000D+00 -.245813873011D-05 0.106818369707D-07 0.000000000000D+00  7 1 -1 23 -13 13 23 21 2 0.90088458D-01 0.24208081D-01 0.27420644D+05 0.27420644D+05 0.27420644D+05 0.11709759D+01  1  2  5  1  7  1        1 -.697285821163D-03 0.100000000000D+01
0.868137042161D-05 0.000000000000D+00 0.242387973150D-05 0.106818369707D-07 0.000000000000D+00  7 1 -1 23 -13 13 23 21 2 0.76161710D-01 0.24208081D-01 0.27420644D+05 0.27420644D+05 0.27420644D+05 0.11709759D+01  1  2  6  1  7  1        1 0.912327310692D-03 0.100000000000D+01
0.938326046312D-07 0.000000000000D+00 0.000000000000D+00 0.106818369707D-07 0.000000000000D+00  7 21 -1 23 -13 13 23 -1 2 0.88193297D-01 0.24208081D-01 0.36221144D+05 0.36221144D+05 0.36221144D+05 0.11598179D+01  1  2 12  3  7  1        1 0.215470328426D-04 0.100000000000D+01
-.187817206836D-06 0.000000000000D+00 -.613824758381D-07 0.106818369707D-07 0.000000000000D+00  7 21 -1 23 -13 13 23 -1 2 0.90088458D-01 0.24208081D-01 0.27420644D+05 0.27420644D+05 0.27420644D+05 0.11709759D+01  1  2  5  3  7  1        1 -.422307546124D-04 0.100000000000D+01
  </mgrwgt>
  </event>
  <event>
  8     66 0.25924217E-05 0.14148795E+03 0.75467711E-02 0.10086168E+00
        1 -1    0    0  501    0 0.00000000E+00 0.00000000E+00 0.67575942E+03 0.67575949E+03 0.32000000E+00 0.0000E+00 0.9000E+01
       -1 -1    0    0    0  501 0.00000000E+00 0.00000000E+00 -.82828129E+02 0.82828747E+02 0.32000000E+00 0.0000E+00 0.9000E+01
       25  2    1    2    0    0 0.85087416E+02 -.12828362E+01 0.53898792E+03 0.62269618E+03 0.30000173E+03 0.0000E+00 0.0000E+00
       23  2    3    3    0    0 0.51033894E+02 0.10944131E+03 0.19166809E+03 0.24538226E+03 0.94307674E+02 0.0000E+00 0.0000E+00
       23  1    1    2    0    0 -.85087416E+02 0.12828362E+01 0.53943364E+02 0.13589206E+03 0.91188000E+02 0.0000E+00 0.9000E+01
      -11  1    4    4    0    0 0.78105069E+02 0.68885754E+02 0.12307072E+03 0.16122050E+03 0.51099893E-03 0.0000E+00 0.9000E+01
       11  1    4    4    0    0 -.27071175E+02 0.40555552E+02 0.68597377E+02 0.84161758E+02 0.51099893E-03 0.0000E+00 0.9000E+01
       23  1    3    3    0    0 0.34053522E+02 -.11072414E+03 0.34731983E+03 0.37731392E+03 0.91188000E+02 0.0000E+00 0.9000E+01
#aMCatNLO 1  0  0  2  1 0.14690820D+03 0.00000000D+00  -5  7  0 0.00000000D+00 0.00000000D+00 0.00000000D+00 0.00000000D+00 0.00000000D+00
  <mgrwgt>
 0.1253591983D-03    7    2    0
 0.236584342439799D+03 0.000000000000000D+00 0.000000000000000D+00 0.236584342439799D+03
 0.236584342439799D+03 0.000000000000000D+00 0.000000000000000D+00 -.236584342439799D+03
 0.150266516836014D+03 -.850874161291764D+02 0.128283615462621D+01 -.838048965507913D+02
 0.104249287094599D+03 0.781050688964854D+02 0.688857541683955D+02 -.471857447316793D+01
 0.489689812466274D+02 -.270711750292937D+02 0.405555520790709D+02 0.451218377591746D+01
 0.169683899702356D+03 0.340535222619846D+02 -.110724142402093D+03 0.840112872480418D+02
 0.000000000000000D+00 0.000000000000000D+00 -.000000000000000D+00 -.000000000000000D+00
 0.262074815778401D+03 0.000000000000000D+00 0.000000000000000D+00 0.262074815778401D+03
 0.623722085648739D+03 0.000000000000000D+00 0.000000000000000D+00 -.623722085648739D+03
 0.182580849956811D+03 -.133079905760565D+03 0.169408802552283D+02 -.838048965507913D+02
 0.927381788492727D+02 0.497019031814651D+02 0.781525795566667D+02 -.471857447316793D+01
 0.631708929306717D+02 -.432403633289539D+02 0.458309163165084D+02 0.451218377591746D+01
 0.156959997827079D+03 -.130445035280024D+02 -.953579263433911D+02 0.840112872480418D+02
 0.390346981863305D+03 0.139662869436056D+03 -.455664497850124D+02 -.361647269870338D+03
0.194098378804D-05 0.000000000000D+00 0.000000000000D+00 0.359369630763D-07 0.000000000000D+00  7 1 -1 23 -11 11 23 21 0 0.10396304D+00 0.12742842D-01 0.45168340D+05 0.45168340D+05 0.45168340D+05 0.11511979D+01  1  2  2  2  7  2       -1 0.263262881790D-03 0.100000000000D+01
-.106324941314D-06 0.000000000000D+00 -.745388881884D-08 0.359369630763D-07 0.000000000000D+00  7 1 -1 23 -11 11 23 21 2 0.10396304D+00 0.12742842D-01 0.45168340D+05 0.45168340D+05 0.45168340D+05 0.11511979D+01  1  2  3  2  7  2       -1 -.191118557828D-04 0.100000000000D+01
0.122655994829D-06 0.000000000000D+00 0.000000000000D+00 0.359369630763D-07 0.000000000000D+00  7 1 -1 23 -11 11 23 21 2 0.10396304D+00 0.12742842D-01 0.45168340D+05 0.45168340D+05 0.45168340D+05 0.11511979D+01  1  2 15  2  7  2       -1 0.220473546008D-04 0.100000000000D+01
0.752573181714D-06 0.000000000000D+00 0.000000000000D+00 0.359369630763D-07 0.000000000000D+00  7 1 -1 23 -11 11 23 21 2 0.10396304D+00 0.33072323D-01 0.89201140D+05 0.89201140D+05 0.89201140D+05 0.11258176D+01  1  2 12  2  7  2       -1 0.279128888511D-04 0.100000000000D+01
-.283129497400D-05 0.000000000000D+00 -.625007159191D-06 0.359369630763D-07 0.000000000000D+00  7 1 -1 23 -11 11 23 21 2 0.10396304D+00 0.36443952D-01 0.45168340D+05 0.45168340D+05 0.45168340D+05 0.11511979D+01  1  2  5  2  7  2       -1 -.943475380349D-04 0.100000000000D+01
0.795003533727D-07 0.000000000000D+00 0.000000000000D+00 0.359369630763D-07 0.000000000000D+00  7 1 21 23 -11 11 23 1 2 0.10396304D+00 0.33072323D-01 0.89201140D+05 0.89201140D+05 0.89201140D+05 0.11258176D+01  1  2 12  4  7  2       -1 0.313158291234D-04 0.100000000000D+01
-.301586942891D-06 0.000000000000D+00 -.740504106820D-07 0.359369630763D-07 0.000000000000D+00  7 1 21 23 -11 11 23 1 2 0.10396304D+00 0.36443952D-01 0.45168340D+05 0.45168340D+05 0.45168340D+05 0.11511979D+01  1  2  5  4  7  2       -1 -.105720362280D-03 0.100000000000D+01
  </mgrwgt>
  </event>
  <event>
  8     66 0.25924217E-05 0.30274676E+03 0.75467711E-02 0.95533621E-01
        1 -1    0    0  501    0 0.00000000E+00 0.00000000E+00 0.31379627E+03 0.31379643E+03 0.32000000E+00 0.0000E+00 0.9000E+01
       -1 -1    0    0    0  501 0.00000000E+00 0.00000000E+00 -.72551054E+03 0.72551061E+03 0.32000000E+00 0.0000E+00 0.9000E+01
       25  2    1    2    0    0 0.17691802E+03 0.37594160E+03 -.12961094E+03 0.52888602E+03 0.30048188E+03 0.0000E+00 0.0000E+00
       23  2    3    3    0    0 0.93965485E+02 0.38554269E+02 -.98261408E+02 0.16831789E+03 0.91431200E+02 0.0000E+00 0.0000E+00
       23  1    1    2    0    0 -.17691802E+03 -.37594160E+03 -.28210334E+03 0.51042102E+03 0.91188000E+02 0.0000E+00 0.9000E+01
      -11  1    4    4    0    0 0.62730816E+02 -.14867720E+02 -.17931987E+02 0.66916071E+02 0.51099893E-03 0.0000E+00 0.9000E+01
       11  1    4    4    0    0 0.31234669E+02 0.53421989E+02 -.80329421E+02 0.10140182E+03 0.51099893E-03 0.0000E+00 0.9000E+01
       23  1    3    3    0    0 0.82952537E+02 0.33738733E+03 -.31349528E+02 0.36056813E+03 0.91188000E+02 0.0000E+00 0.9000E+01
#aMCatNLO 1  0  0  2  1 0.12477785D+02 0.00000000D+00  -5  7  0 0.00000000D+00 0.00000000D+00 0.00000000D+00 0.00000000D+00 0.00000000D+00
  <mgrwgt>
 0.3662476477D-03    9    2    0
 0.477140044473983D+03 0.000000000000000D+00 0.000000000000000D+00 0.477140044473983D+03
 0.477140044473983D+03 0.000000000000000D+00 0.000000000000000D+00 -.477140044473983D+03
 0.434189285519613D+03 -.176918021902835D+03 -.375941599197412D+03 -.870230534681029D+02
 0.651417641134491D+02 0.627308158209217D+02 -.148677198040201D+02 0.934050780648438D+01
 0.757794890733720D+02 0.312346693276889D+02 0.534219886580340D+02 -.437380557870619D+02
 0.379169550241532D+03 0.829525367542240D+02 0.337387330343398D+03 0.121420601448680D+03
 0.000000000000000D+00 -.000000000000000D+00 -.000000000000000D+00 -.000000000000000D+00
 0.481711834680927D+03 0.000000000000000D+00 0.000000000000000D+00 0.481711834680927D+03
 0.485771374919004D+03 0.000000000000000D+00 0.000000000000000D+00 -.485771374919004D+03
 0.429237759719823D+03 -.172688427231696D+03 -.372203571034217D+03 -.870230534681029D+02
 0.656332078545350D+02 0.633714317566904D+02 -.143015567089994D+02 0.934050780648438D+01
 0.765545716216913D+02 0.319808948888422D+02 0.540814873524883D+02 -.437380557870619D+02
 0.382936123533476D+03 0.866857972704608D+02 0.340686708661009D+03 0.121420601448680D+03
 0.131215468704052D+02 -.934969668429750D+01 -.826306827028009D+01 -.405954023807702D+01
0.165912891315D-04 0.000000000000D+00 0.000000000000D+00 0.720082943063D-06 0.000000000000D+00  7 1 -1 23 -11 11 23 21 0 0.48276367D-01 0.11161702D+00 0.20744993D+06 0.20744993D+06 0.20744993D+06 0.10966076D+01  1  2  2  2  7  2       -1 0.132330170355D-03 0.100000000000D+01
-.919316366534D-06 0.000000000000D+00 -.637149188517D-07 0.720082943063D-06 0.000000000000D+00  7 1 -1 23 -11 11 23 21 2 0.48276367D-01 0.11161702D+00 0.20744993D+06 0.20744993D+06 0.20744993D+06 0.10966076D+01  1  2  3  2  7  2       -1 -.881751530584D-05 0.100000000000D+01
0.103990459661D-05 0.000000000000D+00 0.000000000000D+00 0.720082943063D-06 0.000000000000D+00  7 1 -1 23 -11 11 23 21 2 0.48276367D-01 0.11161702D+00 0.20744993D+06 0.20744993D+06 0.20744993D+06 0.10966076D+01  1  2 15  2  7  2       -1 0.997412319740D-05 0.100000000000D+01
0.166318934984D-04 0.000000000000D+00 0.000000000000D+00 0.720082943063D-06 0.000000000000D+00  7 1 -1 23 -11 11 23 21 2 0.48276367D-01 0.11416345D+00 0.21333910D+06 0.21333910D+06 0.21333910D+06 0.10956783D+01  1  2 12  2  7  2       -1 0.150825195214D-03 0.100000000000D+01
-.152535730949D-04 0.000000000000D+00 0.000000000000D+00 0.720082943063D-06 0.000000000000D+00  7 1 -1 23 -11 11 23 21 2 0.48276367D-01 0.11161702D+00 0.20744993D+06 0.20744993D+06 0.20744993D+06 0.10966076D+01  1  2  4  2  7  2       -1 -.146302860614D-03 0.100000000000D+01
-.635968795645D-03 0.000000000000D+00 -.791345725545D-04 0.720082943063D-06 0.000000000000D+00  7 1 -1 23 -11 11 23 21 2 0.48276367D-01 0.11443516D+00 0.20744993D+06 0.20744993D+06 0.20744993D+06 0.10966076D+01  1  2  5  2  7  2       -1 -.574993742544D-02 0.100000000000D+01
0.637768320590D-03 0.000000000000D+00 0.791099781778D-04 0.720082943063D-06 0.000000000000D+00  7 1 -1 23 -11 11 23 21 2 0.48276367D-01 0.11161702D+00 0.20744993D+06 0.20744993D+06 0.20744993D+06 0.10966076D+01  1  2  6  2  7  2       -1 0.611708018381D-02 0.100000000000D+01
0.560749900352D-06 0.000000000000D+00 0.000000000000D+00 0.720082943063D-06 0.000000000000D+00  7 1 21 23 -11 11 23 1 2 0.48276367D-01 0.11416345D+00 0.21333910D+06 0.21333910D+06 0.21333910D+06 0.10956783D+01  1  2 12  4  7  2       -1 0.341866713650D-04 0.100000000000D+01
-.284730348518D-05 0.000000000000D+00 -.356519265174D-06 0.720082943063D-06 0.000000000000D+00  7 1 21 23 -11 11 23 1 2 0.48276367D-01 0.11443516D+00 0.20744993D+06 0.20744993D+06 0.20744993D+06 0.10966076D+01  1  2  5  4  7  2       -1 -.173090894892D-03 0.100000000000D+01
  </mgrwgt>
  </event>
  <event>
  8     66 0.25924217E-05 0.18895298E+03 0.75467711E-02 0.10696976E+00
        1 -1    0    0  501    0 0.00000000E+00 0.00000000E+00 0.19052136E+03 0.19052162E+03 0.32000000E+00 0.0000E+00 0.9000E+01
       -1 -1    0    0    0  501 0.00000000E+00 0.00000000E+00 -.24389926E+03 0.24389947E+03 0.32000000E+00 0.0000E+00 0.9000E+01
       25  2    1    2    0    0 -.42076699E+01 0.16986018E+02 -.11636859E+03 0.32221900E+03 0.29996201E+03 0.0000E+00 0.0000E+00
       23  2    3    3    0    0 0.22647791E+02 0.12138399E+03 -.37382866E+02 0.16043474E+03 0.95366826E+02 0.0000E+00 0.0000E+00
       23  1    1    2    0    0 0.42076699E+01 -.16986018E+02 0.62990694E+02 0.11220209E+03 0.91188000E+02 0.0000E+00 0.9000E+01
      -13  1    4    4    0    0 -.18060265E+02 0.25394815E+01 -.29349897E+02 0.34555025E+02 0.10565837E+00 0.0000E+00 0.9000E+01
       13  1    4    4    0    0 0.40708055E+02 0.11884451E+03 -.80329696E+01 0.12587971E+03 0.10565837E+00 0.0000E+00 0.9000E+01
       23  1    3    3    0    0 -.26855461E+02 -.10439797E+03 -.78985729E+02 0.16178427E+03 0.91188000E+02 0.0000E+00 0.9000E+01
#aMCatNLO 1  0  0  2  1 0.48841931D+01 0.00000000D+00  -5  7  0 0.00000000D+00 0.00000000D+00 0.00000000D+00 0.00000000D+00 0.00000000D+00
  <mgrwgt>
 0.3054288015D-03    6    2    0
 0.215564656099688D+03 0.000000000000000D+00 0.000000000000000D+00 0.215564656099688D+03
 0.215564656099688D+03 0.000000000000000D+00 0.000000000000000D+00 -.215564656099688D+03
 0.120857634926219D+03 0.420767091944844D+01 -.169860223784681D+02 0.773633448420576D+02
 0.311849111651109D+02 -.180603081573891D+02 0.253937006051172D+01 -.252957615685272D+02
 0.125846389191054D+03 0.407081063443830D+02 0.118844652379900D+03 0.749081777788467D+01
 0.153240376916992D+03 -.268554691064423D+02 -.104398000061943D+03 -.595584010514151D+02
 0.000000000000000D+00 -.000000000000000D+00 -.000000000000000D+00 0.000000000000000D+00
 0.260807330364720D+03 0.000000000000000D+00 0.000000000000000D+00 0.260807330364720D+03
 0.215710347836141D+03 0.000000000000000D+00 0.000000000000000D+00 -.215710347836141D+03
 0.120849504146338D+03 0.550593901297781D+01 -.165513993018739D+02 0.773633448420576D+02
 0.310020259710737D+02 -.177262869256291D+02 0.265119082859415D+01 -.252957615685272D+02
 0.126719197216498D+03 0.420646978112905D+02 0.119298800456069D+03 0.749081777788467D+01
 0.152586250087879D+03 -.252127995787005D+02 -.103848081221965D+03 -.595584010514151D+02
 0.453607007790717D+02 -.463155031993875D+01 -.155051076082471D+01 0.450969825285786D+02
0.215704842323D-05 0.000000000000D+00 0.000000000000D+00 0.219473135723D-07 0.000000000000D+00  7 1 -1 23 -13 13 23 21 0 0.29311015D-01 0.37522999D-01 0.35703227D+05 0.35703227D+05 0.35703227D+05 0.11603872D+01  1  2  2  2  7  2       -1 0.278071858164D-03 0.100000000000D+01
-.117306411194D-06 0.000000000000D+00 -.828363390909D-08 0.219473135723D-07 0.000000000000D+00  7 1 -1 23 -13 13 23 21 2 0.29311015D-01 0.37522999D-01 0.35703227D+05 0.35703227D+05 0.35703227D+05 0.11603872D+01  1  2  3  2  7  2       -1 -.203622024410D-04 0.100000000000D+01
0.124848090890D-06 0.000000000000D+00 0.000000000000D+00 0.219473135723D-07 0.000000000000D+00  7 1 -1 23 -13 13 23 21 2 0.29311015D-01 0.37522999D-01 0.35703227D+05 0.35703227D+05 0.35703227D+05 0.11603872D+01  1  2 15  2  7  2       -1 0.216712972053D-04 0.100000000000D+01
-.476146455578D-07 0.000000000000D+00 0.000000000000D+00 0.219473135723D-07 0.000000000000D+00  7 1 -1 23 -13 13 23 21 2 0.29311015D-01 0.37522999D-01 0.35703227D+05 0.35703227D+05 0.35703227D+05 0.11603872D+01  1  2  4  2  7  2       -1 -.826501332820D-05 0.100000000000D+01
0.314935691001D-07 0.000000000000D+00 0.000000000000D+00 0.219473135723D-07 0.671575824280D-08  7 1 -1 23 -13 13 23 21 2 0.35462805D-01 0.37548360D-01 0.36601274D+05 0.36601274D+05 0.36601274D+05 0.11594057D+01  1  2 11  2  7  2       -1 0.427216866871D-05 0.100000000000D+01
0.211101437848D-07 0.000000000000D+00 0.000000000000D+00 0.219473135723D-07 0.941865298767D-12  7 1 21 23 -13 13 23 1 2 0.35462805D-01 0.37548360D-01 0.36601274D+05 0.36601274D+05 0.36601274D+05 0.11594057D+01  1  2 11  4  7  2       -1 0.300406931987D-04 0.100000000000D+01
  </mgrwgt>
  </event>
  <event>
  9     66 0.25924217E-05 0.20235933E+03 0.75467711E-02 0.10307360E+00
        1 -1    0    0  501    0 0.00000000E+00 0.00000000E+00 0.42219906E+03 0.42219918E+03 0.32000000E+00 0.0000E+00 0.9000E+01
       21 -1    0    0  502  501 0.00000000E+00 0.00000000E+00 -.21874831E+03 0.21874959E+03 0.75000000E+00 0.0000E+00 0.9000E+01
       25  2    1    2    0    0 -.18987288E+02 0.10914224E+03 0.28247023E+03 0.42717388E+03 0.30069178E+03 0.0000E+00 0.0000E+00
       23  2    3    3    0    0 -.10922376E+03 0.12669723E+03 0.17991452E+03 0.26199603E+03 0.91053109E+02 0.0000E+00 0.0000E+00
       23  1    1    2    0    0 -.77889184E+01 -.22003475E+02 -.15461235E+01 0.94140650E+02 0.91188000E+02 0.0000E+00 0.9000E+01
      -11  1    4    4    0    0 -.67146376E+02 0.11937150E+02 0.62452249E+02 0.92473860E+02 0.51099893E-03 0.0000E+00 0.9000E+01
       11  1    4    4    0    0 -.42077383E+02 0.11476008E+03 0.11746227E+03 0.16952217E+03 0.51099893E-03 0.0000E+00 0.9000E+01
       23  1    3    3    0    0 0.90236470E+02 -.17554983E+02 0.10255571E+03 0.16517785E+03 0.91188000E+02 0.0000E+00 0.9000E+01
        1  1    1    2  502    0 0.26776207E+02 -.87138768E+02 -.77473351E+02 0.11963425E+03 0.32000000E+00 0.0000E+00 0.9000E+01
#aMCatNLO 2  0  0  2  1 0.91159915D+02 0.00000000D+00  -5  7  0 0.00000000D+00 0.00000000D+00 0.00000000D+00 0.00000000D+00 0.00000000D+00
  <mgrwgt>
 0.5619513346D-04    2    2    0
 0.214790804390402D+03 0.000000000000000D+00 0.000000000000000D+00 0.214790804390402D+03
 0.214790804390402D+03 0.000000000000000D+00 0.000000000000000D+00 -.214790804390402D+03
 0.119232363437177D+03 -.638879564796089D+00 -.452721025550278D+02 -.620575032527403D+02
 0.647735152250913D+02 -.629977321072544D+02 -.156392828582214D+01 0.149815937828572D+02
 0.103006419486679D+03 -.350158094426872D+02 0.917793438671577D+02 0.309962511257927D+02
 0.142569310631857D+03 0.986524211147376D+02 -.449433130263078D+02 0.160796583440904D+02
 0.000000000000000D+00 0.000000000000000D+00 -.000000000000000D+00 -.000000000000000D+00
 0.231113090258260D+03 0.000000000000000D+00 0.000000000000000D+00 0.231113090258260D+03
 0.399612497408060D+03 0.000000000000000D+00 0.000000000000000D+00 -.399612497408060D+03
 0.112743980906494D+03 -.778891838718563D+01 -.220034753399935D+02 -.620575032527403D+02
 0.698253495226270D+02 -.671463754144788D+02 0.119371500945732D+02 0.149815937828572D+02
 0.126099757302469D+03 -.420773831696392D+02 0.114760075956248D+03 0.309962511257927D+02
 0.130478368913981D+03 0.902364702787170D+02 -.175549830426709D+02 0.160796583440904D+02
 0.191578131020749D+03 0.267762066925866D+02 -.871387676681566D+02 -.168499407149800D+03
-.111864126435D-06 0.000000000000D+00 0.000000000000D+00 0.623609418325D-07 0.000000000000D+00  7 1 21 23 -11 11 23 1 2 0.60366435D-01 0.33801058D-01 0.63807190D+05 0.63807190D+05 0.63807190D+05 0.11380954D+01  1  2 13  4  7  2       -1 -.930508694852D-04 0.100000000000D+01
0.196112364348D-06 0.000000000000D+00 0.000000000000D+00 0.623609418325D-07 0.486377367320D-11  7 1 21 23 -11 11 23 1 2 0.64953774D-01 0.33653675D-01 0.63807190D+05 0.63807190D+05 0.63807190D+05 0.11380954D+01  1  2  1  4  7  2       -1 0.149246002947D-03 0.100000000000D+01
  </mgrwgt>
  </event>
  <event>
  8     66 0.25924217E-05 0.17256203E+03 0.75467711E-02 0.10689753E+00
        1 -1    0    0  501    0 0.00000000E+00 0.00000000E+00 0.88598307E+02 0.88598885E+02 0.32000000E+00 0.0000E+00 0.9000E+01
       -1 -1    0    0    0  501 0.00000000E+00 0.00000000E+00 -.77669590E+03 0.77669596E+03 0.32000000E+00 0.0000E+00 0.9000E+01
       25  2    1    2    0    0 0.22191744E+02 -.98402750E+02 -.23711986E+03 0.39426222E+03 0.29839788E+03 0.0000E+00 0.0000E+00
       23  2    3    3    0    0 0.83007962E+02 -.55738251E+02 -.24382593E+03 0.27645265E+03 0.83533872E+02 0.0000E+00 0.0000E+00
       23  1    1    2    0    0 -.22191744E+02 0.98402750E+02 -.45097773E+03 0.47103263E+03 0.91188000E+02 0.0000E+00 0.9000E+01
      -11  1    4    4    0    0 0.79891601E+02 -.66921094E+01 -.16709339E+03 0.18533120E+03 0.51099893E-03 0.0000E+00 0.9000E+01
       11  1    4    4    0    0 0.31163608E+01 -.49046141E+02 -.76732536E+02 0.91121445E+02 0.51099893E-03 0.0000E+00 0.9000E+01
       23  1    3    3    0    0 -.60816218E+02 -.42664499E+02 0.67060710E+01 0.11780957E+03 0.91188000E+02 0.0000E+00 0.9000E+01
#aMCatNLO 1  0  0  2  2 0.17541896D+01 0.00000000D+00  -5  7  0 0.00000000D+00 0.00000000D+00 0.00000000D+00 0.00000000D+00 0.00000000D+00
  <mgrwgt>
 0.8447485502D-03   10    2    0
 0.262324646493126D+03 0.000000000000000D+00 0.000000000000000D+00 0.262324646493126D+03
 0.262324646493126D+03 0.000000000000000D+00 0.000000000000000D+00 -.262324646493126D+03
 0.185391309760899D+03 -.221917443171775D+02 0.984027495084395D+02 -.126012347665624D+03
 0.865141216051355D+02 0.798916010164140D+02 -.669210938462946D+01 -.325152425198772D+02
 0.496473440133070D+02 0.311636080890420D+01 -.490461413789602D+02 -.704436503309038D+01
 0.203096517606910D+03 -.608162175081407D+02 -.426644987448499D+02 0.165571955218591D+03
 0.000000000000000D+00 -.000000000000000D+00 0.000000000000000D+00 -.000000000000000D+00
 0.262810569889879D+03 0.000000000000000D+00 0.000000000000000D+00 0.262810569889879D+03
 0.263914066148825D+03 0.000000000000000D+00 0.000000000000000D+00 -.263914066148825D+03
 0.185169970631095D+03 -.216475285613765D+02 0.981067756197445D+02 -.126012347665624D+03
 0.867599577764820D+02 0.801460757526078D+02 -.683050647520079D+01 -.325152425198772D+02
 0.497351233543643D+02 0.326231643744328D+01 -.491255199241331D+02 -.704436503309038D+01
 0.202987173823795D+03 -.602198326326982D+02 -.429888450153541D+02 0.165571955218591D+03
 0.207241045296777D+01 -.154103099597635D+01 0.838095794943468D+00 -.110349625894623D+01
0.890848244244D-05 0.000000000000D+00 0.000000000000D+00 0.978414290162D-09 0.000000000000D+00  7 1 -1 23 -11 11 23 21 0 0.13630558D-01 0.11949173D+00 0.36656159D+05 0.36656159D+05 0.36656159D+05 0.11593466D+01  1  2  2  2  7  2       -1 0.326992744087D-03 0.100000000000D+01
-.435239931206D-06 0.000000000000D+00 -.342109182362D-07 0.978414290162D-09 0.000000000000D+00  7 1 -1 23 -11 11 23 21 2 0.13630558D-01 0.11949173D+00 0.36656159D+05 0.36656159D+05 0.36656159D+05 0.11593466D+01  1  2  3  2  7  2       -1 -.214728516190D-04 0.100000000000D+01
0.560608001391D-06 0.000000000000D+00 0.000000000000D+00 0.978414290162D-09 0.000000000000D+00  7 1 -1 23 -11 11 23 21 2 0.13630558D-01 0.11949173D+00 0.36656159D+05 0.36656159D+05 0.36656159D+05 0.11593466D+01  1  2 15  2  7  2       -1 0.276579687827D-04 0.100000000000D+01
-.341730627504D-03 0.000000000000D+00 0.000000000000D+00 0.978414290162D-09 0.000000000000D+00  7 1 -1 23 -11 11 23 21 2 0.13630558D-01 0.11949173D+00 0.36656159D+05 0.36656159D+05 0.36656159D+05 0.11593466D+01  1  2  4  2  7  2       -1 -.168595078988D-01 0.100000000000D+01
-.153103258839D-02 0.000000000000D+00 -.143580014066D-03 0.978414290162D-09 0.000000000000D+00  7 1 -1 23 -11 11 23 21 2 0.13630558D-01 0.12036087D+00 0.36656159D+05 0.36656159D+05 0.36656159D+05 0.11593466D+01  1  2  5  2  7  2       -1 -.742346612718D-01 0.100000000000D+01
0.153203670306D-02 0.000000000000D+00 0.143576243413D-03 0.978414290162D-09 0.000000000000D+00  7 1 -1 23 -11 11 23 21 2 0.13630558D-01 0.11949173D+00 0.36656159D+05 0.36656159D+05 0.36656159D+05 0.11593466D+01  1  2  6  2  7  2       -1 0.755840501778D-01 0.100000000000D+01
0.341738210112D-03 0.000000000000D+00 0.000000000000D+00 0.978414290162D-09 0.227801003992D-08  7 1 -1 23 -11 11 23 21 2 0.13655807D-01 0.12021572D+00 0.36966450D+05 0.36966450D+05 0.36966450D+05 0.11590142D+01  1  2 11  2  7  2       -1 0.165666177537D-01 0.100000000000D+01
0.239224735469D-09 0.000000000000D+00 0.000000000000D+00 0.978414290162D-09 0.000000000000D+00  7 1 21 23 -11 11 23 1 2 0.13630558D-01 0.12032596D+00 0.36966450D+05 0.36966450D+05 0.36966450D+05 0.11590142D+01  1  2 12  4  7  2       -1 0.811333017803D-07 0.100000000000D+01
-.205525745068D-05 0.000000000000D+00 -.193004563630D-06 0.978414290162D-09 0.000000000000D+00  7 1 21 23 -11 11 23 1 2 0.13630558D-01 0.12036087D+00 0.36656159D+05 0.36656159D+05 0.36656159D+05 0.11593466D+01  1  2  5  4  7  2       -1 -.697158873917D-03 0.100000000000D+01
0.448594735645D-06 0.000000000000D+00 0.000000000000D+00 0.978414290162D-09 0.255675458507D-11  7 1 21 23 -11 11 23 1 2 0.13655807D-01 0.12021572D+00 0.36966450D+05 0.36966450D+05 0.36966450D+05 0.11590142D+01  1  2 11  4  7  2       -1 0.152149668702D-03 0.100000000000D+01
  </mgrwgt>
  </event>
  <event>
  8     66 0.25924217E-05 0.46257472E+03 0.75467711E-02 0.91223011E-01
        1 -1    0    0  501    0 0.00000000E+00 0.00000000E+00 0.10262280E+04 0.10262280E+04 0.32000000E+00 0.0000E+00 0.9000E+01
       -1 -1    0    0    0  501 0.00000000E+00 0.00000000E+00 -.48202237E+03 0.48202248E+03 0.32000000E+00 0.0000E+00 0.9000E+01
       25  2    1    2    0    0 0.33062361E+03 -.51675259E+03 -.48463131E+00 0.68281249E+03 0.29981235E+03 0.0000E+00 0.0000E+00
       23  2    3    3    0    0 0.34153003E+03 -.41237573E+03 0.11649241E+02 0.54325619E+03 0.91077287E+02 0.0000E+00 0.0000E+00
       23  1    1    2    0    0 -.33062361E+03 0.51675259E+03 0.54469023E+03 0.82543801E+03 0.91188000E+02 0.0000E+00 0.9000E+01
      -13  1    4    4    0    0 0.12210128E+03 -.11454824E+03 0.40338337E+02 0.17221270E+03 0.10565837E+00 0.0000E+00 0.9000E+01
       13  1    4    4    0    0 0.21942875E+03 -.29782750E+03 -.28689096E+02 0.37104349E+03 0.10565837E+00 0.0000E+00 0.9000E+01
       23  1    3    3    0    0 -.10906421E+02 -.10437686E+03 -.12133873E+02 0.13955630E+03 0.91188000E+02 0.0000E+00 0.9000E+01
#aMCatNLO 1  0  0  2  1 0.67499720D+02 0.00000000D+00  -5  7  0 0.00000000D+00 0.00000000D+00 0.00000000D+00 0.00000000D+00 0.00000000D+00
  <mgrwgt>
 0.3679281449D-03    9    2    0
 0.703324219778651D+03 0.000000000000000D+00 0.000000000000000D+00 0.703324219778651D+03
 0.703324219778651D+03 0.000000000000000D+00 0.000000000000000D+00 -.703324219778651D+03
 0.674328988728202D+03 -.330623609246541D+03 0.516752592860427D+03 0.264686834723634D+03
 0.169045140027943D+03 0.122101146516312D+03 -.114547989092535D+03 -.233736514333007D+02
 0.408943508837574D+03 0.219428883821258D+03 -.297827743888357D+03 -.174311196816830D+03
 0.154330801963583D+03 -.109064210910292D+02 -.104376859879535D+03 -.670019864735037D+02
 0.000000000000000D+00 -.000000000000000D+00 0.000000000000000D+00 -.000000000000000D+00
 0.724840565485441D+03 0.000000000000000D+00 0.000000000000000D+00 0.724840565485441D+03
 0.759141507740483D+03 0.000000000000000D+00 0.000000000000000D+00 -.759141507740483D+03
 0.646217743532919D+03 -.308740852018149D+03 0.493864441453187D+03 0.264686834723634D+03
 0.177261707975858D+03 0.127839791348988D+03 -.120550293575090D+03 -.233736514333007D+02
 0.427020596016880D+03 0.233281630650487D+03 -.312316949408683D+03 -.174311196816830D+03
 0.157766988490281D+03 -.573465396369284D+01 -.109786241696369D+03 -.670019864735037D+02
 0.757150372099857D+02 -.466459160176337D+02 0.487890432269546D+02 -.343009422550421D+02
0.669869245779D-04 0.000000000000D+00 0.000000000000D+00 0.305986260614D-05 0.000000000000D+00  7 1 -1 23 -13 13 23 21 0 0.15788124D+00 0.74157300D-01 0.42028784D+06 0.42028784D+06 0.42028784D+06 0.10738821D+01  1  2  2  2  7  2       -1 0.218071331001D-03 0.100000000000D+01
-.369146278064D-05 0.000000000000D+00 -.257247428441D-06 0.305986260614D-05 0.000000000000D+00  7 1 -1 23 -13 13 23 21 2 0.15788124D+00 0.74157300D-01 0.42028784D+06 0.42028784D+06 0.42028784D+06 0.10738821D+01  1  2  3  2  7  2       -1 -.138586273293D-04 0.100000000000D+01
0.417653648599D-05 0.000000000000D+00 0.000000000000D+00 0.305986260614D-05 0.000000000000D+00  7 1 -1 23 -13 13 23 21 2 0.15788124D+00 0.74157300D-01 0.42028784D+06 0.42028784D+06 0.42028784D+06 0.10738821D+01  1  2 15  2  7  2       -1 0.156797091360D-04 0.100000000000D+01
0.175734025511D-03 0.000000000000D+00 0.000000000000D+00 0.305986260614D-05 0.000000000000D+00  7 1 -1 23 -13 13 23 21 2 0.15788124D+00 0.81112004D-01 0.46607472D+06 0.46607472D+06 0.46607472D+06 0.10706737D+01  1  2 12  2  7  2       -1 0.543767300467D-03 0.100000000000D+01
-.170841628939D-03 0.000000000000D+00 0.000000000000D+00 0.305986260614D-05 0.000000000000D+00  7 1 -1 23 -13 13 23 21 2 0.15788124D+00 0.74157300D-01 0.42028784D+06 0.42028784D+06 0.42028784D+06 0.10738821D+01  1  2  4  2  7  2       -1 -.641380018842D-03 0.100000000000D+01
-.479501635797D-03 0.000000000000D+00 -.868806956311D-04 0.305986260614D-05 0.000000000000D+00  7 1 -1 23 -13 13 23 21 2 0.15788124D+00 0.81925657D-01 0.42028784D+06 0.42028784D+06 0.42028784D+06 0.10738821D+01  1  2  5  2  7  2       -1 -.146925750131D-02 0.100000000000D+01
0.486171781749D-03 0.000000000000D+00 0.864513311181D-04 0.305986260614D-05 0.000000000000D+00  7 1 -1 23 -13 13 23 21 2 0.15788124D+00 0.74157300D-01 0.42028784D+06 0.42028784D+06 0.42028784D+06 0.10738821D+01  1  2  6  2  7  2       -1 0.182520424603D-02 0.100000000000D+01
0.259525399908D-05 0.000000000000D+00 0.000000000000D+00 0.305986260614D-05 0.000000000000D+00  7 1 21 23 -13 13 23 1 2 0.15788124D+00 0.81112004D-01 0.46607472D+06 0.46607472D+06 0.46607472D+06 0.10706737D+01  1  2 12  4  7  2       -1 0.595886163103D-04 0.100000000000D+01
-.747834117671D-05 0.000000000000D+00 -.140655261843D-05 0.305986260614D-05 0.000000000000D+00  7 1 21 23 -13 13 23 1 2 0.15788124D+00 0.81925657D-01 0.42028784D+06 0.42028784D+06 0.42028784D+06 0.10738821D+01  1  2  5  4  7  2       -1 -.169886910592D-03 0.100000000000D+01
  </mgrwgt>
  </event>
  <event>
  8     66 0.25924217E-05 0.12182577E+04 0.75467711E-02 0.81211038E-01
        1 -1    0    0  501    0 0.00000000E+00 0.00000000E+00 0.25654583E+04 0.25654583E+04 0.32000000E+00 0.0000E+00 0.9000E+01
       -1 -1    0    0    0  501 0.00000000E+00 0.00000000E+00 -.61555720E+03 0.61555729E+03 0.32000000E+00 0.0000E+00 0.9000E+01
       25  2    1    2    0    0 -.61000428E+03 -.10474467E+04 0.13003057E+04 0.18027779E+04 0.29993896E+03 0.0000E+00 0.0000E+00
       23  2    3    3    0    0 -.98246844E+02 -.17016186E+03 0.33105874E+03 0.39590928E+03 0.92394604E+02 0.0000E+00 0.0000E+00
       23  1    1    2    0    0 0.61000428E+03 0.10474467E+04 0.64959544E+03 0.13782378E+04 0.91188000E+02 0.0000E+00 0.9000E+01
      -11  1    4    4    0    0 -.75440754E+02 -.87709288E+02 0.26043840E+03 0.28497787E+03 0.51099893E-03 0.0000E+00 0.9000E+01
       11  1    4    4    0    0 -.22806090E+02 -.82452570E+02 0.70620348E+02 0.11093141E+03 0.51099893E-03 0.0000E+00 0.9000E+01
       23  1    3    3    0    0 -.51175744E+03 -.87728485E+03 0.96924694E+03 0.14068686E+04 0.91188000E+02 0.0000E+00 0.9000E+01
#aMCatNLO 1  0  0  1  1 0.12581758D+04 0.00000000D+00  -5  7  0 0.00000000D+00 0.00000000D+00 0.00000000D+00 0.00000000D+00 0.00000000D+00
  <mgrwgt>
 0.5333558149D-03    6    2    0
 0.125665688282127D+04 0.000000000000000D+00 0.000000000000000D+00 0.125665688282127D+04
 0.125665688282127D+04 0.000000000000000D+00 0.000000000000000D+00 -.125665688282127D+04
 0.124041376025277D+04 0.610004279049193D+03 0.104744670896670D+04 -.247105679208170D+03
 0.158631180547131D+03 -.754407539043916D+02 -.877092884798473D+02 0.108533979962371D+03
 0.856128091449572D+02 -.228060898567264D+02 -.824525699738306D+02 0.331799033276655D+01
 0.102865601569767D+04 -.511757435288075D+03 -.877284850513021D+03 0.135253708913033D+03
 0.000000000000000D+00 -.000000000000000D+00 -.000000000000000D+00 0.000000000000000D+00
 0.212994402424827D+04 0.000000000000000D+00 0.000000000000000D+00 0.212994402424827D+04
 0.195147607906572D+04 0.000000000000000D+00 0.000000000000000D+00 -.195147607906572D+04
 0.179164350345132D+04 0.131194195265369D+04 0.119139342296556D+04 -.247105679208170D+03
 0.131581276455564D+03 -.825499875455159D+01 -.739314716664404D+02 0.108533979962371D+03
 0.762651434399393D+02 0.146695326539410D+02 -.747674250979738D+02 0.331799033276655D+01
 0.811159894129360D+03 -.858300904902206D+02 -.789939714340065D+03 0.135253708913033D+03
 0.127077028583781D+04 -.123252639606286D+04 -.252754811861085D+03 0.178467945182548D+03
0.249872817685D-02 0.000000000000D+00 0.000000000000D+00 0.741806541860D-05 0.000000000000D+00  7 1 -1 23 -11 11 23 21 0 0.39468590D+00 0.94701116D-01 0.14841517D+07 0.14841517D+07 0.14841517D+07 0.10366364D+01  1  2  2  1  7  1        1 0.386132844126D-03 0.100000000000D+01
-.138655683888D-03 0.000000000000D+00 -.959577412934D-05 0.741806541860D-05 0.000000000000D+00  7 1 -1 23 -11 11 23 21 2 0.39468590D+00 0.94701116D-01 0.14841517D+07 0.14841517D+07 0.14841517D+07 0.10366364D+01  1  2  3  1  7  1        1 -.230254618315D-04 0.100000000000D+01
0.154708204720D-03 0.000000000000D+00 0.000000000000D+00 0.741806541860D-05 0.000000000000D+00  7 1 -1 23 -11 11 23 21 2 0.39468590D+00 0.94701116D-01 0.14841517D+07 0.14841517D+07 0.14841517D+07 0.10366364D+01  1  2 15  1  7  1        1 0.256911780527D-04 0.100000000000D+01
-.625778918800D-03 0.000000000000D+00 -.545227754819D-03 0.741806541860D-05 0.000000000000D+00  7 1 -1 23 -11 11 23 21 2 0.72668260D+00 0.94701116D-01 0.14841517D+07 0.14841517D+07 0.14841517D+07 0.10366364D+01  1  2  5  1  7  1        1 -.121050525542D-05 0.100000000000D+01
0.877796406321D-03 0.000000000000D+00 0.457348154625D-03 0.741806541860D-05 0.000000000000D+00  7 1 -1 23 -11 11 23 21 2 0.39468590D+00 0.94701116D-01 0.14841517D+07 0.14841517D+07 0.14841517D+07 0.10366364D+01  1  2  6  1  7  1        1 0.145768763911D-03 0.100000000000D+01
-.117612372911D-04 0.000000000000D+00 -.363346053513D-04 0.741806541860D-05 0.000000000000D+00  7 21 -1 23 -11 11 23 -1 2 0.72668260D+00 0.94701116D-01 0.14841517D+07 0.14841517D+07 0.14841517D+07 0.10366364D+01  1  2  5  3  7  1        1 -.100410472461D-08 0.100000000000D+01
  </mgrwgt>
  </event>
  <event>
  8     66 0.25924217E-05 0.90886943E+02 0.75467711E-02 0.10371945E+00
        1 -1    0    0  501    0 0.00000000E+00 0.00000000E+00 0.15684465E+03 0.15684497E+03 0.32000000E+00 0.0000E+00 0.9000E+01
       -1 -1    0    0    0  501 0.00000000E+00 0.00000000E+00 -.58478507E+03 0.58478515E+03 0.32000000E+00 0.0000E+00 0.9000E+01
       25  2    1    2    0    0 0.69322470E+02 -.27573691E+02 -.13314164E+02 0.31058942E+03 0.30120193E+03 0.0000E+00 0.0000E+00
       23  2    3    3    0    0 -.53380717E+02 0.34961116E+02 -.75831811E+02 0.13398143E+03 0.90159739E+02 0.0000E+00 0.0000E+00
       23  1    1    2    0    0 -.69322470E+02 0.27573691E+02 -.41462625E+03 0.43104071E+03 0.91188000E+02 0.0000E+00 0.9000E+01
      -11  1    4    4    0    0 0.24798549E+02 0.16851618E+02 -.16895408E+02 0.34415111E+02 0.51099893E-03 0.0000E+00 0.9000E+01
       11  1    4    4    0    0 -.78179266E+02 0.18109498E+02 -.58936403E+02 0.99566315E+02 0.51099893E-03 0.0000E+00 0.9000E+01
       23  1    3    3    0    0 0.12270319E+03 -.62534807E+02 0.62517646E+02 0.17660799E+03 0.91188000E+02 0.0000E+00 0.9000E+01
#aMCatNLO 1  0  0  2  1 0.81010005D+02 0.00000000D+00  -5  7  0 0.00000000D+00 0.00000000D+00 0.00000000D+00 0.00000000D+00 0.00000000D+00
  <mgrwgt>
 0.3088140734D-03    9    2    0
 0.302854025498050D+03 0.000000000000000D+00 0.000000000000000D+00 0.302854025498050D+03
 0.302854025498050D+03 0.000000000000000D+00 0.000000000000000D+00 -.302854025498050D+03
 0.234828387607371D+03 -.693224704292744D+02 0.275736909872451D+02 -.203133470755560D+03
 0.302011098723056D+02 0.247985490178781D+02 0.168516184140180D+02 0.362794169678948D+01
 0.802698756900485D+02 -.781792657810186D+02 0.181094980063500D+02 -.181698299240637D+01
 0.260408677826374D+03 0.122703187192415D+03 -.625348074076130D+02 0.201322512051177D+03
 0.000000000000000D+00 -.000000000000000D+00 -.000000000000000D+00 -.000000000000000D+00
 0.323061115543525D+03 0.000000000000000D+00 0.000000000000000D+00 0.323061115543525D+03
 0.399246513303638D+03 0.000000000000000D+00 0.000000000000000D+00 -.399246513303638D+03
 0.238789162369434D+03 -.633655056623117D+02 0.585373254603891D+02 -.203133470755560D+03
 0.333098353451370D+02 0.255973632995603D+02 0.210037654213514D+02 0.362794169678948D+01
 0.813876675180729D+02 -.761460043673491D+02 0.286781626978673D+02 -.181698299240637D+01
 0.257614688015859D+03 0.129218669861790D+03 -.286680595447600D+02 0.201322512051177D+03
 0.111206275598660D+03 -.153045231316892D+02 -.795511940348477D+02 -.761853977601132D+02
0.865471533924D-05 0.000000000000D+00 0.000000000000D+00 0.867444029363D-07 0.000000000000D+00  7 1 -1 23 -11 11 23 21 0 0.24129978D-01 0.89966965D-01 0.38655981D+05 0.38655981D+05 0.38655981D+05 0.11572568D+01  1  2  2  2  7  2       -1 0.285020557823D-03 0.100000000000D+01
-.371705002679D-06 0.000000000000D+00 -.332363857416D-07 0.867444029363D-07 0.000000000000D+00  7 1 -1 23 -11 11 23 21 2 0.24129978D-01 0.89966965D-01 0.38655981D+05 0.38655981D+05 0.38655981D+05 0.11572568D+01  1  2  3  2  7  2       -1 -.163938635045D-04 0.100000000000D+01
0.531285305833D-06 0.000000000000D+00 0.000000000000D+00 0.867444029363D-07 0.000000000000D+00  7 1 -1 23 -11 11 23 21 2 0.24129978D-01 0.89966965D-01 0.38655981D+05 0.38655981D+05 0.38655981D+05 0.11572568D+01  1  2 15  2  7  2       -1 0.234320730767D-04 0.100000000000D+01
0.890096152056D-05 0.000000000000D+00 0.000000000000D+00 0.867444029363D-07 0.000000000000D+00  7 1 -1 23 -11 11 23 21 2 0.24129978D-01 0.12088906D+00 0.58020176D+05 0.58020176D+05 0.58020176D+05 0.11416554D+01  1  2 12  2  7  2       -1 0.195943005881D-03 0.100000000000D+01
-.113284691048D-04 0.000000000000D+00 0.000000000000D+00 0.867444029363D-07 0.000000000000D+00  7 1 -1 23 -11 11 23 21 2 0.24129978D-01 0.89966965D-01 0.38655981D+05 0.38655981D+05 0.38655981D+05 0.11572568D+01  1  2  4  2  7  2       -1 -.499636472148D-03 0.100000000000D+01
-.135099057143D-04 0.000000000000D+00 -.403054025455D-05 0.867444029363D-07 0.000000000000D+00  7 1 -1 23 -11 11 23 21 2 0.24129978D-01 0.12346802D+00 0.38655981D+05 0.38655981D+05 0.38655981D+05 0.11572568D+01  1  2  5  2  7  2       -1 -.293107026512D-03 0.100000000000D+01
0.142592041808D-04 0.000000000000D+00 0.383671560201D-05 0.867444029363D-07 0.000000000000D+00  7 1 -1 23 -11 11 23 21 2 0.24129978D-01 0.89966965D-01 0.38655981D+05 0.38655981D+05 0.38655981D+05 0.11572568D+01  1  2  6  2  7  2       -1 0.628895078993D-03 0.100000000000D+01
0.340272338059D-06 0.000000000000D+00 0.000000000000D+00 0.867444029363D-07 0.000000000000D+00  7 1 21 23 -11 11 23 1 2 0.24129978D-01 0.12088906D+00 0.58020176D+05 0.58020176D+05 0.58020176D+05 0.11416554D+01  1  2 12  4  7  2       -1 0.515551959093D-04 0.100000000000D+01
-.444708903046D-06 0.000000000000D+00 -.161952434763D-06 0.867444029363D-07 0.000000000000D+00  7 1 21 23 -11 11 23 1 2 0.24129978D-01 0.12346802D+00 0.38655981D+05 0.38655981D+05 0.38655981D+05 0.11572568D+01  1  2  5  4  7  2       -1 -.668944761331D-04 0.100000000000D+01
  </mgrwgt>
  </event>
  <event>
  8     66 0.25924217E-05 0.41211083E+03 0.75467711E-02 0.95156548E-01
        1 -1    0    0  501    0 0.00000000E+00 0.00000000E+00 0.59331666E+03 0.59331675E+03 0.32000000E+00 0.0000E+00 0.9000E+01
       -1 -1    0    0    0  501 0.00000000E+00 0.00000000E+00 -.70351920E+03 0.70351927E+03 0.32000000E+00 0.0000E+00 0.9000E+01
       25  2    1    2    0    0 0.17150987E+03 0.31800285E+03 0.43281248E+03 0.63826027E+03 0.29917899E+03 0.0000E+00 0.0000E+00
       23  2    3    3    0    0 0.13227100E+03 0.32594828E+03 0.38021365E+03 0.52563386E+03 0.89390337E+02 0.0000E+00 0.0000E+00
       23  1    1    2    0    0 -.17150987E+03 -.31800285E+03 -.54301502E+03 0.65857575E+03 0.91188000E+02 0.0000E+00 0.9000E+01
      -13  1    4    4    0    0 0.96059443E+02 0.25118212E+03 0.33954210E+03 0.43313822E+03 0.10565837E+00 0.0000E+00 0.9000E+01
       13  1    4    4    0    0 0.36211555E+02 0.74766164E+02 0.40671553E+02 0.92495635E+02 0.10565837E+00 0.0000E+00 0.9000E+01
       23  1    3    3    0    0 0.39238876E+02 -.79454294E+01 0.52598835E+02 0.11262641E+03 0.91188000E+02 0.0000E+00 0.9000E+01
#aMCatNLO 1  0  0  1  1 0.12424579D+03 0.00000000D+00  -5  7  0 0.00000000D+00 0.00000000D+00 0.00000000D+00 0.00000000D+00 0.00000000D+00
  <mgrwgt>
 0.5743249242D-03    4    2    0
 0.646072567602493D+03 0.000000000000000D+00 0.000000000000000D+00 0.646072567602493D+03
 0.646072567602493D+03 0.000000000000000D+00 0.000000000000000D+00 -.646072567602493D+03
 0.614654727833147D+03 -.171509874479905D+03 -.318002853159883D+03 -.488818710200113D+03
 0.463669516551732D+03 0.960595268400422D+02 0.251182364753011D+03 0.377716040855652D+03
 0.962996431931798D+02 0.362114713870988D+02 0.747659177890286D+02 0.487073727096761D+02
 0.117521247626926D+03 0.392388762527644D+02 -.794542938215734D+01 0.623952966347844D+02
 0.000000000000000D+00 -.000000000000000D+00 0.000000000000000D+00 -.000000000000000D+00
 0.661703495186399D+03 0.000000000000000D+00 0.000000000000000D+00 0.661703495186399D+03
 0.954105329625636D+03 0.000000000000000D+00 0.000000000000000D+00 -.954105329625636D+03
 0.602694215173301D+03 -.113204937782708D+03 -.321194608110523D+03 -.488818710200113D+03
 0.473710644970262D+03 0.140955356661664D+03 0.248724657134864D+03 0.377716040855652D+03
 0.998275351588986D+02 0.456049840558467D+02 0.742516939125824D+02 0.487073727096761D+02
 0.121872402608555D+03 0.507046369147974D+02 -.857309318609842D+01 0.623952966347844D+02
 0.317704026901018D+03 -.124060039849601D+03 0.679135024917522D+01 -.292401834439237D+03
0.166112100268D-03 0.000000000000D+00 0.000000000000D+00 0.440311769666D-06 0.000000000000D+00  7 1 -1 23 -13 13 23 21 0 0.91279498D-01 0.10823373D+00 0.16983534D+06 0.16983534D+06 0.16983534D+06 0.11033205D+01  1  2  2  1  7  1        1 0.599464598057D-03 0.100000000000D+01
-.696014972633D-05 0.000000000000D+00 -.637914203351D-06 0.440311769666D-06 0.000000000000D+00  7 1 -1 23 -13 13 23 21 2 0.91279498D-01 0.10823373D+00 0.16983534D+06 0.16983534D+06 0.16983534D+06 0.11033205D+01  1  2  3  1  7  1        1 -.305762510904D-04 0.100000000000D+01
0.964620255191D-05 0.000000000000D+00 0.000000000000D+00 0.440311769666D-06 0.000000000000D+00  7 1 -1 23 -13 13 23 21 2 0.91279498D-01 0.10823373D+00 0.16983534D+06 0.16983534D+06 0.16983534D+06 0.11033205D+01  1  2 15  1  7  1        1 0.423762020779D-04 0.100000000000D+01
-.840866065495D-05 0.000000000000D+00 0.000000000000D+00 0.440311769666D-06 0.000000000000D+00  7 1 -1 23 -13 13 23 21 2 0.91279498D-01 0.10823373D+00 0.16983534D+06 0.16983534D+06 0.16983534D+06 0.11033205D+01  1  2  4  1  7  1        1 -.369396248111D-04 0.100000000000D+01
  </mgrwgt>
  </event>
  <event>
  8     66 0.25924217E-05 0.23376084E+03 0.75467711E-02 0.99333721E-01
        1 -1    0    0  501    0 0.00000000E+00 0.00000000E+00 0.14226046E+03 0.14226082E+03 0.32000000E+00 0.0000E+00 0.9000E+01
       -1 -1    0    0    0  501 0.00000000E+00 0.00000000E+00 -.94516962E+03 0.94516968E+03 0.32000000E+00 0.0000E+00 0.9000E+01
       25  2    1    2    0    0 -.66228036E+02 0.14721064E+03 -.87934521E+02 0.34880941E+03 0.29644291E+03 0.0000E+00 0.0000E+00
       23  2    3    3    0    0 -.11496463E+03 0.95701597E+02 0.36253468E+02 0.17920297E+03 0.91780866E+02 0.0000E+00 0.0000E+00
       23  1    1    2    0    0 0.66228036E+02 -.14721064E+03 -.71497464E+03 0.73862109E+03 0.91188000E+02 0.0000E+00 0.9000E+01
      -13  1    4    4    0    0 -.93432591E+02 0.31035725E+02 0.48828841E+02 0.10989601E+03 0.10565837E+00 0.0000E+00 0.9000E+01
       13  1    4    4    0    0 -.21532044E+02 0.64665872E+02 -.12575373E+02 0.69306963E+02 0.10565837E+00 0.0000E+00 0.9000E+01
       23  1    3    3    0    0 0.48736599E+02 0.51509042E+02 -.12418799E+03 0.16960644E+03 0.91188000E+02 0.0000E+00 0.9000E+01
#aMCatNLO 1  0  0  1  1 0.18704116D+03 0.00000000D+00  -5  7  0 0.00000000D+00 0.00000000D+00 0.00000000D+00 0.00000000D+00 0.00000000D+00
  <mgrwgt>
 0.6394298476D-03    4    2    0
 0.366688550745740D+03 0.000000000000000D+00 0.000000000000000D+00 0.366688550745740D+03
 0.366688550745740D+03 0.000000000000000D+00 0.000000000000000D+00 -.366688550745740D+03
 0.312444186851975D+03 0.662280363552923D+02 -.147210639827084D+03 -.251493525315891D+03
 0.216409151853183D+03 -.934326858953691D+02 0.310356805122814D+02 0.192717515413963D+03
 0.889985510407403D+02 -.215319487630091D+02 0.646659168001047D+02 0.572314290772155D+02
 0.115525211745581D+03 0.487365983030859D+02 0.515090425146981D+02 0.154458082471233D+01
 0.000000000000000D+00 0.000000000000000D+00 -.000000000000000D+00 -.000000000000000D+00
 0.443148813237603D+03 0.000000000000000D+00 0.000000000000000D+00 0.443148813237603D+03
 0.513559062987944D+03 0.000000000000000D+00 0.000000000000000D+00 -.513559062987944D+03
 0.282465055692024D+03 0.527221178080054D+02 -.737742594752554D+02 -.251493525315891D+03
 0.235431550415965D+03 -.103690592958806D+03 0.868114918417221D+02 0.192717515413963D+03
 0.109061167160251D+03 -.260283966751011D+02 0.891146692450766D+02 0.572314290772155D+02
 0.129895162795978D+03 0.431649457696193D+02 0.818040567488891D+02 0.154458082471233D+01
 0.199854940161329D+03 0.338319260562826D+02 -.183955958360432D+03 -.704102497503409D+02
0.710547093535D-04 0.000000000000D+00 0.000000000000D+00 0.211505212654D-07 0.000000000000D+00  7 1 -1 23 -13 13 23 21 0 0.21886257D-01 0.14541074D+00 0.54644130D+05 0.54644130D+05 0.54644130D+05 0.11439179D+01  1  2  2  1  7  1        1 0.848037572264D-03 0.100000000000D+01
-.297464599855D-05 0.000000000000D+00 -.272868793052D-06 0.211505212654D-07 0.000000000000D+00  7 1 -1 23 -13 13 23 21 2 0.21886257D-01 0.14541074D+00 0.54644130D+05 0.54644130D+05 0.54644130D+05 0.11439179D+01  1  2  3  1  7  1        1 -.464565759042D-04 0.100000000000D+01
0.434739770260D-05 0.000000000000D+00 0.000000000000D+00 0.211505212654D-07 0.000000000000D+00  7 1 -1 23 -13 13 23 21 2 0.21886257D-01 0.14541074D+00 0.54644130D+05 0.54644130D+05 0.54644130D+05 0.11439179D+01  1  2 15  1  7  1        1 0.678955450347D-04 0.100000000000D+01
-.147300455047D-04 0.000000000000D+00 0.000000000000D+00 0.211505212654D-07 0.000000000000D+00  7 1 -1 23 -13 13 23 21 2 0.21886257D-01 0.14541074D+00 0.54644130D+05 0.54644130D+05 0.54644130D+05 0.11439179D+01  1  2  4  1  7  1        1 -.230046693757D-03 0.100000000000D+01
  </mgrwgt>
  </event>
  <event>
  8     66 0.25924217E-05 0.12697622E+03 0.75467711E-02 0.97990800E-01
        1 -1    0    0  501    0 0.00000000E+00 0.00000000E+00 0.10583241E+04 0.10583241E+04 0.32000000E+00 0.0000E+00 0.9000E+01
       -1 -1    0    0    0  501 0.00000000E+00 0.00000000E+00 -.16112693E+03 0.16112725E+03 0.32000000E+00 0.0000E+00 0.9000E+01
       25  2    1    2    0    0 -.28666315E+03 0.19184061E+02 0.80279340E+03 0.90358573E+03 0.29907548E+03 0.0000E+00 0.0000E+00
       23  2    3    3    0    0 -.19469661E+00 0.51542831E+00 0.85114271E+02 0.12525979E+03 0.91898158E+02 0.0000E+00 0.0000E+00
       23  1    1    2    0    0 0.28666315E+03 -.19184061E+02 0.94403756E+02 0.31586565E+03 0.91188000E+02 0.0000E+00 0.9000E+01
      -11  1    4    4    0    0 -.10983411E+02 -.34481250E+02 0.80611900E+02 0.88362155E+02 0.51099893E-03 0.0000E+00 0.9000E+01
       11  1    4    4    0    0 0.10788715E+02 0.34996679E+02 0.45023709E+01 0.36897632E+02 0.51099893E-03 0.0000E+00 0.9000E+01
       23  1    3    3    0    0 -.28646845E+03 0.18668633E+02 0.71767913E+03 0.77832595E+03 0.91188000E+02 0.0000E+00 0.9000E+01
#aMCatNLO 1  0  0  1  2 0.72746098D+02 0.00000000D+00  -5  7  0 0.00000000D+00 0.00000000D+00 0.00000000D+00 0.00000000D+00 0.00000000D+00
  <mgrwgt>
 0.5056203090D-03    9    2    0
 0.412946404240336D+03 0.000000000000000D+00 0.000000000000000D+00 0.412946404240336D+03
 0.412946404240336D+03 0.000000000000000D+00 0.000000000000000D+00 -.412946404240336D+03
 0.363829322179604D+03 0.286663146399171D+03 -.191840608453820D+02 -.203746746329060D+03
 0.428973150368731D+02 -.109834114413160D+02 -.344812504986077D+02 0.230344888056099D+02
 0.495891881251305D+02 0.107887148302291D+02 0.349966788107541D+02 -.334353657590057D+02
 0.369576983139066D+03 -.286468449788084D+03 0.186686325332356D+02 0.214147623282455D+03
 0.000000000000000D+00 -.000000000000000D+00 -.000000000000000D+00 0.000000000000000D+00
 0.459938843999135D+03 0.000000000000000D+00 0.000000000000000D+00 0.459938843999135D+03
 0.443690237959211D+03 0.000000000000000D+00 0.000000000000000D+00 -.443690237959211D+03
 0.388920495341689D+03 0.318337380973885D+03 -.961642281902889D+01 -.203746746329060D+03
 0.412590631738402D+02 -.744227625621303D+01 -.334116019306674D+02 0.230344888056099D+02
 0.515822315244013D+02 0.150458095563204D+02 0.362825928014163D+02 -.334353657590057D+02
 0.347328630785971D+03 -.256302468933829D+03 0.277806817871049D+02 0.214147623282455D+03
 0.745386611324445D+02 -.696384453401636D+02 -.210352498388249D+02 0.162486060399241D+02
0.119573386207D-04 0.000000000000D+00 0.000000000000D+00 0.266792892568D-06 0.000000000000D+00  7 1 -1 23 -11 11 23 21 0 0.16281912D+00 0.24788786D-01 0.11405794D+06 0.11405794D+06 0.11405794D+06 0.11170642D+01  1  2  2  1  7  1        1 0.272015482640D-03 0.100000000000D+01
-.631636982141D-06 0.000000000000D+00 -.459193287431D-07 0.266792892568D-06 0.000000000000D+00  7 1 -1 23 -11 11 23 21 2 0.16281912D+00 0.24788786D-01 0.11405794D+06 0.11405794D+06 0.11405794D+06 0.11170642D+01  1  2  3  1  7  1        1 -.179301070885D-04 0.100000000000D+01
0.749443960194D-06 0.000000000000D+00 0.000000000000D+00 0.266792892568D-06 0.000000000000D+00  7 1 -1 23 -11 11 23 21 2 0.16281912D+00 0.24788786D-01 0.11405794D+06 0.11405794D+06 0.11405794D+06 0.11170642D+01  1  2 15  1  7  1        1 0.212742617090D-04 0.100000000000D+01
0.142949559507D-04 0.000000000000D+00 0.000000000000D+00 0.266792892568D-06 0.000000000000D+00  7 1 -1 23 -11 11 23 21 2 0.18683583D+00 0.24788786D-01 0.14099674D+06 0.14099674D+06 0.14099674D+06 0.11096796D+01  1  2 12  1  7  1        1 0.307883062472D-03 0.100000000000D+01
-.130483146737D-04 0.000000000000D+00 0.000000000000D+00 0.266792892568D-06 0.000000000000D+00  7 1 -1 23 -11 11 23 21 2 0.16281912D+00 0.24788786D-01 0.11405794D+06 0.11405794D+06 0.11405794D+06 0.11170642D+01  1  2  4  1  7  1        1 -.370398957056D-03 0.100000000000D+01
-.379066506257D-04 0.000000000000D+00 -.977629184290D-05 0.266792892568D-06 0.000000000000D+00  7 1 -1 23 -11 11 23 21 2 0.19001957D+00 0.24788786D-01 0.11405794D+06 0.11405794D+06 0.11405794D+06 0.11170642D+01  1  2  5  1  7  1        1 -.804951677464D-03 0.100000000000D+01
0.390653747615D-04 0.000000000000D+00 0.966077888261D-05 0.266792892568D-06 0.000000000000D+00  7 1 -1 23 -11 11 23 21 2 0.16281912D+00 0.24788786D-01 0.11405794D+06 0.11405794D+06 0.11405794D+06 0.11170642D+01  1  2  6  1  7  1        1 0.110893816026D-02 0.100000000000D+01
0.303901459118D-06 0.000000000000D+00 0.000000000000D+00 0.266792892568D-06 0.000000000000D+00  7 21 -1 23 -11 11 23 -1 2 0.18683583D+00 0.24788786D-01 0.14099674D+06 0.14099674D+06 0.14099674D+06 0.11096796D+01  1  2 12  3  7  1        1 0.697731288652D-05 0.100000000000D+01
-.813976438764D-06 0.000000000000D+00 -.228377274208D-06 0.266792892568D-06 0.000000000000D+00  7 21 -1 23 -11 11 23 -1 2 0.19001957D+00 0.24788786D-01 0.11405794D+06 0.11405794D+06 0.11405794D+06 0.11170642D+01  1  2  5  3  7  1        1 -.181872293618D-04 0.100000000000D+01
  </mgrwgt>
  </event>
  <event>
  8     66 0.25924217E-05 0.13456163E+03 0.75467711E-02 0.10383735E+00
        3 -1    0    0  501    0 0.00000000E+00 0.00000000E+00 0.25320498E+03 0.25320547E+03 0.50000000E+00 0.0000E+00 0.9000E+01
       -3 -1    0    0    0  501 0.00000000E+00 0.00000000E+00 -.28863056E+03 0.28863099E+03 0.50000000E+00 0.0000E+00 0.9000E+01
       25  2    1    2    0    0 -.95042710E+02 -.95982136E+02 -.12860466E+03 0.35410453E+03 0.30100693E+03 0.0000E+00 0.0000E+00
       23  2    3    3    0    0 -.83095077E+02 -.75837456E+02 -.19174902E+03 0.24074221E+03 0.92374304E+02 0.0000E+00 0.0000E+00
       23  1    1    2    0    0 0.95042710E+02 0.95982136E+02 0.93179085E+02 0.18773194E+03 0.91188000E+02 0.0000E+00 0.9000E+01
      -11  1    4    4    0    0 -.96047651E+02 -.68850737E+02 -.19263896E+03 0.22599855E+03 0.51099893E-03 0.0000E+00 0.9000E+01
       11  1    4    4    0    0 0.12952575E+02 -.69867188E+01 0.88994081E+00 0.14743657E+02 0.51099893E-03 0.0000E+00 0.9000E+01
       23  1    3    3    0    0 -.11947634E+02 -.20144680E+02 0.63144359E+02 0.11336232E+03 0.91188000E+02 0.0000E+00 0.9000E+01
#aMCatNLO 1  0  0  2  1 0.73268593D+02 0.00000000D+00  -5  7  0 0.00000000D+00 0.00000000D+00 0.00000000D+00 0.00000000D+00 0.00000000D+00
  <mgrwgt>
 0.7519733303D-04    9    2    0
 0.270338576691897D+03 0.000000000000000D+00 0.000000000000000D+00 0.270338576691897D+03
 0.270338576691897D+03 0.000000000000000D+00 0.000000000000000D+00 -.270338576691897D+03
 0.194239634190600D+03 0.950427105002700D+02 0.959821355533730D+02 0.105679217360245D+03
 0.213861283312766D+03 -.960476513156501D+02 -.688507368473589D+02 -.178244419863585D+03
 0.148335798185051D+02 0.129525746546199D+02 -.698671876036767D+01 0.185786463769139D+01
 0.117742656061922D+03 -.119476338392398D+02 -.201446799456465D+02 0.707073378656491D+02
 0.000000000000000D+00 0.000000000000000D+00 0.000000000000000D+00 -.000000000000000D+00
 0.295469371037288D+03 0.000000000000000D+00 0.000000000000000D+00 0.295469371037288D+03
 0.332036264581119D+03 0.000000000000000D+00 0.000000000000000D+00 -.332036264581119D+03
 0.179830958379639D+03 0.709707364508014D+02 0.884249955244351D+02 0.105679217360245D+03
 0.231028708336101D+03 -.124676954304307D+03 -.778386017882049D+02 -.178244419863585D+03
 0.135780958884036D+02 0.111242429602748D+02 -.756070403490797D+01 0.185786463769139D+01
 0.121181217013297D+03 -.273227244951173D+02 -.249715260034439D+02 0.707073378656491D+02
 0.818866560009672D+02 0.699046993883481D+02 0.219458363021217D+02 -.365668935438314D+02
0.439639808559D-05 0.000000000000D+00 0.000000000000D+00 0.654474757128D-07 0.000000000000D+00  7 3 -3 23 -11 11 23 21 0 0.38954684D-01 0.44404773D-01 0.38028093D+05 0.38028093D+05 0.38028093D+05 0.11578999D+01  1  2  2  2  7  2       -3 0.606929611198D-04 0.100000000000D+01
-.212560976700D-06 0.000000000000D+00 -.168833262469D-07 0.654474757128D-07 0.000000000000D+00  7 3 -3 23 -11 11 23 21 2 0.38954684D-01 0.44404773D-01 0.38028093D+05 0.38028093D+05 0.38028093D+05 0.11578999D+01  1  2  3  2  7  2       -3 -.393429439643D-05 0.100000000000D+01
0.271699464116D-06 0.000000000000D+00 0.000000000000D+00 0.654474757128D-07 0.000000000000D+00  7 3 -3 23 -11 11 23 21 2 0.38954684D-01 0.44404773D-01 0.38028093D+05 0.38028093D+05 0.38028093D+05 0.11578999D+01  1  2 15  2  7  2       -3 0.502888957221D-05 0.100000000000D+01
0.363627447999D-05 0.000000000000D+00 0.000000000000D+00 0.654474757128D-07 0.000000000000D+00  7 3 -3 23 -11 11 23 21 2 0.38954684D-01 0.56241494D-01 0.57029330D+05 0.57029330D+05 0.57029330D+05 0.11423041D+01  1  2 12  2  7  2       -3 0.405173162736D-04 0.100000000000D+01
-.420684122129D-05 0.000000000000D+00 0.000000000000D+00 0.654474757128D-07 0.000000000000D+00  7 3 -3 23 -11 11 23 21 2 0.38954684D-01 0.44404773D-01 0.38028093D+05 0.38028093D+05 0.38028093D+05 0.11578999D+01  1  2  4  2  7  2       -3 -.778644890542D-04 0.100000000000D+01
-.662970946667D-05 0.000000000000D+00 -.235790364151D-05 0.654474757128D-07 0.000000000000D+00  7 3 -3 23 -11 11 23 21 2 0.38954684D-01 0.58802802D-01 0.38028093D+05 0.38028093D+05 0.38028093D+05 0.11578999D+01  1  2  5  2  7  2       -3 -.686645309736D-04 0.100000000000D+01
0.710008892453D-05 0.000000000000D+00 0.226787762512D-05 0.654474757128D-07 0.000000000000D+00  7 3 -3 23 -11 11 23 21 2 0.38954684D-01 0.44404773D-01 0.38028093D+05 0.38028093D+05 0.38028093D+05 0.11578999D+01  1  2  6  2  7  2       -3 0.131415655421D-03 0.100000000000D+01
0.118032893698D-06 0.000000000000D+00 0.000000000000D+00 0.654474757128D-07 0.000000000000D+00  7 3 21 23 -11 11 23 3 2 0.38954684D-01 0.56241494D-01 0.57029330D+05 0.57029330D+05 0.57029330D+05 0.11423041D+01  1  2 12  4  7  2       -3 0.209673155239D-04 0.100000000000D+01
-.196640371836D-06 0.000000000000D+00 -.868906060803D-07 0.654474757128D-07 0.000000000000D+00  7 3 21 23 -11 11 23 3 2 0.38954684D-01 0.58802802D-01 0.38028093D+05 0.38028093D+05 0.38028093D+05 0.11578999D+01  1  2  5  4  7  2       -3 -.329614904548D-04 0.100000000000D+01
  </mgrwgt>
  </event>
  <event>
  8     66 0.25924217E-05 0.23900718E+03 0.75467711E-02 0.10367540E+00
        1 -1    0    0  501    0 0.00000000E+00 0.00000000E+00 0.43161701E+03 0.43161713E+03 0.32000000E+00 0.0000E+00 0.9000E+01
       -1 -1    0    0    0  501 0.00000000E+00 0.00000000E+00 -.18949615E+03 0.18949642E+03 0.32000000E+00 0.0000E+00 0.9000E+01
       25  2    1    2    0    0 0.14274267E+03 -.11859987E+03 0.21428023E+03 0.41247092E+03 0.29962450E+03 0.0000E+00 0.0000E+00
       23  2    3    3    0    0 0.67026327E+02 -.12056275E+03 0.23957145E+03 0.29126154E+03 0.91710962E+02 0.0000E+00 0.0000E+00
       23  1    1    2    0    0 -.14274267E+03 0.11859987E+03 0.27840626E+02 0.20864263E+03 0.91188000E+02 0.0000E+00 0.9000E+01
      -11  1    4    4    0    0 0.30992611E+02 -.11123888E+03 0.22170409E+03 0.24997467E+03 0.51099893E-03 0.0000E+00 0.9000E+01
       11  1    4    4    0    0 0.36033716E+02 -.93238667E+01 0.17867354E+02 0.41286868E+02 0.51099893E-03 0.0000E+00 0.9000E+01
       23  1    3    3    0    0 0.75716340E+02 0.19628787E+01 -.25291216E+02 0.12120938E+03 0.91188000E+02 0.0000E+00 0.9000E+01
#aMCatNLO 1  0  0  1  1 0.53536118D+01 0.00000000D+00  -5  7  0 0.00000000D+00 0.00000000D+00 0.00000000D+00 0.00000000D+00 0.00000000D+00
  <mgrwgt>
 0.2920425948D-03    6    2    0
 0.285989307175343D+03 0.000000000000000D+00 0.000000000000000D+00 0.285989307175343D+03
 0.285989307175343D+03 0.000000000000000D+00 0.000000000000000D+00 -.285989307175343D+03
 0.214780708113942D+03 -.142742666372168D+03 0.118599867179147D+03 -.580870375899713D+02
 0.177600117776824D+03 0.309926108545245D+02 -.111238879193653D+03 0.134933952964039D+03
 0.372702298362076D+02 0.360337157580889D+02 -.932386671630746D+01 0.192532339245438D+01
 0.142327558623712D+03 0.757163397595550D+02 0.196287873081389D+01 -.787722387665225D+02
 0.000000000000000D+00 0.000000000000000D+00 0.000000000000000D+00 -.000000000000000D+00
 0.287226773946960D+03 0.000000000000000D+00 0.000000000000000D+00 0.287226773946960D+03
 0.291851337501874D+03 0.000000000000000D+00 0.000000000000000D+00 -.291851337501874D+03
 0.215765835816710D+03 -.144678481559449D+03 0.118040999654175D+03 -.580870375899713D+02
 0.177617985964298D+03 0.293954859682317D+02 -.111699967234567D+03 0.134933952964039D+03
 0.369720331097377D+02 0.356999091065786D+02 -.942023629661377D+01 0.192532339245438D+01
 0.141647813308808D+03 0.744395350898858D+02 0.159426675261501D+01 -.787722387665225D+02
 0.707444324928048D+01 0.514355139475285D+01 0.148493712439093D+01 -.462456355491324D+01
0.484122224439D-05 0.000000000000D+00 0.000000000000D+00 0.741322243658D-06 0.000000000000D+00  7 1 -1 23 -11 11 23 21 0 0.66402647D-01 0.29153284D-01 0.57124433D+05 0.57124433D+05 0.57124433D+05 0.11422413D+01  1  2  2  1  7  1        1 0.329094000458D-03 0.100000000000D+01
-.258424974390D-06 0.000000000000D+00 -.185915681416D-07 0.741322243658D-06 0.000000000000D+00  7 1 -1 23 -11 11 23 21 2 0.66402647D-01 0.29153284D-01 0.57124433D+05 0.57124433D+05 0.57124433D+05 0.11422413D+01  1  2  3  1  7  1        1 -.229200266258D-04 0.100000000000D+01
0.305268196087D-06 0.000000000000D+00 0.000000000000D+00 0.741322243658D-06 0.000000000000D+00  7 1 -1 23 -11 11 23 21 2 0.66402647D-01 0.29153284D-01 0.57124433D+05 0.57124433D+05 0.57124433D+05 0.11422413D+01  1  2 15  1  7  1        1 0.270746091737D-04 0.100000000000D+01
-.429474802679D-05 0.000000000000D+00 0.000000000000D+00 0.741322243658D-06 0.000000000000D+00  7 1 -1 23 -11 11 23 21 2 0.66402647D-01 0.29153284D-01 0.57124433D+05 0.57124433D+05 0.57124433D+05 0.11422413D+01  1  2  4  1  7  1        1 -.380906448216D-03 0.100000000000D+01
0.386560075543D-05 0.000000000000D+00 0.000000000000D+00 0.741322243658D-06 0.179768364195D-06  7 1 -1 23 -11 11 23 21 2 0.66689969D-01 0.29750850D-01 0.58395430D+05 0.58395430D+05 0.58395430D+05 0.11414129D+01  1  2 11  1  7  1        1 0.329113437410D-03 0.100000000000D+01
0.352759960858D-07 0.000000000000D+00 0.000000000000D+00 0.741322243658D-06 0.146626317644D-09  7 21 -1 23 -11 11 23 -1 2 0.66689969D-01 0.29750850D-01 0.58395430D+05 0.58395430D+05 0.58395430D+05 0.11414129D+01  1  2 11  3  7  1        1 0.105870225945D-04 0.100000000000D+01
  </mgrwgt>
  </event>
  <event>
  8     66 0.25924217E-05 0.18912947E+03 0.75467711E-02 0.10589974E+00
        1 -1    0    0  501    0 0.00000000E+00 0.00000000E+00 0.48664017E+03 0.48664027E+03 0.32000000E+00 0.0000E+00 0.9000E+01
       -1 -1    0    0    0  501 0.00000000E+00 0.00000000E+00 -.12071289E+03 0.12071332E+03 0.32000000E+00 0.0000E+00 0.9000E+01
       25  2    1    2    0    0 -.85390301E+02 0.96441644E+02 0.25933722E+03 0.41690889E+03 0.29994121E+03 0.0000E+00 0.0000E+00
       23  2    3    3    0    0 -.10100799E+03 0.36186718E+02 0.66437481E+01 0.14114846E+03 0.91469435E+02 0.0000E+00 0.0000E+00
       23  1    1    2    0    0 0.85390301E+02 -.96441644E+02 0.10659005E+03 0.19044470E+03 0.91188000E+02 0.0000E+00 0.9000E+01
      -13  1    4    4    0    0 -.54860318E+02 0.32430957E+02 -.40148164E+02 0.75321363E+02 0.10565837E+00 0.0000E+00 0.9000E+01
       13  1    4    4    0    0 -.46147668E+02 0.37557618E+01 0.46791912E+02 0.65827101E+02 0.10565837E+00 0.0000E+00 0.9000E+01
       23  1    3    3    0    0 0.15617686E+02 0.60254926E+02 0.25269347E+03 0.27576042E+03 0.91188000E+02 0.0000E+00 0.9000E+01
#aMCatNLO 1  0  0  2  1 0.35424523D+02 0.00000000D+00  -5  7  0 0.00000000D+00 0.00000000D+00 0.00000000D+00 0.00000000D+00 0.00000000D+00
  <mgrwgt>
 0.2427073367D-03    4    2    0
 0.242371416158987D+03 0.000000000000000D+00 0.000000000000000D+00 0.242371416158987D+03
 0.242371416158987D+03 0.000000000000000D+00 0.000000000000000D+00 -.242371416158987D+03
 0.158152039308301D+03 0.853903021768447D+02 -.964416457940696D+02 -.102137869594380D+02
 0.124680663288919D+03 -.548603299695312D+02 0.324309951296387D+02 -.107162691962736D+03
 0.471545682336243D+02 -.461476563984028D+02 0.375572399430563D+01 0.893541557584635D+01
 0.154755561487131D+03 0.156176841910894D+02 0.602549266701253D+02 0.108441063346328D+03
 0.000000000000000D+00 -.000000000000000D+00 -.000000000000000D+00 0.000000000000000D+00
 0.299668323352187D+03 0.000000000000000D+00 0.000000000000000D+00 0.299668323352187D+03
 0.248555633897778D+03 0.000000000000000D+00 0.000000000000000D+00 -.248555633897778D+03
 0.164123222665299D+03 0.970982299951635D+02 -.953351622529522D+02 -.102137869594380D+02
 0.121244788630258D+03 -.459261119903895D+02 0.332753431047952D+02 -.107162691962736D+03
 0.439486755778356D+02 -.428379695300181D+02 0.406851325154637D+01 0.893541557584635D+01
 0.156718816241457D+03 0.269332270266447D+02 0.613243270030143D+02 0.108441063346328D+03
 0.621884541351156D+02 -.352673755014006D+02 -.333302110640369D+01 0.511126894544090D+02
0.240213648881D-05 0.000000000000D+00 0.000000000000D+00 0.263962042630D-06 0.000000000000D+00  7 1 -1 23 -13 13 23 21 0 0.74867759D-01 0.18571255D-01 0.35769957D+05 0.35769957D+05 0.35769957D+05 0.11603133D+01  1  2  2  2  7  2       -1 0.287196865353D-03 0.100000000000D+01
-.123469318140D-06 0.000000000000D+00 -.922483661408D-08 0.263962042630D-06 0.000000000000D+00  7 1 -1 23 -13 13 23 21 2 0.74867759D-01 0.18571255D-01 0.35769957D+05 0.35769957D+05 0.35769957D+05 0.11603133D+01  1  2  3  2  7  2       -1 -.198742904943D-04 0.100000000000D+01
0.145519396866D-06 0.000000000000D+00 0.000000000000D+00 0.263962042630D-06 0.000000000000D+00  7 1 -1 23 -13 13 23 21 2 0.74867759D-01 0.18571255D-01 0.35769957D+05 0.35769957D+05 0.35769957D+05 0.11603133D+01  1  2 15  2  7  2       -1 0.234235906496D-04 0.100000000000D+01
-.298441920892D-06 0.000000000000D+00 0.000000000000D+00 0.263962042630D-06 0.000000000000D+00  7 1 -1 23 -13 13 23 21 2 0.74867759D-01 0.18571255D-01 0.35769957D+05 0.35769957D+05 0.35769957D+05 0.11603133D+01  1  2  4  2  7  2       -1 -.480388287621D-04 0.100000000000D+01
  </mgrwgt>
  </event>
  <event>
  8     66 0.25924217E-05 0.21783073E+03 0.75467711E-02 0.90523202E-01
        1 -1    0    0  501    0 0.00000000E+00 0.00000000E+00 0.47676035E+03 0.47676046E+03 0.32000000E+00 0.0000E+00 0.9000E+01
       -1 -1    0    0    0  501 0.00000000E+00 0.00000000E+00 -.11318371E+03 0.11318416E+03 0.32000000E+00 0.0000E+00 0.9000E+01
       25  2    1    2    0    0 0.52763203E+02 -.78415769E+02 0.16892626E+03 0.35513191E+03 0.29774083E+03 0.0000E+00 0.0000E+00
       23  2    3    3    0    0 -.60279455E+02 -.11650569E+03 0.67848937E+02 0.17413091E+03 0.92254575E+02 0.0000E+00 0.0000E+00
       23  1    1    2    0    0 -.52763203E+02 0.78415769E+02 0.19465038E+03 0.23481272E+03 0.91188000E+02 0.0000E+00 0.9000E+01
      -11  1    4    4    0    0 0.66661575E+01 0.94346533E+01 -.65343655E+01 0.13272086E+02 0.51099893E-03 0.0000E+00 0.9000E+01
       11  1    4    4    0    0 -.66945613E+02 -.12594034E+03 0.74383302E+02 0.16085882E+03 0.51099893E-03 0.0000E+00 0.9000E+01
       23  1    3    3    0    0 0.11304266E+03 0.38089922E+02 0.10107732E+03 0.18100100E+03 0.91188000E+02 0.0000E+00 0.9000E+01
#aMCatNLO 1  0  0  1  1 0.66592894D+03 0.00000000D+00  -5  7  0 0.00000000D+00 0.00000000D+00 0.00000000D+00 0.00000000D+00 0.00000000D+00
  <mgrwgt>
 0.6260057563D-03    5    2    0
 0.232296514949184D+03 0.000000000000000D+00 0.000000000000000D+00 0.232296514949184D+03
 0.232296514949184D+03 0.000000000000000D+00 0.000000000000000D+00 -.232296514949184D+03
 0.145839825796121D+03 -.527632031699436D+02 0.784157691053647D+02 0.634114736550444D+02
 0.219666198827500D+02 0.666615746118849D+01 0.943465324462326D+01 -.186837376327540D+02
 0.146049901900426D+03 -.669456126023887D+02 -.125940344042527D+03 -.314306942472603D+02
 0.150736682319072D+03 0.113042658311144D+03 0.380899216925395D+02 -.132970417750301D+02
 0.000000000000000D+00 0.000000000000000D+00 0.000000000000000D+00 0.000000000000000D+00
 0.203189365337849D+04 0.000000000000000D+00 0.000000000000000D+00 0.203189365337849D+04
 0.474175786650784D+03 0.000000000000000D+00 0.000000000000000D+00 -.474175786650784D+03
 0.285298127363896D+03 -.262782353695138D+03 -.204688267489395D+01 0.634114736550444D+02
 0.246307728624931D+02 -.160327136758014D+02 0.738249323679481D+00 -.186837376327540D+02
 0.409442656964293D+03 -.337541310524012D+03 -.229611115782420D+03 -.314306942472603D+02
 0.926062963257252D+02 -.549639696493490D+01 -.732482597779621D+01 -.132970417750301D+02
 0.169409158651287D+04 0.621852774859886D+03 0.238244575111431D+03 0.155771786672771D+04
0.454957458607D-05 0.000000000000D+00 0.000000000000D+00 0.108774224869D-07 0.000000000000D+00  7 1 -1 23 -11 11 23 21 0 0.73347790D-01 0.17412922D-01 0.47450226D+05 0.47450226D+05 0.47450226D+05 0.11493002D+01  1  2  2  1  7  1        1 0.619671789024D-03 0.100000000000D+01
-.251483708711D-06 0.000000000000D+00 -.174715643410D-07 0.108774224869D-07 0.000000000000D+00  7 1 -1 23 -11 11 23 21 2 0.73347790D-01 0.17412922D-01 0.47450226D+05 0.47450226D+05 0.47450226D+05 0.11493002D+01  1  2  3  1  7  1        1 -.452447078447D-04 0.100000000000D+01
0.286097308838D-06 0.000000000000D+00 0.000000000000D+00 0.108774224869D-07 0.000000000000D+00  7 1 -1 23 -11 11 23 21 2 0.73347790D-01 0.17412922D-01 0.47450226D+05 0.47450226D+05 0.47450226D+05 0.11493002D+01  1  2 15  1  7  1        1 0.514720783302D-04 0.100000000000D+01
0.131999038004D-05 0.000000000000D+00 -.322129098430D-05 0.108774224869D-07 0.000000000000D+00  7 1 -1 23 -11 11 23 21 2 0.72142777D+00 0.17412922D-01 0.47450226D+05 0.47450226D+05 0.47450226D+05 0.11493002D+01  1  2  5  1  7  1        1 0.107182976424D-06 0.100000000000D+01
-.145267822644D-06 0.000000000000D+00 -.877869284885D-06 0.108774224869D-07 0.000000000000D+00  7 21 -1 23 -11 11 23 -1 2 0.72142777D+00 0.17412922D-01 0.47450226D+05 0.47450226D+05 0.47450226D+05 0.11493002D+01  1  2  5  3  7  1        1 -.586150232138D-09 0.100000000000D+01
  </mgrwgt>
  </event>
  <event>
  8     66 0.25924217E-05 0.33005455E+03 0.75467711E-02 0.93297679E-01
        1 -1    0    0  501    0 0.00000000E+00 0.00000000E+00 0.13025777E+04 0.13025777E+04 0.32000000E+00 0.0000E+00 0.9000E+01
       -1 -1    0    0    0  501 0.00000000E+00 0.00000000E+00 -.11722756E+03 0.11722800E+03 0.32000000E+00 0.0000E+00 0.9000E+01
       25  2    1    2    0    0 0.20042436E+03 0.18103043E+03 0.34037825E+03 0.52804642E+03 0.30005621E+03 0.0000E+00 0.0000E+00
       23  2    3    3    0    0 0.21501331E+03 0.17417230E+03 0.17984022E+03 0.34271541E+03 0.92437185E+02 0.0000E+00 0.0000E+00
       23  1    1    2    0    0 -.20042436E+03 -.18103043E+03 0.84497186E+03 0.89175930E+03 0.91188000E+02 0.0000E+00 0.9000E+01
      -11  1    4    4    0    0 0.41790225E+02 0.82774677E+01 -.54430193E+00 0.42605583E+02 0.51099893E-03 0.0000E+00 0.9000E+01
       11  1    4    4    0    0 0.17322309E+03 0.16589483E+03 0.18038452E+03 0.30010983E+03 0.51099893E-03 0.0000E+00 0.9000E+01
       23  1    3    3    0    0 -.14588955E+02 0.68581303E+01 0.16053803E+03 0.18533101E+03 0.91188000E+02 0.0000E+00 0.9000E+01
#aMCatNLO 1  0  0  2  1 0.37882814D+03 0.00000000D+00  -5  7  0 0.00000000D+00 0.00000000D+00 0.00000000D+00 0.00000000D+00 0.00000000D+00
  <mgrwgt>
 0.4248344702D-03    3    2    0
 0.390766352902071D+03 0.000000000000000D+00 0.000000000000000D+00 0.390766352902071D+03
 0.390766352902071D+03 0.000000000000000D+00 0.000000000000000D+00 -.390766352902071D+03
 0.338485447554485D+03 -.200424359390468D+03 -.181030426887606D+03 0.182524539626791D+03
 0.782268451743977D+02 0.417902253414060D+02 0.827746773253024D+01 -.656086876853258D+02
 0.271618619679720D+03 0.173223089171402D+03 0.165894828835671D+03 -.127472905749481D+03
 0.932017933955401D+02 -.145889551223401D+02 0.685813031940447D+01 0.105570538080157D+02
 0.000000000000000D+00 -.000000000000000D+00 -.000000000000000D+00 0.000000000000000D+00
 0.990926739175723D+03 0.000000000000000D+00 0.000000000000000D+00 0.990926739175723D+03
 0.498703590826476D+03 0.000000000000000D+00 0.000000000000000D+00 -.498703590826476D+03
 0.252808947949598D+03 -.750155497680901D+02 -.129052596046735D+03 0.182524539626791D+03
 0.107181806074731D+03 0.811139165917202D+02 0.245758456375761D+02 -.656086876853258D+02
 0.410202103702144D+03 0.317831808525648D+03 0.225830391379825D+03 -.127472905749481D+03
 0.983139826683986D+02 0.260300084306784D+02 0.236933560331932D+02 0.105570538080157D+02
 0.621123489607327D+03 -.349960183779956D+03 -.145046997003859D+03 0.492223148349247D+03
0.165026828430D-04 0.000000000000D+00 0.000000000000D+00 0.579885698989D-06 0.000000000000D+00  7 1 -1 23 -11 11 23 21 0 0.20039660D+00 0.18035046D-01 0.10893600D+06 0.10893600D+06 0.10893600D+06 0.11186844D+01  1  2  2  2  7  2       -1 0.422139472396D-03 0.100000000000D+01
-.885034143486D-06 0.000000000000D+00 -.633746473732D-07 0.579885698989D-06 0.000000000000D+00  7 1 -1 23 -11 11 23 21 2 0.20039660D+00 0.18035046D-01 0.10893600D+06 0.10893600D+06 0.10893600D+06 0.11186844D+01  1  2  3  2  7  2       -1 -.283319587370D-04 0.100000000000D+01
0.969220525023D-06 0.000000000000D+00 0.000000000000D+00 0.579885698989D-06 0.000000000000D+00  7 1 -1 23 -11 11 23 21 2 0.20039660D+00 0.18035046D-01 0.10893600D+06 0.10893600D+06 0.10893600D+06 0.11186844D+01  1  2 15  2  7  2       -1 0.310269565576D-04 0.100000000000D+01
  </mgrwgt>
  </event>
  <event>
  9     66 0.25924217E-05 0.19201943E+03 0.75467711E-02 0.10177688E+00
        1 -1    0    0  501    0 0.00000000E+00 0.00000000E+00 0.18228156E+03 0.18228184E+03 0.32000000E+00 0.0000E+00 0.9000E+01
       -1 -1    0    0    0  502 0.00000000E+00 0.00000000E+00 -.54554277E+03 0.54554286E+03 0.32000000E+00 0.0000E+00 0.9000E+01
       25  2    1    2    0    0 0.36766313E+02 -.16267938E+03 -.17449205E+03 0.38382651E+03 0.29842750E+03 0.0000E+00 0.0000E+00
       23  2    3    3    0    0 -.59040144E+02 -.40957832E+01 0.79596219E+01 0.10826981E+03 0.90313242E+02 0.0000E+00 0.0000E+00
       23  1    1    2    0    0 -.28989604E+02 0.17416148E+02 0.99032519E+01 0.97760141E+02 0.91188000E+02 0.0000E+00 0.9000E+01
      -13  1    4    4    0    0 0.10445593E+02 0.28862526E+02 0.63626482E+01 0.31347253E+02 0.10565837E+00 0.0000E+00 0.9000E+01
       13  1    4    4    0    0 -.69485737E+02 -.32958309E+02 0.15969737E+01 0.76922554E+02 0.10565837E+00 0.0000E+00 0.9000E+01
       23  1    3    3    0    0 0.95806457E+02 -.15858360E+03 -.18245167E+03 0.27555671E+03 0.91188000E+02 0.0000E+00 0.9000E+01
       21  1    1    2  501  502 -.77767085E+01 0.14526324E+03 -.19867241E+03 0.24623805E+03 0.75000000E+00 0.0000E+00 0.9000E+01
#aMCatNLO 2  0  0  2  1 0.14547125D+03 0.00000000D+00  -5  7  0 0.00000000D+00 0.00000000D+00 0.00000000D+00 0.00000000D+00 0.00000000D+00
  <mgrwgt>
 0.5664372806D-04    2    2    0
 0.214286227942609D+03 0.000000000000000D+00 0.000000000000000D+00 0.214286227942609D+03
 0.214286227942609D+03 0.000000000000000D+00 0.000000000000000D+00 -.214286227942609D+03
 0.120085472447703D+03 -.309992891571053D+02 0.549552912780651D+02 0.460893629950050D+02
 0.472616650761818D+02 0.971379931727874D+01 0.425341714360007D+02 0.181700673870441D+02
 0.771409096776621D+02 -.708941469667225D+02 -.665211406711225D+01 0.296730391129069D+02
 0.184084408683670D+03 0.921796368065491D+02 -.908373486469535D+02 -.939324694949560D+02
 0.000000000000000D+00 -.000000000000000D+00 0.000000000000000D+00 -.000000000000000D+00
 0.260249019259253D+03 0.000000000000000D+00 0.000000000000000D+00 0.260249019259253D+03
 0.382103265527865D+03 0.000000000000000D+00 0.000000000000000D+00 -.382103265527865D+03
 0.107625284843796D+03 -.289896217676368D+02 0.174161718581371D+02 0.460893629950050D+02
 0.356695113212878D+02 0.104457106365270D+02 0.288626024181414D+02 0.181700673870441D+02
 0.824319500417517D+02 -.694858324178767D+02 -.329584015189529D+02 0.296730391129069D+02
 0.226861626366418D+03 0.958064520492488D+02 -.158583609159114D+03 -.939324694949560D+02
 0.189763912213864D+03 -.777670850026236D+01 0.145263236401788D+03 -.121854246268611D+03
-.185428878079D-06 0.000000000000D+00 0.000000000000D+00 0.119609834293D-07 0.000000000000D+00  7 1 -1 23 -13 13 23 21 2 0.23090527D-01 0.85646345D-01 0.77515119D+05 0.77515119D+05 0.77515119D+05 0.11309138D+01  1  2 13  2  7  2       -1 -.907529789954D-05 0.100000000000D+01
0.165673453513D-05 0.000000000000D+00 0.000000000000D+00 0.119609834293D-07 0.451777307020D-11  7 1 -1 23 -13 13 23 21 2 0.28043272D-01 0.83929465D-01 0.77515119D+05 0.77515119D+05 0.77515119D+05 0.11309138D+01  1  2  1  2  7  2       -1 0.657190259605D-04 0.100000000000D+01
  </mgrwgt>
  </event>
  <event>
  8     66 0.25924217E-05 0.32901434E+03 0.75467711E-02 0.94570682E-01
        1 -1    0    0  501    0 0.00000000E+00 0.00000000E+00 0.10401643E+04 0.10401644E+04 0.32000000E+00 0.0000E+00 0.9000E+01
       -1 -1    0    0    0  501 0.00000000E+00 0.00000000E+00 -.15760095E+03 0.15760128E+03 0.32000000E+00 0.0000E+00 0.9000E+01
       25  2    1    2    0    0 0.20878071E+03 0.19883658E+03 0.76978952E+03 0.87502959E+03 0.29995917E+03 0.0000E+00 0.0000E+00
       23  2    3    3    0    0 0.11334404E+00 0.86369354E+02 0.10217947E+03 0.16074017E+03 0.89090283E+02 0.0000E+00 0.0000E+00
       23  1    1    2    0    0 -.20878071E+03 -.19883658E+03 0.11277383E+03 0.32273605E+03 0.91188000E+02 0.0000E+00 0.9000E+01
      -13  1    4    4    0    0 0.24789486E+02 0.23666694E+02 -.44941420E+01 0.34566451E+02 0.10565837E+00 0.0000E+00 0.9000E+01
       13  1    4    4    0    0 -.24676142E+02 0.62702660E+02 0.10667361E+03 0.12617371E+03 0.10565837E+00 0.0000E+00 0.9000E+01
       23  1    3    3    0    0 0.20866736E+03 0.11246722E+03 0.66761005E+03 0.71428942E+03 0.91188000E+02 0.0000E+00 0.9000E+01
#aMCatNLO 1  0  0  1  1 0.31196453D+03 0.00000000D+00  -5  7  0 0.00000000D+00 0.00000000D+00 0.00000000D+00 0.00000000D+00 0.00000000D+00
  <mgrwgt>
 0.3827376031D-03    3    2    0
 0.404884071459729D+03 0.000000000000000D+00 0.000000000000000D+00 0.404884071459729D+03
 0.404884071459729D+03 0.000000000000000D+00 0.000000000000000D+00 -.404884071459729D+03
 0.354462076535372D+03 -.208780707235551D+03 -.198836576817991D+03 -.184939839848785D+03
 0.560269702049658D+02 0.247895558317223D+02 0.236666394122304D+02 -.443214337645512D+02
 0.703662343818717D+02 -.246762118902138D+02 0.627027149605228D+02 0.202697075561834D+02
 0.328912861797248D+03 0.208667363294043D+03 0.112467222445237D+03 0.208991566057153D+03
 0.000000000000000D+00 0.000000000000000D+00 0.000000000000000D+00 -.000000000000000D+00
 0.499553423479723D+03 0.000000000000000D+00 0.000000000000000D+00 0.499553423479723D+03
 0.804431043127056D+03 0.000000000000000D+00 0.000000000000000D+00 -.804431043127056D+03
 0.488602751187838D+03 -.341952186887288D+03 -.281573000559414D+03 -.184939839848785D+03
 0.471172266470472D+02 0.849678111193263D+01 0.135443075385792D+02 -.443214337645512D+02
 0.707346550610696D+02 -.469646689689402D+02 0.488554014499233D+02 0.202697075561834D+02
 0.261327779177681D+03 0.115432279912024D+03 0.545423770771849D+02 0.208991566057153D+03
 0.436202054533143D+03 0.264987794832272D+03 0.164630914493726D+03 -.304877619647334D+03
0.155352780672D-04 0.000000000000D+00 0.000000000000D+00 0.263134801703D-06 0.000000000000D+00  7 1 -1 23 -13 13 23 21 0 0.16002531D+00 0.24246329D-01 0.10825043D+06 0.10825043D+06 0.10825043D+06 0.11189076D+01  1  2  2  1  7  1        1 0.378358084895D-03 0.100000000000D+01
-.817889369551D-06 0.000000000000D+00 -.596595583107D-07 0.263134801703D-06 0.000000000000D+00  7 1 -1 23 -13 13 23 21 2 0.16002531D+00 0.24246329D-01 0.10825043D+06 0.10825043D+06 0.10825043D+06 0.11189076D+01  1  2  3  1  7  1        1 -.249383086599D-04 0.100000000000D+01
0.961522259779D-06 0.000000000000D+00 0.000000000000D+00 0.263134801703D-06 0.000000000000D+00  7 1 -1 23 -13 13 23 21 2 0.16002531D+00 0.24246329D-01 0.10825043D+06 0.10825043D+06 0.10825043D+06 0.11189076D+01  1  2 15  1  7  1        1 0.293178268240D-04 0.100000000000D+01
  </mgrwgt>
  </event>
  <event>
  8     66 0.25924217E-05 0.17992727E+03 0.75467711E-02 0.96861970E-01
        1 -1    0    0  502    0 0.00000000E+00 0.00000000E+00 0.16231896E+04 0.16231896E+04 0.32000000E+00 0.0000E+00 0.9000E+01
       -1 -1    0    0    0  501 0.00000000E+00 0.00000000E+00 -.12947748E+03 0.12947787E+03 0.32000000E+00 0.0000E+00 0.9000E+01
       25  2    1    2    0    0 -.28160763E+03 0.91559507E+02 0.86004022E+03 0.95795044E+03 0.30052266E+03 0.0000E+00 0.0000E+00
       23  1    1    2    0    0 -.44616370E+02 0.89214759E+01 0.39151752E+02 0.10917108E+03 0.91188000E+02 0.0000E+00 0.9000E+01
      -11  1    3    3    0    0 -.14060661E+03 -.55180381E+01 0.31223324E+03 0.34247667E+03 0.51099893E-03 0.0000E+00 0.9000E+01
       11  1    3    3    0    0 -.79463228E+02 0.10372075E+03 0.13366828E+03 0.18692139E+03 0.51099893E-03 0.0000E+00 0.9000E+01
       23  1    3    3    0    0 -.61537785E+02 -.66432038E+01 0.41413870E+03 0.42855238E+03 0.91188000E+02 0.0000E+00 0.9000E+01
       21  1    1    2  502  501 0.32622400E+03 -.10048098E+03 0.59452014E+03 0.68554597E+03 0.75000000E+00 0.0000E+00 0.9000E+01
#aMCatNLO 2  0  0  1  1 0.34134810D+03 0.00000000D+00  -5  7  0 0.00000000D+00 0.00000000D+00 0.00000000D+00 0.00000000D+00 0.00000000D+00
  <mgrwgt>
 0.1263052790D-04    1    2    0
 0.231129622027491D+03 0.000000000000000D+00 0.000000000000000D+00 0.231129622027491D+03
 0.231129622027491D+03 0.000000000000000D+00 0.000000000000000D+00 -.231129622027491D+03
 0.142436298754411D+03 0.447058253574212D+02 -.185908531945795D+02 -.981255176570557D+02
 0.852157728962278D+02 -.674184584378121D+02 -.280608421520736D+02 0.439211628931530D+02
 0.928691440280006D+02 -.684143384837901D+01 0.813523238624768D+02 -.442681838069562D+02
 0.141738028376342D+03 0.295540669287699D+02 -.347006285158237D+02 0.984725385708589D+02
 0.000000000000000D+00 0.000000000000000D+00 -.000000000000000D+00 0.000000000000000D+00
 0.474357850959062D+03 0.000000000000000D+00 0.000000000000000D+00 0.474357850959062D+03
 0.443054729652868D+03 0.000000000000000D+00 0.000000000000000D+00 -.443054729652868D+03
 0.141471133930885D+03 -.446163696906522D+02 0.892147587859033D+01 -.981255176570557D+02
 0.147410059228938D+03 -.140606573851955D+03 -.551800703214272D+01 0.439211628931530D+02
 0.137956785154179D+03 -.794632686258356D+02 0.103720737616969D+03 -.442681838069562D+02
 0.147794193000100D+03 -.615377840519529D+02 -.664322376085793D+01 0.984725385708589D+02
 0.342780409297828D+03 0.326223996220396D+03 -.100480982702559D+03 0.313031213061934D+02
0.789771082814D-06 0.000000000000D+00 0.000000000000D+00 0.923338387293D-10 0.724128036795D-14  7 1 -1 23 -11 11 23 21 2 0.24972128D+00 0.19919627D-01 0.17009173D+06 0.17009173D+06 0.17009173D+06 0.11032694D+01  1  2  1  1  7  1        1 0.126305278972D-04 0.100000000000D+01
  </mgrwgt>
  </event>
  <event>
  9     66 0.25924217E-05 0.37792426E+03 0.75467711E-02 0.94477191E-01
        1 -1    0    0  502    0 0.00000000E+00 0.00000000E+00 0.12870692E+04 0.12870693E+04 0.32000000E+00 0.0000E+00 0.9000E+01
       -1 -1    0    0    0  501 0.00000000E+00 0.00000000E+00 -.30982163E+03 0.30982179E+03 0.32000000E+00 0.0000E+00 0.9000E+01
       25  2    1    2    0    0 0.40175366E+03 0.52578814E+02 0.85103931E+03 0.98915393E+03 0.29997844E+03 0.0000E+00 0.0000E+00
       23  2    3    3    0    0 0.24482835E+03 0.10889725E+02 0.25752452E+03 0.36711005E+03 0.91604621E+02 0.0000E+00 0.0000E+00
       23  1    1    2    0    0 -.24274680E+03 -.21622245E+03 -.17495765E+02 0.33808210E+03 0.91188000E+02 0.0000E+00 0.9000E+01
      -13  1    4    4    0    0 0.10167328E+03 -.39979147E+02 0.11848174E+03 0.16116365E+03 0.10565837E+00 0.0000E+00 0.9000E+01
       13  1    4    4    0    0 0.14315506E+03 0.50868871E+02 0.13904278E+03 0.20594640E+03 0.10565837E+00 0.0000E+00 0.9000E+01
       23  1    3    3    0    0 0.15692531E+03 0.41689090E+02 0.59351479E+03 0.62204388E+03 0.91188000E+02 0.0000E+00 0.9000E+01
       21  1    1    2  502  501 -.15900686E+03 0.16364363E+03 0.14370408E+03 0.26965505E+03 0.75000000E+00 0.0000E+00 0.9000E+01
#aMCatNLO 2  0  0  1  2 0.22817191D+03 0.00000000D+00  -5  7  0 0.00000000D+00 0.00000000D+00 0.00000000D+00 0.00000000D+00 0.00000000D+00
  <mgrwgt>
 0.5002326519D-04    1    2    0
 0.503661154918885D+03 0.000000000000000D+00 0.000000000000000D+00 0.503661154918885D+03
 0.503661154918885D+03 0.000000000000000D+00 0.000000000000000D+00 -.503661154918885D+03
 0.463122088307592D+03 -.313802282035287D+03 -.143094928043796D+03 -.295328269374898D+03
 0.917614618146676D+02 0.858328349561923D+02 -.236769536929906D+02 0.221876583164542D+02
 0.141963567023553D+03 0.120210177668269D+03 0.744830238661445D+02 0.124678267059423D+02
 0.310475192691957D+03 0.107759269410826D+03 0.922888578706419D+02 0.260672784352501D+03
 0.000000000000000D+00 -.000000000000000D+00 0.000000000000000D+00 -.000000000000000D+00
 0.615211657235531D+03 0.000000000000000D+00 0.000000000000000D+00 0.615211657235531D+03
 0.648169255153062D+03 0.000000000000000D+00 0.000000000000000D+00 -.648169255153062D+03
 0.448566821725038D+03 -.242746800266086D+03 -.216222446746648D+03 -.295328269374898D+03
 0.111481297230941D+03 0.101673229635964D+03 -.399792674534981D+02 0.221876583164542D+02
 0.152435193718327D+03 0.143155115954314D+03 0.508689921001139D+02 0.124678267059423D+02
 0.320357747703188D+03 0.156925314980091D+03 0.416890895291909D+02 0.260672784352501D+03
 0.230539852011099D+03 -.159006860304282D+03 0.163643632570841D+03 -.329575979175309D+02
0.846987278556D-05 0.000000000000D+00 0.000000000000D+00 0.178828692578D-05 0.226847346363D-09  7 1 -1 23 -13 13 23 21 2 0.19801048D+00 0.47664836D-01 0.25664301D+06 0.25664301D+06 0.25664301D+06 0.10896033D+01  1  2  1  1  7  1        1 0.500232651924D-04 0.100000000000D+01
  </mgrwgt>
  </event>
  <event>
  8     66 0.25924217E-05 0.98510955E+02 0.75467711E-02 0.10569615E+00
        1 -1    0    0  501    0 0.00000000E+00 0.00000000E+00 0.34753797E+03 0.34753811E+03 0.32000000E+00 0.0000E+00 0.9000E+01
       -1 -1    0    0    0  501 0.00000000E+00 0.00000000E+00 -.17073717E+03 0.17073747E+03 0.32000000E+00 0.0000E+00 0.9000E+01
       25  2    1    2    0    0 0.11270672E+03 0.50491494E+02 0.71977572E+02 0.33238488E+03 0.30007789E+03 0.0000E+00 0.0000E+00
       23  2    3    3    0    0 -.18775526E+02 0.52538476E+02 -.61136083E+02 0.12423525E+03 0.92649694E+02 0.0000E+00 0.0000E+00
       23  1    1    2    0    0 -.11270672E+03 -.50491494E+02 0.10482322E+03 0.18589071E+03 0.91188000E+02 0.0000E+00 0.9000E+01
      -11  1    4    4    0    0 -.41137054E+01 -.15639979E+02 0.14239587E+02 0.21547560E+02 0.51099893E-03 0.0000E+00 0.9000E+01
       11  1    4    4    0    0 -.14661821E+02 0.68178454E+02 -.75375670E+02 0.10268769E+03 0.51099893E-03 0.0000E+00 0.9000E+01
       23  1    3    3    0    0 0.13148225E+03 -.20469817E+01 0.13311366E+03 0.20814963E+03 0.91188000E+02 0.0000E+00 0.9000E+01
#aMCatNLO 1  0  0  1  2 0.16437145D+02 0.00000000D+00  -5  7  0 0.00000000D+00 0.00000000D+00 0.00000000D+00 0.00000000D+00 0.00000000D+00
  <mgrwgt>
 0.3488538089D-03    9    2    0
 0.243593444206465D+03 0.000000000000000D+00 0.000000000000000D+00 0.243593444206465D+03
 0.243593444206465D+03 0.000000000000000D+00 0.000000000000000D+00 -.243593444206465D+03
 0.159712398420186D+03 -.112706719964414D+03 -.504914938239483D+02 0.440522779367618D+02
 0.177550019366107D+02 -.411370537375613D+01 -.156399787842870D+02 0.732861415917307D+01
 0.136594404125152D+03 -.146618205648771D+02 0.681784543350438D+02 -.117451098847618D+03
 0.173125083930981D+03 0.131482245903047D+03 -.204698172680851D+01 0.660702067516830D+02
 0.000000000000000D+00 -.000000000000000D+00 -.000000000000000D+00 0.000000000000000D+00
 0.254801801509044D+03 0.000000000000000D+00 0.000000000000000D+00 0.254801801509044D+03
 0.249833803005617D+03 0.000000000000000D+00 0.000000000000000D+00 -.249833803005617D+03
 0.157014834893381D+03 -.111067245947152D+03 -.454078266259547D+02 0.440522779367618D+02
 0.172202993795507D+02 -.393266284970839D+01 -.150786036534504D+02 0.732861415917307D+01
 0.138709529579807D+03 -.132367658215978D+02 0.725972520576537D+02 -.117451098847618D+03
 0.174519431203922D+03 0.133281756932915D+03 0.353292688939829D+01 0.660702067516830D+02
 0.171715094580004D+02 -.504508231445645D+01 -.156437486676469D+02 0.496799850342694D+01
0.160763020812D-05 0.000000000000D+00 0.000000000000D+00 0.134512070650D-06 0.000000000000D+00  7 1 -1 23 -11 11 23 21 0 0.53467414D-01 0.26267292D-01 0.39889668D+05 0.39889668D+05 0.39889668D+05 0.11560264D+01  1  2  2  1  7  1        1 0.172619510983D-03 0.100000000000D+01
-.850312737735D-07 0.000000000000D+00 -.617372329792D-08 0.134512070650D-06 0.000000000000D+00  7 1 -1 23 -11 11 23 21 2 0.53467414D-01 0.26267292D-01 0.39889668D+05 0.39889668D+05 0.39889668D+05 0.11560264D+01  1  2  3  1  7  1        1 -.122016309594D-04 0.100000000000D+01
0.102049548474D-06 0.000000000000D+00 0.000000000000D+00 0.134512070650D-06 0.000000000000D+00  7 1 -1 23 -11 11 23 21 2 0.53467414D-01 0.26267292D-01 0.39889668D+05 0.39889668D+05 0.39889668D+05 0.11560264D+01  1  2 15  1  7  1        1 0.146436819630D-04 0.100000000000D+01
0.444551931407D-05 0.000000000000D+00 0.000000000000D+00 0.134512070650D-06 0.000000000000D+00  7 1 -1 23 -11 11 23 21 2 0.56587681D-01 0.26267292D-01 0.43691916D+05 0.43691916D+05 0.43691916D+05 0.11524830D+01  1  2 12  1  7  1        1 0.588736943793D-03 0.100000000000D+01
-.406098319988D-05 0.000000000000D+00 0.000000000000D+00 0.134512070650D-06 0.000000000000D+00  7 1 -1 23 -11 11 23 21 2 0.53467414D-01 0.26267292D-01 0.39889668D+05 0.39889668D+05 0.39889668D+05 0.11560264D+01  1  2  4  1  7  1        1 -.582734047584D-03 0.100000000000D+01
-.186330834749D-04 0.000000000000D+00 -.326305492458D-05 0.134512070650D-06 0.000000000000D+00  7 1 -1 23 -11 11 23 21 2 0.57157835D-01 0.26267292D-01 0.39889668D+05 0.39889668D+05 0.39889668D+05 0.11560264D+01  1  2  5  1  7  1        1 -.244994502215D-02 0.100000000000D+01
0.188162011947D-04 0.000000000000D+00 0.325580030669D-05 0.134512070650D-06 0.000000000000D+00  7 1 -1 23 -11 11 23 21 2 0.53467414D-01 0.26267292D-01 0.39889668D+05 0.39889668D+05 0.39889668D+05 0.11560264D+01  1  2  6  1  7  1        1 0.270004591071D-02 0.100000000000D+01
0.532569592027D-07 0.000000000000D+00 0.000000000000D+00 0.134512070650D-06 0.000000000000D+00  7 21 -1 23 -11 11 23 -1 2 0.56587681D-01 0.26267292D-01 0.43691916D+05 0.43691916D+05 0.43691916D+05 0.11524830D+01  1  2 12  3  7  1        1 0.290952126020D-04 0.100000000000D+01
-.206534868700D-06 0.000000000000D+00 -.370455983247D-07 0.134512070650D-06 0.000000000000D+00  7 21 -1 23 -11 11 23 -1 2 0.57157835D-01 0.26267292D-01 0.39889668D+05 0.39889668D+05 0.39889668D+05 0.11560264D+01  1  2  5  3  7  1        1 -.111406750455D-03 0.100000000000D+01
  </mgrwgt>
  </event>
  <event>
  8     66 0.25924217E-05 0.14470288E+03 0.75467711E-02 0.10273899E+00
        1 -1    0    0  501    0 0.00000000E+00 0.00000000E+00 0.11172576E+03 0.11172622E+03 0.32000000E+00 0.0000E+00 0.9000E+01
       -1 -1    0    0    0  501 0.00000000E+00 0.00000000E+00 -.43016367E+03 0.43016378E+03 0.32000000E+00 0.0000E+00 0.9000E+01
       25  2    1    2    0    0 0.17166942E+01 -.70229306E+02 -.28992100E+03 0.42330009E+03 0.30032261E+03 0.0000E+00 0.0000E+00
       23  2    3    3    0    0 -.41776397E+02 0.77012235E+02 -.15185487E+03 0.19758073E+03 0.91115809E+02 0.0000E+00 0.0000E+00
       23  1    1    2    0    0 -.17166942E+01 0.70229306E+02 -.28516905E+02 0.11858991E+03 0.91188000E+02 0.0000E+00 0.9000E+01
      -13  1    4    4    0    0 -.70903366E+02 0.50950679E+02 -.10378844E+03 0.13562931E+03 0.10565837E+00 0.0000E+00 0.9000E+01
       13  1    4    4    0    0 0.29126968E+02 0.26061556E+02 -.48066431E+02 0.61951416E+02 0.10565837E+00 0.0000E+00 0.9000E+01
       23  1    3    3    0    0 0.43493091E+02 -.14724154E+03 -.13806614E+03 0.22571936E+03 0.91188000E+02 0.0000E+00 0.9000E+01
#aMCatNLO 1  0  0  2  1 0.88473329D+02 0.00000000D+00  -5  7  0 0.00000000D+00 0.00000000D+00 0.00000000D+00 0.00000000D+00 0.00000000D+00
  <mgrwgt>
 0.3162591638D-03    9    2    0
 0.219227091183474D+03 0.000000000000000D+00 0.000000000000000D+00 0.219227091183474D+03
 0.219227091183474D+03 0.000000000000000D+00 0.000000000000000D+00 -.219227091183474D+03
 0.125855412773193D+03 -.171669467589955D+01 0.702293253030698D+02 0.508844613529123D+02
 0.922468541555994D+02 -.709034945899271D+02 0.509506997050822D+02 -.297691577996951D+02
 0.416569117428466D+02 0.291271024726795D+02 0.260615146836262D+02 -.144120661215688D+02
 0.178695003695310D+03 0.434930867931471D+02 -.147241539691778D+03 -.670323743164838D+01
 0.000000000000000D+00 -.000000000000000D+00 -.000000000000000D+00 -.000000000000000D+00
 0.238466500101482D+03 0.000000000000000D+00 0.000000000000000D+00 0.238466500101482D+03
 0.355681943740130D+03 0.000000000000000D+00 0.000000000000000D+00 -.355681943740130D+03
 0.132785981861097D+03 0.226424503872125D+02 0.788349964679529D+02 0.508844613529123D+02
 0.840406807118788D+02 -.543005310901083D+02 0.568162439954015D+02 -.297691577996951D+02
 0.497900087590346D+02 0.377396789909507D+02 0.291041913131469D+02 -.144120661215688D+02
 0.180674732555572D+03 0.773389433274630D+02 -.135284374903216D+03 -.670323743164838D+01
 0.146857039954031D+03 -.834205416155178D+02 -.294710568732857D+02 -.117215443638648D+03
0.304097264505D-05 0.000000000000D+00 0.000000000000D+00 0.139507837566D-06 0.000000000000D+00  7 1 -1 23 -13 13 23 21 0 0.17188622D-01 0.66179070D-01 0.44115798D+05 0.44115798D+05 0.44115798D+05 0.11521092D+01  1  2  2  2  7  2       -1 0.284126892480D-03 0.100000000000D+01
-.168566268023D-06 0.000000000000D+00 -.116781356635D-07 0.139507837566D-06 0.000000000000D+00  7 1 -1 23 -13 13 23 21 2 0.17188622D-01 0.66179070D-01 0.44115798D+05 0.44115798D+05 0.44115798D+05 0.11521092D+01  1  2  3  2  7  2       -1 -.209053665589D-04 0.100000000000D+01
0.194565836563D-06 0.000000000000D+00 0.000000000000D+00 0.139507837566D-06 0.000000000000D+00  7 1 -1 23 -13 13 23 21 2 0.17188622D-01 0.66179070D-01 0.44115798D+05 0.44115798D+05 0.44115798D+05 0.11521092D+01  1  2 15  2  7  2       -1 0.241297988078D-04 0.100000000000D+01
0.282160866858D-05 0.000000000000D+00 0.000000000000D+00 0.139507837566D-06 0.000000000000D+00  7 1 -1 23 -13 13 23 21 2 0.17188622D-01 0.10876216D+00 0.67061119D+05 0.67061119D+05 0.67061119D+05 0.11362465D+01  1  2 12  2  7  2       -1 0.122146686854D-03 0.100000000000D+01
-.345146064451D-05 0.000000000000D+00 0.000000000000D+00 0.139507837566D-06 0.000000000000D+00  7 1 -1 23 -13 13 23 21 2 0.17188622D-01 0.66179070D-01 0.44115798D+05 0.44115798D+05 0.44115798D+05 0.11521092D+01  1  2  4  2  7  2       -1 -.428045603567D-03 0.100000000000D+01
-.395536031420D-05 0.000000000000D+00 -.103880418841D-05 0.139507837566D-06 0.000000000000D+00  7 1 -1 23 -13 13 23 21 2 0.17188622D-01 0.11298194D+00 0.44115798D+05 0.44115798D+05 0.44115798D+05 0.11521092D+01  1  2  5  2  7  2       -1 -.162216407868D-03 0.100000000000D+01
0.405039264550D-05 0.000000000000D+00 0.906079536580D-06 0.139507837566D-06 0.000000000000D+00  7 1 -1 23 -13 13 23 21 2 0.17188622D-01 0.66179070D-01 0.44115798D+05 0.44115798D+05 0.44115798D+05 0.11521092D+01  1  2  6  2  7  2       -1 0.502324361538D-03 0.100000000000D+01
0.158283182812D-06 0.000000000000D+00 0.000000000000D+00 0.139507837566D-06 0.000000000000D+00  7 1 21 23 -13 13 23 1 2 0.17188622D-01 0.10876216D+00 0.67061119D+05 0.67061119D+05 0.67061119D+05 0.11362465D+01  1  2 12  4  7  2       -1 0.484735351372D-04 0.100000000000D+01
-.185061183377D-06 0.000000000000D+00 -.618412826368D-07 0.139507837566D-06 0.000000000000D+00  7 1 21 23 -13 13 23 1 2 0.17188622D-01 0.11298194D+00 0.44115798D+05 0.44115798D+05 0.44115798D+05 0.11521092D+01  1  2  5  4  7  2       -1 -.537747330108D-04 0.100000000000D+01
  </mgrwgt>
  </event>
  <event>
  8     66 0.25924217E-05 0.16160187E+03 0.75467711E-02 0.97313406E-01
        1 -1    0    0  501    0 0.00000000E+00 0.00000000E+00 0.37809108E+03 0.37809121E+03 0.32000000E+00 0.0000E+00 0.9000E+01
       -1 -1    0    0    0  501 0.00000000E+00 0.00000000E+00 -.56141049E+03 0.56141058E+03 0.32000000E+00 0.0000E+00 0.9000E+01
       25  2    1    2    0    0 0.22339892E+03 0.28164296E+03 -.29461451E+03 0.55229166E+03 0.29832623E+03 0.0000E+00 0.0000E+00
       23  2    3    3    0    0 0.55249333E+02 0.65068605E+02 -.22100218E+03 0.25410923E+03 0.91886486E+02 0.0000E+00 0.0000E+00
       23  1    1    2    0    0 -.22339892E+03 -.28164296E+03 0.11129509E+03 0.38721013E+03 0.91188000E+02 0.0000E+00 0.9000E+01
      -11  1    4    4    0    0 -.13226389E+02 0.39593442E+02 -.35714159E+02 0.54937048E+02 0.51099893E-03 0.0000E+00 0.9000E+01
       11  1    4    4    0    0 0.68475722E+02 0.25475163E+02 -.18528802E+03 0.19917219E+03 0.51099893E-03 0.0000E+00 0.9000E+01
       23  1    3    3    0    0 0.16814959E+03 0.21657436E+03 -.73612326E+02 0.29818243E+03 0.91188000E+02 0.0000E+00 0.9000E+01
#aMCatNLO 1  0  0  1  2 0.20577575D+02 0.00000000D+00  -5  7  0 0.00000000D+00 0.00000000D+00 0.00000000D+00 0.00000000D+00 0.00000000D+00
  <mgrwgt>
 0.3652647425D-03    9    2    0
 0.460721612250040D+03 0.000000000000000D+00 0.000000000000000D+00 0.460721612250040D+03
 0.460721612250040D+03 0.000000000000000D+00 0.000000000000000D+00 -.460721612250040D+03
 0.416940679691344D+03 -.223398921632520D+03 -.281642962418108D+03 0.190511003806234D+03
 0.489084458363722D+02 -.132263893016851D+02 0.395934421264930D+02 -.254844666560959D+02
 0.166212882423860D+03 0.684757219523763D+02 0.254751628276820D+02 -.149294386584532D+03
 0.289381216548504D+03 0.168149588981829D+03 0.216574357463933D+03 -.157321505656060D+02
 0.000000000000000D+00 0.000000000000000D+00 -.000000000000000D+00 0.000000000000000D+00
 0.472363699881711D+03 0.000000000000000D+00 0.000000000000000D+00 0.472363699881711D+03
 0.470019889868665D+03 0.000000000000000D+00 0.000000000000000D+00 -.470019889868665D+03
 0.419855403605199D+03 -.232287812679781D+03 -.278767354799066D+03 0.190511003806234D+03
 0.494738260845369D+02 -.142714578835574D+02 0.399315278517512D+02 -.254844666560959D+02
 0.164974481522600D+03 0.649576744219047D+02 0.266132715331425D+02 -.149294386584532D+03
 0.287369252778196D+03 0.162023040130040D+03 0.218556331420298D+03 -.157321505656060D+02
 0.207106257598442D+02 0.195785560113939D+02 -.633377600612631D+01 0.234381001304552D+01
0.145997080824D-04 0.000000000000D+00 0.000000000000D+00 0.115735791019D-06 0.000000000000D+00  7 1 -1 23 -11 11 23 21 0 0.58167875D-01 0.86370862D-01 0.15001259D+06 0.15001259D+06 0.15001259D+06 0.11075490D+01  1  2  2  1  7  1        1 0.161813639105D-03 0.100000000000D+01
-.781389442595D-06 0.000000000000D+00 -.560667232277D-07 0.115735791019D-06 0.000000000000D+00  7 1 -1 23 -11 11 23 21 2 0.58167875D-01 0.86370862D-01 0.15001259D+06 0.15001259D+06 0.15001259D+06 0.11075490D+01  1  2  3  1  7  1        1 -.106234213693D-04 0.100000000000D+01
0.903716300344D-06 0.000000000000D+00 0.000000000000D+00 0.115735791019D-06 0.000000000000D+00  7 1 -1 23 -11 11 23 21 2 0.58167875D-01 0.86370862D-01 0.15001259D+06 0.15001259D+06 0.15001259D+06 0.11075490D+01  1  2 15  1  7  1        1 0.122865226140D-04 0.100000000000D+01
0.248052355303D-04 0.000000000000D+00 0.000000000000D+00 0.115735791019D-06 0.000000000000D+00  7 1 -1 23 -11 11 23 21 2 0.60211428D-01 0.86370862D-01 0.15771368D+06 0.15771368D+06 0.15771368D+06 0.11058374D+01  1  2 12  1  7  1        1 0.320516918515D-03 0.100000000000D+01
-.204839567722D-04 0.000000000000D+00 0.000000000000D+00 0.115735791019D-06 0.000000000000D+00  7 1 -1 23 -11 11 23 21 2 0.58167875D-01 0.86370862D-01 0.15001259D+06 0.15001259D+06 0.15001259D+06 0.11075490D+01  1  2  4  1  7  1        1 -.278490714409D-03 0.100000000000D+01
-.292187846246D-03 0.000000000000D+00 -.456655064427D-04 0.115735791019D-06 0.000000000000D+00  7 1 -1 23 -11 11 23 21 2 0.60694905D-01 0.86370862D-01 0.15001259D+06 0.15001259D+06 0.15001259D+06 0.11075490D+01  1  2  5  1  7  1        1 -.375225559083D-02 0.100000000000D+01
0.293905298939D-03 0.000000000000D+00 0.456242443782D-04 0.115735791019D-06 0.000000000000D+00  7 1 -1 23 -11 11 23 21 2 0.58167875D-01 0.86370862D-01 0.15001259D+06 0.15001259D+06 0.15001259D+06 0.11075490D+01  1  2  6  1  7  1        1 0.399580498927D-02 0.100000000000D+01
0.400941066909D-06 0.000000000000D+00 0.000000000000D+00 0.115735791019D-06 0.000000000000D+00  7 21 -1 23 -11 11 23 -1 2 0.60211428D-01 0.86370862D-01 0.15771368D+06 0.15771368D+06 0.15771368D+06 0.11058374D+01  1  2 12  3  7  1        1 0.193893354766D-04 0.100000000000D+01
-.215880953571D-05 0.000000000000D+00 -.341983326182D-06 0.115735791019D-06 0.000000000000D+00  7 21 -1 23 -11 11 23 -1 2 0.60694905D-01 0.86370862D-01 0.15001259D+06 0.15001259D+06 0.15001259D+06 0.11075490D+01  1  2  5  3  7  1        1 -.103176935850D-03 0.100000000000D+01
  </mgrwgt>
  </event>
  <event>
  8     66 0.25924217E-05 0.18695239E+03 0.75467711E-02 0.94996271E-01
        1 -1    0    0  501    0 0.00000000E+00 0.00000000E+00 0.20314145E+03 0.20314170E+03 0.32000000E+00 0.0000E+00 0.9000E+01
       -1 -1    0    0    0  501 0.00000000E+00 0.00000000E+00 -.35038335E+03 0.35038349E+03 0.32000000E+00 0.0000E+00 0.9000E+01
       25  2    1    2    0    0 0.36285467E+02 -.25482194E+02 0.72184097E+02 0.31180429E+03 0.30007565E+03 0.0000E+00 0.0000E+00
       23  2    3    3    0    0 0.41930045E+02 0.96163176E+02 -.92332096E+01 0.13925434E+03 0.91110005E+02 0.0000E+00 0.0000E+00
       23  1    1    2    0    0 -.36285467E+02 0.25482194E+02 -.21942599E+03 0.24172090E+03 0.91188000E+02 0.0000E+00 0.9000E+01
      -11  1    4    4    0    0 0.47640025E+02 0.35422430E+02 -.39343896E+02 0.71219819E+02 0.51099893E-03 0.0000E+00 0.9000E+01
       11  1    4    4    0    0 -.57099795E+01 0.60740746E+02 0.30110687E+02 0.68034517E+02 0.51099893E-03 0.0000E+00 0.9000E+01
       23  1    3    3    0    0 -.56445784E+01 -.12164537E+03 0.81417306E+02 0.17254995E+03 0.91188000E+02 0.0000E+00 0.9000E+01
#aMCatNLO 1  0  0  2  2 0.42285040D+03 0.00000000D+00  -5  7  0 0.00000000D+00 0.00000000D+00 0.00000000D+00 0.00000000D+00 0.00000000D+00
  <mgrwgt>
 0.2126802152D-03    5    2    0
 0.266791100157477D+03 0.000000000000000D+00 0.000000000000000D+00 0.266791100157477D+03
 0.266791100157477D+03 0.000000000000000D+00 0.000000000000000D+00 -.266791100157477D+03
 0.190204828308399D+03 -.362854667694673D+02 0.254821944454955D+02 -.160924355010021D+03
 0.630247679231691D+02 0.476400247044947D+02 0.354224296623404D+02 -.211613065461705D+02
 0.788863910111785D+02 -.570997948720527D+01 0.607407461526708D+02 0.500102047370439D+02
 0.201466213072207D+03 -.564457844782212D+01 -.121645370260507D+03 0.132075456819148D+03
 0.000000000000000D+00 -.000000000000000D+00 -.000000000000000D+00 -.000000000000000D+00
 0.354395646445152D+03 0.000000000000000D+00 0.000000000000000D+00 0.354395646445152D+03
 0.353629722436597D+04 0.000000000000000D+00 0.000000000000000D+00 -.353629722436597D+04
 0.259843552762967D+03 -.202937595294991D+02 0.181369611173560D+03 -.160924355010021D+03
 0.112193208560575D+03 0.538660988355410D+02 0.961142993972038D+02 -.211613065461705D+02
 0.148076524199714D+03 0.235476343163835D+01 0.139355988498551D+03 0.500102047370439D+02
 0.160704181160255D+03 0.722453331692173D+01 0.380293607020835D+01 0.132075456819148D+03
 0.320987540412761D+04 -.431516360546020D+02 -.420642835139523D+03 -.318190157792081D+04
0.331156270556D-05 0.000000000000D+00 0.000000000000D+00 0.436212189127D-06 0.000000000000D+00  7 1 -1 23 -11 11 23 21 0 0.31252561D-01 0.53905161D-01 0.34951195D+05 0.34951195D+05 0.34951195D+05 0.11612303D+01  1  2  2  2  7  2       -1 0.209250512159D-03 0.100000000000D+01
-.155688193242D-06 0.000000000000D+00 -.127172727438D-07 0.436212189127D-06 0.000000000000D+00  7 1 -1 23 -11 11 23 21 2 0.31252561D-01 0.53905161D-01 0.34951195D+05 0.34951195D+05 0.34951195D+05 0.11612303D+01  1  2  3  2  7  2       -1 -.132655709397D-04 0.100000000000D+01
0.196667636172D-06 0.000000000000D+00 0.000000000000D+00 0.436212189127D-06 0.000000000000D+00  7 1 -1 23 -11 11 23 21 2 0.31252561D-01 0.53905161D-01 0.34951195D+05 0.34951195D+05 0.34951195D+05 0.11612303D+01  1  2 15  2  7  2       -1 0.167572660769D-04 0.100000000000D+01
-.220113447107D-04 0.000000000000D+00 -.303958379885D-05 0.436212189127D-06 0.000000000000D+00  7 1 -1 23 -11 11 23 21 2 0.31252561D-01 0.72880573D+00 0.34951195D+05 0.34951195D+05 0.34951195D+05 0.11612303D+01  1  2  5  2  7  2       -1 -.446063575164D-07 0.100000000000D+01
-.718964988221D-05 0.000000000000D+00 -.905986642121D-06 0.436212189127D-06 0.000000000000D+00  7 1 21 23 -11 11 23 1 2 0.31252561D-01 0.72880573D+00 0.34951195D+05 0.34951195D+05 0.34951195D+05 0.11612303D+01  1  2  5  4  7  2       -1 -.173857150338D-07 0.100000000000D+01
  </mgrwgt>
  </event>
  <event>
  8     66 0.25924217E-05 0.22174586E+03 0.75467711E-02 0.99879528E-01
        1 -1    0    0  501    0 0.00000000E+00 0.00000000E+00 0.13317324E+04 0.13317324E+04 0.32000000E+00 0.0000E+00 0.9000E+01
       -1 -1    0    0    0  501 0.00000000E+00 0.00000000E+00 -.45753460E+02 0.45754579E+02 0.32000000E+00 0.0000E+00 0.9000E+01
       25  2    1    2    0    0 -.42193317E+02 0.12383441E+03 0.95880836E+03 0.10135213E+04 0.30132477E+03 0.0000E+00 0.0000E+00
       23  2    3    3    0    0 0.38051254E+02 0.12917191E+03 0.33210135E+03 0.37512905E+03 0.11089280E+03 0.0000E+00 0.0000E+00
       23  1    1    2    0    0 0.42193317E+02 -.12383441E+03 0.32717053E+03 0.36396572E+03 0.91188000E+02 0.0000E+00 0.9000E+01
      -11  1    4    4    0    0 -.67028719E+00 -.14053711E+02 0.33712183E+01 0.14467936E+02 0.51099893E-03 0.0000E+00 0.9000E+01
       11  1    4    4    0    0 0.38721541E+02 0.14322562E+03 0.32873013E+03 0.36066111E+03 0.51099893E-03 0.0000E+00 0.9000E+01
       23  1    3    3    0    0 -.80244571E+02 -.53374996E+01 0.62670701E+03 0.63839221E+03 0.91188000E+02 0.0000E+00 0.9000E+01
#aMCatNLO 1  0  0  2  1 0.17556501D+03 0.00000000D+00  -5  7  0 0.00000000D+00 0.00000000D+00 0.00000000D+00 0.00000000D+00 0.00000000D+00
  <mgrwgt>
 0.3976820846D-03    3    2    0
 0.246844404769661D+03 0.000000000000000D+00 0.000000000000000D+00 0.246844404769661D+03
 0.246844404769661D+03 0.000000000000000D+00 0.000000000000000D+00 -.246844404769661D+03
 0.163308619434394D+03 0.421933172699960D+02 -.123834408353120D+03 -.352025158639822D+02
 0.315868567383082D+02 -.670286317190824D+00 -.140537086734813D+02 -.282802671023509D+02
 0.150025612771968D+03 0.387215415995539D+02 0.143225617234925D+03 -.222429600420745D+02
 0.148767720594651D+03 -.802445725523591D+02 -.533750020832360D+01 0.857257430084075D+02
 0.000000000000000D+00 -.000000000000000D+00 -.000000000000000D+00 0.000000000000000D+00
 0.459038299604697D+03 0.000000000000000D+00 0.000000000000000D+00 0.459038299604697D+03
 0.301094083245186D+03 0.000000000000000D+00 0.000000000000000D+00 -.301094083245186D+03
 0.173079257185180D+03 0.970243006675901D+02 -.104824834274063D+03 -.352025158639822D+02
 0.316624097822186D+02 0.963929890730596D+01 -.104794371228818D+02 -.282802671023509D+02
 0.188924301377960D+03 0.939701352829365D+02 0.162379974302941D+03 -.222429600420745D+02
 0.130310856358141D+03 -.347549640287197D+02 0.104334750591991D+02 0.857257430084075D+02
 0.236155558146383D+03 -.165878770829113D+03 -.575091779651944D+02 0.157944216359511D+03
0.373213818022D-05 0.000000000000D+00 0.000000000000D+00 0.167113936391D-09 0.000000000000D+00  7 1 -1 23 -11 11 23 21 0 0.20488199D+00 0.70390829D-02 0.49171228D+05 0.49171228D+05 0.49171228D+05 0.11479344D+01  1  2  2  2  7  2       -1 0.393402154481D-03 0.100000000000D+01
-.204442540191D-06 0.000000000000D+00 -.143323933066D-07 0.167113936391D-09 0.000000000000D+00  7 1 -1 23 -11 11 23 21 2 0.20488199D+00 0.70390829D-02 0.49171228D+05 0.49171228D+05 0.49171228D+05 0.11479344D+01  1  2  3  2  7  2       -1 -.283977839513D-04 0.100000000000D+01
0.235254795967D-06 0.000000000000D+00 0.000000000000D+00 0.167113936391D-09 0.000000000000D+00  7 1 -1 23 -11 11 23 21 2 0.20488199D+00 0.70390829D-02 0.49171228D+05 0.49171228D+05 0.49171228D+05 0.11479344D+01  1  2 15  2  7  2       -1 0.326777140566D-04 0.100000000000D+01
  </mgrwgt>
  </event>
  <event>
  8     66 0.25924217E-05 0.56363616E+02 0.75467711E-02 0.10269399E+00
        1 -1    0    0  501    0 0.00000000E+00 0.00000000E+00 0.80004910E+03 0.80004916E+03 0.32000000E+00 0.0000E+00 0.9000E+01
       -1 -1    0    0    0  501 0.00000000E+00 0.00000000E+00 -.59234402E+02 0.59235266E+02 0.32000000E+00 0.0000E+00 0.9000E+01
       25  2    1    2    0    0 -.76495382E+02 -.16326157E+02 0.46984052E+03 0.56287198E+03 0.29992776E+03 0.0000E+00 0.0000E+00
       23  2    3    3    0    0 0.26870150E+00 -.75838795E+01 0.16980991E+02 0.94506565E+02 0.92658240E+02 0.0000E+00 0.0000E+00
       23  1    1    2    0    0 0.76495382E+02 0.16326157E+02 0.27097417E+03 0.29641245E+03 0.91188000E+02 0.0000E+00 0.9000E+01
      -11  1    4    4    0    0 0.44198033E+02 0.13645496E+01 0.22009823E+02 0.49393931E+02 0.51099893E-03 0.0000E+00 0.9000E+01
       11  1    4    4    0    0 -.43929332E+02 -.89484291E+01 -.50288319E+01 0.45112634E+02 0.51099893E-03 0.0000E+00 0.9000E+01
       23  1    3    3    0    0 -.76764084E+02 -.87422773E+01 0.45285953E+03 0.46836541E+03 0.91188000E+02 0.0000E+00 0.9000E+01
#aMCatNLO 1  0  0  2  1 0.15450878D+03 0.00000000D+00  -5  7  0 0.00000000D+00 0.00000000D+00 0.00000000D+00 0.00000000D+00 0.00000000D+00
  <mgrwgt>
 0.2517018458D-03    7    2    0
 0.217694346382253D+03 0.000000000000000D+00 0.000000000000000D+00 0.217694346382253D+03
 0.217694346382253D+03 0.000000000000000D+00 0.000000000000000D+00 -.217694346382253D+03
 0.123937424113439D+03 0.764953825036243D+02 0.163261568324605D+02 0.304490855458856D+02
 0.600342551270252D+02 0.441980333590221D+02 0.136454959268089D+01 -.406052169094149D+02
 0.975909963165871D+02 -.439293318915620D+02 -.894842910446186D+01 -.866841506746622D+02
 0.153826017207454D+03 -.767640839710843D+02 -.874227732067952D+01 0.968402820381915D+02
 0.000000000000000D+00 0.000000000000000D+00 -.000000000000000D+00 -.000000000000000D+00
 0.265830314365781D+03 0.000000000000000D+00 0.000000000000000D+00 0.265830314365781D+03
 0.402327171829941D+03 0.000000000000000D+00 0.000000000000000D+00 -.402327171829941D+03
 0.131019004455294D+03 0.665745200453612D+02 0.590881938681954D+02 0.304490855458856D+02
 0.606294095902752D+02 0.395027698267767D+02 0.216026119489618D+02 -.406052169094149D+02
 0.103983746310247D+03 -.517730066240917D+02 0.248602756144844D+02 -.866841506746622D+02
 0.166359481438148D+03 -.892231394694125D+02 0.449601699102101D+02 0.968402820381915D+02
 0.206165844401757D+03 0.349188562213664D+02 -.150511251341852D+03 -.136496857464160D+03
0.167563386586D-05 0.000000000000D+00 0.000000000000D+00 0.630143490527D-07 0.000000000000D+00  7 1 -1 23 -11 11 23 21 0 0.12308455D+00 0.91130563D-02 0.27012035D+05 0.27012035D+05 0.27012035D+05 0.11715872D+01  1  2  2  2  7  2       -1 0.292967232989D-03 0.100000000000D+01
-.841489338350D-07 0.000000000000D+00 -.643487524941D-08 0.630143490527D-07 0.000000000000D+00  7 1 -1 23 -11 11 23 21 2 0.12308455D+00 0.91130563D-02 0.27012035D+05 0.27012035D+05 0.27012035D+05 0.11715872D+01  1  2  3  2  7  2       -1 -.201947158639D-04 0.100000000000D+01
0.103998280330D-06 0.000000000000D+00 0.000000000000D+00 0.630143490527D-07 0.000000000000D+00  7 1 -1 23 -11 11 23 21 2 0.12308455D+00 0.91130563D-02 0.27012035D+05 0.27012035D+05 0.27012035D+05 0.11715872D+01  1  2 15  2  7  2       -1 0.249583164739D-04 0.100000000000D+01
0.527556374859D-08 0.000000000000D+00 0.000000000000D+00 0.630143490527D-07 0.000000000000D+00  7 1 -1 23 -11 11 23 21 2 0.12308455D+00 0.17121465D-01 0.67512835D+05 0.67512835D+05 0.67512835D+05 0.11359977D+01  1  2 12  2  7  2       -1 0.450999275276D-06 0.100000000000D+01
-.524010572458D-06 0.000000000000D+00 -.532369550722D-06 0.630143490527D-07 0.000000000000D+00  7 1 -1 23 -11 11 23 21 2 0.12308455D+00 0.20452889D-01 0.27012035D+05 0.27012035D+05 0.27012035D+05 0.11715872D+01  1  2  5  2  7  2       -1 -.362569418813D-04 0.100000000000D+01
0.362035677369D-09 0.000000000000D+00 0.000000000000D+00 0.630143490527D-07 0.000000000000D+00  7 1 21 23 -11 11 23 1 2 0.12308455D+00 0.17121465D-01 0.67512835D+05 0.67512835D+05 0.67512835D+05 0.11359977D+01  1  2 12  4  7  2       -1 0.392046330815D-06 0.100000000000D+01
-.123448142173D-07 0.000000000000D+00 -.467236105272D-07 0.630143490527D-07 0.000000000000D+00  7 1 21 23 -11 11 23 1 2 0.12308455D+00 0.20452889D-01 0.27012035D+05 0.27012035D+05 0.27012035D+05 0.11715872D+01  1  2  5  4  7  2       -1 -.106150915166D-04 0.100000000000D+01
  </mgrwgt>
  </event>
  <event>
  8     66 0.25924217E-05 0.25462285E+03 0.75467711E-02 0.96957667E-01
        1 -1    0    0  501    0 0.00000000E+00 0.00000000E+00 0.10532411E+04 0.10532411E+04 0.32000000E+00 0.0000E+00 0.9000E+01
       -1 -1    0    0    0  501 0.00000000E+00 0.00000000E+00 -.80659395E+03 0.80659401E+03 0.32000000E+00 0.0000E+00 0.9000E+01
       25  2    1    2    0    0 0.92927585E+02 0.37474576E+03 -.68793150E+03 0.84454090E+03 0.30154547E+03 0.0000E+00 0.0000E+00
       23  2    3    3    0    0 0.25908360E+02 0.21135814E+03 -.16331289E+03 0.28353553E+03 0.91530272E+02 0.0000E+00 0.0000E+00
       23  1    1    2    0    0 -.92927585E+02 -.37474576E+03 0.93457862E+03 0.10152942E+04 0.91188000E+02 0.0000E+00 0.9000E+01
      -11  1    4    4    0    0 0.13021298E+02 0.26307809E+02 -.69965386E+02 0.75873646E+02 0.51099893E-03 0.0000E+00 0.9000E+01
       11  1    4    4    0    0 0.12887062E+02 0.18505034E+03 -.93347504E+02 0.20766189E+03 0.51099893E-03 0.0000E+00 0.9000E+01
       23  1    3    3    0    0 0.67019225E+02 0.16338762E+03 -.52461861E+03 0.56100537E+03 0.91188000E+02 0.0000E+00 0.9000E+01
#aMCatNLO 1  0  0  1  2 0.77660356D+01 0.00000000D+00  -5  7  0 0.00000000D+00 0.00000000D+00 0.00000000D+00 0.00000000D+00 0.00000000D+00
  <mgrwgt>
 0.1593330294D-02   11    2    0
 0.921703844256587D+03 0.000000000000000D+00 0.000000000000000D+00 0.921703844256587D+03
 0.921703844256587D+03 0.000000000000000D+00 0.000000000000000D+00 -.921703844256587D+03
 0.899295773519680D+03 -.929275852684505D+02 -.374745759999571D+03 0.807061160126591D+03
 0.859111279502017D+02 0.130212975843599D+02 0.263078085781694D+02 -.807407389284360D+02
 0.222002311242448D+03 0.128870623167962D+02 0.185050335739686D+03 -.121964433604478D+03
 0.636198475800844D+03 0.670192253672944D+02 0.163387615681715D+03 -.604355987593677D+03
 0.000000000000000D+00 -.000000000000000D+00 0.000000000000000D+00 0.000000000000000D+00
 0.938856224680212D+03 0.000000000000000D+00 0.000000000000000D+00 0.938856224680212D+03
 0.922591494511601D+03 0.000000000000000D+00 0.000000000000000D+00 -.922591494511601D+03
 0.900849668405070D+03 -.926504097584255D+02 -.378527487916323D+03 0.807061160126591D+03
 0.858053653690383D+02 0.130477374516656D+02 0.259470682505113D+02 -.807407389284360D+02
 0.221230742557055D+03 0.129553086622779D+02 0.184119196080555D+03 -.121964433604478D+03
 0.635538270755716D+03 0.672150397015892D+02 0.160715963577833D+03 -.604355987593677D+03
 0.180236721049329D+02 -.567676057107199D+00 0.774526000742363D+01 0.162647301686111D+02
0.320742561702D-03 0.000000000000D+00 0.000000000000D+00 0.153355823007D-05 0.000000000000D+00  7 1 -1 23 -11 11 23 21 0 0.16203710D+00 0.12409139D+00 0.16415562D+06 0.16415562D+06 0.16415562D+06 0.11044745D+01  1  2  2  1  7  1        1 0.335117682867D-03 0.100000000000D+01
-.318228130896D-05 0.000000000000D+00 -.123173589039D-05 0.153355823007D-05 0.000000000000D+00  7 1 -1 23 -11 11 23 21 2 0.16203710D+00 0.12409139D+00 0.16415562D+06 0.16415562D+06 0.16415562D+06 0.11044745D+01  1  2  3  1  7  1        1 -.405593212362D-05 0.100000000000D+01
0.185809015702D-04 0.000000000000D+00 0.000000000000D+00 0.153355823007D-05 0.000000000000D+00  7 1 -1 23 -11 11 23 21 2 0.16203710D+00 0.12409139D+00 0.16415562D+06 0.16415562D+06 0.16415562D+06 0.11044745D+01  1  2 15  1  7  1        1 0.236820281577D-04 0.100000000000D+01
0.108900869302D-02 0.000000000000D+00 0.000000000000D+00 0.153355823007D-05 0.000000000000D+00  7 1 -1 23 -11 11 23 21 2 0.16512976D+00 0.12409139D+00 0.16737909D+06 0.16737909D+06 0.16737909D+06 0.11038143D+01  1  2 12  1  7  1        1 0.133811141537D-02 0.100000000000D+01
-.128896085303D-02 0.000000000000D+00 0.000000000000D+00 0.153355823007D-05 0.000000000000D+00  7 1 -1 23 -11 11 23 21 2 0.16203710D+00 0.12409139D+00 0.16415562D+06 0.16415562D+06 0.16415562D+06 0.11044745D+01  1  2  4  1  7  1        1 -.164282702323D-02 0.100000000000D+01
-.311547168980D-01 0.000000000000D+00 -.198680918694D-02 0.153355823007D-05 0.000000000000D+00  7 1 -1 23 -11 11 23 21 2 0.16512346D+00 0.12409139D+00 0.16415562D+06 0.16415562D+06 0.16415562D+06 0.11044745D+01  1  2  5  1  7  1        1 -.383761270039D-01 0.100000000000D+01
0.311870063598D-01 0.000000000000D+00 0.198645558022D-02 0.153355823007D-05 0.000000000000D+00  7 1 -1 23 -11 11 23 21 2 0.16203710D+00 0.12409139D+00 0.16415562D+06 0.16415562D+06 0.16415562D+06 0.11044745D+01  1  2  6  1  7  1        1 0.397489626634D-01 0.100000000000D+01
0.184380369887D-03 0.000000000000D+00 0.000000000000D+00 0.153355823007D-05 0.165253555179D-06  7 1 -1 23 -11 11 23 21 2 0.16505251D+00 0.12421089D+00 0.16737909D+06 0.16737909D+06 0.16737909D+06 0.11038143D+01  1  2 11  1  7  1        1 0.226204020892D-03 0.100000000000D+01
0.701040698819D-04 0.000000000000D+00 0.000000000000D+00 0.153355823007D-05 0.000000000000D+00  7 21 -1 23 -11 11 23 -1 2 0.16512976D+00 0.12409139D+00 0.16737909D+06 0.16737909D+06 0.16737909D+06 0.11038143D+01  1  2 12  3  7  1        1 0.106960964088D-03 0.100000000000D+01
-.106909078919D-03 0.000000000000D+00 -.683411030301D-05 0.153355823007D-05 0.000000000000D+00  7 21 -1 23 -11 11 23 -1 2 0.16512346D+00 0.12409139D+00 0.16415562D+06 0.16415562D+06 0.16415562D+06 0.11044745D+01  1  2  5  3  7  1        1 -.163657183663D-03 0.100000000000D+01
0.628927229210D-06 0.000000000000D+00 0.000000000000D+00 0.153355823007D-05 0.557041087531D-09  7 21 -1 23 -11 11 23 -1 2 0.16505251D+00 0.12421089D+00 0.16737909D+06 0.16737909D+06 0.16737909D+06 0.11038143D+01  1  2 11  3  7  1        1 0.958662586878D-06 0.100000000000D+01
  </mgrwgt>
  </event>
  <event>
  8     66 0.25924217E-05 0.22737516E+03 0.75467711E-02 0.10226860E+00
        3 -1    0    0  501    0 0.00000000E+00 0.00000000E+00 0.18466377E+03 0.18466445E+03 0.50000000E+00 0.0000E+00 0.9000E+01
       -3 -1    0    0    0  501 0.00000000E+00 0.00000000E+00 -.68275364E+03 0.68275382E+03 0.50000000E+00 0.0000E+00 0.9000E+01
       25  2    1    2    0    0 0.52843995E+02 -.94735667E+02 0.30175583E+02 0.32047498E+03 0.30004385E+03 0.0000E+00 0.0000E+00
       23  2    3    3    0    0 -.77179548E+02 0.19563349E+02 0.82107463E+01 0.12357883E+03 0.94153618E+02 0.0000E+00 0.0000E+00
       23  1    1    2    0    0 -.52843995E+02 0.94735667E+02 -.52826545E+03 0.54694330E+03 0.91188000E+02 0.0000E+00 0.9000E+01
      -13  1    4    4    0    0 0.14091656E+02 -.14245859E+02 -.13101137E+02 0.23940973E+02 0.10565837E+00 0.0000E+00 0.9000E+01
       13  1    4    4    0    0 -.91271204E+02 0.33809207E+02 0.21311883E+02 0.99637858E+02 0.10565837E+00 0.0000E+00 0.9000E+01
       23  1    3    3    0    0 0.13002354E+03 -.11429902E+03 0.21964837E+02 0.19689615E+03 0.91188000E+02 0.0000E+00 0.9000E+01
#aMCatNLO 1  0  0  1  2 0.76698850D+02 0.00000000D+00  -5  7  0 0.00000000D+00 0.00000000D+00 0.00000000D+00 0.00000000D+00 0.00000000D+00
  <mgrwgt>
 0.8029054282D-04    4    2    0
 0.355077790498835D+03 0.000000000000000D+00 0.000000000000000D+00 0.355077790498835D+03
 0.355077790498835D+03 0.000000000000000D+00 0.000000000000000D+00 -.355077790498835D+03
 0.297547397764479D+03 -.528439951307342D+02 0.947356674077889D+02 -.261633079085647D+03
 0.200536175794490D+02 0.140917866757023D+02 -.142459179087807D+02 0.789271338367431D+00
 0.136650387533371D+03 -.912713368258463D+02 0.338092679992420D+02 0.959156133504803D+02
 0.255904178120371D+03 0.130023545280878D+03 -.114299017498250D+03 0.164928194396800D+03
 0.000000000000000D+00 -.000000000000000D+00 -.000000000000000D+00 -.000000000000000D+00
 0.362663411885534D+03 0.000000000000000D+00 0.000000000000000D+00 0.362663411885534D+03
 0.623536107151689D+03 0.000000000000000D+00 0.000000000000000D+00 -.623536107151689D+03
 0.298668766080222D+03 -.240325684884630D+02 0.108896042480400D+03 -.261633079085647D+03
 0.208574744562053D+02 0.160687658294366D+02 -.132742629235833D+02 0.789271338367431D+00
 0.130208898003303D+03 -.783756838810002D+02 0.401472839806282D+02 0.959156133504803D+02
 0.264550282533763D+03 0.155173879040842D+03 -.101938013523531D+03 0.164928194396800D+03
 0.271914097963729D+03 -.688343925008153D+02 -.338310500139146D+02 -.260872695266155D+03
0.227210404774D-04 0.000000000000D+00 0.000000000000D+00 0.246180213035D-06 0.000000000000D+00  7 3 -3 23 -13 13 23 21 0 0.28409878D-01 0.10503909D+00 0.51699461D+05 0.51699461D+05 0.51699461D+05 0.11460208D+01  1  2  2  1  7  1        3 0.814971063792D-04 0.100000000000D+01
-.957355891458D-06 0.000000000000D+00 -.872547780207D-07 0.246180213035D-06 0.000000000000D+00  7 3 -3 23 -13 13 23 21 2 0.28409878D-01 0.10503909D+00 0.51699461D+05 0.51699461D+05 0.51699461D+05 0.11460208D+01  1  2  3  1  7  1        3 -.450995648317D-05 0.100000000000D+01
0.135114050266D-05 0.000000000000D+00 0.000000000000D+00 0.246180213035D-06 0.000000000000D+00  7 3 -3 23 -13 13 23 21 2 0.28409878D-01 0.10503909D+00 0.51699461D+05 0.51699461D+05 0.51699461D+05 0.11460208D+01  1  2 15  1  7  1        3 0.636501527177D-05 0.100000000000D+01
-.649909196714D-06 0.000000000000D+00 0.000000000000D+00 0.246180213035D-06 0.000000000000D+00  7 3 -3 23 -13 13 23 21 2 0.28409878D-01 0.10503909D+00 0.51699461D+05 0.51699461D+05 0.51699461D+05 0.11460208D+01  1  2  4  1  7  1        3 -.306162235105D-05 0.100000000000D+01
  </mgrwgt>
  </event>
  <event>
  8     66 0.25924217E-05 0.14526432E+03 0.75467711E-02 0.10479201E+00
        1 -1    0    0  501    0 0.00000000E+00 0.00000000E+00 0.13163503E+04 0.13163503E+04 0.32000000E+00 0.0000E+00 0.9000E+01
       -1 -1    0    0    0  501 0.00000000E+00 0.00000000E+00 -.36523547E+02 0.36524949E+02 0.32000000E+00 0.0000E+00 0.9000E+01
       25  2    1    2    0    0 -.31858654E+02 0.39137274E+02 0.11306007E+04 0.11708578E+04 0.30017217E+03 0.0000E+00 0.0000E+00
       23  2    3    3    0    0 0.52813850E+01 -.48695337E+02 0.15714798E+03 0.18850379E+03 0.91864362E+02 0.0000E+00 0.0000E+00
       23  1    1    2    0    0 0.31858654E+02 -.39137274E+02 0.14922603E+03 0.18201747E+03 0.91188000E+02 0.0000E+00 0.9000E+01
      -11  1    4    4    0    0 -.31092153E+01 -.45147082E+02 0.16819982E+03 0.17418124E+03 0.51099893E-03 0.0000E+00 0.9000E+01
       11  1    4    4    0    0 0.83906003E+01 -.35482548E+01 -.11051835E+02 0.14322547E+02 0.51099893E-03 0.0000E+00 0.9000E+01
       23  1    3    3    0    0 -.37140039E+02 0.87832610E+02 0.97345272E+03 0.98235401E+03 0.91188000E+02 0.0000E+00 0.9000E+01
#aMCatNLO 1  0  0  2  2 0.12728171D+03 0.00000000D+00  -5  7  0 0.00000000D+00 0.00000000D+00 0.00000000D+00 0.00000000D+00 0.00000000D+00
  <mgrwgt>
 0.3341463822D-03    4    2    0
 0.219268683975910D+03 0.000000000000000D+00 0.000000000000000D+00 0.219268683975910D+03
 0.219268683975910D+03 0.000000000000000D+00 0.000000000000000D+00 -.219268683975910D+03
 0.126017699587693D+03 0.318586536086153D+02 -.391372735385990D+02 -.708414375601256D+02
 0.464700888328598D+02 -.310921530837425D+01 -.451470817685012D+02 0.105613893067302D+02
 0.764383066259673D+02 0.839060024307649D+01 -.354825474459701D+01 -.758934940273125D+02
 0.189611272905301D+03 -.371400385433176D+02 0.878326100516972D+02 0.136173542280708D+03
 0.000000000000000D+00 -.000000000000000D+00 0.000000000000000D+00 0.000000000000000D+00
 0.349341494713129D+03 0.000000000000000D+00 0.000000000000000D+00 0.349341494713129D+03
 0.261783339317700D+03 0.000000000000000D+00 0.000000000000000D+00 -.261783339317700D+03
 0.145863840724751D+03 0.558457835119400D+02 -.694532063718290D+02 -.708414375601256D+02
 0.581038166933940D+02 0.611696405442319D+01 -.568075111319631D+02 0.105613893067302D+02
 0.819115137439263D+02 0.223612350534271D+02 -.212049243109494D+02 -.758934940273125D+02
 0.170755974559166D+03 -.534613312443594D+01 0.476501494959936D+02 0.136173542280708D+03
 0.154489688309592D+03 -.789778494953543D+02 0.998154923187478D+02 0.875581553954293D+02
0.258487182541D-05 0.000000000000D+00 0.000000000000D+00 0.149639045360D-06 0.000000000000D+00  7 1 -1 23 -11 11 23 21 0 0.20251554D+00 0.56191181D-02 0.21101724D+05 0.21101724D+05 0.21101724D+05 0.11817844D+01  1  2  2  2  7  2       -1 0.390417344828D-03 0.100000000000D+01
-.114003416732D-06 0.000000000000D+00 -.992658842196D-08 0.149639045360D-06 0.000000000000D+00  7 1 -1 23 -11 11 23 21 2 0.20251554D+00 0.56191181D-02 0.21101724D+05 0.21101724D+05 0.21101724D+05 0.11817844D+01  1  2  3  2  7  2       -1 -.240483059925D-04 0.100000000000D+01
0.151419236565D-06 0.000000000000D+00 0.000000000000D+00 0.149639045360D-06 0.000000000000D+00  7 1 -1 23 -11 11 23 21 2 0.20251554D+00 0.56191181D-02 0.21101724D+05 0.21101724D+05 0.21101724D+05 0.11817844D+01  1  2 15  2  7  2       -1 0.319409386003D-04 0.100000000000D+01
-.304173986074D-06 0.000000000000D+00 0.000000000000D+00 0.149639045360D-06 0.000000000000D+00  7 1 -1 23 -11 11 23 21 2 0.20251554D+00 0.56191181D-02 0.21101724D+05 0.21101724D+05 0.21101724D+05 0.11817844D+01  1  2  4  2  7  2       -1 -.641635952828D-04 0.100000000000D+01
  </mgrwgt>
  </event>
  <event>
  8     66 0.25924217E-05 0.16242590E+03 0.75467711E-02 0.10361786E+00
        1 -1    0    0  501    0 0.00000000E+00 0.00000000E+00 0.44723388E+03 0.44723400E+03 0.32000000E+00 0.0000E+00 0.9000E+01
       -1 -1    0    0    0  501 0.00000000E+00 0.00000000E+00 -.81367433E+03 0.81367440E+03 0.32000000E+00 0.0000E+00 0.9000E+01
       25  2    1    2    0    0 -.10267326E+03 -.33260198E-01 -.77111771E+03 0.83356692E+03 0.29944863E+03 0.0000E+00 0.0000E+00
       23  2    3    3    0    0 0.59009156E+02 0.55230056E+02 -.27835594E+03 0.30410997E+03 0.92023956E+02 0.0000E+00 0.0000E+00
       23  1    1    2    0    0 0.10267326E+03 0.33260198E-01 0.40467726E+03 0.42734148E+03 0.91188000E+02 0.0000E+00 0.9000E+01
      -13  1    4    4    0    0 0.15830101E+01 -.18750353E+02 -.10874240E+03 0.11035852E+03 0.10565837E+00 0.0000E+00 0.9000E+01
       13  1    4    4    0    0 0.57426146E+02 0.73980410E+02 -.16961353E+03 0.19375145E+03 0.10565837E+00 0.0000E+00 0.9000E+01
       23  1    3    3    0    0 -.16168241E+03 -.55263317E+02 -.49276177E+03 0.52945694E+03 0.91188000E+02 0.0000E+00 0.9000E+01
#aMCatNLO 1  0  0  2  1 0.36554000D+02 0.00000000D+00  -5  7  0 0.00000000D+00 0.00000000D+00 0.00000000D+00 0.00000000D+00 0.00000000D+00
  <mgrwgt>
 0.5283305377D-03    9    2    0
 0.603243601625614D+03 0.000000000000000D+00 0.000000000000000D+00 0.603243601625614D+03
 0.603243601625614D+03 0.000000000000000D+00 0.000000000000000D+00 -.603243601625614D+03
 0.569528271618838D+03 0.102673255857601D+03 0.332601975109311D-01 0.552725431163159D+03
 0.823085907069173D+02 0.158293648298126D+01 -.187504753980791D+02 -.801287594350226D+02
 0.150975229229417D+03 0.574262198279071D+02 0.739805319010795D+02 -.118417186323546D+03
 0.403675111696056D+03 -.161682412168490D+03 -.552633167005113D+02 -.354179485404591D+03
 0.000000000000000D+00 -.000000000000000D+00 -.000000000000000D+00 -.000000000000000D+00
 0.615144426336910D+03 0.000000000000000D+00 0.000000000000000D+00 0.615144426336910D+03
 0.632258235210098D+03 0.000000000000000D+00 0.000000000000000D+00 -.632258235210098D+03
 0.572671181463954D+03 0.118695616056687D+03 0.655585309051166D+01 0.552725431163159D+03
 0.821765796217704D+02 0.389027487235022D+01 -.178111737725230D+02 -.801287594350226D+02
 0.153501119781859D+03 0.616973037640746D+02 0.757192608636854D+02 -.118417186323546D+03
 0.398691949658936D+03 -.150427097666094D+03 -.506813553995785D+02 -.354179485404591D+03
 0.403618310204890D+02 -.338560970270177D+02 -.137825847820956D+02 -.171138088731883D+02
0.645545515223D-04 0.000000000000D+00 0.000000000000D+00 0.188160761846D-05 0.000000000000D+00  7 1 -1 23 -13 13 23 21 0 0.68805226D-01 0.12518068D+00 0.49165838D+05 0.49165838D+05 0.49165838D+05 0.11479386D+01  1  2  2  2  7  2       -1 0.257650640054D-03 0.100000000000D+01
0.781494814001D-06 0.000000000000D+00 -.247906475449D-06 0.188160761846D-05 0.000000000000D+00  7 1 -1 23 -13 13 23 21 2 0.68805226D-01 0.12518068D+00 0.49165838D+05 0.49165838D+05 0.49165838D+05 0.11479386D+01  1  2  3  2  7  2       -1 0.411024580497D-05 0.100000000000D+01
0.369424322975D-05 0.000000000000D+00 0.000000000000D+00 0.188160761846D-05 0.000000000000D+00  7 1 -1 23 -13 13 23 21 2 0.68805226D-01 0.12518068D+00 0.49165838D+05 0.49165838D+05 0.49165838D+05 0.11479386D+01  1  2 15  2  7  2       -1 0.194297485608D-04 0.100000000000D+01
0.192302369371D-03 0.000000000000D+00 0.000000000000D+00 0.188160761846D-05 0.000000000000D+00  7 1 -1 23 -13 13 23 21 2 0.68805226D-01 0.13239352D+00 0.58889680D+05 0.58889680D+05 0.58889680D+05 0.11410962D+01  1  2 12  2  7  2       -1 0.861009412072D-03 0.100000000000D+01
-.186067698186D-03 0.000000000000D+00 0.000000000000D+00 0.188160761846D-05 0.000000000000D+00  7 1 -1 23 -13 13 23 21 2 0.68805226D-01 0.12518068D+00 0.49165838D+05 0.49165838D+05 0.49165838D+05 0.11479386D+01  1  2  4  2  7  2       -1 -.978616827917D-03 0.100000000000D+01
-.593162008594D-03 0.000000000000D+00 -.128154902706D-03 0.188160761846D-05 0.000000000000D+00  7 1 -1 23 -13 13 23 21 2 0.68805226D-01 0.13293773D+00 0.49165838D+05 0.49165838D+05 0.49165838D+05 0.11479386D+01  1  2  5  2  7  2       -1 -.268211644181D-02 0.100000000000D+01
0.600013525384D-03 0.000000000000D+00 0.127923628096D-03 0.188160761846D-05 0.000000000000D+00  7 1 -1 23 -13 13 23 21 2 0.68805226D-01 0.12518068D+00 0.49165838D+05 0.49165838D+05 0.49165838D+05 0.11479386D+01  1  2  6  2  7  2       -1 0.315575104460D-02 0.100000000000D+01
0.243170730100D-05 0.000000000000D+00 0.000000000000D+00 0.188160761846D-05 0.000000000000D+00  7 1 21 23 -13 13 23 1 2 0.68805226D-01 0.13239352D+00 0.58889680D+05 0.58889680D+05 0.58889680D+05 0.11410962D+01  1  2 12  4  7  2       -1 0.731652426826D-04 0.100000000000D+01
-.596244079536D-05 0.000000000000D+00 -.132298119353D-05 0.188160761846D-05 0.000000000000D+00  7 1 21 23 -13 13 23 1 2 0.68805226D-01 0.13293773D+00 0.49165838D+05 0.49165838D+05 0.49165838D+05 0.11479386D+01  1  2  5  4  7  2       -1 -.182052526320D-03 0.100000000000D+01
  </mgrwgt>
  </event>
  <event>
  8     66 0.25924217E-05 0.14879479E+03 0.75467711E-02 0.98928007E-01
        1 -1    0    0  501    0 0.00000000E+00 0.00000000E+00 0.34463112E+03 0.34463126E+03 0.32000000E+00 0.0000E+00 0.9000E+01
       -1 -1    0    0    0  501 0.00000000E+00 0.00000000E+00 -.14130026E+03 0.14130063E+03 0.32000000E+00 0.0000E+00 0.9000E+01
       25  2    1    2    0    0 -.65848231E+02 0.25188221E+02 0.83187701E+02 0.31943846E+03 0.30025039E+03 0.0000E+00 0.0000E+00
       23  2    3    3    0    0 -.11362556E+02 -.27883790E+02 -.74044034E+02 0.12240446E+03 0.92702312E+02 0.0000E+00 0.0000E+00
       23  1    1    2    0    0 0.65848231E+02 -.25188221E+02 0.12014315E+03 0.16649343E+03 0.91188000E+02 0.0000E+00 0.9000E+01
      -13  1    4    4    0    0 -.32754624E+02 -.66185504E+01 -.84190603E+02 0.90580016E+02 0.10565837E+00 0.0000E+00 0.9000E+01
       13  1    4    4    0    0 0.21392068E+02 -.21265240E+02 0.10146569E+02 0.31824441E+02 0.10565837E+00 0.0000E+00 0.9000E+01
       23  1    3    3    0    0 -.54485675E+02 0.53072011E+02 0.15723173E+03 0.19703400E+03 0.91188000E+02 0.0000E+00 0.9000E+01
#aMCatNLO 1  0  0  2  2 0.29250774D+03 0.00000000D+00  -5  7  0 0.00000000D+00 0.00000000D+00 0.00000000D+00 0.00000000D+00 0.00000000D+00
  <mgrwgt>
 0.4415239175D-03    3    2    0
 0.220673043316267D+03 0.000000000000000D+00 0.000000000000000D+00 0.220673043316267D+03
 0.220673043316267D+03 0.000000000000000D+00 0.000000000000000D+00 -.220673043316267D+03
 0.127962313556825D+03 0.658482441041284D+02 -.251882260728874D+02 0.555757533688877D+02
 0.138517885615410D+03 -.327546948709345D+02 -.661853184492882D+01 -.134426670104907D+03
 0.303646851450015D+02 0.213921321667006D+02 -.212652543246658D+02 -.348994897165710D+01
 0.144501202315297D+03 -.544856813998945D+02 0.530720122424821D+02 0.823408657076761D+02
 0.000000000000000D+00 -.000000000000000D+00 -.000000000000000D+00 0.000000000000000D+00
 0.455669113626253D+03 0.000000000000000D+00 0.000000000000000D+00 0.455669113626253D+03
 0.376770686841260D+03 0.000000000000000D+00 0.000000000000000D+00 -.376770686841260D+03
 0.192445913502967D+03 0.160046895470597D+03 -.406265525186120D+01 0.555757533688877D+02
 0.144036085935493D+03 0.503149669245094D+02 0.120111831019565D+02 -.134426670104907D+03
 0.471783058611292D+02 0.441894405964142D+02 -.161525892623280D+02 -.348994897165710D+01
 0.145817878794939D+03 0.308668894672494D+02 0.722137064647876D+02 0.823408657076761D+02
 0.302961616372986D+03 -.285418192458770D+03 -.640096450525549D+02 0.788984267849926D+02
0.294931787478D-05 0.000000000000D+00 0.000000000000D+00 0.719597414375D-07 0.000000000000D+00  7 1 -1 23 -13 13 23 21 0 0.53020211D-01 0.21738542D-01 0.22139888D+05 0.22139888D+05 0.22139888D+05 0.11797797D+01  1  2  2  2  7  2       -1 0.432094222877D-03 0.100000000000D+01
-.132907133668D-06 0.000000000000D+00 -.113261572124D-07 0.719597414375D-07 0.000000000000D+00  7 1 -1 23 -13 13 23 21 2 0.53020211D-01 0.21738542D-01 0.22139888D+05 0.22139888D+05 0.22139888D+05 0.11797797D+01  1  2  3  2  7  2       -1 -.271023520566D-04 0.100000000000D+01
0.179149381575D-06 0.000000000000D+00 0.000000000000D+00 0.719597414375D-07 0.000000000000D+00  7 1 -1 23 -13 13 23 21 2 0.53020211D-01 0.21738542D-01 0.22139888D+05 0.22139888D+05 0.22139888D+05 0.11797797D+01  1  2 15  2  7  2       -1 0.365320466719D-04 0.100000000000D+01
  </mgrwgt>
  </event>
  <event>
  9     66 0.25924217E-05 0.23783987E+03 0.75467711E-02 0.10305657E+00
        1 -1    0    0  502    0 0.00000000E+00 0.00000000E+00 0.11953432E+03 0.11953474E+03 0.32000000E+00 0.0000E+00 0.9000E+01
       -1 -1    0    0    0  501 0.00000000E+00 0.00000000E+00 -.57622216E+03 0.57622225E+03 0.32000000E+00 0.0000E+00 0.9000E+01
       25  2    1    2    0    0 -.12749696E+03 -.78270429E+02 -.23437446E+03 0.40944214E+03 0.30054907E+03 0.0000E+00 0.0000E+00
       23  2    3    3    0    0 -.13948611E+03 0.52136095E+02 -.14468477E+03 0.22638725E+03 0.90238339E+02 0.0000E+00 0.0000E+00
       23  1    1    2    0    0 0.10123233E+03 0.64775981E+02 -.18412922E+03 0.23803935E+03 0.91188000E+02 0.0000E+00 0.9000E+01
      -11  1    4    4    0    0 -.13532830E+03 0.24010961E+02 -.14233047E+03 0.19785914E+03 0.51099893E-03 0.0000E+00 0.9000E+01
       11  1    4    4    0    0 -.41578122E+01 0.28125133E+02 -.23542935E+01 0.28528113E+02 0.51099893E-03 0.0000E+00 0.9000E+01
       23  1    3    3    0    0 0.11989151E+02 -.13040652E+03 -.89689694E+02 0.18305489E+03 0.91188000E+02 0.0000E+00 0.9000E+01
       21  1    1    2  502  501 0.26264634E+02 0.13494448E+02 -.38184164E+02 0.48275501E+02 0.75000000E+00 0.0000E+00 0.9000E+01
#aMCatNLO 2  0  0  1  1 0.29528480D+02 0.00000000D+00  -5  7  0 0.00000000D+00 0.00000000D+00 0.00000000D+00 0.00000000D+00 0.00000000D+00
  <mgrwgt>
 0.1961206504D-03    1    2    0
 0.246584175136923D+03 0.000000000000000D+00 0.000000000000000D+00 0.246584175136923D+03
 0.246584175136923D+03 0.000000000000000D+00 0.000000000000000D+00 -.246584175136923D+03
 0.163433569564434D+03 0.109730487326611D+03 0.691422326892230D+02 -.396718051818479D+02
 0.132437470838756D+03 -.128113740387403D+03 0.277177130239309D+02 -.189283277348681D+02
 0.360048940876855D+02 -.225828715394192D+01 0.291010859828327D+02 0.210803067343807D+02
 0.161292415782970D+03 0.206415402147341D+02 -.125961031695987D+03 0.375198261823353D+02
 0.000000000000000D+00 0.000000000000000D+00 0.000000000000000D+00 -.000000000000000D+00
 0.257908025863015D+03 0.000000000000000D+00 0.000000000000000D+00 0.257908025863015D+03
 0.267056839986533D+03 0.000000000000000D+00 0.000000000000000D+00 -.267056839986533D+03
 0.155990432231418D+03 0.101232325727474D+03 0.647759809278463D+02 -.396718051818479D+02
 0.138739165726772D+03 -.135328298048968D+03 0.240109613071166D+02 -.189283277348681D+02
 0.353933588554844D+02 -.415781219900993D+01 0.281251331868008D+02 0.210803067343807D+02
 0.163928612188903D+03 0.119891508025303D+02 -.130406523826307D+03 0.375198261823353D+02
 0.309132968469699D+02 0.262646337179735D+02 0.134944484045433D+02 -.914881412351820D+01
0.315632101420D-05 0.000000000000D+00 0.000000000000D+00 0.782673263765D-07 0.624391010054D-09  7 1 -1 23 -11 11 23 21 2 0.18389614D-01 0.88648059D-01 0.63968447D+05 0.63968447D+05 0.63968447D+05 0.11380013D+01  1  2  1  1  7  1        1 0.196120650447D-03 0.100000000000D+01
  </mgrwgt>
  </event>
  <event>
  8     66 0.25924217E-05 0.22117093E+03 0.75467711E-02 0.97762560E-01
        1 -1    0    0  501    0 0.00000000E+00 0.00000000E+00 0.13371839E+03 0.13371877E+03 0.32000000E+00 0.0000E+00 0.9000E+01
       -1 -1    0    0    0  501 0.00000000E+00 0.00000000E+00 -.51219621E+03 0.51219631E+03 0.32000000E+00 0.0000E+00 0.9000E+01
       25  2    1    2    0    0 0.36599994E+02 -.12203069E+03 -.12799936E+03 0.35047344E+03 0.30036103E+03 0.0000E+00 0.0000E+00
       23  2    3    3    0    0 -.82385370E+02 -.46463275E+02 0.13909136E+02 0.13065255E+03 0.89053018E+02 0.0000E+00 0.0000E+00
       23  1    1    2    0    0 -.36599994E+02 0.12203069E+03 -.25047846E+03 0.29544164E+03 0.91188000E+02 0.0000E+00 0.9000E+01
      -11  1    4    4    0    0 -.64121921E+02 0.38778404E+01 -.19984951E+02 0.67275974E+02 0.51099893E-03 0.0000E+00 0.9000E+01
       11  1    4    4    0    0 -.18263449E+02 -.50341115E+02 0.33894088E+02 0.63376578E+02 0.51099893E-03 0.0000E+00 0.9000E+01
       23  1    3    3    0    0 0.11898536E+03 -.75567415E+02 -.14190849E+03 0.21982089E+03 0.91188000E+02 0.0000E+00 0.9000E+01
#aMCatNLO 1  0  0  1  1 0.25910950D+03 0.00000000D+00  -5  7  0 0.00000000D+00 0.00000000D+00 0.00000000D+00 0.00000000D+00 0.00000000D+00
  <mgrwgt>
 0.2922750969D-03    3    2    0
 0.261706336432878D+03 0.000000000000000D+00 0.000000000000000D+00 0.261706336432878D+03
 0.261706336432878D+03 0.000000000000000D+00 0.000000000000000D+00 -.261706336432878D+03
 0.183468360136491D+03 -.365999936103333D+02 0.122030690074134D+03 -.954690472086494D+02
 0.685705694046855D+02 -.641219207825879D+02 0.387784039842042D+01 0.239846746377492D+02
 0.102718276526146D+03 -.182634493381978D+02 -.503411150258249D+02 0.876542234506104D+02
 0.168655466798433D+03 0.118985363731119D+03 -.755674154467294D+02 -.161698508797102D+02
 0.000000000000000D+00 -.000000000000000D+00 0.000000000000000D+00 -.000000000000000D+00
 0.308812572992766D+03 0.000000000000000D+00 0.000000000000000D+00 0.308812572992766D+03
 0.129142740872597D+04 0.000000000000000D+00 0.000000000000000D+00 -.129142740872597D+04
 0.166374352176579D+03 0.399442811942517D+02 0.930338064529421D+02 -.954690472086494D+02
 0.461483866118523D+02 -.390218429888653D+02 -.563069615151155D+01 0.239846746377492D+02
 0.114989119337437D+03 0.293701132585272D+02 -.683858985789542D+02 0.876542234506104D+02
 0.256524577395839D+03 0.212013164507794D+03 -.110808670518298D+03 -.161698508797102D+02
 0.101620354619703D+04 -.242305715971708D+03 0.917914587958221D+02 -.982614835733202D+03
0.545463325700D-05 0.000000000000D+00 0.000000000000D+00 0.560061542313D-07 0.000000000000D+00  7 1 -1 23 -11 11 23 21 0 0.20572097D-01 0.78799454D-01 0.48916582D+05 0.48916582D+05 0.48916582D+05 0.11481332D+01  1  2  2  1  7  1        1 0.288125389642D-03 0.100000000000D+01
-.292600563245D-06 0.000000000000D+00 -.209472279448D-07 0.560061542313D-07 0.000000000000D+00  7 1 -1 23 -11 11 23 21 2 0.20572097D-01 0.78799454D-01 0.48916582D+05 0.48916582D+05 0.48916582D+05 0.11481332D+01  1  2  3  1  7  1        1 -.203739697925D-04 0.100000000000D+01
0.352196542987D-06 0.000000000000D+00 0.000000000000D+00 0.560061542313D-07 0.000000000000D+00  7 1 -1 23 -11 11 23 21 2 0.20572097D-01 0.78799454D-01 0.48916582D+05 0.48916582D+05 0.48916582D+05 0.11481332D+01  1  2 15  1  7  1        1 0.245236770847D-04 0.100000000000D+01
  </mgrwgt>
  </event>
  <event>
  8     66 0.25924217E-05 0.17629922E+03 0.75467711E-02 0.97085430E-01
        1 -1    0    0  501    0 0.00000000E+00 0.00000000E+00 0.22879939E+04 0.22879939E+04 0.32000000E+00 0.0000E+00 0.9000E+01
       -1 -1    0    0    0  501 0.00000000E+00 0.00000000E+00 -.83730042E+02 0.83730654E+02 0.32000000E+00 0.0000E+00 0.9000E+01
       25  2    1    2    0    0 0.36890576E+02 0.35068822E+03 0.83210267E+03 0.95204690E+03 0.29942494E+03 0.0000E+00 0.0000E+00
       23  2    3    3    0    0 -.13285879E+02 0.15194517E+03 0.61367897E+03 0.63893248E+03 0.91482135E+02 0.0000E+00 0.0000E+00
       23  1    1    2    0    0 -.36890576E+02 -.35068822E+03 0.13721612E+04 0.14196777E+04 0.91188000E+02 0.0000E+00 0.9000E+01
      -11  1    4    4    0    0 0.15785389E+02 0.77875969E+01 0.17265772E+02 0.24656278E+02 0.51099893E-03 0.0000E+00 0.9000E+01
       11  1    4    4    0    0 -.29071267E+02 0.14415758E+03 0.59641320E+03 0.61427620E+03 0.51099893E-03 0.0000E+00 0.9000E+01
       23  1    3    3    0    0 0.50176455E+02 0.19874305E+03 0.21842370E+03 0.31311442E+03 0.91188000E+02 0.0000E+00 0.9000E+01
#aMCatNLO 1  0  0  1  2 0.52578039D+02 0.00000000D+00  -5  7  0 0.00000000D+00 0.00000000D+00 0.00000000D+00 0.00000000D+00 0.00000000D+00
  <mgrwgt>
 0.7507035229D-03    9    2    0
 0.437692331969816D+03 0.000000000000000D+00 0.000000000000000D+00 0.437692331969816D+03
 0.437692331969816D+03 0.000000000000000D+00 0.000000000000000D+00 -.437692331969816D+03
 0.391232731682191D+03 -.368905764424713D+02 -.350688220582556D+03 0.142844867985840D+03
 0.233264116316328D+02 0.157853885602912D+02 0.778759692763880D+01 -.153067410542424D+02
 0.162490738457342D+03 -.290712674191369D+02 0.144157576728115D+03 0.691136351737837D+02
 0.298334782168465D+03 0.501764553013170D+02 0.198743046926802D+03 -.196651762105382D+03
 0.000000000000000D+00 0.000000000000000D+00 -.000000000000000D+00 0.000000000000000D+00
 0.538005893316698D+03 0.000000000000000D+00 0.000000000000000D+00 0.538005893316698D+03
 0.445425242648636D+03 0.000000000000000D+00 0.000000000000000D+00 -.445425242648636D+03
 0.377019570290004D+03 -.514644890020844D+02 -.332829168041987D+03 0.142844867985840D+03
 0.231313975393570D+02 0.149040738582967D+02 0.886757085387956D+01 -.153067410542424D+02
 0.170595851370477D+03 -.353899921694157D+02 0.151900620117667D+03 0.691136351737837D+02
 0.306215414904903D+03 0.387080071269007D+02 0.212796625035489D+03 -.196651762105382D+03
 0.106468901860592D+03 0.332424001863026D+02 -.407356479650478D+02 0.925806506680624D+02
0.481575369159D-04 0.000000000000D+00 0.000000000000D+00 0.780105829556D-06 0.000000000000D+00  7 1 -1 23 -11 11 23 21 0 0.35199911D+00 0.12881594D-01 0.14183956D+06 0.14183956D+06 0.14183956D+06 0.11094741D+01  1  2  2  1  7  1        1 0.461869087938D-03 0.100000000000D+01
-.260194444779D-05 0.000000000000D+00 -.184937621928D-06 0.780105829556D-06 0.000000000000D+00  7 1 -1 23 -11 11 23 21 2 0.35199911D+00 0.12881594D-01 0.14183956D+06 0.14183956D+06 0.14183956D+06 0.11094741D+01  1  2  3  1  7  1        1 -.307175818196D-04 0.100000000000D+01
0.314082138773D-05 0.000000000000D+00 0.000000000000D+00 0.780105829556D-06 0.000000000000D+00  7 1 -1 23 -11 11 23 21 2 0.35199911D+00 0.12881594D-01 0.14183956D+06 0.14183956D+06 0.14183956D+06 0.11094741D+01  1  2 15  1  7  1        1 0.370793611832D-04 0.100000000000D+01
0.153452012363D-03 0.000000000000D+00 0.000000000000D+00 0.780105829556D-06 0.000000000000D+00  7 1 -1 23 -11 11 23 21 2 0.43529992D+00 0.12881594D-01 0.16383308D+06 0.16383308D+06 0.16383308D+06 0.11045413D+01  1  2 12  1  7  1        1 0.751617508599D-03 0.100000000000D+01
-.154234751337D-03 0.000000000000D+00 0.000000000000D+00 0.780105829556D-06 0.000000000000D+00  7 1 -1 23 -11 11 23 21 2 0.35199911D+00 0.12881594D-01 0.14183956D+06 0.14183956D+06 0.14183956D+06 0.11094741D+01  1  2  4  1  7  1        1 -.182083771913D-02 0.100000000000D+01
-.197426318746D-03 0.000000000000D+00 -.231597838683D-04 0.780105829556D-06 0.000000000000D+00  7 1 -1 23 -11 11 23 21 2 0.43472971D+00 0.12881594D-01 0.14183956D+06 0.14183956D+06 0.14183956D+06 0.11094741D+01  1  2  5  1  7  1        1 -.988818266868D-03 0.100000000000D+01
0.198385252955D-03 0.000000000000D+00 0.226531775204D-04 0.780105829556D-06 0.000000000000D+00  7 1 -1 23 -11 11 23 21 2 0.35199911D+00 0.12881594D-01 0.14183956D+06 0.14183956D+06 0.14183956D+06 0.11094741D+01  1  2  6  1  7  1        1 0.234206200851D-02 0.100000000000D+01
0.459757378138D-05 0.000000000000D+00 0.000000000000D+00 0.780105829556D-06 0.000000000000D+00  7 21 -1 23 -11 11 23 -1 2 0.43529992D+00 0.12881594D-01 0.16383308D+06 0.16383308D+06 0.16383308D+06 0.11045413D+01  1  2 12  3  7  1        1 0.600213194433D-05 0.100000000000D+01
-.559482570858D-05 0.000000000000D+00 -.690638083022D-06 0.780105829556D-06 0.000000000000D+00  7 21 -1 23 -11 11 23 -1 2 0.43472971D+00 0.12881594D-01 0.14183956D+06 0.14183956D+06 0.14183956D+06 0.11094741D+01  1  2  5  3  7  1        1 -.755300741799D-05 0.100000000000D+01
  </mgrwgt>
  </event>
  <event>
  8     66 0.25924217E-05 0.21934455E+03 0.75467711E-02 0.97331334E-01
        1 -1    0    0  501    0 0.00000000E+00 0.00000000E+00 0.64870407E+03 0.64870415E+03 0.32000000E+00 0.0000E+00 0.9000E+01
       -1 -1    0    0    0  501 0.00000000E+00 0.00000000E+00 -.26351424E+03 0.26351444E+03 0.32000000E+00 0.0000E+00 0.9000E+01
       25  2    1    2    0    0 -.70923979E+02 0.62519564E+02 0.59019574E+03 0.66874049E+03 0.29990653E+03 0.0000E+00 0.0000E+00
       23  2    3    3    0    0 0.82134062E+02 0.49444342E+02 0.19635123E+03 0.23627491E+03 0.89895950E+02 0.0000E+00 0.0000E+00
       23  1    1    2    0    0 0.70923979E+02 -.62519564E+02 -.20500591E+03 0.24347809E+03 0.91188000E+02 0.0000E+00 0.9000E+01
      -11  1    4    4    0    0 -.59557197E+01 -.17219798E+02 0.13630129E+02 0.22754614E+02 0.51099893E-03 0.0000E+00 0.9000E+01
       11  1    4    4    0    0 0.88089782E+02 0.66664140E+02 0.18272110E+03 0.21352030E+03 0.51099893E-03 0.0000E+00 0.9000E+01
       23  1    3    3    0    0 -.15305804E+03 0.13075222E+02 0.39384452E+03 0.43246558E+03 0.91188000E+02 0.0000E+00 0.9000E+01
#aMCatNLO 1  0  0  2  1 0.29156811D+03 0.00000000D+00  -5  7  0 0.00000000D+00 0.00000000D+00 0.00000000D+00 0.00000000D+00 0.00000000D+00
  <mgrwgt>
 0.4150248687D-03    5    2    0
 0.413452399535205D+03 0.000000000000000D+00 0.000000000000000D+00 0.413452399535205D+03
 0.413452399535205D+03 0.000000000000000D+00 0.000000000000000D+00 -.413452399535205D+03
 0.364094436675445D+03 0.709239792839999D+02 -.625195643337437D+02 -.339574146118416D+03
 0.187530592507705D+02 -.595571972446178D+01 -.172197979907670D+02 0.443679963303975D+01
 0.150434337059199D+03 0.880897817331641D+02 0.666641404153054D+02 0.102110589574895D+03
 0.293622966084995D+03 -.153058041292702D+03 0.130752219092054D+02 0.233026756910481D+03
 0.000000000000000D+00 0.000000000000000D+00 -.000000000000000D+00 -.000000000000000D+00
 0.484182953494682D+03 0.000000000000000D+00 0.000000000000000D+00 0.484182953494682D+03
 0.902628634246986D+03 0.000000000000000D+00 0.000000000000000D+00 -.902628634246986D+03
 0.357549303185475D+03 0.339810285705380D+02 0.553257792503264D+02 -.339574146118416D+03
 0.147191431247235D+02 -.766925488637868D+01 -.117537446301215D+02 0.443679963303975D+01
 0.172650401774399D+03 0.715501751049661D+02 0.119424290544166D+03 0.102110589574895D+03
 0.331884158313772D+03 -.185079491200986D+03 0.115221333511674D+03 0.233026756910481D+03
 0.510008581343299D+03 0.872175424118604D+02 -.278217658676045D+03 -.418445680752304D+03
0.200339043361D-04 0.000000000000D+00 0.000000000000D+00 0.105394702755D-05 0.000000000000D+00  7 1 -1 23 -11 11 23 21 0 0.99800648D-01 0.40540674D-01 0.48112034D+05 0.48112034D+05 0.48112034D+05 0.11487687D+01  1  2  2  2  7  2       -1 0.445378011309D-03 0.100000000000D+01
-.569226040328D-06 0.000000000000D+00 -.769354676990D-07 0.105394702755D-05 0.000000000000D+00  7 1 -1 23 -11 11 23 21 2 0.99800648D-01 0.40540674D-01 0.48112034D+05 0.48112034D+05 0.48112034D+05 0.11487687D+01  1  2  3  2  7  2       -1 -.166998699165D-04 0.100000000000D+01
0.122208376495D-05 0.000000000000D+00 0.000000000000D+00 0.105394702755D-05 0.000000000000D+00  7 1 -1 23 -11 11 23 21 2 0.99800648D-01 0.40540674D-01 0.48112034D+05 0.48112034D+05 0.48112034D+05 0.11487687D+01  1  2 15  2  7  2       -1 0.358533138961D-04 0.100000000000D+01
-.693069062756D-05 0.000000000000D+00 -.613404561884D-05 0.105394702755D-05 0.000000000000D+00  7 1 -1 23 -11 11 23 21 2 0.99800648D-01 0.98691300D-01 0.48112034D+05 0.48112034D+05 0.48112034D+05 0.11487687D+01  1  2  5  2  7  2       -1 -.377336085862D-04 0.100000000000D+01
-.292350448036D-06 0.000000000000D+00 -.598297135409D-06 0.105394702755D-05 0.000000000000D+00  7 1 21 23 -11 11 23 1 2 0.99800648D-01 0.98691300D-01 0.48112034D+05 0.48112034D+05 0.48112034D+05 0.11487687D+01  1  2  5  4  7  2       -1 -.117729780052D-04 0.100000000000D+01
  </mgrwgt>
  </event>
  <event>
  8     66 0.25924217E-05 0.98235087E+02 0.75467711E-02 0.99343143E-01
        1 -1    0    0  501    0 0.00000000E+00 0.00000000E+00 0.41759830E+03 0.41759842E+03 0.32000000E+00 0.0000E+00 0.9000E+01
       -1 -1    0    0    0  501 0.00000000E+00 0.00000000E+00 -.19104624E+03 0.19104651E+03 0.32000000E+00 0.0000E+00 0.9000E+01
       25  2    1    2    0    0 0.13195787E+02 0.15270270E+03 0.25054283E+02 0.33955601E+03 0.30195749E+03 0.0000E+00 0.0000E+00
       23  2    3    3    0    0 0.99527877E+02 0.11845144E+03 0.81747258E+02 0.19758516E+03 0.91764581E+02 0.0000E+00 0.0000E+00
       23  1    1    2    0    0 -.13195787E+02 -.15270270E+03 0.20149777E+03 0.26908892E+03 0.91188000E+02 0.0000E+00 0.9000E+01
      -13  1    4    4    0    0 0.59801907E+02 0.26076818E+02 -.41008469E+01 0.65368927E+02 0.10565837E+00 0.0000E+00 0.9000E+01
       13  1    4    4    0    0 0.39725970E+02 0.92374620E+02 0.85848104E+02 0.13221623E+03 0.10565837E+00 0.0000E+00 0.9000E+01
       23  1    3    3    0    0 -.86332090E+02 0.34251266E+02 -.56692974E+02 0.14197086E+03 0.91188000E+02 0.0000E+00 0.9000E+01
#aMCatNLO 1  0  0  2  1 0.17471870D+03 0.00000000D+00  -5  7  0 0.00000000D+00 0.00000000D+00 0.00000000D+00 0.00000000D+00 0.00000000D+00
  <mgrwgt>
 0.1953812245D-03    9    2    0
 0.282454784426472D+03 0.000000000000000D+00 0.000000000000000D+00 0.282454784426472D+03
 0.282454784426472D+03 0.000000000000000D+00 0.000000000000000D+00 -.282454784426472D+03
 0.209112906936695D+03 -.131957875494041D+02 -.152702716798878D+03 0.109181994745963D+03
 0.720743564034020D+02 0.598019287389262D+02 0.260767315988012D+02 -.306340699090588D+02
 0.108023834025431D+03 0.397259370150658D+02 0.923747074444714D+02 0.394703948596559D+02
 0.175698471487416D+03 -.863320782045880D+02 0.342512777556054D+02 -.118018319696560D+03
 0.000000000000000D+00 -.000000000000000D+00 -.000000000000000D+00 -.000000000000000D+00
 0.347257779131381D+03 0.000000000000000D+00 0.000000000000000D+00 0.347257779131381D+03
 0.443550504831697D+03 0.000000000000000D+00 0.000000000000000D+00 -.443550504831697D+03
 0.175966830722267D+03 0.159560575978512D+02 -.102341440382992D+03 0.109181994745963D+03
 0.916889798223840D+02 0.721993699740192D+02 0.474939338971951D+02 -.306340699090588D+02
 0.143954268443320D+03 0.588015359243332D+02 0.125328762483373D+03 0.394703948596559D+02
 0.179701552989771D+03 -.594270882358213D+02 0.807309990198790D+02 -.118018319696560D+03
 0.199496651985336D+03 -.875298752603823D+02 -.151212255017455D+03 -.962927257003160D+02
0.293741995424D-05 0.000000000000D+00 0.000000000000D+00 0.251332991186D-07 0.000000000000D+00  7 1 -1 23 -13 13 23 21 0 0.64245922D-01 0.29391760D-01 0.56240431D+05 0.56240431D+05 0.56240431D+05 0.11428295D+01  1  2  2  2  7  2       -1 0.205913138354D-03 0.100000000000D+01
-.157125823867D-06 0.000000000000D+00 -.112804660647D-07 0.251332991186D-07 0.000000000000D+00  7 1 -1 23 -13 13 23 21 2 0.64245922D-01 0.29391760D-01 0.56240431D+05 0.56240431D+05 0.56240431D+05 0.11428295D+01  1  2  3  2  7  2       -1 -.143856151105D-04 0.100000000000D+01
0.186358764043D-06 0.000000000000D+00 0.000000000000D+00 0.251332991186D-07 0.000000000000D+00  7 1 -1 23 -13 13 23 21 2 0.64245922D-01 0.29391760D-01 0.56240431D+05 0.56240431D+05 0.56240431D+05 0.11428295D+01  1  2 15  2  7  2       -1 0.170620295634D-04 0.100000000000D+01
0.226155131663D-06 0.000000000000D+00 0.000000000000D+00 0.251332991186D-07 0.000000000000D+00  7 1 -1 23 -13 13 23 21 2 0.64245922D-01 0.47969728D-01 0.11326247D+06 0.11326247D+06 0.11326247D+06 0.11173105D+01  1  2 12  2  7  2       -1 0.848934402607D-05 0.100000000000D+01
-.145274782443D-05 0.000000000000D+00 0.000000000000D+00 0.251332991186D-07 0.000000000000D+00  7 1 -1 23 -13 13 23 21 2 0.64245922D-01 0.29391760D-01 0.56240431D+05 0.56240431D+05 0.56240431D+05 0.11428295D+01  1  2  4  2  7  2       -1 -.133005960068D-03 0.100000000000D+01
-.125198955470D-05 0.000000000000D+00 -.970172350397D-06 0.251332991186D-07 0.000000000000D+00  7 1 -1 23 -13 13 23 21 2 0.64245922D-01 0.55327738D-01 0.56240431D+05 0.56240431D+05 0.56240431D+05 0.11428295D+01  1  2  5  2  7  2       -1 -.384752864081D-04 0.100000000000D+01
0.168371353304D-05 0.000000000000D+00 0.803903568680D-06 0.251332991186D-07 0.000000000000D+00  7 1 -1 23 -13 13 23 21 2 0.64245922D-01 0.29391760D-01 0.56240431D+05 0.56240431D+05 0.56240431D+05 0.11428295D+01  1  2  6  2  7  2       -1 0.154151967172D-03 0.100000000000D+01
0.125467495363D-07 0.000000000000D+00 0.000000000000D+00 0.251332991186D-07 0.000000000000D+00  7 1 21 23 -13 13 23 1 2 0.64245922D-01 0.47969728D-01 0.11326247D+06 0.11326247D+06 0.11326247D+06 0.11173105D+01  1  2 12  4  7  2       -1 0.441606626557D-05 0.100000000000D+01
-.313547438345D-07 0.000000000000D+00 -.667641429377D-07 0.251332991186D-07 0.000000000000D+00  7 1 21 23 -13 13 23 1 2 0.64245922D-01 0.55327738D-01 0.56240431D+05 0.56240431D+05 0.56240431D+05 0.11428295D+01  1  2  5  4  7  2       -1 -.878445925904D-05 0.100000000000D+01
  </mgrwgt>
  </event>
  <event>
  8     66 0.25924217E-05 0.14533290E+03 0.75467711E-02 0.99647331E-01
        1 -1    0    0  501    0 0.00000000E+00 0.00000000E+00 0.53631492E+03 0.53631501E+03 0.32000000E+00 0.0000E+00 0.9000E+01
       -1 -1    0    0    0  501 0.00000000E+00 0.00000000E+00 -.18751401E+03 0.18751429E+03 0.32000000E+00 0.0000E+00 0.9000E+01
       25  2    1    2    0    0 -.22688899E+03 0.25487230E+02 0.14795223E+03 0.40636489E+03 0.30185153E+03 0.0000E+00 0.0000E+00
       23  2    3    3    0    0 -.12371565E+03 0.13085449E+03 0.96341617E+02 0.22546186E+03 0.95513790E+02 0.0000E+00 0.0000E+00
       23  1    1    2    0    0 0.22688899E+03 -.25487230E+02 0.20084867E+03 0.31746441E+03 0.91188000E+02 0.0000E+00 0.9000E+01
      -13  1    4    4    0    0 -.13327409E+03 0.11972034E+03 0.64511513E+02 0.19041190E+03 0.10565837E+00 0.0000E+00 0.9000E+01
       13  1    4    4    0    0 0.95584454E+01 0.11134147E+02 0.31830104E+02 0.35049961E+02 0.10565837E+00 0.0000E+00 0.9000E+01
       23  1    3    3    0    0 -.10317334E+03 -.10536726E+03 0.51610612E+02 0.18090302E+03 0.91188000E+02 0.0000E+00 0.9000E+01
#aMCatNLO 1  0  0  2  1 0.42467767D+02 0.00000000D+00  -5  7  0 0.00000000D+00 0.00000000D+00 0.00000000D+00 0.00000000D+00 0.00000000D+00
  <mgrwgt>
 0.4735807466D-03    9    2    0
 0.317122524361722D+03 0.000000000000000D+00 0.000000000000000D+00 0.317122524361722D+03
 0.317122524361722D+03 0.000000000000000D+00 0.000000000000000D+00 -.317122524361722D+03
 0.251848788092082D+03 0.226888993488558D+03 -.254872304720039D+02 0.546291720243520D+02
 0.181829024441865D+03 -.133274265007729D+03 0.119720476007520D+03 -.310929580558454D+02
 0.224955539357450D+02 0.955861625065289D+01 0.111340143770524D+02 0.170504113176297D+02
 0.178071682253752D+03 -.103173344731482D+03 -.105367259912568D+03 -.405866252861363D+02
 0.000000000000000D+00 -.000000000000000D+00 0.000000000000000D+00 -.000000000000000D+00
 0.320083033899012D+03 0.000000000000000D+00 0.000000000000000D+00 0.320083033899012D+03
 0.518185747037204D+03 0.000000000000000D+00 0.000000000000000D+00 -.518185747037204D+03
 0.262804434994870D+03 0.237105747249779D+03 -.393374871341624D+02 0.546291720243520D+02
 0.170487792959082D+03 -.126280168773896D+03 0.110238988029792D+03 -.310929580558454D+02
 0.223259162188958D+02 0.104483997072476D+02 0.992778688683385D+01 0.170504113176297D+02
 0.180047092447046D+03 -.960640696424376D+02 -.115004889140640D+03 -.405866252861363D+02
 0.202603544316322D+03 -.252099085406936D+02 0.341756013581762D+02 -.198102713138192D+03
0.796524931365D-05 0.000000000000D+00 0.000000000000D+00 0.351907765883D-08 0.000000000000D+00  7 1 -1 23 -13 13 23 21 0 0.82510015D-01 0.28848338D-01 0.93961344D+05 0.93961344D+05 0.93961344D+05 0.11239487D+01  1  2  2  2  7  2       -1 0.408017230350D-03 0.100000000000D+01
-.441893024986D-06 0.000000000000D+00 -.305886546627D-07 0.351907765883D-08 0.000000000000D+00  7 1 -1 23 -13 13 23 21 2 0.82510015D-01 0.28848338D-01 0.93961344D+05 0.93961344D+05 0.93961344D+05 0.11239487D+01  1  2  3  2  7  2       -1 -.285949419793D-04 0.100000000000D+01
0.511506444261D-06 0.000000000000D+00 0.000000000000D+00 0.351907765883D-08 0.000000000000D+00  7 1 -1 23 -13 13 23 21 2 0.82510015D-01 0.28848338D-01 0.93961344D+05 0.93961344D+05 0.93961344D+05 0.11239487D+01  1  2 15  2  7  2       -1 0.330996333246D-04 0.100000000000D+01
0.826300966363D-04 0.000000000000D+00 0.000000000000D+00 0.351907765883D-08 0.000000000000D+00  7 1 -1 23 -13 13 23 21 2 0.82510015D-01 0.47200221D-01 0.10790760D+06 0.10790760D+06 0.10790760D+06 0.11190198D+01  1  2 12  2  7  2       -1 0.227399610438D-02 0.100000000000D+01
-.744384145822D-04 0.000000000000D+00 0.000000000000D+00 0.351907765883D-08 0.000000000000D+00  7 1 -1 23 -13 13 23 21 2 0.82510015D-01 0.28848338D-01 0.93961344D+05 0.93961344D+05 0.93961344D+05 0.11239487D+01  1  2  4  2  7  2       -1 -.481691727558D-02 0.100000000000D+01
-.839713075283D-04 0.000000000000D+00 -.294539454815D-05 0.351907765883D-08 0.000000000000D+00  7 1 -1 23 -13 13 23 21 2 0.82510015D-01 0.47337540D-01 0.93961344D+05 0.93961344D+05 0.93961344D+05 0.11239487D+01  1  2  5  2  7  2       -1 -.232580606130D-02 0.100000000000D+01
0.762179169674D-04 0.000000000000D+00 0.261774658704D-05 0.351907765883D-08 0.000000000000D+00  7 1 -1 23 -13 13 23 21 2 0.82510015D-01 0.28848338D-01 0.93961344D+05 0.93961344D+05 0.93961344D+05 0.11239487D+01  1  2  6  2  7  2       -1 0.493206905345D-02 0.100000000000D+01
0.460249746855D-05 0.000000000000D+00 0.000000000000D+00 0.351907765883D-08 0.000000000000D+00  7 1 21 23 -13 13 23 1 2 0.82510015D-01 0.47200221D-01 0.10790760D+06 0.10790760D+06 0.10790760D+06 0.11190198D+01  1  2 12  4  7  2       -1 0.119582134787D-02 0.100000000000D+01
-.456750883893D-05 0.000000000000D+00 -.164820615671D-06 0.351907765883D-08 0.000000000000D+00  7 1 21 23 -13 13 23 1 2 0.82510015D-01 0.47337540D-01 0.93961344D+05 0.93961344D+05 0.93961344D+05 0.11239487D+01  1  2  5  4  7  2       -1 -.119810434392D-02 0.100000000000D+01
  </mgrwgt>
  </event>
  <event>
  9     66 0.25924217E-05 0.24896070E+03 0.75467711E-02 0.10227831E+00
        3 -1    0    0  502    0 0.00000000E+00 0.00000000E+00 0.22857790E+03 0.22857845E+03 0.50000000E+00 0.0000E+00 0.9000E+01
       -3 -1    0    0    0  501 0.00000000E+00 0.00000000E+00 -.45823513E+03 0.45823540E+03 0.50000000E+00 0.0000E+00 0.9000E+01
       25  2    1    2    0    0 0.13729808E+03 -.48743592E+02 0.47513546E+02 0.33867427E+03 0.30201991E+03 0.0000E+00 0.0000E+00
       23  2    3    3    0    0 -.47251219E+02 -.63590306E+02 -.19370955E+02 0.12172346E+03 0.90360173E+02 0.0000E+00 0.0000E+00
       23  1    1    2    0    0 -.14541895E+03 0.12155344E+02 -.24032492E+03 0.29557696E+03 0.91188000E+02 0.0000E+00 0.9000E+01
      -13  1    4    4    0    0 0.26229775E+02 -.28529736E+02 -.61351691E+01 0.39237716E+02 0.10565837E+00 0.0000E+00 0.9000E+01
       13  1    4    4    0    0 -.73480993E+02 -.35060570E+02 -.13235786E+02 0.82485739E+02 0.10565837E+00 0.0000E+00 0.9000E+01
       23  1    3    3    0    0 0.18454930E+03 0.14846714E+02 0.66884501E+02 0.21695082E+03 0.91188000E+02 0.0000E+00 0.9000E+01
       21  1    1    2  502  501 0.81208637E+01 0.36588249E+02 -.36845856E+02 0.52562610E+02 0.75000000E+00 0.0000E+00 0.9000E+01
#aMCatNLO 2  0  0  1  1 0.37478639D+02 0.00000000D+00  -5  7  0 0.00000000D+00 0.00000000D+00 0.00000000D+00 0.00000000D+00 0.00000000D+00
  <mgrwgt>
 0.2673664716D-04    1    2    0
 0.301535137630853D+03 0.000000000000000D+00 0.000000000000000D+00 0.301535137630853D+03
 0.301535137630853D+03 0.000000000000000D+00 0.000000000000000D+00 -.301535137630853D+03
 0.232802879841232D+03 -.142281902190317D+03 0.262892129904026D+02 -.157945139551116D+03
 0.379271922692540D+02 0.267489019731824D+02 -.261914451812965D+02 0.608081869267424D+01
 0.794023004198786D+02 -.723930361847382D+02 -.301582472664772D+02 0.124279421360837D+02
 0.252937902731342D+03 0.187926036401873D+03 0.300604794573710D+02 0.139436378722358D+03
 0.000000000000000D+00 0.000000000000000D+00 0.000000000000000D+00 -.000000000000000D+00
 0.312870066503438D+03 0.000000000000000D+00 0.000000000000000D+00 0.312870066503438D+03
 0.334773388285502D+03 0.000000000000000D+00 0.000000000000000D+00 -.334773388285502D+03
 0.233572992764797D+03 -.145418953723793D+03 0.121553443044455D+02 -.157945139551116D+03
 0.392291991373164D+02 0.262299137703258D+02 -.285297271733068D+02 0.608081869267424D+01
 0.823600199363167D+02 -.734811214930466D+02 -.350605750423001D+02 0.124279421360837D+02
 0.249071522126468D+03 0.184549297748413D+03 0.148467093915963D+02 0.139436378722358D+03
 0.434097208240416D+02 0.812086369810127D+01 0.365882485195651D+02 -.219033217820639D+02
0.327888451353D-05 0.000000000000D+00 0.000000000000D+00 0.341525632692D-07 0.167484619534D-09  7 3 -3 23 -13 13 23 21 2 0.35165536D-01 0.70497058D-01 0.71853130D+05 0.71853130D+05 0.71853130D+05 0.11336962D+01  1  2  1  1  7  1        3 0.267366471582D-04 0.100000000000D+01
  </mgrwgt>
  </event>
  <event>
  8     66 0.25924217E-05 0.10809132E+03 0.75467711E-02 0.10016103E+00
        1 -1    0    0  501    0 0.00000000E+00 0.00000000E+00 0.15271758E+03 0.15271792E+03 0.32000000E+00 0.0000E+00 0.9000E+01
       -1 -1    0    0    0  501 0.00000000E+00 0.00000000E+00 -.72406515E+03 0.72406522E+03 0.32000000E+00 0.0000E+00 0.9000E+01
       25  2    1    2    0    0 -.16214547E+03 -.94829901E+01 -.78472506E+02 0.34988451E+03 0.29980020E+03 0.0000E+00 0.0000E+00
       23  2    3    3    0    0 -.12659361E+03 -.56878505E+02 -.14681636E+03 0.22144619E+03 0.90676713E+02 0.0000E+00 0.0000E+00
       23  1    1    2    0    0 0.16214547E+03 0.94829901E+01 -.49287506E+03 0.52689862E+03 0.91188000E+02 0.0000E+00 0.9000E+01
      -13  1    4    4    0    0 -.63253530E+02 0.18349927E+02 -.74102024E+02 0.99140557E+02 0.10565837E+00 0.0000E+00 0.9000E+01
       13  1    4    4    0    0 -.63340076E+02 -.75228432E+02 -.72714333E+02 0.12230563E+03 0.10565837E+00 0.0000E+00 0.9000E+01
       23  1    3    3    0    0 -.35551862E+02 0.47395515E+02 0.68343851E+02 0.12843832E+03 0.91188000E+02 0.0000E+00 0.9000E+01
#aMCatNLO 1  0  0  2  1 0.15142963D+03 0.00000000D+00  -5  7  0 0.00000000D+00 0.00000000D+00 0.00000000D+00 0.00000000D+00 0.00000000D+00
  <mgrwgt>
 0.2139155701D-03    9    2    0
 0.332532187565678D+03 0.000000000000000D+00 0.000000000000000D+00 0.332532187565678D+03
 0.332532187565678D+03 0.000000000000000D+00 0.000000000000000D+00 -.332532187565678D+03
 0.271211126341052D+03 0.162145468017634D+03 0.948299015271634D+01 -.197127227460561D+03
 0.670412220307187D+02 -.632535302668610D+02 0.183500533471685D+02 -.125216573307005D+02
 0.987729740014668D+02 -.633400758168483D+02 -.752285583445577D+02 0.920864800119010D+01
 0.228039052758119D+03 -.355518619339251D+02 0.473955148446729D+02 0.200440236790071D+03
 0.000000000000000D+00 -.000000000000000D+00 0.000000000000000D+00 -.000000000000000D+00
 0.372754961368813D+03 0.000000000000000D+00 0.000000000000000D+00 0.372754961368813D+03
 0.521818703637395D+03 0.000000000000000D+00 0.000000000000000D+00 -.521818703637395D+03
 0.304501036963051D+03 0.210824603060037D+03 -.331583037241588D+02 -.197127227460561D+03
 0.551703890493587D+02 -.529199714179849D+02 0.929820147500424D+01 -.125216573307005D+02
 0.101739044275868D+03 -.463858541805906D+02 -.900798893432618D+02 0.920864800119010D+01
 0.220675708676043D+03 0.238905343950131D+01 0.141605421816076D+02 0.200440236790071D+03
 0.212487486041886D+03 -.113907830900963D+03 0.997794494108088D+02 -.149063742268582D+03
0.115781733981D-04 0.000000000000D+00 0.000000000000D+00 0.580753436061D-06 0.000000000000D+00  7 1 -1 23 -13 13 23 21 0 0.23495044D-01 0.11139467D+00 0.52720516D+05 0.52720516D+05 0.52720516D+05 0.11452770D+01  1  2  2  2  7  2       -1 0.246023037951D-03 0.100000000000D+01
-.535959103945D-06 0.000000000000D+00 -.444632344519D-07 0.580753436061D-06 0.000000000000D+00  7 1 -1 23 -13 13 23 21 2 0.23495044D-01 0.11139467D+00 0.52720516D+05 0.52720516D+05 0.52720516D+05 0.11452770D+01  1  2  3  2  7  2       -1 -.149378613361D-04 0.100000000000D+01
0.720443653846D-06 0.000000000000D+00 0.000000000000D+00 0.580753436061D-06 0.000000000000D+00  7 1 -1 23 -13 13 23 21 2 0.23495044D-01 0.11139467D+00 0.52720516D+05 0.52720516D+05 0.52720516D+05 0.11452770D+01  1  2 15  2  7  2       -1 0.200796801890D-04 0.100000000000D+01
0.271901183569D-05 0.000000000000D+00 0.000000000000D+00 0.580753436061D-06 0.000000000000D+00  7 1 -1 23 -13 13 23 21 2 0.23495044D-01 0.17840431D+00 0.99500775D+05 0.99500775D+05 0.99500775D+05 0.11219005D+01  1  2 12  2  7  2       -1 0.197725943367D-04 0.100000000000D+01
-.955411878788D-05 0.000000000000D+00 0.000000000000D+00 0.580753436061D-06 0.000000000000D+00  7 1 -1 23 -13 13 23 21 2 0.23495044D-01 0.11139467D+00 0.52720516D+05 0.52720516D+05 0.52720516D+05 0.11452770D+01  1  2  4  2  7  2       -1 -.266285432212D-03 0.100000000000D+01
-.884987678712D-05 0.000000000000D+00 -.384750039130D-05 0.580753436061D-06 0.000000000000D+00  7 1 -1 23 -13 13 23 21 2 0.23495044D-01 0.18591690D+00 0.52720516D+05 0.52720516D+05 0.52720516D+05 0.11452770D+01  1  2  5  2  7  2       -1 -.599018782921D-04 0.100000000000D+01
0.994245459766D-05 0.000000000000D+00 0.339262329672D-05 0.580753436061D-06 0.000000000000D+00  7 1 -1 23 -13 13 23 21 2 0.23495044D-01 0.11139467D+00 0.52720516D+05 0.52720516D+05 0.52720516D+05 0.11452770D+01  1  2  6  2  7  2       -1 0.277108844736D-03 0.100000000000D+01
0.146302776600D-06 0.000000000000D+00 0.000000000000D+00 0.580753436061D-06 0.000000000000D+00  7 1 21 23 -13 13 23 1 2 0.23495044D-01 0.17840431D+00 0.99500775D+05 0.99500775D+05 0.99500775D+05 0.11219005D+01  1  2 12  4  7  2       -1 0.686883302118D-05 0.100000000000D+01
-.330413049210D-06 0.000000000000D+00 -.221148202123D-06 0.580753436061D-06 0.000000000000D+00  7 1 21 23 -13 13 23 1 2 0.23495044D-01 0.18591690D+00 0.52720516D+05 0.52720516D+05 0.52720516D+05 0.11452770D+01  1  2  5  4  7  2       -1 -.148122483351D-04 0.100000000000D+01
  </mgrwgt>
  </event>
  <event>
  8     66 0.25924217E-05 0.24947693E+03 0.75467711E-02 0.95207423E-01
        1 -1    0    0  501    0 0.00000000E+00 0.00000000E+00 0.99030873E+03 0.99030878E+03 0.32000000E+00 0.0000E+00 0.9000E+01
       -1 -1    0    0    0  501 0.00000000E+00 0.00000000E+00 -.18233148E+03 0.18233176E+03 0.32000000E+00 0.0000E+00 0.9000E+01
       25  2    1    2    0    0 0.16651371E+03 0.72858131E+02 0.88748120E+03 0.95430306E+03 0.30006054E+03 0.0000E+00 0.0000E+00
       23  2    3    3    0    0 0.15842062E+03 0.10715199E+03 0.35855987E+03 0.41642334E+03 0.90909710E+02 0.0000E+00 0.0000E+00
       23  1    1    2    0    0 -.16651371E+03 -.72858131E+02 -.79503952E+02 0.21833747E+03 0.91188000E+02 0.0000E+00 0.9000E+01
      -11  1    4    4    0    0 0.73388547E+02 0.19955294E+02 0.21557900E+03 0.22860096E+03 0.51099893E-03 0.0000E+00 0.9000E+01
       11  1    4    4    0    0 0.85032078E+02 0.87196698E+02 0.14298086E+03 0.18782238E+03 0.51099893E-03 0.0000E+00 0.9000E+01
       23  1    3    3    0    0 0.80930826E+01 -.34293861E+02 0.52892134E+03 0.53787972E+03 0.91188000E+02 0.0000E+00 0.9000E+01
#aMCatNLO 1  0  0  2  1 0.32589309D+03 0.00000000D+00  -5  7  0 0.00000000D+00 0.00000000D+00 0.00000000D+00 0.00000000D+00 0.00000000D+00
  <mgrwgt>
 0.2341677802D-03    5    2    0
 0.424928990288594D+03 0.000000000000000D+00 0.000000000000000D+00 0.424928990288594D+03
 0.424928990288594D+03 0.000000000000000D+00 0.000000000000000D+00 -.424928990288594D+03
 0.376849735057398D+03 -.166513707566778D+03 -.728581310669718D+02 -.317278031698737D+03
 0.110470013218534D+03 0.733885466869561D+02 0.199552937765968D+02 0.801219775465460D+02
 0.123223940491779D+03 0.850320782303242D+02 0.871966978710023D+02 0.187195369212659D+02
 0.239314291809477D+03 0.809308264949796D+01 -.342938605806273D+02 0.218436517230925D+03
 0.000000000000000D+00 0.000000000000000D+00 0.000000000000000D+00 -.000000000000000D+00
 0.485520245915473D+03 0.000000000000000D+00 0.000000000000000D+00 0.485520245915473D+03
 0.132793275962899D+04 0.000000000000000D+00 0.000000000000000D+00 -.132793275962899D+04
 0.436546684159354D+03 -.178518595711450D+03 -.222987707493291D+03 -.317278031698737D+03
 0.108442671750205D+03 0.701576223376331D+02 -.204496894422281D+02 0.801219775465460D+02
 0.960434084028404D+02 0.817959194090285D+02 0.467262538956408D+02 0.187195369212659D+02
 0.269167703280284D+03 0.588415392036690D+00 -.128145007130725D+03 0.218436517230925D+03
 0.903252537951777D+03 0.259766385727519D+02 0.324856150170603D+03 -.842412513713514D+03
0.147342702391D-04 0.000000000000D+00 0.000000000000D+00 0.175663564092D-05 0.000000000000D+00  7 1 -1 23 -11 11 23 21 0 0.15235521D+00 0.28051022D-01 0.62238741D+05 0.62238741D+05 0.62238741D+05 0.11390240D+01  1  2  2  2  7  2       -1 0.311704677163D-03 0.100000000000D+01
-.536298727116D-06 0.000000000000D+00 -.565834773406D-07 0.175663564092D-05 0.000000000000D+00  7 1 -1 23 -11 11 23 21 2 0.15235521D+00 0.28051022D-01 0.62238741D+05 0.62238741D+05 0.62238741D+05 0.11390240D+01  1  2  3  2  7  2       -1 -.147193017169D-04 0.100000000000D+01
0.855762607231D-06 0.000000000000D+00 0.000000000000D+00 0.175663564092D-05 0.000000000000D+00  7 1 -1 23 -11 11 23 21 2 0.15235521D+00 0.28051022D-01 0.62238741D+05 0.62238741D+05 0.62238741D+05 0.11390240D+01  1  2 15  2  7  2       -1 0.234873352798D-04 0.100000000000D+01
-.148784420112D-04 0.000000000000D+00 -.494777675769D-05 0.175663564092D-05 0.000000000000D+00  7 1 -1 23 -11 11 23 21 2 0.15235521D+00 0.95132844D-01 0.62238741D+05 0.62238741D+05 0.62238741D+05 0.11390240D+01  1  2  5  2  7  2       -1 -.438795162860D-04 0.100000000000D+01
-.193553657300D-05 0.000000000000D+00 -.703142361724D-06 0.175663564092D-05 0.000000000000D+00  7 1 21 23 -11 11 23 1 2 0.15235521D+00 0.95132844D-01 0.62238741D+05 0.62238741D+05 0.62238741D+05 0.11390240D+01  1  2  5  4  7  2       -1 -.424254142793D-04 0.100000000000D+01
  </mgrwgt>
  </event>
  <event>
  8     66 0.25924217E-05 0.46422419E+03 0.75467711E-02 0.84475723E-01
        1 -1    0    0  501    0 0.00000000E+00 0.00000000E+00 0.80548191E+03 0.80548197E+03 0.32000000E+00 0.0000E+00 0.9000E+01
       -1 -1    0    0    0  501 0.00000000E+00 0.00000000E+00 -.16909384E+04 0.16909384E+04 0.32000000E+00 0.0000E+00 0.9000E+01
       25  2    1    2    0    0 -.96568015E+03 -.33715889E+03 0.10331805E+03 0.10708663E+04 0.29977600E+03 0.0000E+00 0.0000E+00
       23  2    3    3    0    0 -.30749187E+03 -.22595802E+03 0.37718071E+02 0.39396446E+03 0.90427108E+02 0.0000E+00 0.0000E+00
       23  1    1    2    0    0 0.96568015E+03 0.33715889E+03 -.98877454E+03 0.14255541E+04 0.91188000E+02 0.0000E+00 0.9000E+01
      -13  1    4    4    0    0 -.40570579E+02 -.74258577E+02 0.16519130E+02 0.86216013E+02 0.10565837E+00 0.0000E+00 0.9000E+01
       13  1    4    4    0    0 -.26692130E+03 -.15169944E+03 0.21198940E+02 0.30774844E+03 0.10565837E+00 0.0000E+00 0.9000E+01
       23  1    3    3    0    0 -.65818827E+03 -.11120088E+03 0.65599983E+02 0.67690180E+03 0.91188000E+02 0.0000E+00 0.9000E+01
#aMCatNLO 1  0  0  2  1 0.56882889D+03 0.00000000D+00  -5  7  0 0.00000000D+00 0.00000000D+00 0.00000000D+00 0.00000000D+00 0.00000000D+00
  <mgrwgt>
 0.2788231847D-03    9    2    0
 0.116705629752520D+04 0.000000000000000D+00 0.000000000000000D+00 0.116705629752520D+04
 0.116705629752520D+04 0.000000000000000D+00 0.000000000000000D+00 -.116705629752520D+04
 0.114958704564851D+04 0.965680146721922D+03 0.337158894688602D+03 -.516740610111460D+03
 0.984775218597682D+02 -.405702696539230D+02 -.742584710849015D+02 0.503741501564238D+02
 0.337190670408651D+03 -.266921604229163D+03 -.151699546799030D+03 0.139418983310505D+03
 0.748857357133470D+03 -.658188272838836D+03 -.111200876804670D+03 0.326947476644532D+03
 0.000000000000000D+00 0.000000000000000D+00 -.000000000000000D+00 -.000000000000000D+00
 0.139919171718654D+04 0.000000000000000D+00 0.000000000000000D+00 0.139919171718654D+04
 0.160979934215923D+04 0.000000000000000D+00 0.000000000000000D+00 -.160979934215923D+04
 0.104052650662073D+04 0.752434012506395D+03 0.491123567263379D+03 -.516740610111460D+03
 0.987822461573323D+02 -.597769828959435D+02 -.603911373279550D+02 0.503741501564238D+02
 0.378157928703584D+03 -.336573391561888D+03 -.101410641584493D+03 0.139418983310505D+03
 0.884958740321124D+03 -.817269050381305D+03 0.365616347589308D+01 0.326947476644532D+03
 0.606565637543000D+03 0.461185412332741D+03 -.332977951826824D+03 -.210607624972694D+03
0.192219219233D-02 0.000000000000D+00 0.000000000000D+00 0.624780553715D-05 0.000000000000D+00  7 1 -1 23 -13 13 23 21 0 0.12392030D+00 0.26014438D+00 0.10943823D+07 0.10943823D+07 0.10943823D+07 0.10452665D+01  1  2  2  2  7  2       -1 0.207234354726D-03 0.100000000000D+01
-.105234789829D-03 0.000000000000D+00 -.738172414336D-05 0.624780553715D-05 0.000000000000D+00  7 1 -1 23 -13 13 23 21 2 0.12392030D+00 0.26014438D+00 0.10943823D+07 0.10943823D+07 0.10943823D+07 0.10452665D+01  1  2  3  2  7  2       -1 -.123959083956D-04 0.100000000000D+01
0.117335232652D-03 0.000000000000D+00 0.000000000000D+00 0.624780553715D-05 0.000000000000D+00  7 1 -1 23 -13 13 23 21 2 0.12392030D+00 0.26014438D+00 0.10943823D+07 0.10943823D+07 0.10943823D+07 0.10452665D+01  1  2 15  2  7  2       -1 0.138212543390D-04 0.100000000000D+01
0.483903892202D-03 0.000000000000D+00 0.000000000000D+00 0.624780553715D-05 0.000000000000D+00  7 1 -1 23 -13 13 23 21 2 0.12392030D+00 0.37679270D+00 0.18643398D+07 0.18643398D+07 0.18643398D+07 0.10303171D+01  1  2 12  2  7  2       -1 0.451610171168D-05 0.100000000000D+01
-.880866012988D-03 0.000000000000D+00 0.000000000000D+00 0.624780553715D-05 0.000000000000D+00  7 1 -1 23 -13 13 23 21 2 0.12392030D+00 0.26014438D+00 0.10943823D+07 0.10943823D+07 0.10943823D+07 0.10452665D+01  1  2  4  2  7  2       -1 -.103759739755D-03 0.100000000000D+01
-.138976005335D-02 0.000000000000D+00 -.619241918972D-03 0.624780553715D-05 0.000000000000D+00  7 1 -1 23 -13 13 23 21 2 0.12392030D+00 0.38701627D+00 0.10943823D+07 0.10943823D+07 0.10943823D+07 0.10452665D+01  1  2  5  2  7  2       -1 -.114445088417D-04 0.100000000000D+01
0.155710570180D-02 0.000000000000D+00 0.573404679961D-03 0.624780553715D-05 0.000000000000D+00  7 1 -1 23 -13 13 23 21 2 0.12392030D+00 0.26014438D+00 0.10943823D+07 0.10943823D+07 0.10943823D+07 0.10452665D+01  1  2  6  2  7  2       -1 0.183415956578D-03 0.100000000000D+01
0.217806085998D-04 0.000000000000D+00 0.000000000000D+00 0.624780553715D-05 0.000000000000D+00  7 1 21 23 -13 13 23 1 2 0.12392030D+00 0.37679270D+00 0.18643398D+07 0.18643398D+07 0.18643398D+07 0.10303171D+01  1  2 12  4  7  2       -1 0.276781528525D-05 0.100000000000D+01
-.448785713115D-04 0.000000000000D+00 -.293259256567D-04 0.624780553715D-05 0.000000000000D+00  7 1 21 23 -13 13 23 1 2 0.12392030D+00 0.38701627D+00 0.10943823D+07 0.10943823D+07 0.10943823D+07 0.10452665D+01  1  2  5  4  7  2       -1 -.533214095815D-05 0.100000000000D+01
  </mgrwgt>
  </event>
  <event>
  8     66 0.25924217E-05 0.22834925E+03 0.75467711E-02 0.10217380E+00
        1 -1    0    0  501    0 0.00000000E+00 0.00000000E+00 0.26593673E+03 0.26593693E+03 0.32000000E+00 0.0000E+00 0.9000E+01
       -1 -1    0    0    0  501 0.00000000E+00 0.00000000E+00 -.49996073E+03 0.49996083E+03 0.32000000E+00 0.0000E+00 0.9000E+01
       25  2    1    2    0    0 0.97135332E+02 -.14229745E+03 0.11575550E+03 0.36546701E+03 0.30080386E+03 0.0000E+00 0.0000E+00
       23  2    3    3    0    0 -.73855005E+02 -.43678785E+02 0.16692577E+02 0.12652758E+03 0.91477804E+02 0.0000E+00 0.0000E+00
       23  1    1    2    0    0 -.97135332E+02 0.14229745E+03 -.34977950E+03 0.40043075E+03 0.91188000E+02 0.0000E+00 0.9000E+01
      -13  1    4    4    0    0 -.43357582E+02 0.22547765E+02 -.80576163E+01 0.49529970E+02 0.10565837E+00 0.0000E+00 0.9000E+01
       13  1    4    4    0    0 -.30497423E+02 -.66226551E+02 0.24750193E+02 0.76997611E+02 0.10565837E+00 0.0000E+00 0.9000E+01
       23  1    3    3    0    0 0.17099034E+03 -.98618666E+02 0.99062923E+02 0.23893943E+03 0.91188000E+02 0.0000E+00 0.9000E+01
#aMCatNLO 1  0  0  2  1 0.60680073D+01 0.00000000D+00  -5  7  0 0.00000000D+00 0.00000000D+00 0.00000000D+00 0.00000000D+00 0.00000000D+00
  <mgrwgt>
 0.4246812180D-03   11    2    0
 0.364634113764468D+03 0.000000000000000D+00 0.000000000000000D+00 0.364634113764468D+03
 0.364634113764468D+03 0.000000000000000D+00 0.000000000000000D+00 -.364634113764468D+03
 0.308298387584605D+03 -.971353322291076D+02 0.142297451702071D+03 -.238848920690685D+03
 0.494319892007533D+02 -.433575984915017D+02 0.225478836109887D+02 0.743190110660919D+01
 0.888074819559424D+02 -.304974060983548D+02 -.662266690049981D+02 0.507021240692093D+02
 0.282730368787636D+03 0.170990336818964D+03 -.986186663080615D+02 0.180714895514866D+03
 0.000000000000000D+00 0.000000000000000D+00 0.000000000000000D+00 -.000000000000000D+00
 0.365233820386949D+03 0.000000000000000D+00 0.000000000000000D+00 0.365233820386949D+03
 0.380326217291090D+03 0.000000000000000D+00 0.000000000000000D+00 -.380326217291090D+03
 0.309099440417794D+03 -.997035835597853D+02 0.142258923209847D+03 -.238848920690685D+03
 0.497916102151805D+02 -.437703487955627D+02 0.225416915975006D+02 0.743190110660919D+01
 0.890725525811012D+02 -.312373514215816D+02 -.662377695453897D+02 0.507021240692093D+02
 0.281329868850324D+03 0.168643959183359D+03 -.986538662868985D+02 0.180714895514866D+03
 0.162665656136396D+02 0.606732459357063D+01 0.910210249407435D-01 -.150923969041407D+02
0.562836415739D-05 0.000000000000D+00 0.000000000000D+00 0.309024213987D-06 0.000000000000D+00  7 1 -1 23 -13 13 23 21 0 0.40913366D-01 0.76917058D-01 0.71329431D+05 0.71329431D+05 0.71329431D+05 0.11339657D+01  1  2  2  2  7  2       -1 0.127792332401D-03 0.100000000000D+01
-.275829628369D-06 0.000000000000D+00 -.216144003467D-07 0.309024213987D-06 0.000000000000D+00  7 1 -1 23 -13 13 23 21 2 0.40913366D-01 0.76917058D-01 0.71329431D+05 0.71329431D+05 0.71329431D+05 0.11339657D+01  1  2  3  2  7  2       -1 -.805310468963D-05 0.100000000000D+01
0.343525983893D-06 0.000000000000D+00 0.000000000000D+00 0.309024213987D-06 0.000000000000D+00  7 1 -1 23 -13 13 23 21 2 0.40913366D-01 0.76917058D-01 0.71329431D+05 0.71329431D+05 0.71329431D+05 0.11339657D+01  1  2 15  2  7  2       -1 0.100295632788D-04 0.100000000000D+01
0.638440828320D-04 0.000000000000D+00 0.000000000000D+00 0.309024213987D-06 0.000000000000D+00  7 1 -1 23 -13 13 23 21 2 0.40913366D-01 0.80288956D-01 0.72993457D+05 0.72993457D+05 0.72993457D+05 0.11331169D+01  1  2 12  2  7  2       -1 0.170760890245D-02 0.100000000000D+01
-.109254399750D-03 0.000000000000D+00 0.000000000000D+00 0.309024213987D-06 0.000000000000D+00  7 1 -1 23 -13 13 23 21 2 0.40913366D-01 0.76917058D-01 0.71329431D+05 0.71329431D+05 0.71329431D+05 0.11339657D+01  1  2  4  2  7  2       -1 -.318978466596D-02 0.100000000000D+01
-.287969882301D-03 0.000000000000D+00 -.163419871834D-04 0.309024213987D-06 0.000000000000D+00  7 1 -1 23 -13 13 23 21 2 0.40913366D-01 0.80294260D-01 0.71329431D+05 0.71329431D+05 0.71329431D+05 0.11339657D+01  1  2  5  2  7  2       -1 -.771633172925D-02 0.100000000000D+01
0.288420861013D-03 0.000000000000D+00 0.163269113633D-04 0.309024213987D-06 0.000000000000D+00  7 1 -1 23 -13 13 23 21 2 0.40913366D-01 0.76917058D-01 0.71329431D+05 0.71329431D+05 0.71329431D+05 0.11339657D+01  1  2  6  2  7  2       -1 0.842071753548D-02 0.100000000000D+01
0.447038294695D-04 0.000000000000D+00 0.000000000000D+00 0.309024213987D-06 0.575152379575D-07  7 1 -1 23 -13 13 23 21 2 0.40980656D-01 0.80227200D-01 0.72993457D+05 0.72993457D+05 0.72993457D+05 0.11331169D+01  1  2 11  2  7  2       -1 0.119497136122D-02 0.100000000000D+01
0.134081441827D-05 0.000000000000D+00 0.000000000000D+00 0.309024213987D-06 0.000000000000D+00  7 1 21 23 -13 13 23 1 2 0.40913366D-01 0.80288956D-01 0.72993457D+05 0.72993457D+05 0.72993457D+05 0.11331169D+01  1  2 12  4  7  2       -1 0.282428618393D-03 0.100000000000D+01
-.225098102542D-05 0.000000000000D+00 -.123581211347D-06 0.309024213987D-06 0.000000000000D+00  7 1 21 23 -13 13 23 1 2 0.40913366D-01 0.80294260D-01 0.71329431D+05 0.71329431D+05 0.71329431D+05 0.11339657D+01  1  2  5  4  7  2       -1 -.475354417134D-03 0.100000000000D+01
0.335538547625D-06 0.000000000000D+00 0.000000000000D+00 0.309024213987D-06 0.428400343360D-09  7 1 21 23 -13 13 23 1 2 0.40980656D-01 0.80227200D-01 0.72993457D+05 0.72993457D+05 0.72993457D+05 0.11331169D+01  1  2 11  4  7  2       -1 0.706568217979D-04 0.100000000000D+01
  </mgrwgt>
  </event>
  <event>
  8     66 0.25924217E-05 0.11614864E+03 0.75467711E-02 0.10069412E+00
        1 -1    0    0  501    0 0.00000000E+00 0.00000000E+00 0.43585567E+03 0.43585579E+03 0.32000000E+00 0.0000E+00 0.9000E+01
       -1 -1    0    0    0  501 0.00000000E+00 0.00000000E+00 -.22816932E+03 0.22816954E+03 0.32000000E+00 0.0000E+00 0.9000E+01
       25  2    1    2    0    0 -.11437627E+03 -.54348870E+02 0.33162668E+03 0.46474617E+03 0.29996169E+03 0.0000E+00 0.0000E+00
       23  2    3    3    0    0 -.14780881E+02 0.49467355E+02 0.12861030E+02 0.10332696E+03 0.88575175E+02 0.0000E+00 0.0000E+00
       23  1    1    2    0    0 0.11437627E+03 0.54348870E+02 -.12394032E+03 0.19927916E+03 0.91188000E+02 0.0000E+00 0.9000E+01
      -11  1    4    4    0    0 -.11459664E+02 -.20350530E+02 -.15354015E+02 0.27950201E+02 0.51099893E-03 0.0000E+00 0.9000E+01
       11  1    4    4    0    0 -.33212169E+01 0.69817885E+02 0.28215044E+02 0.75376762E+02 0.51099893E-03 0.0000E+00 0.9000E+01
       23  1    3    3    0    0 -.99595385E+02 -.10381623E+03 0.31876565E+03 0.36141920E+03 0.91188000E+02 0.0000E+00 0.9000E+01
#aMCatNLO 1  0  0  2  1 0.15139590D+03 0.00000000D+00  -5  7  0 0.00000000D+00 0.00000000D+00 0.00000000D+00 0.00000000D+00 0.00000000D+00
  <mgrwgt>
 0.2077980630D-03    9    2    0
 0.315355362568852D+03 0.000000000000000D+00 0.000000000000000D+00 0.315355362568852D+03
 0.315355362568852D+03 0.000000000000000D+00 0.000000000000000D+00 -.315355362568852D+03
 0.250617472123613D+03 0.114376266529426D+03 0.543488700015784D+02 -.196107460271075D+03
 0.344824657889697D+02 -.114596644864207D+02 -.203505298110062D+02 -.253687302235939D+02
 0.700673036055726D+02 -.332121685686408D+01 0.698178851762744D+02 0.488461489349241D+01
 0.275543483619548D+03 -.995953851861414D+02 -.103816225366847D+03 0.216591575601176D+03
 0.000000000000000D+00 -.000000000000000D+00 0.000000000000000D+00 -.000000000000000D+00
 0.360749097230142D+03 0.000000000000000D+00 0.000000000000000D+00 0.360749097230142D+03
 0.481581698621805D+03 0.000000000000000D+00 0.000000000000000D+00 -.481581698621805D+03
 0.262338520501501D+03 0.148429523462058D+03 0.409738767653566D+01 -.196107460271075D+03
 0.379627315394884D+02 -.665029496227095D+01 -.274475880487990D+02 -.253687302235939D+02
 0.577367795082070D+02 0.516322497028045D+01 0.572976208339216D+02 0.488461489349241D+01
 0.290588776509052D+03 -.620119519302984D+02 -.159277094666565D+03 0.216591575601176D+03
 0.193703987793699D+03 -.849305015397691D+02 0.125329674204907D+03 -.120832601391663D+03
0.576779787831D-05 0.000000000000D+00 0.000000000000D+00 0.132738818088D-06 0.000000000000D+00  7 1 -1 23 -11 11 23 21 0 0.67054745D-01 0.35102998D-01 0.44022350D+05 0.44022350D+05 0.44022350D+05 0.11521913D+01  1  2  2  2  7  2       -1 0.284472540668D-03 0.100000000000D+01
-.255746018519D-06 0.000000000000D+00 -.221498625488D-07 0.132738818088D-06 0.000000000000D+00  7 1 -1 23 -11 11 23 21 2 0.67054745D-01 0.35102998D-01 0.44022350D+05 0.44022350D+05 0.44022350D+05 0.11521913D+01  1  2  3  2  7  2       -1 -.167451234598D-04 0.100000000000D+01
0.349638822647D-06 0.000000000000D+00 0.000000000000D+00 0.132738818088D-06 0.000000000000D+00  7 1 -1 23 -11 11 23 21 2 0.67054745D-01 0.35102998D-01 0.44022350D+05 0.44022350D+05 0.44022350D+05 0.11521913D+01  1  2 15  2  7  2       -1 0.228928109438D-04 0.100000000000D+01
0.734855870463D-06 0.000000000000D+00 0.000000000000D+00 0.132738818088D-06 0.000000000000D+00  7 1 -1 23 -11 11 23 21 2 0.67054745D-01 0.55057261D-01 0.91550032D+05 0.91550032D+05 0.91550032D+05 0.11248821D+01  1  2 12  2  7  2       -1 0.206510547678D-04 0.100000000000D+01
-.419955149987D-05 0.000000000000D+00 0.000000000000D+00 0.132738818088D-06 0.000000000000D+00  7 1 -1 23 -11 11 23 21 2 0.67054745D-01 0.35102998D-01 0.44022350D+05 0.44022350D+05 0.44022350D+05 0.11521913D+01  1  2  4  2  7  2       -1 -.274968145148D-03 0.100000000000D+01
-.347953959198D-05 0.000000000000D+00 -.203606257214D-05 0.132738818088D-06 0.000000000000D+00  7 1 -1 23 -11 11 23 21 2 0.67054745D-01 0.59922038D-01 0.44022350D+05 0.44022350D+05 0.44022350D+05 0.11521913D+01  1  2  5  2  7  2       -1 -.891403089274D-04 0.100000000000D+01
0.421169958085D-05 0.000000000000D+00 0.177601343605D-05 0.132738818088D-06 0.000000000000D+00  7 1 -1 23 -11 11 23 21 2 0.67054745D-01 0.35102998D-01 0.44022350D+05 0.44022350D+05 0.44022350D+05 0.11521913D+01  1  2  6  2  7  2       -1 0.275763548013D-03 0.100000000000D+01
0.381925184103D-07 0.000000000000D+00 0.000000000000D+00 0.132738818088D-06 0.000000000000D+00  7 1 21 23 -11 11 23 1 2 0.67054745D-01 0.55057261D-01 0.91550032D+05 0.91550032D+05 0.91550032D+05 0.11248821D+01  1  2 12  4  7  2       -1 0.965514400780D-05 0.100000000000D+01
-.108331339497D-06 0.000000000000D+00 -.121189592182D-06 0.132738818088D-06 0.000000000000D+00  7 1 21 23 -11 11 23 1 2 0.67054745D-01 0.59922038D-01 0.44022350D+05 0.44022350D+05 0.44022350D+05 0.11521913D+01  1  2  5  4  7  2       -1 -.247834578759D-04 0.100000000000D+01
  </mgrwgt>
  </event>
  <event>
  8     66 0.25924217E-05 0.17045410E+03 0.75467711E-02 0.10053453E+00
        1 -1    0    0  501    0 0.00000000E+00 0.00000000E+00 0.16224863E+03 0.16224895E+03 0.32000000E+00 0.0000E+00 0.9000E+01
       -1 -1    0    0    0  501 0.00000000E+00 0.00000000E+00 -.44233463E+03 0.44233475E+03 0.32000000E+00 0.0000E+00 0.9000E+01
       25  2    1    2    0    0 -.22098270E+02 -.35937105E+02 -.36480572E+03 0.47315885E+03 0.29835595E+03 0.0000E+00 0.0000E+00
       23  2    3    3    0    0 -.75402048E+02 -.67390161E+02 -.59467851E+02 0.14854053E+03 0.91109605E+02 0.0000E+00 0.0000E+00
       23  1    1    2    0    0 0.22098270E+02 0.35937105E+02 0.84719722E+02 0.13142485E+03 0.91188000E+02 0.0000E+00 0.9000E+01
      -13  1    4    4    0    0 0.39802974E+01 0.15175547E+02 -.23934801E+02 0.28618628E+02 0.10565837E+00 0.0000E+00 0.9000E+01
       13  1    4    4    0    0 -.79382346E+02 -.82565708E+02 -.35533049E+02 0.11992190E+03 0.10565837E+00 0.0000E+00 0.9000E+01
       23  1    3    3    0    0 0.53303779E+02 0.31453056E+02 -.30533787E+03 0.32461832E+03 0.91188000E+02 0.0000E+00 0.9000E+01
#aMCatNLO 1  0  0  1  1 0.20242204D+03 0.00000000D+00  -5  7  0 0.00000000D+00 0.00000000D+00 0.00000000D+00 0.00000000D+00 0.00000000D+00
  <mgrwgt>
 0.3396280679D-03    5    2    0
 0.267896099854020D+03 0.000000000000000D+00 0.000000000000000D+00 0.267896099854020D+03
 0.267896099854020D+03 0.000000000000000D+00 0.000000000000000D+00 -.267896099854020D+03
 0.192586102635452D+03 0.220982698230145D+02 0.359371051792061D+02 0.164299563378851D+03
 0.197809585009542D+02 0.398040935023745D+01 0.151756780821201D+02 -.120474667614762D+02
 0.116744111399230D+03 -.793824571620061D+02 -.825658382744541D+02 0.225941450680187D+02
 0.206681027172404D+03 0.533037779887541D+02 0.314530550131279D+02 -.174846241685393D+03
 0.000000000000000D+00 -.000000000000000D+00 0.000000000000000D+00 0.000000000000000D+00
 0.485900527982379D+03 0.000000000000000D+00 0.000000000000000D+00 0.485900527982379D+03
 0.337718115528238D+03 0.000000000000000D+00 0.000000000000000D+00 -.337718115528238D+03
 0.210078275757709D+03 0.926749552637884D+02 0.153178569553943D+02 0.164299563378851D+03
 0.209812240292580D+02 0.111249691590647D+02 0.130883676448553D+02 -.120474667614762D+02
 0.104758217215728D+03 -.405588089579108D+02 -.939083153867571D+02 0.225941450680187D+02
 0.236936998592423D+03 0.131058582089382D+03 0.873669200554357D+01 -.174846241685393D+03
 0.250863927915499D+03 -.194299697554324D+03 0.567653987809639D+02 0.148182412454141D+03
0.629791594457D-05 0.000000000000D+00 0.000000000000D+00 0.683654291187D-07 0.000000000000D+00  7 1 -1 23 -13 13 23 21 0 0.24961361D-01 0.68051515D-01 0.29054601D+05 0.29054601D+05 0.29054601D+05 0.11686284D+01  1  2  2  1  7  1        1 0.345635014245D-03 0.100000000000D+01
-.262920406593D-06 0.000000000000D+00 -.241856555065D-07 0.683654291187D-07 0.000000000000D+00  7 1 -1 23 -13 13 23 21 2 0.24961361D-01 0.68051515D-01 0.29054601D+05 0.29054601D+05 0.29054601D+05 0.11686284D+01  1  2  3  1  7  1        1 -.197059791570D-04 0.100000000000D+01
0.391300675704D-06 0.000000000000D+00 0.000000000000D+00 0.683654291187D-07 0.000000000000D+00  7 1 -1 23 -13 13 23 21 2 0.24961361D-01 0.68051515D-01 0.29054601D+05 0.29054601D+05 0.29054601D+05 0.11686284D+01  1  2 15  1  7  1        1 0.293281265591D-04 0.100000000000D+01
-.828302713055D-06 0.000000000000D+00 -.206111621743D-05 0.683654291187D-07 0.000000000000D+00  7 1 -1 23 -13 13 23 21 2 0.55414226D-01 0.68051515D-01 0.29054601D+05 0.29054601D+05 0.29054601D+05 0.11686284D+01  1  2  5  1  7  1        1 -.223311829125D-04 0.100000000000D+01
0.584101784251D-07 0.000000000000D+00 -.178288504108D-06 0.683654291187D-07 0.000000000000D+00  7 21 -1 23 -13 13 23 -1 2 0.55414226D-01 0.68051515D-01 0.29054601D+05 0.29054601D+05 0.29054601D+05 0.11686284D+01  1  2  5  3  7  1        1 0.670208917291D-05 0.100000000000D+01
  </mgrwgt>
  </event>
  <event>
  9     66 0.25924217E-05 0.33237486E+03 0.75467711E-02 0.99290258E-01
        1 -1    0    0  502    0 0.00000000E+00 0.00000000E+00 0.32705539E+03 0.32705554E+03 0.32000000E+00 0.0000E+00 0.9000E+01
       -1 -1    0    0    0  501 0.00000000E+00 0.00000000E+00 -.42736173E+03 0.42736185E+03 0.32000000E+00 0.0000E+00 0.9000E+01
       25  2    1    2    0    0 -.27876656E+03 -.97946451E+02 -.43570478E+02 0.42309922E+03 0.29968361E+03 0.0000E+00 0.0000E+00
       23  2    3    3    0    0 -.57638370E+02 -.45762500E+02 -.11819573E+03 0.16715974E+03 0.92497340E+02 0.0000E+00 0.0000E+00
       23  1    1    2    0    0 0.27133727E+03 0.10639393E+03 -.35714836E+02 0.30746444E+03 0.91188000E+02 0.0000E+00 0.9000E+01
      -13  1    4    4    0    0 0.20200768E+02 -.28206717E+02 -.56474789E+02 0.66280487E+02 0.10565837E+00 0.0000E+00 0.9000E+01
       13  1    4    4    0    0 -.77839138E+02 -.17555783E+02 -.61720943E+02 0.10087925E+03 0.10565837E+00 0.0000E+00 0.9000E+01
       23  1    3    3    0    0 -.22112819E+03 -.52183951E+02 0.74625254E+02 0.25593949E+03 0.91188000E+02 0.0000E+00 0.9000E+01
       21  1    1    2  502  501 0.74292905E+01 -.84474825E+01 -.21021031E+02 0.23853733E+02 0.75000000E+00 0.0000E+00 0.9000E+01
#aMCatNLO 2  0  0  1  1 0.11249636D+02 0.00000000D+00  -5  7  0 0.00000000D+00 0.00000000D+00 0.00000000D+00 0.00000000D+00 0.00000000D+00
  <mgrwgt>
 0.4437938140D-04    2    2    0
 0.363080760201617D+03 0.000000000000000D+00 0.000000000000000D+00 0.363080760201617D+03
 0.363080760201617D+03 0.000000000000000D+00 0.000000000000000D+00 -.363080760201617D+03
 0.306967203200026D+03 0.274469577529968D+03 0.102832339309100D+03 -.236082595398410D+01
 0.610509016013653D+02 0.208226911224775D+02 -.289137444058801D+02 -.495744239017351D+02
 0.941597576823647D+02 -.768730121166658D+02 -.186544476027487D+02 -.510745686183339D+02
 0.263983657919479D+03 -.218419256535780D+03 -.552641473004709D+02 0.103009818474053D+03
 0.000000000000000D+00 0.000000000000000D+00 -.000000000000000D+00 -.000000000000000D+00
 0.364697259412533D+03 0.000000000000000D+00 0.000000000000000D+00 0.364697259412533D+03
 0.383238722024059D+03 0.000000000000000D+00 0.000000000000000D+00 -.383238722024059D+03
 0.305392219489458D+03 0.271337269497428D+03 0.106393933394684D+03 -.236082595398410D+01
 0.605088368538498D+02 0.202008952766253D+02 -.282067307967390D+02 -.495744239017351D+02
 0.947405283877311D+02 -.778392647151933D+02 -.175557690869883D+02 -.510745686183339D+02
 0.265607069678818D+03 -.221128190584233D+03 -.521839510410419D+02 0.103009818474053D+03
 0.216873270267353D+02 0.742929052537368D+01 -.844748246991464D+01 -.185414626115266D+02
-.945639231295D-06 0.000000000000D+00 0.000000000000D+00 0.237314795229D-06 0.000000000000D+00  7 1 -1 23 -13 13 23 21 2 0.50092324D-01 0.62288601D-01 0.11047305D+06 0.11047305D+06 0.11047305D+06 0.11181896D+01  1  2  8  1  7  1        1 -.307008119445D-04 0.100000000000D+01
0.258403703584D-05 0.000000000000D+00 0.000000000000D+00 0.237314795229D-06 0.124972170694D-07  7 1 -1 23 -13 13 23 21 2 0.50315344D-01 0.65746816D-01 0.11422372D+06 0.11422372D+06 0.11422372D+06 0.11170131D+01  1  2  1  1  7  1        1 0.750801933410D-04 0.100000000000D+01
  </mgrwgt>
  </event>
  <event>
  8     66 0.25924217E-05 0.28507896E+03 0.75467711E-02 0.97377419E-01
        1 -1    0    0  501    0 0.00000000E+00 0.00000000E+00 0.12582820E+04 0.12582820E+04 0.32000000E+00 0.0000E+00 0.9000E+01
       -1 -1    0    0    0  501 0.00000000E+00 0.00000000E+00 -.10249990E+03 0.10250040E+03 0.32000000E+00 0.0000E+00 0.9000E+01
       25  2    1    2    0    0 -.98783868E+01 0.28219586E+03 0.78008986E+03 0.88204243E+03 0.29954394E+03 0.0000E+00 0.0000E+00
       23  2    3    3    0    0 -.89516901E+02 0.24083453E+03 0.61837816E+03 0.67584112E+03 0.91406407E+02 0.0000E+00 0.0000E+00
       23  1    1    2    0    0 0.98783868E+01 -.28219586E+03 0.37569220E+03 0.47873998E+03 0.91188000E+02 0.0000E+00 0.9000E+01
      -13  1    4    4    0    0 -.73006594E+01 0.12795892E+03 0.36010553E+03 0.38223394E+03 0.10565837E+00 0.0000E+00 0.9000E+01
       13  1    4    4    0    0 -.82216241E+02 0.11287561E+03 0.25827263E+03 0.29360718E+03 0.10565837E+00 0.0000E+00 0.9000E+01
       23  1    3    3    0    0 0.79638514E+02 0.41361336E+02 0.16171170E+03 0.20620130E+03 0.91188000E+02 0.0000E+00 0.9000E+01
#aMCatNLO 1  0  0  1  2 0.92491142D+02 0.00000000D+00  -5  7  0 0.00000000D+00 0.00000000D+00 0.00000000D+00 0.00000000D+00 0.00000000D+00
  <mgrwgt>
 0.4117626651D-03    9    2    0
 0.359129709116485D+03 0.000000000000000D+00 0.000000000000000D+00 0.359129709116485D+03
 0.359129709116485D+03 0.000000000000000D+00 0.000000000000000D+00 -.359129709116485D+03
 0.302457066574035D+03 0.987838681116942D+01 -.282195862144175D+03 -.585912846700331D+02
 0.144702203261774D+03 -.730055948300974D+01 0.127958939164083D+03 0.671709710220824D+02
 0.140657546818151D+03 -.822163412803168D+02 0.112875586760688D+03 0.168558778118861D+02
 0.130442601579009D+03 0.796385139521571D+02 0.413613362194039D+02 -.254355641639354D+02
 0.000000000000000D+00 -.000000000000000D+00 0.000000000000000D+00 0.000000000000000D+00
 0.433156378561700D+03 0.000000000000000D+00 0.000000000000000D+00 0.433156378561700D+03
 0.392190876913279D+03 0.000000000000000D+00 0.000000000000000D+00 -.392190876913279D+03
 0.327197631469428D+03 0.426613225760931D+02 -.305761527357477D+03 -.585912846700331D+02
 0.135516043693281D+03 0.728898748397406D+01 0.117471398270764D+03 0.671709710220824D+02
 0.124738503269058D+03 -.683985111437220D+02 0.102942786315107D+03 0.168558778118861D+02
 0.136737854154690D+03 0.935492490664630D+02 0.313617520172650D+02 -.254355641639354D+02
 0.101157222888522D+03 -.751010479828082D+02 0.539855907543412D+02 0.409655016484215D+02
0.738834332526D-05 0.000000000000D+00 0.000000000000D+00 0.363124708954D-06 0.000000000000D+00  7 1 -1 23 -13 13 23 21 0 0.19358188D+00 0.15769258D-01 0.11988122D+06 0.11988122D+06 0.11988122D+06 0.11153163D+01  1  2  2  1  7  1        1 0.250291210206D-03 0.100000000000D+01
-.409796624656D-06 0.000000000000D+00 -.283731837645D-07 0.363124708954D-06 0.000000000000D+00  7 1 -1 23 -13 13 23 21 2 0.19358188D+00 0.15769258D-01 0.11988122D+06 0.11988122D+06 0.11988122D+06 0.11153163D+01  1  2  3  1  7  1        1 -.172688343763D-04 0.100000000000D+01
0.471003228668D-06 0.000000000000D+00 0.000000000000D+00 0.363124708954D-06 0.000000000000D+00  7 1 -1 23 -13 13 23 21 2 0.19358188D+00 0.15769258D-01 0.11988122D+06 0.11988122D+06 0.11988122D+06 0.11153163D+01  1  2 15  1  7  1        1 0.198480813584D-04 0.100000000000D+01
0.680465595956D-05 0.000000000000D+00 0.000000000000D+00 0.363124708954D-06 0.000000000000D+00  7 1 -1 23 -13 13 23 21 2 0.24097401D+00 0.15769258D-01 0.15604201D+06 0.15604201D+06 0.15604201D+06 0.11062010D+01  1  2 12  1  7  1        1 0.173773929358D-03 0.100000000000D+01
-.686437099076D-05 0.000000000000D+00 0.000000000000D+00 0.363124708954D-06 0.000000000000D+00  7 1 -1 23 -13 13 23 21 2 0.19358188D+00 0.15769258D-01 0.11988122D+06 0.11988122D+06 0.11988122D+06 0.11153163D+01  1  2  4  1  7  1        1 -.289264670826D-03 0.100000000000D+01
-.148390944686D-04 0.000000000000D+00 -.404335228823D-05 0.363124708954D-06 0.000000000000D+00  7 1 -1 23 -13 13 23 21 2 0.24479157D+00 0.15769258D-01 0.11988122D+06 0.11988122D+06 0.11988122D+06 0.11153163D+01  1  2  5  1  7  1        1 -.373653309926D-03 0.100000000000D+01
0.154689345108D-04 0.000000000000D+00 0.393448412336D-05 0.363124708954D-06 0.000000000000D+00  7 1 -1 23 -13 13 23 21 2 0.19358188D+00 0.15769258D-01 0.11988122D+06 0.11988122D+06 0.11988122D+06 0.11153163D+01  1  2  6  1  7  1        1 0.651861074425D-03 0.100000000000D+01
0.208634434247D-06 0.000000000000D+00 0.000000000000D+00 0.363124708954D-06 0.000000000000D+00  7 21 -1 23 -13 13 23 -1 2 0.24097401D+00 0.15769258D-01 0.15604201D+06 0.15604201D+06 0.15604201D+06 0.11062010D+01  1  2 12  3  7  1        1 0.399789839000D-05 0.100000000000D+01
-.418187672010D-06 0.000000000000D+00 -.130583622821D-06 0.363124708954D-06 0.000000000000D+00  7 21 -1 23 -13 13 23 -1 2 0.24479157D+00 0.15769258D-01 0.11988122D+06 0.11988122D+06 0.11988122D+06 0.11153163D+01  1  2  5  3  7  1        1 -.782271352755D-05 0.100000000000D+01
  </mgrwgt>
  </event>
  <event>
  8     66 0.25924217E-05 0.17404094E+03 0.75467711E-02 0.97108343E-01
        1 -1    0    0  501    0 0.00000000E+00 0.00000000E+00 0.58718713E+03 0.58718722E+03 0.32000000E+00 0.0000E+00 0.9000E+01
       -1 -1    0    0    0  501 0.00000000E+00 0.00000000E+00 -.71235906E+03 0.71235913E+03 0.32000000E+00 0.0000E+00 0.9000E+01
       25  2    1    2    0    0 0.17625817E+03 -.22586322E+03 0.47356456E+03 0.62955996E+03 0.30000201E+03 0.0000E+00 0.0000E+00
       23  2    3    3    0    0 0.19767099E+03 -.12766584E+03 0.19261520E+03 0.31755189E+03 0.91466955E+02 0.0000E+00 0.0000E+00
       23  1    1    2    0    0 -.17625817E+03 0.22586322E+03 -.59873649E+03 0.66998640E+03 0.91188000E+02 0.0000E+00 0.9000E+01
      -11  1    4    4    0    0 0.10862514E+03 -.68006411E+02 0.46485668E+02 0.13632758E+03 0.51099893E-03 0.0000E+00 0.9000E+01
       11  1    4    4    0    0 0.89045850E+02 -.59659431E+02 0.14612953E+03 0.18122431E+03 0.51099893E-03 0.0000E+00 0.9000E+01
       23  1    3    3    0    0 -.21412816E+02 -.98197379E+02 0.28094936E+03 0.31200806E+03 0.91188000E+02 0.0000E+00 0.9000E+01
#aMCatNLO 1  0  0  1  2 0.11701851D+03 0.00000000D+00  -5  7  0 0.00000000D+00 0.00000000D+00 0.00000000D+00 0.00000000D+00 0.00000000D+00
  <mgrwgt>
 0.3840232878D-03    9    2    0
 0.646752022654162D+03 0.000000000000000D+00 0.000000000000000D+00 0.646752022654162D+03
 0.646752022654162D+03 0.000000000000000D+00 0.000000000000000D+00 -.646752022654162D+03
 0.615176569608661D+03 -.176258171294900D+03 0.225863221484478D+03 -.536699005666967D+03
 0.141462806416251D+03 0.108625136617551D+03 -.680064110080816D+02 0.598951864157709D+02
 0.196211763155070D+03 0.890458504384483D+02 -.596594311159091D+02 0.164349155151588D+03
 0.340652906128342D+03 -.214128157610990D+02 -.981973793604874D+02 0.312454664099607D+03
 0.000000000000000D+00 0.000000000000000D+00 0.000000000000000D+00 0.000000000000000D+00
 0.760695279335922D+03 0.000000000000000D+00 0.000000000000000D+00 0.760695279335922D+03
 0.680150315007970D+03 0.000000000000000D+00 0.000000000000000D+00 -.680150315007970D+03
 0.625020814458240D+03 -.228333885077952D+03 0.205313373659243D+03 -.536699005666967D+03
 0.135157877982764D+03 0.970098729729871D+02 -.725899660475797D+02 0.598951864157709D+02
 0.191500854591616D+03 0.727658521323357D+02 -.660837595308675D+02 0.164349155151588D+03
 0.347106827226620D+03 -.502917502644550D+02 -.109593434571007D+03 0.312454664099607D+03
 0.142059220084651D+03 0.108849910237085D+03 0.429537864902119D+02 0.805449643279528D+02
0.925984765928D-04 0.000000000000D+00 0.000000000000D+00 0.445923822245D-05 0.000000000000D+00  7 1 -1 23 -11 11 23 21 0 0.90336494D-01 0.10959371D+00 0.11279810D+06 0.11279810D+06 0.11279810D+06 0.11174552D+01  1  2  2  1  7  1        1 0.335600935691D-03 0.100000000000D+01
-.245855764657D-05 0.000000000000D+00 -.355602531855D-06 0.445923822245D-05 0.000000000000D+00  7 1 -1 23 -11 11 23 21 2 0.90336494D-01 0.10959371D+00 0.11279810D+06 0.11279810D+06 0.11279810D+06 0.11174552D+01  1  2  3  1  7  1        1 -.111265351268D-04 0.100000000000D+01
0.529266350167D-05 0.000000000000D+00 0.000000000000D+00 0.445923822245D-05 0.000000000000D+00  7 1 -1 23 -11 11 23 21 2 0.90336494D-01 0.10959371D+00 0.11279810D+06 0.11279810D+06 0.11279810D+06 0.11174552D+01  1  2 15  1  7  1        1 0.239526644608D-04 0.100000000000D+01
0.135146312694D-03 0.000000000000D+00 0.000000000000D+00 0.445923822245D-05 0.000000000000D+00  7 1 -1 23 -11 11 23 21 2 0.10828850D+00 0.10959371D+00 0.16320611D+06 0.16320611D+06 0.16320611D+06 0.11046716D+01  1  2 12  1  7  1        1 0.450002352409D-03 0.100000000000D+01
-.154111026458D-03 0.000000000000D+00 0.000000000000D+00 0.445923822245D-05 0.000000000000D+00  7 1 -1 23 -11 11 23 21 2 0.90336494D-01 0.10959371D+00 0.11279810D+06 0.11279810D+06 0.11279810D+06 0.11174552D+01  1  2  4  1  7  1        1 -.697450292336D-03 0.100000000000D+01
-.221996988842D-03 0.000000000000D+00 -.664058790038D-04 0.445923822245D-05 0.000000000000D+00  7 1 -1 23 -11 11 23 21 2 0.10998355D+00 0.10959371D+00 0.11279810D+06 0.11279810D+06 0.11279810D+06 0.11174552D+01  1  2  5  1  7  1        1 -.752226458593D-03 0.100000000000D+01
0.231826972597D-03 0.000000000000D+00 0.651404873020D-04 0.445923822245D-05 0.000000000000D+00  7 1 -1 23 -11 11 23 21 2 0.90336494D-01 0.10959371D+00 0.11279810D+06 0.11279810D+06 0.11279810D+06 0.11174552D+01  1  2  6  1  7  1        1 0.104916431695D-02 0.100000000000D+01
0.358378738263D-05 0.000000000000D+00 0.000000000000D+00 0.445923822245D-05 0.000000000000D+00  7 21 -1 23 -11 11 23 -1 2 0.10828850D+00 0.10959371D+00 0.16320611D+06 0.16320611D+06 0.16320611D+06 0.11046716D+01  1  2 12  3  7  1        1 0.245905693768D-04 0.100000000000D+01
-.553061500030D-05 0.000000000000D+00 -.187684733454D-05 0.445923822245D-05 0.000000000000D+00  7 21 -1 23 -11 11 23 -1 2 0.10998355D+00 0.10959371D+00 0.11279810D+06 0.11279810D+06 0.11279810D+06 0.11174552D+01  1  2  5  3  7  1        1 -.384842650686D-04 0.100000000000D+01
  </mgrwgt>
  </event>
  <event>
  8     66 0.25924217E-05 0.57497448E+03 0.75467711E-02 0.82861574E-01
        1 -1    0    0  501    0 0.00000000E+00 0.00000000E+00 0.27701966E+04 0.27701966E+04 0.32000000E+00 0.0000E+00 0.9000E+01
       -1 -1    0    0    0  501 0.00000000E+00 0.00000000E+00 -.13359754E+03 0.13359792E+03 0.32000000E+00 0.0000E+00 0.9000E+01
       25  2    1    2    0    0 0.55795193E+03 -.76871698E+02 0.12826386E+04 0.14345281E+04 0.30901382E+03 0.0000E+00 0.0000E+00
       23  2    3    3    0    0 0.28740611E+02 0.15423808E+02 0.24524973E+03 0.26274572E+03 0.88453187E+02 0.0000E+00 0.0000E+00
       23  1    1    2    0    0 -.55795193E+03 0.76871698E+02 0.13539604E+04 0.14692664E+04 0.91188000E+02 0.0000E+00 0.9000E+01
      -11  1    4    4    0    0 -.39196149E+00 -.99386034E+00 0.22203452E+03 0.22203709E+03 0.51099893E-03 0.0000E+00 0.9000E+01
       11  1    4    4    0    0 0.29132572E+02 0.16417668E+02 0.23215214E+02 0.40708632E+02 0.51099893E-03 0.0000E+00 0.9000E+01
       23  1    3    3    0    0 0.52921132E+03 -.92295506E+02 0.10373889E+04 0.11717824E+04 0.91188000E+02 0.0000E+00 0.9000E+01
#aMCatNLO 1  0  0  1  1 0.14304643D+04 0.00000000D+00  -5  7  0 0.00000000D+00 0.00000000D+00 0.00000000D+00 0.00000000D+00 0.00000000D+00
  <mgrwgt>
 0.4397523616D-03    3    2    0
 0.608351889730812D+03 0.000000000000000D+00 0.000000000000000D+00 0.608351889730812D+03
 0.608351889730812D+03 0.000000000000000D+00 0.000000000000000D+00 -.608351889730812D+03
 0.572527932461465D+03 -.557951928751183D+03 0.768716982862262D+02 0.474696672626468D+02
 0.487662513703988D+02 -.391961465528848D+00 -.993860344550312D+00 0.487545472806998D+02
 0.468481266045749D+02 0.291325721757977D+02 0.164176682653812D+02 -.328100651250209D+02
 0.548561469025184D+03 0.529211318040914D+03 -.922955062070570D+02 -.634141494183257D+02
 0.000000000000000D+00 -.000000000000000D+00 0.000000000000000D+00 -.000000000000000D+00
 0.139325128127128D+04 0.000000000000000D+00 0.000000000000000D+00 0.139325128127128D+04
 0.206502089895522D+04 0.000000000000000D+00 0.000000000000000D+00 -.206502089895522D+04
 0.225485427883930D+03 -.189212437578660D+03 0.668858056654356D+02 0.474696672626468D+02
 0.748393231478264D+02 0.567226921465493D+02 -.254059133403636D+01 0.487545472806998D+02
 0.106023551982838D+03 0.997702679564977D+02 0.145047176269693D+02 -.328100651250209D+02
 0.147157504473515D+04 0.146265948720517D+04 -.117574364066050D+03 -.634141494183257D+02
 0.158034883247675D+04 -.142994000972955D+04 0.387244321076817D+02 -.671769617683935D+03
0.215341999033D-03 0.000000000000D+00 0.000000000000D+00 0.186862286296D-08 0.000000000000D+00  7 1 -1 23 -11 11 23 21 0 0.42618412D+00 0.20553498D-01 0.33059565D+06 0.33059565D+06 0.33059565D+06 0.10814452D+01  1  2  2  1  7  1        1 0.435854524550D-03 0.100000000000D+01
-.119171291036D-04 0.000000000000D+00 -.826969977135D-06 0.186862286296D-08 0.000000000000D+00  7 1 -1 23 -11 11 23 21 2 0.42618412D+00 0.20553498D-01 0.33059565D+06 0.33059565D+06 0.33059565D+06 0.10814452D+01  1  2  3  1  7  1        1 -.282093789322D-04 0.100000000000D+01
0.135637809921D-04 0.000000000000D+00 0.000000000000D+00 0.186862286296D-08 0.000000000000D+00  7 1 -1 23 -11 11 23 21 2 0.42618412D+00 0.20553498D-01 0.33059565D+06 0.33059565D+06 0.33059565D+06 0.10814452D+01  1  2 15  1  7  1        1 0.321072159606D-04 0.100000000000D+01
  </mgrwgt>
  </event>
  <event>
  8     66 0.25924217E-05 0.13009771E+03 0.75467711E-02 0.98802604E-01
        1 -1    0    0  501    0 0.00000000E+00 0.00000000E+00 0.54686951E+03 0.54686961E+03 0.32000000E+00 0.0000E+00 0.9000E+01
       -1 -1    0    0    0  501 0.00000000E+00 0.00000000E+00 -.16378483E+03 0.16378515E+03 0.32000000E+00 0.0000E+00 0.9000E+01
       25  2    1    2    0    0 0.57809387E+02 -.20210715E+03 0.27011148E+03 0.45517986E+03 0.30006545E+03 0.0000E+00 0.0000E+00
       23  2    3    3    0    0 0.52403461E+01 -.18291084E+03 0.51188470E+02 0.21151096E+03 0.92912806E+02 0.0000E+00 0.0000E+00
       23  1    1    2    0    0 -.57809387E+02 0.20210715E+03 0.11297320E+03 0.25547489E+03 0.91188000E+02 0.0000E+00 0.9000E+01
      -13  1    4    4    0    0 -.10630178E+02 -.17476065E+03 0.20857349E+02 0.17632165E+03 0.10565837E+00 0.0000E+00 0.9000E+01
       13  1    4    4    0    0 0.15870524E+02 -.81501892E+01 0.30331120E+02 0.35189304E+02 0.10565837E+00 0.0000E+00 0.9000E+01
       23  1    3    3    0    0 0.52569040E+02 -.19196309E+02 0.21892301E+03 0.24366891E+03 0.91188000E+02 0.0000E+00 0.9000E+01
#aMCatNLO 1  0  0  1  2 0.14854872D+03 0.00000000D+00  -5  7  0 0.00000000D+00 0.00000000D+00 0.00000000D+00 0.00000000D+00 0.00000000D+00
  <mgrwgt>
 0.2740572721D-03    7    2    0
 0.299280932433991D+03 0.000000000000000D+00 0.000000000000000D+00 0.299280932433991D+03
 0.299280932433991D+03 0.000000000000000D+00 0.000000000000000D+00 -.299280932433991D+03
 0.231013951626968D+03 -.578093866251723D+02 0.202107145848017D+03 -.293763666490102D+02
 0.195992811141014D+03 -.106302117413888D+02 -.174760862278846D+03 -.880841735662240D+02
 0.223668172438000D+02 0.158705574701644D+02 -.814997405258800D+01 0.134899163135248D+02
 0.149188284856198D+03 0.525690408963966D+02 -.191963095165828D+02 0.103970623901709D+03
 0.000000000000000D+00 -.000000000000000D+00 0.000000000000000D+00 0.000000000000000D+00
 0.687139867848427D+03 0.000000000000000D+00 0.000000000000000D+00 0.687139867848427D+03
 0.322924122499309D+03 0.000000000000000D+00 0.000000000000000D+00 -.322924122499309D+03
 0.222573852421741D+03 -.237897704266562D+01 0.200886131897123D+03 -.293763666490102D+02
 0.200255986828740D+03 0.377931210113604D+02 -.175827525240301D+03 -.880841735662240D+02
 0.270276075717520D+02 0.219067717911393D+02 -.828293900724033D+01 0.134899163135248D+02
 0.166862124124110D+03 0.911917804456635D+02 -.200470862683081D+02 0.103970623901709D+03
 0.393344419401393D+03 -.148512696205498D+03 0.327141861872634D+01 0.364215745349118D+03
0.583199010976D-05 0.000000000000D+00 0.000000000000D+00 0.215488849648D-06 0.000000000000D+00  7 1 -1 23 -13 13 23 21 0 0.84133802D-01 0.25197698D-01 0.69974832D+05 0.69974832D+05 0.69974832D+05 0.11346729D+01  1  2  2  1  7  1        1 0.364013632148D-03 0.100000000000D+01
-.317997142850D-06 0.000000000000D+00 -.223963776198D-07 0.215488849648D-06 0.000000000000D+00  7 1 -1 23 -13 13 23 21 2 0.84133802D-01 0.25197698D-01 0.69974832D+05 0.69974832D+05 0.69974832D+05 0.11346729D+01  1  2  3  1  7  1        1 -.255543859751D-04 0.100000000000D+01
0.366127938867D-06 0.000000000000D+00 0.000000000000D+00 0.215488849648D-06 0.000000000000D+00  7 1 -1 23 -13 13 23 21 2 0.84133802D-01 0.25197698D-01 0.69974832D+05 0.69974832D+05 0.69974832D+05 0.11346729D+01  1  2 15  1  7  1        1 0.294221972632D-04 0.100000000000D+01
0.552296737397D-05 0.000000000000D+00 0.000000000000D+00 0.215488849648D-06 0.000000000000D+00  7 1 -1 23 -13 13 23 21 2 0.19206924D+00 0.25197698D-01 0.12353468D+06 0.12353468D+06 0.12353468D+06 0.11142666D+01  1  2 12  1  7  1        1 0.110968763457D-03 0.100000000000D+01
-.100348924229D-04 0.000000000000D+00 -.178213673714D-05 0.215488849648D-06 0.000000000000D+00  7 1 -1 23 -13 13 23 21 2 0.19871927D+00 0.25197698D-01 0.69974832D+05 0.69974832D+05 0.69974832D+05 0.11346729D+01  1  2  5  1  7  1        1 -.198472118709D-03 0.100000000000D+01
0.495754627707D-06 0.000000000000D+00 0.000000000000D+00 0.215488849648D-06 0.000000000000D+00  7 21 -1 23 -13 13 23 -1 2 0.19206924D+00 0.25197698D-01 0.12353468D+06 0.12353468D+06 0.12353468D+06 0.11142666D+01  1  2 12  3  7  1        1 0.102985390563D-04 0.100000000000D+01
-.829220903498D-06 0.000000000000D+00 -.167226864020D-06 0.215488849648D-06 0.000000000000D+00  7 21 -1 23 -13 13 23 -1 2 0.19871927D+00 0.25197698D-01 0.69974832D+05 0.69974832D+05 0.69974832D+05 0.11346729D+01  1  2  5  3  7  1        1 -.166193551018D-04 0.100000000000D+01
  </mgrwgt>
  </event>
  <event>
  8     66 0.25924217E-05 0.20794309E+03 0.75467711E-02 0.98792174E-01
        1 -1    0    0  501    0 0.00000000E+00 0.00000000E+00 0.13320756E+04 0.13320756E+04 0.32000000E+00 0.0000E+00 0.9000E+01
       -1 -1    0    0    0  501 0.00000000E+00 0.00000000E+00 -.12210467E+03 0.12210509E+03 0.32000000E+00 0.0000E+00 0.9000E+01
       25  2    1    2    0    0 -.62763040E+02 0.29064567E+03 0.38080033E+03 0.56860000E+03 0.29980488E+03 0.0000E+00 0.0000E+00
       23  2    3    3    0    0 -.29360247E+02 0.44006740E+02 -.27819042E+01 0.10234139E+03 0.87563716E+02 0.0000E+00 0.0000E+00
       23  1    1    2    0    0 0.62763040E+02 -.29064567E+03 0.82917058E+03 0.88558072E+03 0.91188000E+02 0.0000E+00 0.9000E+01
      -11  1    4    4    0    0 -.14925181E+02 0.41053420E+02 0.38675670E+02 0.58343396E+02 0.51099893E-03 0.0000E+00 0.9000E+01
       11  1    4    4    0    0 -.14435066E+02 0.29533199E+01 -.41457575E+02 0.43997997E+02 0.51099893E-03 0.0000E+00 0.9000E+01
       23  1    3    3    0    0 -.33402793E+02 0.24663893E+03 0.38358224E+03 0.46625861E+03 0.91188000E+02 0.0000E+00 0.9000E+01
#aMCatNLO 1  0  0  2  1 0.59119457D+02 0.00000000D+00  -5  7  0 0.00000000D+00 0.00000000D+00 0.00000000D+00 0.00000000D+00 0.00000000D+00
  <mgrwgt>
 0.6131082330D-03    6    2    0
 0.403302599324747D+03 0.000000000000000D+00 0.000000000000000D+00 0.403302599324747D+03
 0.403302599324747D+03 0.000000000000000D+00 0.000000000000000D+00 -.403302599324747D+03
 0.352740245892423D+03 0.627630401493557D+02 -.290645665236968D+03 0.166422137344819D+03
 0.471673190739211D+02 -.149251810347207D+02 0.410534202173746D+02 -.177935844662494D+02
 0.141510987065202D+03 -.144350659195376D+02 0.295331985398932D+01 -.140741842512831D+03
 0.265186646617947D+03 -.334027931950975D+02 0.246638925165604D+03 -.788671036573919D+01
 0.000000000000000D+00 0.000000000000000D+00 -.000000000000000D+00 0.000000000000000D+00
 0.437047596978879D+03 0.000000000000000D+00 0.000000000000000D+00 0.437047596978879D+03
 0.431135581526167D+03 0.000000000000000D+00 0.000000000000000D+00 -.431135581526167D+03
 0.343152986438597D+03 0.383711481113114D+02 -.283319692135809D+03 0.166422137344819D+03
 0.492070699074601D+02 -.183032189032484D+02 0.420679956558413D+02 -.177935844662494D+02
 0.142966134076841D+03 -.244063300500238D+02 0.594813520863901D+01 -.140741842512831D+03
 0.273442662032263D+03 -.522823961783219D+02 0.252309312005622D+03 -.788671036573919D+01
 0.594143260498853D+02 0.566207970202827D+02 -.170057507342931D+02 0.591201545271230D+01
0.194104146280D-04 0.000000000000D+00 0.000000000000D+00 0.137999235639D-06 0.000000000000D+00  7 1 -1 23 -11 11 23 21 0 0.20493474D+00 0.18785369D-01 0.10064730D+06 0.10064730D+06 0.10064730D+06 0.11214922D+01  1  2  2  2  7  2       -1 0.445097758657D-03 0.100000000000D+01
-.100283665723D-05 0.000000000000D+00 -.745411030512D-07 0.137999235639D-06 0.000000000000D+00  7 1 -1 23 -11 11 23 21 2 0.20493474D+00 0.18785369D-01 0.10064730D+06 0.10064730D+06 0.10064730D+06 0.11214922D+01  1  2  3  2  7  2       -1 -.289229966358D-04 0.100000000000D+01
0.122319568010D-05 0.000000000000D+00 0.000000000000D+00 0.137999235639D-06 0.000000000000D+00  7 1 -1 23 -11 11 23 21 2 0.20493474D+00 0.18785369D-01 0.10064730D+06 0.10064730D+06 0.10064730D+06 0.11214922D+01  1  2 15  2  7  2       -1 0.352784117785D-04 0.100000000000D+01
0.211371042143D-04 0.000000000000D+00 0.000000000000D+00 0.137999235639D-06 0.000000000000D+00  7 1 -1 23 -11 11 23 21 2 0.20493474D+00 0.20810697D-01 0.12374297D+06 0.12374297D+06 0.12374297D+06 0.11142078D+01  1  2 12  2  7  2       -1 0.507871773074D-03 0.100000000000D+01
-.154864579376D-04 0.000000000000D+00 0.000000000000D+00 0.137999235639D-06 0.000000000000D+00  7 1 -1 23 -11 11 23 21 2 0.20493474D+00 0.18785369D-01 0.10064730D+06 0.10064730D+06 0.10064730D+06 0.11214922D+01  1  2  4  2  7  2       -1 -.446647784161D-03 0.100000000000D+01
0.350376563134D-06 0.000000000000D+00 0.000000000000D+00 0.137999235639D-06 0.000000000000D+00  7 1 21 23 -11 11 23 1 2 0.20493474D+00 0.20810697D-01 0.12374297D+06 0.12374297D+06 0.12374297D+06 0.11142078D+01  1  2 12  4  7  2       -1 0.100431070297D-03 0.100000000000D+01
  </mgrwgt>
  </event>
  <event>
  7     66 0.25924217E-05 0.30782396E+03 0.75467711E-02 0.89290011E-01
        1 -1    0    0  501    0 0.00000000E+00 0.00000000E+00 0.77674987E+03 0.77674994E+03 0.32000000E+00 0.0000E+00 0.9000E+01
       -1 -1    0    0    0  501 0.00000000E+00 0.00000000E+00 -.77065109E+03 0.77065116E+03 0.32000000E+00 0.0000E+00 0.9000E+01
       23  2    1    2    0    0 0.19416961E+02 0.14122881E+03 -.79260867E+01 0.17045386E+03 0.93108000E+02 0.0000E+00 0.0000E+00
       23  1    1    2    0    0 -.59434060E+03 0.29666086E+02 0.33671183E+03 0.68979050E+03 0.91188000E+02 0.0000E+00 0.9000E+01
      -11  1    3    3    0    0 0.49484824E+01 0.42373353E+02 -.46729578E+02 0.63274340E+02 0.51099893E-03 0.0000E+00 0.9000E+01
       11  1    3    3    0    0 0.14468479E+02 0.98855457E+02 0.38803492E+02 0.10717952E+03 0.51099893E-03 0.0000E+00 0.9000E+01
       23  1    1    2    0    0 0.57492364E+03 -.17089490E+03 -.32268697E+03 0.68715674E+03 0.91188000E+02 0.0000E+00 0.9000E+01
#aMCatNLO 1  0  0  2  1 0.27411757D+03 0.00000000D+00  -5  7  0 0.00000000D+00 0.00000000D+00 0.00000000D+00 0.00000000D+00 0.00000000D+00
  <mgrwgt>
 0.2168346316D-02    7    2    0
 0.773694539240633D+03 0.000000000000000D+00 0.000000000000000D+00 0.773694539240633D+03
 0.773694539240633D+03 0.000000000000000D+00 0.000000000000000D+00 -.773694539240633D+03
 0.688468770671214D+03 -.594340605899255D+03 0.296660858430012D+02 0.333995755026309D+03
 0.634590084671891D+02 0.494848573432283D+01 0.423733516209612D+02 -.469793286135762D+02
 0.107027408258008D+03 0.144684831651806D+02 0.988554515244859D+02 0.383813602835451D+02
 0.688433891084854D+03 0.574923636999752D+03 -.170894888988448D+03 -.325397786696278D+03
 0.000000000000000D+00 -.000000000000000D+00 -.000000000000000D+00 -.000000000000000D+00
 0.802787524655042D+03 0.000000000000000D+00 0.000000000000000D+00 0.802787524655042D+03
 0.188770783511702D+04 0.000000000000000D+00 0.000000000000000D+00 -.188770783511702D+04
 0.595093581709855D+03 -.482194570134693D+03 0.419088511568691D+02 0.333995755026309D+03
 0.661330941414156D+02 0.162710681916453D+02 0.436094159974402D+02 -.469793286135762D+02
 0.113142181341647D+03 0.337049048502735D+02 0.100955454387392D+03 0.383813602835451D+02
 0.797112418623440D+03 0.704717198854704D+03 -.156725577463454D+03 -.325397786696278D+03
 0.111901408395570D+04 -.272498601761930D+03 -.297481440782472D+02 -.108492031046198D+04
0.120838073184D-02 0.000000000000D+00 0.000000000000D+00 0.724132597398D-10 0.000000000000D+00  7 1 -1 23 -11 11 23 21 0 0.11949999D+00 0.11856172D+00 0.45648539D+06 0.45648539D+06 0.45648539D+06 0.10713164D+01  1  2  2  2  7  2       -1 0.222777743396D-02 0.100000000000D+01
-.656331752512D-04 0.000000000000D+00 -.464050018421D-05 0.724132597398D-10 0.000000000000D+00  7 1 -1 23 -11 11 23 21 2 0.11949999D+00 0.11856172D+00 0.45648539D+06 0.45648539D+06 0.45648539D+06 0.10713164D+01  1  2  3  2  7  2       -1 -.138875904274D-03 0.100000000000D+01
0.728709080455D-04 0.000000000000D+00 0.000000000000D+00 0.724132597398D-10 0.000000000000D+00  7 1 -1 23 -11 11 23 21 2 0.11949999D+00 0.11856172D+00 0.45648539D+06 0.45648539D+06 0.45648539D+06 0.10713164D+01  1  2 15  2  7  2       -1 0.154190517392D-03 0.100000000000D+01
0.381625532666D-02 0.000000000000D+00 0.000000000000D+00 0.724132597398D-10 0.000000000000D+00  7 1 -1 23 -11 11 23 21 2 0.11949999D+00 0.28799131D+00 0.67839496D+06 0.67839496D+06 0.67839496D+06 0.10592693D+01  1  2 12  2  7  2       -1 0.292476524528D-03 0.100000000000D+01
-.446065332355D-02 0.000000000000D+00 -.339989378994D-03 0.724132597398D-10 0.000000000000D+00  7 1 -1 23 -11 11 23 21 2 0.11949999D+00 0.29189569D+00 0.45648539D+06 0.45648539D+06 0.45648539D+06 0.10713164D+01  1  2  5  2  7  2       -1 -.334278535416D-03 0.100000000000D+01
0.371189940916D-03 0.000000000000D+00 0.000000000000D+00 0.724132597398D-10 0.000000000000D+00  7 1 21 23 -11 11 23 1 2 0.11949999D+00 0.28799131D+00 0.67839496D+06 0.67839496D+06 0.67839496D+06 0.10592693D+01  1  2 12  4  7  2       -1 0.235217419060D-03 0.100000000000D+01
-.420163885693D-03 0.000000000000D+00 -.336381648400D-04 0.724132597398D-10 0.000000000000D+00  7 1 21 23 -11 11 23 1 2 0.11949999D+00 0.29189569D+00 0.45648539D+06 0.45648539D+06 0.45648539D+06 0.10713164D+01  1  2  5  4  7  2       -1 -.268161139560D-03 0.100000000000D+01
  </mgrwgt>
  </event>
  <event>
  8     66 0.25924217E-05 0.13350393E+03 0.75467711E-02 0.99154771E-01
        1 -1    0    0  501    0 0.00000000E+00 0.00000000E+00 0.87664838E+03 0.87664844E+03 0.32000000E+00 0.0000E+00 0.9000E+01
       -1 -1    0    0    0  501 0.00000000E+00 0.00000000E+00 -.15941942E+03 0.15941974E+03 0.32000000E+00 0.0000E+00 0.9000E+01
       25  2    1    2    0    0 -.28180604E+03 -.43284256E+02 0.56390701E+03 0.69974833E+03 0.30061343E+03 0.0000E+00 0.0000E+00
       23  2    3    3    0    0 -.17885018E+03 -.25006015E+02 0.10614245E+03 0.22142036E+03 0.71750024E+02 0.0000E+00 0.0000E+00
       23  1    1    2    0    0 0.28180604E+03 0.43284256E+02 0.15332195E+03 0.33631985E+03 0.91188000E+02 0.0000E+00 0.9000E+01
      -11  1    4    4    0    0 -.12615250E+03 -.50308123E+02 0.71880076E+02 0.15366231E+03 0.51099893E-03 0.0000E+00 0.9000E+01
       11  1    4    4    0    0 -.52697678E+02 0.25302108E+02 0.34262373E+02 0.67758041E+02 0.51099893E-03 0.0000E+00 0.9000E+01
       23  1    3    3    0    0 -.10295586E+03 -.18278241E+02 0.45776457E+03 0.47832797E+03 0.91188000E+02 0.0000E+00 0.9000E+01
#aMCatNLO 1  0  0  2  1 0.47907716D+02 0.00000000D+00  -5  7  0 0.00000000D+00 0.00000000D+00 0.00000000D+00 0.00000000D+00 0.00000000D+00
  <mgrwgt>
 0.1143820777D-02    9    2    0
 0.373838164643337D+03 0.000000000000000D+00 0.000000000000000D+00 0.373838164643337D+03
 0.373838164643337D+03 0.000000000000000D+00 0.000000000000000D+00 -.373838164643337D+03
 0.318966036345702D+03 0.281806040250634D+03 0.432842555544107D+02 -.110163105881445D+03
 0.143979632161914D+03 -.126152504859907D+03 -.503081226234136D+02 -.477992969944005D+02
 0.610263855546287D+02 -.526976774984357D+02 0.253021080448697D+02 -.175207833334816D+02
 0.223704275224429D+03 -.102955857892292D+03 -.182782409758668D+02 0.175483186209327D+03
 0.000000000000000D+00 0.000000000000000D+00 0.000000000000000D+00 -.000000000000000D+00
 0.376867875695043D+03 0.000000000000000D+00 0.000000000000000D+00 0.376867875695043D+03
 0.628148617059331D+03 0.000000000000000D+00 0.000000000000000D+00 -.628148617059331D+03
 0.313875383624940D+03 0.278429650228003D+03 0.233136243035877D+02 -.110163105881445D+03
 0.148800806481304D+03 -.127714572260461D+03 -.595474201679219D+02 -.477992969944005D+02
 0.601158661373282D+02 -.533440060683178D+02 0.214792115638734D+02 -.175207833334816D+02
 0.226417555718170D+03 -.105357386633937D+03 -.324827744024509D+02 0.175483186209327D+03
 0.255806880792631D+03 0.798631473471253D+01 0.472373587029116D+02 -.251280741364287D+03
0.336684097645D-04 0.000000000000D+00 0.000000000000D+00 0.121804540863D-08 0.000000000000D+00  7 1 -1 23 -11 11 23 21 0 0.13486901D+00 0.24526094D-01 0.99966906D+05 0.99966906D+05 0.99966906D+05 0.11217338D+01  1  2  2  2  7  2       -1 0.107779189027D-02 0.100000000000D+01
-.180664163043D-05 0.000000000000D+00 -.129295558591D-06 0.121804540863D-08 0.000000000000D+00  7 1 -1 23 -11 11 23 21 2 0.13486901D+00 0.24526094D-01 0.99966906D+05 0.99966906D+05 0.99966906D+05 0.11217338D+01  1  2  3  2  7  2       -1 -.727719419870D-04 0.100000000000D+01
0.212787074682D-05 0.000000000000D+00 0.000000000000D+00 0.121804540863D-08 0.000000000000D+00  7 1 -1 23 -11 11 23 21 2 0.13486901D+00 0.24526094D-01 0.99966906D+05 0.99966906D+05 0.99966906D+05 0.11217338D+01  1  2 15  2  7  2       -1 0.857111249598D-04 0.100000000000D+01
0.414343580916D-03 0.000000000000D+00 0.000000000000D+00 0.121804540863D-08 0.000000000000D+00  7 1 -1 23 -11 11 23 21 2 0.13486901D+00 0.41250452D-01 0.11672865D+06 0.11672865D+06 0.11672865D+06 0.11162507D+01  1  2 12  2  7  2       -1 0.686448507684D-02 0.100000000000D+01
-.368543932842D-03 0.000000000000D+00 0.000000000000D+00 0.121804540863D-08 0.000000000000D+00  7 1 -1 23 -11 11 23 21 2 0.13486901D+00 0.24526094D-01 0.99966906D+05 0.99966906D+05 0.99966906D+05 0.11217338D+01  1  2  4  2  7  2       -1 -.148450347034D-01 0.100000000000D+01
-.416126658557D-03 0.000000000000D+00 -.121556173251D-04 0.121804540863D-08 0.000000000000D+00  7 1 -1 23 -11 11 23 21 2 0.13486901D+00 0.41359322D-01 0.99966906D+05 0.99966906D+05 0.99966906D+05 0.11217338D+01  1  2  5  2  7  2       -1 -.696053373324D-02 0.100000000000D+01
0.372009809448D-03 0.000000000000D+00 0.106659100012D-04 0.121804540863D-08 0.000000000000D+00  7 1 -1 23 -11 11 23 21 2 0.13486901D+00 0.24526094D-01 0.99966906D+05 0.99966906D+05 0.99966906D+05 0.11217338D+01  1  2  6  2  7  2       -1 0.149846410133D-01 0.100000000000D+01
0.241037895626D-04 0.000000000000D+00 0.000000000000D+00 0.121804540863D-08 0.000000000000D+00  7 1 21 23 -11 11 23 1 2 0.13486901D+00 0.41250452D-01 0.11672865D+06 0.11672865D+06 0.11672865D+06 0.11162507D+01  1  2 12  4  7  2       -1 0.393247089075D-02 0.100000000000D+01
-.237312616460D-04 0.000000000000D+00 -.710033984390D-06 0.121804540863D-08 0.000000000000D+00  7 1 21 23 -11 11 23 1 2 0.13486901D+00 0.41359322D-01 0.99966906D+05 0.99966906D+05 0.99966906D+05 0.11217338D+01  1  2  5  4  7  2       -1 -.392293884056D-02 0.100000000000D+01
  </mgrwgt>
  </event>
  <event>
  8     66 0.25924217E-05 0.21185817E+03 0.75467711E-02 0.93808041E-01
        1 -1    0    0  501    0 0.00000000E+00 0.00000000E+00 0.12545894E+04 0.12545894E+04 0.32000000E+00 0.0000E+00 0.9000E+01
       -1 -1    0    0    0  501 0.00000000E+00 0.00000000E+00 -.17696840E+03 0.17696869E+03 0.32000000E+00 0.0000E+00 0.9000E+01
       25  2    1    2    0    0 0.30082089E+03 0.28340323E+03 0.49538484E+03 0.71174926E+03 0.30061650E+03 0.0000E+00 0.0000E+00
       23  2    3    3    0    0 0.30904295E+03 0.24888519E+03 0.35233370E+03 0.53843459E+03 0.91221632E+02 0.0000E+00 0.0000E+00
       23  1    1    2    0    0 -.30082089E+03 -.28340323E+03 0.58223617E+03 0.71980887E+03 0.91188000E+02 0.0000E+00 0.9000E+01
      -13  1    4    4    0    0 -.38501823E+01 -.33270740E+01 0.27836232E+01 0.58011246E+01 0.10565837E+00 0.0000E+00 0.9000E+01
       13  1    4    4    0    0 0.31289314E+03 0.25221227E+03 0.34955008E+03 0.53263347E+03 0.10565837E+00 0.0000E+00 0.9000E+01
       23  1    3    3    0    0 -.82220608E+01 0.34518035E+02 0.14305114E+03 0.17331467E+03 0.91188000E+02 0.0000E+00 0.9000E+01
#aMCatNLO 1  0  0  2  1 0.13716362D+03 0.00000000D+00  -5  7  0 0.00000000D+00 0.00000000D+00 0.00000000D+00 0.00000000D+00 0.00000000D+00
  <mgrwgt>
 0.4634172704D-03    7    2    0
 0.471193075570474D+03 0.000000000000000D+00 0.000000000000000D+00 0.471193075570474D+03
 0.471193075570474D+03 0.000000000000000D+00 0.000000000000000D+00 -.471193075570474D+03
 0.427657297755894D+03 -.300820892974701D+03 -.283403228784800D+03 0.613588888762449D+02
 0.562873916892545D+01 -.385060723149424D+01 -.332741681668487D+01 -.240495860850099D+01
 0.409400940325386D+03 0.312893560851076D+03 0.252212610268646D+03 -.780739952783293D+02
 0.996991738907412D+02 -.822206064488063D+01 0.345180353328392D+02 0.191200650105854D+02
 0.000000000000000D+00 -.000000000000000D+00 0.000000000000000D+00 -.000000000000000D+00
 0.481354703683714D+03 0.000000000000000D+00 0.000000000000000D+00 0.481354703683714D+03
 0.138123270952711D+04 0.000000000000000D+00 0.000000000000000D+00 -.138123270952711D+04
 0.398169806906405D+03 -.242408466055159D+03 -.296137073208576D+03 0.613588888762449D+02
 0.524361048097953D+01 -.308158387807877D+01 -.349506305665589D+01 -.240495860850099D+01
 0.450392133830372D+03 0.373708469718217D+03 0.238955027439106D+03 -.780739952783293D+02
 0.985103184029650D+02 0.579769896097569D+01 0.314617432543468D+02 0.191200650105854D+02
 0.910271543590104D+03 -.134016118745955D+03 0.292153655717794D+02 -.899878005843397D+03
0.384111136652D-04 0.000000000000D+00 0.000000000000D+00 0.878522612431D-06 0.000000000000D+00  7 1 -1 23 -13 13 23 21 0 0.19301378D+00 0.27225933D-01 0.21532284D+06 0.21532284D+06 0.21532284D+06 0.10953715D+01  1  2  2  2  7  2       -1 0.532870212538D-03 0.100000000000D+01
-.213334172222D-05 0.000000000000D+00 -.147508790353D-06 0.878522612431D-06 0.000000000000D+00  7 1 -1 23 -13 13 23 21 2 0.19301378D+00 0.27225933D-01 0.21532284D+06 0.21532284D+06 0.21532284D+06 0.10953715D+01  1  2  3  2  7  2       -1 -.355097715637D-04 0.100000000000D+01
0.237854664098D-05 0.000000000000D+00 0.000000000000D+00 0.878522612431D-06 0.000000000000D+00  7 1 -1 23 -13 13 23 21 2 0.19301378D+00 0.27225933D-01 0.21532284D+06 0.21532284D+06 0.21532284D+06 0.10953715D+01  1  2 15  2  7  2       -1 0.395912417571D-04 0.100000000000D+01
0.349452595773D-03 0.000000000000D+00 0.000000000000D+00 0.878522612431D-06 0.000000000000D+00  7 1 -1 23 -13 13 23 21 2 0.19301378D+00 0.79414308D-01 0.28914677D+06 0.28914677D+06 0.28914677D+06 0.10857378D+01  1  2 12  2  7  2       -1 0.811154064268D-03 0.100000000000D+01
-.362247065696D-03 0.000000000000D+00 -.122897029048D-04 0.878522612431D-06 0.000000000000D+00  7 1 -1 23 -13 13 23 21 2 0.19301378D+00 0.80382090D-01 0.21532284D+06 0.21532284D+06 0.21532284D+06 0.10953715D+01  1  2  5  2  7  2       -1 -.848158230820D-03 0.100000000000D+01
0.423373592951D-04 0.000000000000D+00 0.000000000000D+00 0.878522612431D-06 0.000000000000D+00  7 1 21 23 -13 13 23 1 2 0.19301378D+00 0.79414308D-01 0.28914677D+06 0.28914677D+06 0.28914677D+06 0.10857378D+01  1  2 12  4  7  2       -1 0.745226965208D-03 0.100000000000D+01
-.438537565219D-04 0.000000000000D+00 -.150925969126D-05 0.878522612431D-06 0.000000000000D+00  7 1 21 23 -13 13 23 1 2 0.19301378D+00 0.80382090D-01 0.21532284D+06 0.21532284D+06 0.21532284D+06 0.10953715D+01  1  2  5  4  7  2       -1 -.781757210997D-03 0.100000000000D+01
  </mgrwgt>
  </event>
  <event>
  8     66 0.25924217E-05 0.63455607E+03 0.75467711E-02 0.87658776E-01
        1 -1    0    0  501    0 0.00000000E+00 0.00000000E+00 0.28603697E+03 0.28603715E+03 0.32000000E+00 0.0000E+00 0.9000E+01
       -1 -1    0    0    0  501 0.00000000E+00 0.00000000E+00 -.15251050E+04 0.15251051E+04 0.32000000E+00 0.0000E+00 0.9000E+01
       25  2    1    2    0    0 -.22508744E+03 0.57416259E+03 -.52801780E+03 0.86550235E+03 0.29994080E+03 0.0000E+00 0.0000E+00
       23  2    3    3    0    0 -.17464286E+03 0.25725843E+03 -.38247022E+03 0.50153497E+03 0.92584181E+02 0.0000E+00 0.0000E+00
       23  1    1    2    0    0 0.22508744E+03 -.57416259E+03 -.71105025E+03 0.94563985E+03 0.91188000E+02 0.0000E+00 0.9000E+01
      -13  1    4    4    0    0 -.15498341E+03 0.21068906E+03 -.36289443E+03 0.44732775E+03 0.10565837E+00 0.0000E+00 0.9000E+01
       13  1    4    4    0    0 -.19659450E+02 0.46569369E+02 -.19575789E+02 0.54207221E+02 0.10565837E+00 0.0000E+00 0.9000E+01
       23  1    3    3    0    0 -.50444577E+02 0.31690416E+03 -.14554758E+03 0.36396737E+03 0.91188000E+02 0.0000E+00 0.9000E+01
#aMCatNLO 1  0  0  1  1 0.56638789D+03 0.00000000D+00  -5  7  0 0.00000000D+00 0.00000000D+00 0.00000000D+00 0.00000000D+00 0.00000000D+00
  <mgrwgt>
 0.4411545479D-03    3    2    0
 0.660482104454546D+03 0.000000000000000D+00 0.000000000000000D+00 0.660482104454546D+03
 0.660482104454546D+03 0.000000000000000D+00 0.000000000000000D+00 -.660482104454546D+03
 0.629576940406076D+03 0.225087436657423D+03 -.574162586253498D+03 -.878910857411655D+02
 0.272924614497518D+03 -.154983585980053D+03 0.210689275687260D+03 -.779612877379505D+02
 0.559597878458009D+02 -.196592733956968D+02 0.465691552606086D+02 0.240067616227936D+02
 0.362502866159697D+03 -.504445772816731D+02 0.316904155305629D+03 0.141845611856322D+03
 0.000000000000000D+00 0.000000000000000D+00 0.000000000000000D+00 -.000000000000000D+00
 0.804984415013819D+03 0.000000000000000D+00 0.000000000000000D+00 0.804984415013819D+03
 0.164739885015510D+04 0.000000000000000D+00 0.000000000000000D+00 -.164739885015510D+04
 0.851520198761750D+03 0.750268839779585D+02 -.838699899417574D+03 -.878910857411655D+02
 0.251166609767296D+03 -.208083019290568D+03 0.117081854098571D+03 -.779612877379505D+02
 0.476781208954951D+02 -.301595717576265D+02 0.280584896227219D+02 0.240067616227936D+02
 0.286903898023484D+03 -.116240624934472D+03 0.200914247551085D+03 0.141845611856322D+03
 0.101511443772089D+04 0.279456332004708D+03 0.492645308145196D+03 -.842414435141281D+03
0.528962460936D-03 0.000000000000D+00 0.000000000000D+00 0.181781834218D-05 0.000000000000D+00  7 1 -1 23 -13 13 23 21 0 0.44005704D-01 0.23463156D+00 0.40266141D+06 0.40266141D+06 0.40266141D+06 0.10752201D+01  1  2  2  1  7  1        1 0.439294626059D-03 0.100000000000D+01
-.293295083672D-04 0.000000000000D+00 -.203135512901D-05 0.181781834218D-05 0.000000000000D+00  7 1 -1 23 -13 13 23 21 2 0.44005704D-01 0.23463156D+00 0.40266141D+06 0.40266141D+06 0.40266141D+06 0.10752201D+01  1  2  3  1  7  1        1 -.281598633569D-04 0.100000000000D+01
0.312666837644D-04 0.000000000000D+00 0.000000000000D+00 0.181781834218D-05 0.000000000000D+00  7 1 -1 23 -13 13 23 21 2 0.44005704D-01 0.23463156D+00 0.40266141D+06 0.40266141D+06 0.40266141D+06 0.10752201D+01  1  2 15  1  7  1        1 0.300197852418D-04 0.100000000000D+01
  </mgrwgt>
  </event>
  <event>
  9     66 0.25924217E-05 0.16931646E+03 0.75467711E-02 0.10761093E+00
        1 -1    0    0  501    0 0.00000000E+00 0.00000000E+00 0.13338201E+04 0.13338201E+04 0.32000000E+00 0.0000E+00 0.9000E+01
       21 -1    0    0  502  501 0.00000000E+00 0.00000000E+00 -.11115947E+03 0.11116200E+03 0.75000000E+00 0.0000E+00 0.9000E+01
       25  2    1    2    0    0 0.57376078E+02 -.58611190E+02 0.11804938E+04 0.12186253E+04 0.29112691E+03 0.0000E+00 0.0000E+00
       23  2    3    3    0    0 -.58302682E+02 -.60043909E+02 0.28761937E+03 0.31368137E+03 0.93094726E+02 0.0000E+00 0.0000E+00
       23  1    1    2    0    0 -.40197393E+02 0.36272938E+02 -.58986102E+02 0.12135142E+03 0.91188000E+02 0.0000E+00 0.9000E+01
      -11  1    4    4    0    0 -.52230674E+02 -.46763799E+02 0.83447511E+02 0.10898800E+03 0.51099893E-03 0.0000E+00 0.9000E+01
       11  1    4    4    0    0 -.60720080E+01 -.13280110E+02 0.20417186E+03 0.20469337E+03 0.51099893E-03 0.0000E+00 0.9000E+01
       23  1    3    3    0    0 0.11567876E+03 0.14327189E+01 0.89287439E+03 0.90494395E+03 0.91188000E+02 0.0000E+00 0.9000E+01
        1  1    1    2  502    0 -.17178685E+02 0.22338252E+02 0.10115295E+03 0.10500536E+03 0.32000000E+00 0.0000E+00 0.9000E+01
#aMCatNLO 2  0  0  2  2 0.28179864D+02 0.00000000D+00  -5  7  0 0.00000000D+00 0.00000000D+00 0.00000000D+00 0.00000000D+00 0.00000000D+00
  <mgrwgt>
 0.1514209138D-03    1    2    0
 0.366389189471713D+03 0.000000000000000D+00 0.000000000000000D+00 0.366389189471713D+03
 0.366389189471713D+03 0.000000000000000D+00 0.000000000000000D+00 -.366389189471713D+03
 0.314231790875445D+03 -.475345762338153D+02 0.458138227216444D+02 -.293373353872997D+03
 0.713817332878028D+02 -.539052104584293D+02 -.445863206864463D+02 -.142000049383383D+02
 0.615625646855196D+02 -.751724016381039D+01 -.114008065174994D+02 0.600288437480594D+02
 0.285602290094658D+03 0.108957026856055D+03 0.101733044823012D+02 0.247544515063276D+03
 0.000000000000000D+00 -.000000000000000D+00 0.000000000000000D+00 0.000000000000000D+00
 0.397368401345361D+03 0.000000000000000D+00 0.000000000000000D+00 0.397368401345361D+03
 0.373124895980426D+03 0.000000000000000D+00 0.000000000000000D+00 -.373124895980426D+03
 0.311953093494826D+03 -.401973928434537D+02 0.362729381617980D+02 -.293373353872997D+03
 0.715299682582901D+02 -.522306740889882D+02 -.467637990650145D+02 -.142000049383383D+02
 0.617793871782885D+02 -.607200802368932D+01 -.132801098247042D+02 0.600288437480594D+02
 0.288057574903097D+03 0.115678759906848D+03 0.143271893772217D+01 0.247544515063276D+03
 0.371732734912858D+02 -.171786849507167D+02 0.223382517901986D+02 0.242435053649352D+02
0.319532710452D-06 0.000000000000D+00 0.000000000000D+00 0.145646723942D-08 0.457547506684D-13  7 1 21 23 -11 11 23 1 2 0.20520291D+00 0.17101623D-01 0.33533844D+05 0.33533844D+05 0.33533844D+05 0.11628752D+01  1  2  1  4  7  2       -1 0.151420913758D-03 0.100000000000D+01
  </mgrwgt>
  </event>
  <event>
  8     66 0.25924217E-05 0.19122078E+03 0.75467711E-02 0.92558487E-01
        1 -1    0    0  501    0 0.00000000E+00 0.00000000E+00 0.92317059E+03 0.92317064E+03 0.32000000E+00 0.0000E+00 0.9000E+01
       -1 -1    0    0    0  501 0.00000000E+00 0.00000000E+00 -.17889284E+03 0.17889312E+03 0.32000000E+00 0.0000E+00 0.9000E+01
       25  2    1    2    0    0 0.10182043E+03 0.16609262E+02 0.86353073E+03 0.91991056E+03 0.29984471E+03 0.0000E+00 0.0000E+00
       23  2    3    3    0    0 -.20837740E+02 -.46859425E+02 0.12044116E+03 0.15861518E+03 0.89569439E+02 0.0000E+00 0.0000E+00
       23  1    1    2    0    0 -.10182043E+03 -.16609262E+02 -.11925298E+03 0.18215321E+03 0.91188000E+02 0.0000E+00 0.9000E+01
      -11  1    4    4    0    0 -.41927359E+02 -.24683079E+02 0.11832670E+03 0.12793892E+03 0.51099893E-03 0.0000E+00 0.9000E+01
       11  1    4    4    0    0 0.21089619E+02 -.22176346E+02 0.21144637E+01 0.30676266E+02 0.51099893E-03 0.0000E+00 0.9000E+01
       23  1    3    3    0    0 0.12265817E+03 0.63468688E+02 0.74308956E+03 0.76129538E+03 0.91188000E+02 0.0000E+00 0.9000E+01
#aMCatNLO 1  0  0  2  2 0.53761589D+03 0.00000000D+00  -5  7  0 0.00000000D+00 0.00000000D+00 0.00000000D+00 0.00000000D+00 0.00000000D+00
  <mgrwgt>
 0.4249903535D-03    3    2    0
 0.406385030881146D+03 0.000000000000000D+00 0.000000000000000D+00 0.406385030881146D+03
 0.406385030881146D+03 0.000000000000000D+00 0.000000000000000D+00 -.406385030881146D+03
 0.356191499825344D+03 -.101820430521044D+03 -.166092624042401D+02 -.328502458947759D+03
 0.651216302339864D+02 -.419273586194312D+02 -.246830787894089D+02 0.432858977613436D+02
 0.396587607473806D+02 0.210896187812952D+02 -.221763464678122D+02 -.252240944538585D+02
 0.351798170955582D+03 0.122658170359180D+03 0.634686876614611D+02 0.310440655640274D+03
 0.000000000000000D+00 0.000000000000000D+00 -.000000000000000D+00 0.000000000000000D+00
 0.846554658145389D+03 0.000000000000000D+00 0.000000000000000D+00 0.846554658145389D+03
 0.688344602248497D+03 0.000000000000000D+00 0.000000000000000D+00 -.688344602248497D+03
 0.434271690737073D+03 -.164676324226627D+03 0.212707528630555D+03 -.328502458947759D+03
 0.696641386285943D+02 -.526452263984783D+02 0.144188558253238D+02 0.432858977613436D+02
 0.297150441328843D+02 0.155731664561676D+02 -.205070556896476D+01 -.252240944538585D+02
 0.440836693294662D+03 0.596295899401415D+02 0.293415490627505D+03 0.310440655640274D+03
 0.560411693600673D+03 0.142118794228796D+03 -.518491169514419D+03 0.158210055896892D+03
0.161791082185D-04 0.000000000000D+00 0.000000000000D+00 0.497093120131D-06 0.000000000000D+00  7 1 -1 23 -11 11 23 21 0 0.14202627D+00 0.27522001D-01 0.36565387D+05 0.36565387D+05 0.36565387D+05 0.11594444D+01  1  2  2  2  7  2       -1 0.401768244234D-03 0.100000000000D+01
-.277742616559D-06 0.000000000000D+00 -.621320356159D-07 0.497093120131D-06 0.000000000000D+00  7 1 -1 23 -11 11 23 21 2 0.14202627D+00 0.27522001D-01 0.36565387D+05 0.36565387D+05 0.36565387D+05 0.11594444D+01  1  2  3  2  7  2       -1 -.927178688661D-05 0.100000000000D+01
0.973376528735D-06 0.000000000000D+00 0.000000000000D+00 0.497093120131D-06 0.000000000000D+00  7 1 -1 23 -11 11 23 21 2 0.14202627D+00 0.27522001D-01 0.36565387D+05 0.36565387D+05 0.36565387D+05 0.11594444D+01  1  2 15  2  7  2       -1 0.324938961355D-04 0.100000000000D+01
  </mgrwgt>
  </event>
  <event>
  8     66 0.25924217E-05 0.23228837E+03 0.75467711E-02 0.95608919E-01
        1 -1    0    0  501    0 0.00000000E+00 0.00000000E+00 0.28247387E+03 0.28247405E+03 0.32000000E+00 0.0000E+00 0.9000E+01
       -1 -1    0    0    0  501 0.00000000E+00 0.00000000E+00 -.22584641E+03 0.22584664E+03 0.32000000E+00 0.0000E+00 0.9000E+01
       25  2    1    2    0    0 0.64348715E+02 -.11699003E+03 0.96093224E+02 0.34188685E+03 0.29970867E+03 0.0000E+00 0.0000E+00
       23  2    3    3    0    0 0.12673069E+03 -.14052508E+03 0.33246618E+02 0.21261830E+03 0.91067224E+02 0.0000E+00 0.0000E+00
       23  1    1    2    0    0 -.64348715E+02 0.11699003E+03 -.39465773E+02 0.16643384E+03 0.91188000E+02 0.0000E+00 0.9000E+01
      -13  1    4    4    0    0 0.67656526E+02 -.62890873E+02 -.29094234E+02 0.96846027E+02 0.10565837E+00 0.0000E+00 0.9000E+01
       13  1    4    4    0    0 0.59074167E+02 -.77634204E+02 0.62340852E+02 0.11577228E+03 0.10565837E+00 0.0000E+00 0.9000E+01
       23  1    3    3    0    0 -.62381979E+02 0.23535047E+02 0.62846605E+02 0.12926855E+03 0.91188000E+02 0.0000E+00 0.9000E+01
#aMCatNLO 1  0  0  2  1 0.34555348D+03 0.00000000D+00  -5  7  0 0.00000000D+00 0.00000000D+00 0.00000000D+00 0.00000000D+00 0.00000000D+00
  <mgrwgt>
 0.2185815032D-03    5    2    0
 0.252578331247717D+03 0.000000000000000D+00 0.000000000000000D+00 0.252578331247717D+03
 0.252578331247717D+03 0.000000000000000D+00 0.000000000000000D+00 -.252578331247717D+03
 0.171900356400677D+03 -.643487151183940D+02 0.116990031258613D+03 -.583699977334272D+02
 0.100714033820924D+03 0.676565376019550D+02 -.628908527634187D+02 -.401329062850858D+02
 0.109509087984691D+03 0.590741558583557D+02 -.776342242736137D+02 0.497535092460394D+02
 0.123033184289143D+03 -.623819783419167D+02 0.235350457784199D+02 0.487493947724736D+02
 0.000000000000000D+00 0.000000000000000D+00 -.000000000000000D+00 -.000000000000000D+00
 0.368987836735978D+03 0.000000000000000D+00 0.000000000000000D+00 0.368987836735978D+03
 0.780091462596597D+03 0.000000000000000D+00 0.000000000000000D+00 -.780091462596597D+03
 0.255390278133534D+03 -.196410238879667D+03 0.122167525345140D+03 -.583699977334272D+02
 0.740927521518640D+02 0.136294921822902D+02 -.607727134280094D+02 -.401329062850858D+02
 0.902198681842340D+02 -.265551514103290D+01 -.752141022164100D+02 0.497535092460394D+02
 0.192335060720565D+03 -.159851961570782D+03 0.273563727433699D+02 0.487493947724736D+02
 0.537041340142379D+03 0.345288223409192D+03 -.135370824440900D+02 -.411103625860619D+03
0.244203964066D-05 0.000000000000D+00 0.000000000000D+00 0.197463184207D-06 0.000000000000D+00  7 1 -1 23 -13 13 23 21 0 0.43457549D-01 0.34745634D-01 0.53957885D+05 0.53957885D+05 0.53957885D+05 0.11443966D+01  1  2  2  2  7  2       -1 0.216333103054D-03 0.100000000000D+01
-.134512099037D-06 0.000000000000D+00 -.937807522393D-08 0.197463184207D-06 0.000000000000D+00  7 1 -1 23 -13 13 23 21 2 0.43457549D-01 0.34745634D-01 0.53957885D+05 0.53957885D+05 0.53957885D+05 0.11443966D+01  1  2  3  2  7  2       -1 -.156057526952D-04 0.100000000000D+01
0.155545112705D-06 0.000000000000D+00 0.000000000000D+00 0.197463184207D-06 0.000000000000D+00  7 1 -1 23 -13 13 23 21 2 0.43457549D-01 0.34745634D-01 0.53957885D+05 0.53957885D+05 0.53957885D+05 0.11443966D+01  1  2 15  2  7  2       -1 0.180459496150D-04 0.100000000000D+01
-.372535483662D-07 0.000000000000D+00 -.891754382644D-06 0.197463184207D-06 0.000000000000D+00  7 1 -1 23 -13 13 23 21 2 0.43457549D-01 0.14154243D+00 0.53957885D+05 0.53957885D+05 0.53957885D+05 0.11443966D+01  1  2  5  2  7  2       -1 -.258809753456D-06 0.100000000000D+01
0.145074858262D-08 0.000000000000D+00 -.149821646327D-06 0.197463184207D-06 0.000000000000D+00  7 1 21 23 -13 13 23 1 2 0.43457549D-01 0.14154243D+00 0.53957885D+05 0.53957885D+05 0.53957885D+05 0.11443966D+01  1  2  5  4  7  2       -1 0.670129932052D-07 0.100000000000D+01
  </mgrwgt>
  </event>
  <event>
  8     66 0.25924217E-05 0.15505879E+03 0.75467711E-02 0.98399131E-01
        1 -1    0    0  501    0 0.00000000E+00 0.00000000E+00 0.47127717E+03 0.47127727E+03 0.32000000E+00 0.0000E+00 0.9000E+01
       -1 -1    0    0    0  501 0.00000000E+00 0.00000000E+00 -.44199813E+03 0.44199825E+03 0.32000000E+00 0.0000E+00 0.9000E+01
       25  2    1    2    0    0 -.61033641E+01 0.30955582E+03 -.23955842E+03 0.49321495E+03 0.30001781E+03 0.0000E+00 0.0000E+00
       23  2    3    3    0    0 0.16214794E+02 0.31780594E+02 -.16634779E+03 0.19100273E+03 0.86818935E+02 0.0000E+00 0.0000E+00
       23  1    1    2    0    0 0.61033641E+01 -.30955582E+03 0.26883746E+03 0.42006058E+03 0.91188000E+02 0.0000E+00 0.9000E+01
      -11  1    4    4    0    0 -.19424449E+02 0.49512047E+02 -.82068643E+02 0.97795778E+02 0.51099893E-03 0.0000E+00 0.9000E+01
       11  1    4    4    0    0 0.35639243E+02 -.17731454E+02 -.84279150E+02 0.93206948E+02 0.51099893E-03 0.0000E+00 0.9000E+01
       23  1    3    3    0    0 -.22318158E+02 0.27777523E+03 -.73210630E+02 0.30221222E+03 0.91188000E+02 0.0000E+00 0.9000E+01
#aMCatNLO 1  0  0  2  1 0.18273958D+02 0.00000000D+00  -5  7  0 0.00000000D+00 0.00000000D+00 0.00000000D+00 0.00000000D+00 0.00000000D+00
  <mgrwgt>
 0.5154405438D-03    9    2    0
 0.456403034701546D+03 0.000000000000000D+00 0.000000000000000D+00 0.456403034701546D+03
 0.456403034701546D+03 0.000000000000000D+00 0.000000000000000D+00 -.456403034701546D+03
 0.411653422411463D+03 0.610336413459626D+01 -.309555824485177D+03 0.255501916455853D+03
 0.100478495747776D+03 -.194244485454686D+02 0.495120473267971D+02 -.852477335531530D+02
 0.959582095632415D+02 0.356392427359719D+02 -.177314535841657D+02 -.873121865124338D+02
 0.304715941680611D+03 -.223181583250995D+02 0.277775230742545D+03 -.829419963902661D+02
 0.000000000000000D+00 0.000000000000000D+00 -.000000000000000D+00 -.000000000000000D+00
 0.462258280243562D+03 0.000000000000000D+00 0.000000000000000D+00 0.462258280243562D+03
 0.470978756056112D+03 0.000000000000000D+00 0.000000000000000D+00 -.470978756056112D+03
 0.408833326298828D+03 -.122704101558870D+01 -.305854054094917D+03 0.255501916455853D+03
 0.101292557286792D+03 -.212271145466536D+02 0.504223729486415D+02 -.852477335531530D+02
 0.951805424946865D+02 0.339315679993746D+02 -.168690974596928D+02 -.873121865124338D+02
 0.307682543109577D+03 -.277894581528272D+02 0.280538174302084D+03 -.829419963902661D+02
 0.202480671097900D+02 0.163120457156948D+02 -.823739569611514D+01 -.872047581254976D+01
0.190732277437D-04 0.000000000000D+00 0.000000000000D+00 0.125819476157D-06 0.000000000000D+00  7 1 -1 23 -11 11 23 21 0 0.72504197D-01 0.67999730D-01 0.12565898D+06 0.12565898D+06 0.12565898D+06 0.11136718D+01  1  2  2  2  7  2       -1 0.254465343298D-03 0.100000000000D+01
-.977345037539D-06 0.000000000000D+00 -.732462166320D-07 0.125819476157D-06 0.000000000000D+00  7 1 -1 23 -11 11 23 21 2 0.72504197D-01 0.67999730D-01 0.12565898D+06 0.12565898D+06 0.12565898D+06 0.11136718D+01  1  2  3  2  7  2       -1 -.161721152857D-04 0.100000000000D+01
0.115994746043D-05 0.000000000000D+00 0.000000000000D+00 0.125819476157D-06 0.000000000000D+00  7 1 -1 23 -11 11 23 21 2 0.72504197D-01 0.67999730D-01 0.12565898D+06 0.12565898D+06 0.12565898D+06 0.11136718D+01  1  2 15  2  7  2       -1 0.191936351390D-04 0.100000000000D+01
0.425750370342D-04 0.000000000000D+00 0.000000000000D+00 0.125819476157D-06 0.000000000000D+00  7 1 -1 23 -11 11 23 21 2 0.72504197D-01 0.70597641D-01 0.13188837D+06 0.13188837D+06 0.13188837D+06 0.11119892D+01  1  2 12  2  7  2       -1 0.652278384036D-03 0.100000000000D+01
-.409703381600D-04 0.000000000000D+00 0.000000000000D+00 0.125819476157D-06 0.000000000000D+00  7 1 -1 23 -11 11 23 21 2 0.72504197D-01 0.67999730D-01 0.12565898D+06 0.12565898D+06 0.12565898D+06 0.11136718D+01  1  2  4  2  7  2       -1 -.677935638456D-03 0.100000000000D+01
-.397932912242D-03 0.000000000000D+00 -.577265633092D-04 0.125819476157D-06 0.000000000000D+00  7 1 -1 23 -11 11 23 21 2 0.72504197D-01 0.70887505D-01 0.12565898D+06 0.12565898D+06 0.12565898D+06 0.11136718D+01  1  2  5  2  7  2       -1 -.607456015464D-02 0.100000000000D+01
0.400037641302D-03 0.000000000000D+00 0.576766725526D-04 0.125819476157D-06 0.000000000000D+00  7 1 -1 23 -11 11 23 21 2 0.72504197D-01 0.67999730D-01 0.12565898D+06 0.12565898D+06 0.12565898D+06 0.11136718D+01  1  2  6  2  7  2       -1 0.661941750892D-02 0.100000000000D+01
0.771786006704D-06 0.000000000000D+00 0.000000000000D+00 0.125819476157D-06 0.000000000000D+00  7 1 21 23 -11 11 23 1 2 0.72504197D-01 0.70597641D-01 0.13188837D+06 0.13188837D+06 0.13188837D+06 0.11119892D+01  1  2 12  4  7  2       -1 0.959894263800D-04 0.100000000000D+01
-.288290263020D-05 0.000000000000D+00 -.423365237985D-06 0.125819476157D-06 0.000000000000D+00  7 1 21 23 -11 11 23 1 2 0.72504197D-01 0.70887505D-01 0.12565898D+06 0.12565898D+06 0.12565898D+06 0.11136718D+01  1  2  5  4  7  2       -1 -.357235845600D-03 0.100000000000D+01
  </mgrwgt>
  </event>
  <event>
  8     66 0.25924217E-05 0.65592263E+03 0.75467711E-02 0.85160146E-01
        1 -1    0    0  501    0 0.00000000E+00 0.00000000E+00 0.15933807E+04 0.15933807E+04 0.32000000E+00 0.0000E+00 0.9000E+01
       -1 -1    0    0    0  501 0.00000000E+00 0.00000000E+00 -.28830956E+03 0.28830974E+03 0.32000000E+00 0.0000E+00 0.9000E+01
       25  2    1    2    0    0 0.52022015E+03 0.34934386E+03 0.87000699E+03 0.11134026E+04 0.30013844E+03 0.0000E+00 0.0000E+00
       23  2    3    3    0    0 0.48293202E+03 0.28341472E+03 0.76886925E+03 0.95757852E+03 0.11067723E+03 0.0000E+00 0.0000E+00
       23  1    1    2    0    0 -.52022015E+03 -.34934386E+03 0.43506411E+03 0.76828782E+03 0.91188000E+02 0.0000E+00 0.9000E+01
      -11  1    4    4    0    0 0.13674837E+03 0.74335880E+02 0.13691315E+03 0.20729484E+03 0.51099893E-03 0.0000E+00 0.9000E+01
       11  1    4    4    0    0 0.34618365E+03 0.20907884E+03 0.63195610E+03 0.75028368E+03 0.51099893E-03 0.0000E+00 0.9000E+01
       23  1    3    3    0    0 0.37288134E+02 0.65929140E+02 0.10113774E+03 0.15582410E+03 0.91188000E+02 0.0000E+00 0.9000E+01
#aMCatNLO 1  0  0  1  1 0.92765428D+03 0.00000000D+00  -5  7  0 0.00000000D+00 0.00000000D+00 0.00000000D+00 0.00000000D+00 0.00000000D+00
  <mgrwgt>
 0.4555637920D-03    3    2    0
 0.677780996223103D+03 0.000000000000000D+00 0.000000000000000D+00 0.677780996223103D+03
 0.677780996223103D+03 0.000000000000000D+00 0.000000000000000D+00 -.677780996223103D+03
 0.647620874284929D+03 -.520220154031186D+03 -.349343859332890D+03 -.135747577332885D+03
 0.155937777610238D+03 0.136748372785281D+03 0.743358801652412D+02 -.952102655476697D+01
 0.433070544527299D+03 0.346183647025292D+03 0.209078838875033D+03 0.154896798559904D+03
 0.118932796023740D+03 0.372881342206123D+02 0.659291402926157D+02 -.962819467225193D+01
 0.000000000000000D+00 -.000000000000000D+00 0.000000000000000D+00 -.000000000000000D+00
 0.108779560660775D+04 0.000000000000000D+00 0.000000000000000D+00 0.108779560660775D+04
 0.162854944436477D+04 0.000000000000000D+00 0.000000000000000D+00 -.162854944436477D+04
 0.903924031264424D+03 -.373891957278046D+03 -.806561096560187D+03 -.135747577332885D+03
 0.169030772526575D+03 0.167396574956501D+03 -.214275245212032D+02 -.952102655476697D+01
 0.460708766272267D+03 0.430477124047317D+03 -.543046479406484D+02 0.154896798559904D+03
 0.108923043714646D+03 0.587775116980789D+02 -.121659113847311D+01 -.962819467225193D+01
 0.107375843719461D+04 -.282759253423850D+03 0.883509860160512D+03 -.540753837757022D+03
0.132462712263D-03 0.000000000000D+00 0.000000000000D+00 0.134257063395D-07 0.000000000000D+00  7 1 -1 23 -11 11 23 21 0 0.24513550D+00 0.44355333D-01 0.43023449D+06 0.43023449D+06 0.43023449D+06 0.10731538D+01  1  2  2  1  7  1        1 0.453427354111D-03 0.100000000000D+01
-.734942439459D-05 0.000000000000D+00 -.508691693323D-06 0.134257063395D-07 0.000000000000D+00  7 1 -1 23 -11 11 23 21 2 0.24513550D+00 0.44355333D-01 0.43023449D+06 0.43023449D+06 0.43023449D+06 0.10731538D+01  1  2  3  1  7  1        1 -.289728553209D-04 0.100000000000D+01
0.789136575985D-05 0.000000000000D+00 0.000000000000D+00 0.134257063395D-07 0.000000000000D+00  7 1 -1 23 -11 11 23 21 2 0.24513550D+00 0.44355333D-01 0.43023449D+06 0.43023449D+06 0.43023449D+06 0.10731538D+01  1  2 15  1  7  1        1 0.311092932138D-04 0.100000000000D+01
  </mgrwgt>
  </event>
  <event>
  8     66 0.25924217E-05 0.11228778E+03 0.75467711E-02 0.10656456E+00
        1 -1    0    0  501    0 0.00000000E+00 0.00000000E+00 0.42317874E+03 0.42317886E+03 0.32000000E+00 0.0000E+00 0.9000E+01
       -1 -1    0    0    0  501 0.00000000E+00 0.00000000E+00 -.16804855E+03 0.16804885E+03 0.32000000E+00 0.0000E+00 0.9000E+01
       25  2    1    2    0    0 -.68925041E+02 0.12561679E+03 0.68274264E+02 0.33871905E+03 0.29923065E+03 0.0000E+00 0.0000E+00
       23  2    3    3    0    0 0.18070803E+02 0.59050536E+02 0.14039247E+03 0.17898292E+03 0.92256816E+02 0.0000E+00 0.0000E+00
       23  1    1    2    0    0 0.68925041E+02 -.12561679E+03 0.18685592E+03 0.25250866E+03 0.91188000E+02 0.0000E+00 0.9000E+01
      -11  1    4    4    0    0 0.36185839E+02 0.40607590E+02 0.23473599E+02 0.59240198E+02 0.51099893E-03 0.0000E+00 0.9000E+01
       11  1    4    4    0    0 -.18115035E+02 0.18442946E+02 0.11691887E+03 0.11974272E+03 0.51099893E-03 0.0000E+00 0.9000E+01
       23  1    3    3    0    0 -.86995844E+02 0.66566250E+02 -.72118209E+02 0.15973613E+03 0.91188000E+02 0.0000E+00 0.9000E+01
#aMCatNLO 1  0  0  1  2 0.92975465D+00 0.00000000D+00  -5  7  0 0.00000000D+00 0.00000000D+00 0.00000000D+00 0.00000000D+00 0.00000000D+00
  <mgrwgt>
 0.1452926337D-03   11    2    0
 0.266673393734058D+03 0.000000000000000D+00 0.000000000000000D+00 0.266673393734058D+03
 0.266673393734058D+03 0.000000000000000D+00 0.000000000000000D+00 -.266673393734058D+03
 0.190528068743730D+03 0.689250408815861D+02 -.125616786061204D+03 0.863449792074843D+02
 0.544404202351259D+02 0.361858386338743D+02 0.406075895726707D+02 -.231691752935684D+01
 0.768087167469266D+02 -.181150351351118D+02 0.184429463294035D+02 0.723276033133548D+02
 0.211569581742334D+03 -.869958443803487D+02 0.665662501591299D+02 -.156355664991482D+03
 0.000000000000000D+00 -.000000000000000D+00 -.000000000000000D+00 0.000000000000000D+00
 0.273808402709322D+03 0.000000000000000D+00 0.000000000000000D+00 0.273808402709322D+03
 0.266704089461388D+03 0.000000000000000D+00 0.000000000000000D+00 -.266704089461388D+03
 0.190550981520260D+03 0.692295176453513D+02 -.125484037497148D+03 0.863449792074843D+02
 0.545266182040633D+02 0.362729017542375D+02 0.406455481481217D+02 -.231691752935684D+01
 0.767927352982969D+02 -.179923097504548D+02 0.184964532649903D+02 0.723276033133548D+02
 0.211477262840421D+03 -.866578359433318D+02 0.667136181687541D+02 -.156355664991482D+03
 0.716489430766842D+01 -.852273705802282D+00 -.371582084718338D+00 0.710431324793422D+01
0.113095406224D-05 0.000000000000D+00 0.000000000000D+00 0.656567066467D-07 0.000000000000D+00  7 1 -1 23 -11 11 23 21 0 0.65104454D-01 0.25853656D-01 0.38535929D+05 0.38535929D+05 0.38535929D+05 0.11573789D+01  1  2  2  1  7  1        1 0.961568469804D-04 0.100000000000D+01
-.556611961704D-07 0.000000000000D+00 -.434316138606D-08 0.656567066467D-07 0.000000000000D+00  7 1 -1 23 -11 11 23 21 2 0.65104454D-01 0.25853656D-01 0.38535929D+05 0.38535929D+05 0.38535929D+05 0.11573789D+01  1  2  3  1  7  1        1 -.633926483995D-05 0.100000000000D+01
0.690228678531D-07 0.000000000000D+00 0.000000000000D+00 0.656567066467D-07 0.000000000000D+00  7 1 -1 23 -11 11 23 21 2 0.65104454D-01 0.25853656D-01 0.38535929D+05 0.38535929D+05 0.38535929D+05 0.11573789D+01  1  2 15  1  7  1        1 0.786102831843D-05 0.100000000000D+01
0.363464698050D-09 0.000000000000D+00 0.000000000000D+00 0.656567066467D-07 0.000000000000D+00  7 1 -1 23 -11 11 23 21 2 0.66850058D-01 0.25853656D-01 0.38704374D+05 0.38704374D+05 0.38704374D+05 0.11572078D+01  1  2 12  1  7  1        1 0.399511774214D-07 0.100000000000D+01
-.647126362943D-03 0.000000000000D+00 0.000000000000D+00 0.656567066467D-07 0.000000000000D+00  7 1 -1 23 -11 11 23 21 2 0.65104454D-01 0.25853656D-01 0.38535929D+05 0.38535929D+05 0.38535929D+05 0.11573789D+01  1  2  4  1  7  1        1 -.737013517828D-01 0.100000000000D+01
-.678070536676D-03 0.000000000000D+00 -.559595763025D-05 0.656567066467D-07 0.000000000000D+00  7 1 -1 23 -11 11 23 21 2 0.66849966D-01 0.25853656D-01 0.38535929D+05 0.38535929D+05 0.38535929D+05 0.11573789D+01  1  2  5  1  7  1        1 -.745544237143D-01 0.100000000000D+01
0.677983237889D-03 0.000000000000D+00 0.559399956827D-05 0.656567066467D-07 0.000000000000D+00  7 1 -1 23 -11 11 23 21 2 0.65104454D-01 0.25853656D-01 0.38535929D+05 0.38535929D+05 0.38535929D+05 0.11573789D+01  1  2  6  1  7  1        1 0.772156474838D-01 0.100000000000D+01
0.647350133171D-03 0.000000000000D+00 0.000000000000D+00 0.656567066467D-07 0.542642953927D-06  7 1 -1 23 -11 11 23 21 2 0.66846363D-01 0.25856632D-01 0.38704374D+05 0.38704374D+05 0.38704374D+05 0.11572078D+01  1  2 11  1  7  1        1 0.711471530172D-01 0.100000000000D+01
0.155315951416D-10 0.000000000000D+00 0.000000000000D+00 0.656567066467D-07 0.000000000000D+00  7 21 -1 23 -11 11 23 -1 2 0.66850058D-01 0.25853656D-01 0.38704374D+05 0.38704374D+05 0.38704374D+05 0.11572078D+01  1  2 12  3  7  1        1 0.609345109858D-08 0.100000000000D+01
-.323279749618D-05 0.000000000000D+00 -.266911344397D-07 0.656567066467D-07 0.000000000000D+00  7 21 -1 23 -11 11 23 -1 2 0.66849966D-01 0.25853656D-01 0.38535929D+05 0.38535929D+05 0.38535929D+05 0.11573789D+01  1  2  5  3  7  1        1 -.126889429292D-02 0.100000000000D+01
0.308292470653D-05 0.000000000000D+00 0.000000000000D+00 0.656567066467D-07 0.258352631734D-08  7 21 -1 23 -11 11 23 -1 2 0.66846363D-01 0.25856632D-01 0.38704374D+05 0.38704374D+05 0.38704374D+05 0.11572078D+01  1  2 11  3  7  1        1 0.120943726754D-02 0.100000000000D+01
  </mgrwgt>
  </event>
  <event>
  9     66 0.25924217E-05 0.17361543E+03 0.75467711E-02 0.10390065E+00
        3 -1    0    0  501    0 0.00000000E+00 0.00000000E+00 0.12219974E+03 0.12220077E+03 0.50000000E+00 0.0000E+00 0.9000E+01
       21 -1    0    0  502  501 0.00000000E+00 0.00000000E+00 -.66470268E+03 0.66470310E+03 0.75000000E+00 0.0000E+00 0.9000E+01
       25  2    1    2    0    0 0.31836849E+02 -.35819825E+02 -.20803168E+03 0.36850131E+03 0.30036542E+03 0.0000E+00 0.0000E+00
       23  2    3    3    0    0 -.48964133E+02 0.48854363E+02 -.38925814E+01 0.11613938E+03 0.93214639E+02 0.0000E+00 0.0000E+00
       23  1    1    2    0    0 -.72168083E+02 -.60491570E+02 -.11109976E+03 0.17183093E+03 0.91188000E+02 0.0000E+00 0.9000E+01
      -13  1    4    4    0    0 -.11186225E+02 -.14179253E+02 0.30153234E+02 0.35148421E+02 0.10565837E+00 0.0000E+00 0.9000E+01
       13  1    4    4    0    0 -.37777908E+02 0.63033617E+02 -.34045815E+02 0.80990961E+02 0.10565837E+00 0.0000E+00 0.9000E+01
       23  1    3    3    0    0 0.80800982E+02 -.84674188E+02 -.20413910E+03 0.25236193E+03 0.91188000E+02 0.0000E+00 0.9000E+01
        3  1    1    2  502    0 0.40331234E+02 0.96311395E+02 -.22337150E+03 0.24657163E+03 0.50000000E+00 0.0000E+00 0.9000E+01
#aMCatNLO 2  0  0  2  1 0.10441501D+03 0.00000000D+00  -5  7  0 0.00000000D+00 0.00000000D+00 0.00000000D+00 0.00000000D+00 0.00000000D+00
  <mgrwgt>
 0.1665129754D-04    2    2    0
 0.211666932338985D+03 0.000000000000000D+00 0.000000000000000D+00 0.211666932338985D+03
 0.211666932338985D+03 0.000000000000000D+00 0.000000000000000D+00 -.211666932338985D+03
 0.114929926187374D+03 -.605969185165879D+02 -.328594042019709D+02 -.119125820551515D+02
 0.633019794812382D+02 -.513528771125636D+01 0.270245915437783D+00 0.630927602305598D+02
 0.884506831734778D+02 -.300858159862624D+02 0.814025182769988D+02 0.170879211274682D+02
 0.156651275835881D+03 0.958180222141066D+02 -.488133599904657D+02 -.682680993028765D+02
 0.000000000000000D+00 0.000000000000000D+00 0.000000000000000D+00 -.000000000000000D+00
 0.240875449451365D+03 0.000000000000000D+00 0.000000000000000D+00 0.240875449451365D+03
 0.337214887538334D+03 0.000000000000000D+00 0.000000000000000D+00 -.337214887538334D+03
 0.131623088879388D+03 -.721681462043908D+02 -.604916130083518D+02 -.119125820551515D+02
 0.656268272004865D+02 -.111861752951173D+02 -.141793348630502D+02 0.630927602305598D+02
 0.754481032260310D+02 -.377779148830037D+02 0.630337082761261D+02 0.170879211274682D+02
 0.163322684653829D+03 0.808010022438097D+02 -.846741556350139D+02 -.682680993028765D+02
 0.142069633029965D+03 0.403312341387021D+02 0.963113952302898D+02 -.963394380869691D+02
-.376012715982D-07 0.000000000000D+00 0.000000000000D+00 0.254358432816D-07 0.000000000000D+00  7 3 21 23 -13 13 23 3 2 0.16520350D-01 0.10453255D+00 0.56505186D+05 0.56505186D+05 0.56505186D+05 0.11426522D+01  1  2 13  4  7  2       -3 -.727665547276D-05 0.100000000000D+01
0.145953967679D-06 0.000000000000D+00 0.000000000000D+00 0.254358432816D-07 0.125390450793D-11  7 3 21 23 -13 13 23 3 2 0.18800040D-01 0.10226189D+00 0.56505186D+05 0.56505186D+05 0.56505186D+05 0.11426522D+01  1  2  1  4  7  2       -3 0.239279530093D-04 0.100000000000D+01
  </mgrwgt>
  </event>
  <event>
  8     66 0.25924217E-05 0.46281367E+03 0.75467711E-02 0.85576462E-01
        1 -1    0    0  501    0 0.00000000E+00 0.00000000E+00 0.39611809E+03 0.39611822E+03 0.32000000E+00 0.0000E+00 0.9000E+01
       -1 -1    0    0    0  501 0.00000000E+00 0.00000000E+00 -.62349044E+03 0.62349052E+03 0.32000000E+00 0.0000E+00 0.9000E+01
       25  2    1    2    0    0 0.27769401E+03 0.33308029E+03 -.12392450E+02 0.52707645E+03 0.29933188E+03 0.0000E+00 0.0000E+00
       23  2    3    3    0    0 0.66405017E+02 0.17552318E+03 0.93230631E+02 0.22885042E+03 0.91992124E+02 0.0000E+00 0.0000E+00
       23  1    1    2    0    0 -.27769401E+03 -.33308029E+03 -.21497990E+03 0.49253228E+03 0.91188000E+02 0.0000E+00 0.9000E+01
      -13  1    4    4    0    0 -.17376160E+02 0.47640099E+02 0.18610027E+01 0.50744305E+02 0.10565837E+00 0.0000E+00 0.9000E+01
       13  1    4    4    0    0 0.83781177E+02 0.12788308E+03 0.91369629E+02 0.17810612E+03 0.10565837E+00 0.0000E+00 0.9000E+01
       23  1    3    3    0    0 0.21128899E+03 0.15755711E+03 -.10562308E+03 0.29822603E+03 0.91188000E+02 0.0000E+00 0.9000E+01
#aMCatNLO 1  0  0  2  1 0.10391579D+04 0.00000000D+00  -5  7  0 0.00000000D+00 0.00000000D+00 0.00000000D+00 0.00000000D+00 0.00000000D+00
  <mgrwgt>
 0.3964399391D-03    3    2    0
 0.496966745803406D+03 0.000000000000000D+00 0.000000000000000D+00 0.496966745803406D+03
 0.496966745803406D+03 0.000000000000000D+00 0.000000000000000D+00 -.496966745803406D+03
 0.456076523919753D+03 -.277694007105221D+03 -.333080288516974D+03 -.107861504467626D+03
 0.524806528009575D+02 -.173762931561920D+02 0.476399929399754D+02 0.135171900646479D+02
 0.203608870892370D+03 0.837813098702388D+02 0.127883187175552D+03 0.134473621429318D+03
 0.281767443993733D+03 0.211288990391174D+03 0.157557108401446D+03 -.401293070263405D+02
 0.000000000000000D+00 0.000000000000000D+00 -.000000000000000D+00 0.000000000000000D+00
 0.165880600036192D+04 0.000000000000000D+00 0.000000000000000D+00 0.165880600036192D+04
 0.100623251716236D+04 0.000000000000000D+00 0.000000000000000D+00 -.100623251716236D+04
 0.911518548041028D+03 -.858764042587969D+03 -.271000049982972D+03 -.107861504467626D+03
 0.992814676059579D+02 -.818576754730714D+02 0.545290413348187D+02 0.135171900646479D+02
 0.221675979990263D+03 -.969156584497330D+02 0.147188451964081D+03 0.134473621429318D+03
 0.205492327194074D+03 0.425983509634329D+01 0.179675645857122D+03 -.401293070263405D+02
 0.122707019469296D+04 0.103327754141443D+04 -.110393089173050D+03 0.652573483199553D+03
0.479079784787D-04 0.000000000000D+00 0.000000000000D+00 0.421900808564D-06 0.000000000000D+00  7 1 -1 23 -13 13 23 21 0 0.60941260D-01 0.95921622D-01 0.21419649D+06 0.21419649D+06 0.21419649D+06 0.10955453D+01  1  2  2  2  7  2       -1 0.394237040474D-03 0.100000000000D+01
-.264514998651D-05 0.000000000000D+00 -.183979251819D-06 0.421900808564D-06 0.000000000000D+00  7 1 -1 23 -13 13 23 21 2 0.60941260D-01 0.95921622D-01 0.21419649D+06 0.21419649D+06 0.21419649D+06 0.10955453D+01  1  2  3  2  7  2       -1 -.261252574850D-04 0.100000000000D+01
0.286819074242D-05 0.000000000000D+00 0.000000000000D+00 0.421900808564D-06 0.000000000000D+00  7 1 -1 23 -13 13 23 21 2 0.60941260D-01 0.95921622D-01 0.21419649D+06 0.21419649D+06 0.21419649D+06 0.10955453D+01  1  2 15  2  7  2       -1 0.283281560758D-04 0.100000000000D+01
  </mgrwgt>
  </event>
  <event>
  8     66 0.25924217E-05 0.26868245E+03 0.75467711E-02 0.90113596E-01
        1 -1    0    0  501    0 0.00000000E+00 0.00000000E+00 0.42653382E+03 0.42653394E+03 0.32000000E+00 0.0000E+00 0.9000E+01
       -1 -1    0    0    0  501 0.00000000E+00 0.00000000E+00 -.12053268E+04 0.12053268E+04 0.32000000E+00 0.0000E+00 0.9000E+01
       25  2    1    2    0    0 0.78107613E+02 0.16953992E+03 0.34172102E+03 0.49225055E+03 0.30115239E+03 0.0000E+00 0.0000E+00
       23  2    3    3    0    0 -.81484299E+02 0.53445954E+02 0.17047746E+03 0.21550699E+03 0.88794919E+02 0.0000E+00 0.0000E+00
       23  1    1    2    0    0 -.78107613E+02 -.16953992E+03 -.11205140E+04 0.11396102E+04 0.91188000E+02 0.0000E+00 0.9000E+01
      -13  1    4    4    0    0 -.63492425E+02 0.88235604E+01 0.37898493E+02 0.74467780E+02 0.10565837E+00 0.0000E+00 0.9000E+01
       13  1    4    4    0    0 -.17991874E+02 0.44622394E+02 0.13257896E+03 0.14103921E+03 0.10565837E+00 0.0000E+00 0.9000E+01
       23  1    3    3    0    0 0.15959191E+03 0.11609397E+03 0.17124357E+03 0.27674356E+03 0.91188000E+02 0.0000E+00 0.9000E+01
#aMCatNLO 1  0  0  2  1 0.67863850D+03 0.00000000D+00  -5  7  0 0.00000000D+00 0.00000000D+00 0.00000000D+00 0.00000000D+00 0.00000000D+00
  <mgrwgt>
 0.5837141875D-03    3    2    0
 0.717016575295846D+03 0.000000000000000D+00 0.000000000000000D+00 0.717016575295846D+03
 0.717016575295846D+03 0.000000000000000D+00 0.000000000000000D+00 -.717016575295846D+03
 0.688294258534201D+03 -.781076129837259D+02 -.169539923364545D+03 -.656192921454258D+03
 0.105322439694738D+03 -.634924895254480D+02 0.882350974330515D+01 0.835683298440412D+02
 0.232496838116994D+03 -.179918095506087D+02 0.446224444907438D+02 0.227464089410098D+03
 0.407919614245758D+03 0.159591912059783D+03 0.116093969130496D+03 0.345160502200119D+03
 0.000000000000000D+00 0.000000000000000D+00 0.000000000000000D+00 0.000000000000000D+00
 0.438810054546411D+04 0.000000000000000D+00 0.000000000000000D+00 0.438810054546411D+04
 0.825281493997272D+03 0.000000000000000D+00 0.000000000000000D+00 -.825281493997272D+03
 0.827656533946497D+03 -.389780868266692D+03 -.306890552814711D+03 -.656192921454258D+03
 0.142332438907732D+03 -.114409315179419D+03 -.136149187539621D+02 0.835683298440412D+02
 0.256492554749339D+03 -.118526019915113D+03 0.318235384628856D+00 0.227464089410098D+03
 0.360024472500392D+03 0.170576260251093D+01 0.465154549595220D+02 0.345160502200119D+03
 0.362687603935742D+04 0.621010440758713D+03 0.273671781224522D+03 0.356281905146683D+04
0.399044541021D-03 0.000000000000D+00 0.000000000000D+00 0.217003790714D-06 0.000000000000D+00  7 1 -1 23 -13 13 23 21 0 0.65620600D-01 0.18543490D+00 0.72190261D+05 0.72190261D+05 0.72190261D+05 0.11335239D+01  1  2  2  2  7  2       -1 0.537330223387D-03 0.100000000000D+01
0.380085064753D-05 0.000000000000D+00 -.153243610836D-05 0.217003790714D-06 0.000000000000D+00  7 1 -1 23 -13 13 23 21 2 0.65620600D-01 0.18543490D+00 0.72190261D+05 0.72190261D+05 0.72190261D+05 0.11335239D+01  1  2  3  2  7  2       -1 0.657600381065D-05 0.100000000000D+01
0.230085194722D-04 0.000000000000D+00 0.000000000000D+00 0.217003790714D-06 0.000000000000D+00  7 1 -1 23 -13 13 23 21 2 0.65620600D-01 0.18543490D+00 0.72190261D+05 0.72190261D+05 0.72190261D+05 0.11335239D+01  1  2 15  2  7  2       -1 0.398079603114D-04 0.100000000000D+01
  </mgrwgt>
  </event>
  <event>
  8     66 0.25924217E-05 0.30504050E+03 0.75467711E-02 0.98863851E-01
        1 -1    0    0  501    0 0.00000000E+00 0.00000000E+00 0.50062083E+03 0.50062094E+03 0.32000000E+00 0.0000E+00 0.9000E+01
       -1 -1    0    0    0  501 0.00000000E+00 0.00000000E+00 -.32042090E+03 0.32042106E+03 0.32000000E+00 0.0000E+00 0.9000E+01
       25  2    1    2    0    0 -.83216848E+02 0.21509173E+03 0.35385743E+03 0.51828521E+03 0.30035808E+03 0.0000E+00 0.0000E+00
       23  2    3    3    0    0 -.88128220E+02 -.13105057E+02 0.81368628E+02 0.15132023E+03 0.91316115E+02 0.0000E+00 0.0000E+00
       23  1    1    2    0    0 0.83216848E+02 -.21509173E+03 -.17365749E+03 0.30275679E+03 0.91188000E+02 0.0000E+00 0.9000E+01
      -11  1    4    4    0    0 -.60062682E+02 -.44070908E+02 0.80271686E+02 0.10951399E+03 0.51099893E-03 0.0000E+00 0.9000E+01
       11  1    4    4    0    0 -.28065538E+02 0.30965852E+02 0.10969423E+01 0.41806239E+02 0.51099893E-03 0.0000E+00 0.9000E+01
       23  1    3    3    0    0 0.49113721E+01 0.22819679E+03 0.27248880E+03 0.36696497E+03 0.91188000E+02 0.0000E+00 0.9000E+01
#aMCatNLO 1  0  0  2  1 0.83702000D+02 0.00000000D+00  -5  7  0 0.00000000D+00 0.00000000D+00 0.00000000D+00 0.00000000D+00 0.00000000D+00
  <mgrwgt>
 0.1221288843D-03    4    2    0
 0.400511529065359D+03 0.000000000000000D+00 0.000000000000000D+00 0.400511529065359D+03
 0.400511529065359D+03 0.000000000000000D+00 0.000000000000000D+00 -.400511529065359D+03
 0.349389575257275D+03 0.832168478722485D+02 -.215091732217363D+03 -.246106332540227D+03
 0.941928356359871D+02 -.600626821898175D+02 -.440709083151397D+02 0.576413005890014D+02
 0.426042783204651D+02 -.280655377538196D+02 0.309658516538885D+02 -.828046817190568D+01
 0.314836368916990D+03 0.491137207138861D+01 0.228196788878614D+03 0.196745500123131D+03
 0.000000000000000D+00 -.000000000000000D+00 -.000000000000000D+00 0.000000000000000D+00
 0.455559586499103D+03 0.000000000000000D+00 0.000000000000000D+00 0.455559586499103D+03
 0.435822349282506D+03 0.000000000000000D+00 0.000000000000000D+00 -.435822349282506D+03
 0.350178963526520D+03 0.116568666665175D+03 -.200383318138039D+03 -.246106332540227D+03
 0.871049106674536D+02 -.514193409772604D+02 -.402591269435602D+02 0.576413005890014D+02
 0.414585766336887D+02 -.240578545173477D+02 0.327332714430994D+02 -.828046817190568D+01
 0.326641907395236D+03 0.354937468424990D+02 0.241683856389246D+03 0.196745500123131D+03
 0.859975775587111D+02 -.765852180130657D+02 -.337746827507461D+02 0.197372372165961D+02
0.139881230315D-04 0.000000000000D+00 0.000000000000D+00 0.101012372888D-05 0.000000000000D+00  7 1 -1 23 -11 11 23 21 0 0.77018610D-01 0.49295543D-01 0.93049706D+05 0.93049706D+05 0.93049706D+05 0.11242984D+01  1  2  2  2  7  2       -1 0.313999246873D-03 0.100000000000D+01
-.707060009900D-06 0.000000000000D+00 -.537180755983D-07 0.101012372888D-05 0.000000000000D+00  7 1 -1 23 -11 11 23 21 2 0.77018610D-01 0.49295543D-01 0.93049706D+05 0.93049706D+05 0.93049706D+05 0.11242984D+01  1  2  3  2  7  2       -1 -.200626656111D-04 0.100000000000D+01
0.855863421202D-06 0.000000000000D+00 0.000000000000D+00 0.101012372888D-05 0.000000000000D+00  7 1 -1 23 -11 11 23 21 2 0.77018610D-01 0.49295543D-01 0.93049706D+05 0.93049706D+05 0.93049706D+05 0.11242984D+01  1  2 15  2  7  2       -1 0.242849282775D-04 0.100000000000D+01
-.691080917182D-05 0.000000000000D+00 0.000000000000D+00 0.101012372888D-05 0.000000000000D+00  7 1 -1 23 -11 11 23 21 2 0.77018610D-01 0.49295543D-01 0.93049706D+05 0.93049706D+05 0.93049706D+05 0.11242984D+01  1  2  4  2  7  2       -1 -.196092625201D-03 0.100000000000D+01
  </mgrwgt>
  </event>
  <event>
  8     66 0.25924217E-05 0.17038646E+03 0.75467711E-02 0.10267817E+00
        1 -1    0    0  501    0 0.00000000E+00 0.00000000E+00 0.67351168E+03 0.67351175E+03 0.32000000E+00 0.0000E+00 0.9000E+01
       -1 -1    0    0    0  501 0.00000000E+00 0.00000000E+00 -.10230462E+03 0.10230512E+03 0.32000000E+00 0.0000E+00 0.9000E+01
       25  2    1    2    0    0 0.94173611E+02 0.12027896E+03 0.29635273E+03 0.44840911E+03 0.29985011E+03 0.0000E+00 0.0000E+00
       23  2    3    3    0    0 0.10229631E+03 -.46837340E+02 0.14944998E+03 0.20780673E+03 0.90499004E+02 0.0000E+00 0.0000E+00
       23  1    1    2    0    0 -.94173611E+02 -.12027896E+03 0.27485432E+03 0.32740777E+03 0.91188000E+02 0.0000E+00 0.9000E+01
      -13  1    4    4    0    0 0.84510668E+02 -.55747557E+02 0.15676205E+03 0.18661242E+03 0.10565837E+00 0.0000E+00 0.9000E+01
       13  1    4    4    0    0 0.17785638E+02 0.89102171E+01 -.73120788E+01 0.21194304E+02 0.10565837E+00 0.0000E+00 0.9000E+01
       23  1    3    3    0    0 -.81226947E+01 0.16711630E+03 0.14690276E+03 0.24060239E+03 0.91188000E+02 0.0000E+00 0.9000E+01
#aMCatNLO 1  0  0  2  1 0.29388681D+02 0.00000000D+00  -5  7  0 0.00000000D+00 0.00000000D+00 0.00000000D+00 0.00000000D+00 0.00000000D+00
  <mgrwgt>
 0.2816351325D-03    9    2    0
 0.262494919746762D+03 0.000000000000000D+00 0.000000000000000D+00 0.262494919746762D+03
 0.262494919746762D+03 0.000000000000000D+00 0.000000000000000D+00 -.262494919746762D+03
 0.184784045245579D+03 -.941736115845945D+02 -.120278961916383D+03 0.499419086014091D+02
 0.105208745430338D+03 0.845107588649802D+02 -.557476446095169D+02 0.286183834550757D+02
 0.392761173792138D+02 0.177855467815478D+02 0.891030503245878D+01 -.338658262308141D+02
 0.195720931438394D+03 -.812269406193351D+01 0.167116301493441D+03 -.446944658256707D+02
 0.000000000000000D+00 -.000000000000000D+00 -.000000000000000D+00 -.000000000000000D+00
 0.270969388442909D+03 0.000000000000000D+00 0.000000000000000D+00 0.270969388442909D+03
 0.289683797488049D+03 0.000000000000000D+00 0.000000000000000D+00 -.289683797488049D+03
 0.177860493521415D+03 -.931896173966606D+02 -.110184412628983D+03 0.499419086014091D+02
 0.102726437632577D+03 0.850749670350427D+02 -.499595746687703D+02 0.286183834550757D+02
 0.399306444225619D+02 0.180004652069652D+02 0.111150991915599D+02 -.338658262308141D+02
 0.205294202680840D+03 -.703458568288967D+01 0.178278932123764D+03 -.446944658256707D+02
 0.348414076735644D+02 -.285122916245757D+01 -.292500440175710D+02 -.187144090451402D+02
0.254884945692D-05 0.000000000000D+00 0.000000000000D+00 0.274632324807D-06 0.000000000000D+00  7 1 -1 23 -13 13 23 21 0 0.10361723D+00 0.15739217D-01 0.59924812D+05 0.59924812D+05 0.59924812D+05 0.11404421D+01  1  2  2  2  7  2       -1 0.250327152509D-03 0.100000000000D+01
-.140763726018D-06 0.000000000000D+00 -.978825304203D-08 0.274632324807D-06 0.000000000000D+00  7 1 -1 23 -13 13 23 21 2 0.10361723D+00 0.15739217D-01 0.59924812D+05 0.59924812D+05 0.59924812D+05 0.11404421D+01  1  2  3  2  7  2       -1 -.179804692595D-04 0.100000000000D+01
0.162037354157D-06 0.000000000000D+00 0.000000000000D+00 0.274632324807D-06 0.000000000000D+00  7 1 -1 23 -13 13 23 21 2 0.10361723D+00 0.15739217D-01 0.59924812D+05 0.59924812D+05 0.59924812D+05 0.11404421D+01  1  2 15  2  7  2       -1 0.206978583739D-04 0.100000000000D+01
0.634867738360D-05 0.000000000000D+00 0.000000000000D+00 0.274632324807D-06 0.000000000000D+00  7 1 -1 23 -13 13 23 21 2 0.10361723D+00 0.17605114D-01 0.67672493D+05 0.67672493D+05 0.67672493D+05 0.11359102D+01  1  2 12  2  7  2       -1 0.674278296934D-03 0.100000000000D+01
-.630514186657D-05 0.000000000000D+00 0.000000000000D+00 0.274632324807D-06 0.000000000000D+00  7 1 -1 23 -13 13 23 21 2 0.10361723D+00 0.15739217D-01 0.59924812D+05 0.59924812D+05 0.59924812D+05 0.11404421D+01  1  2  4  2  7  2       -1 -.805387955517D-03 0.100000000000D+01
-.147165957780D-04 0.000000000000D+00 -.277015331087D-05 0.274632324807D-06 0.000000000000D+00  7 1 -1 23 -13 13 23 21 2 0.10361723D+00 0.17899597D-01 0.59924812D+05 0.59924812D+05 0.59924812D+05 0.11404421D+01  1  2  5  2  7  2       -1 -.153546240967D-02 0.100000000000D+01
0.149716431140D-04 0.000000000000D+00 0.274739579052D-05 0.274632324807D-06 0.000000000000D+00  7 1 -1 23 -13 13 23 21 2 0.10361723D+00 0.15739217D-01 0.59924812D+05 0.59924812D+05 0.59924812D+05 0.11404421D+01  1  2  6  2  7  2       -1 0.191240439842D-02 0.100000000000D+01
0.113662959880D-06 0.000000000000D+00 0.000000000000D+00 0.274632324807D-06 0.000000000000D+00  7 1 21 23 -13 13 23 1 2 0.10361723D+00 0.17605114D-01 0.67672493D+05 0.67672493D+05 0.67672493D+05 0.11359102D+01  1  2 12  4  7  2       -1 0.151955851346D-03 0.100000000000D+01
-.281359013580D-06 0.000000000000D+00 -.557000269894D-07 0.274632324807D-06 0.000000000000D+00  7 1 21 23 -13 13 23 1 2 0.10361723D+00 0.17899597D-01 0.59924812D+05 0.59924812D+05 0.59924812D+05 0.11404421D+01  1  2  5  4  7  2       -1 -.369197590613D-03 0.100000000000D+01
  </mgrwgt>
  </event>
  <event>
  8     66 0.25924217E-05 0.22082734E+03 0.75467711E-02 0.94974370E-01
        1 -1    0    0  501    0 0.00000000E+00 0.00000000E+00 0.17613891E+04 0.17613891E+04 0.32000000E+00 0.0000E+00 0.9000E+01
       -1 -1    0    0    0  501 0.00000000E+00 0.00000000E+00 -.10504627E+03 0.10504676E+03 0.32000000E+00 0.0000E+00 0.9000E+01
       25  2    1    2    0    0 -.21125424E+03 -.21015057E+03 0.14002353E+04 0.14630776E+04 0.30190311E+03 0.0000E+00 0.0000E+00
       23  2    3    3    0    0 -.22227790E+03 -.18980970E+03 0.82603553E+03 0.88122201E+03 0.93714196E+02 0.0000E+00 0.0000E+00
       23  1    1    2    0    0 0.21125424E+03 0.21015057E+03 0.25610755E+03 0.40335833E+03 0.91188000E+02 0.0000E+00 0.9000E+01
      -11  1    4    4    0    0 -.15141018E+03 -.84179185E+02 0.56289568E+03 0.58895052E+03 0.51099893E-03 0.0000E+00 0.9000E+01
       11  1    4    4    0    0 -.70867715E+02 -.10563052E+03 0.26313985E+03 0.29227148E+03 0.51099893E-03 0.0000E+00 0.9000E+01
       23  1    3    3    0    0 0.11023662E+02 -.20340862E+02 0.57419977E+03 0.58185556E+03 0.91188000E+02 0.0000E+00 0.9000E+01
#aMCatNLO 1  0  0  1  2 0.23236532D+03 0.00000000D+00  -5  7  0 0.00000000D+00 0.00000000D+00 0.00000000D+00 0.00000000D+00 0.00000000D+00
  <mgrwgt>
 0.2960652669D-03    7    2    0
 0.430148624344424D+03 0.000000000000000D+00 0.000000000000000D+00 0.430148624344424D+03
 0.430148624344424D+03 0.000000000000000D+00 0.000000000000000D+00 -.430148624344424D+03
 0.382008147710557D+03 0.211254235755736D+03 0.210150566230309D+03 -.220960089069476D+03
 0.193991297039605D+03 -.151410183381558D+03 -.841791854124059D+02 0.873008845245865D+02
 0.127463132778603D+03 -.708677146700134D+02 -.105630518796147D+03 0.817378333712249D+01
 0.156834671160083D+03 0.110236622958353D+02 -.203408620217558D+02 0.125485421207767D+03
 0.000000000000000D+00 -.000000000000000D+00 0.000000000000000D+00 0.000000000000000D+00
 0.142464767773491D+04 0.000000000000000D+00 0.000000000000000D+00 0.142464767773491D+04
 0.459349608199570D+03 0.000000000000000D+00 0.000000000000000D+00 -.459349608199570D+03
 0.348541344533574D+03 0.226387967027241D+03 0.114415667322938D+03 -.220960089069476D+03
 0.217015252842989D+03 -.142895958482647D+03 -.138039561637441D+03 0.873008845245865D+02
 0.157222744334605D+03 -.649702914197564D+02 -.142937195421256D+03 0.817378333712249D+01
 0.168346349267723D+03 0.177599645313362D+02 -.629542269583621D+02 0.125485421207767D+03
 0.992871594955593D+03 -.362816816561741D+02 0.229515316694121D+03 0.965298069535343D+03
0.194312268076D-04 0.000000000000D+00 0.000000000000D+00 0.184708791422D-07 0.000000000000D+00  7 1 -1 23 -11 11 23 21 0 0.27098298D+00 0.16161004D-01 0.12465669D+06 0.12465669D+06 0.12465669D+06 0.11139511D+01  1  2  2  1  7  1        1 0.292094509666D-03 0.100000000000D+01
-.102833055793D-05 0.000000000000D+00 -.746210273008D-07 0.184708791422D-07 0.000000000000D+00  7 1 -1 23 -11 11 23 21 2 0.27098298D+00 0.16161004D-01 0.12465669D+06 0.12465669D+06 0.12465669D+06 0.11139511D+01  1  2  3  1  7  1        1 -.191817469267D-04 0.100000000000D+01
0.124215859327D-05 0.000000000000D+00 0.000000000000D+00 0.184708791422D-07 0.000000000000D+00  7 1 -1 23 -11 11 23 21 2 0.27098298D+00 0.16161004D-01 0.12465669D+06 0.12465669D+06 0.12465669D+06 0.11139511D+01  1  2 15  1  7  1        1 0.231703430335D-04 0.100000000000D+01
0.162965064723D-04 0.000000000000D+00 0.000000000000D+00 0.184708791422D-07 0.000000000000D+00  7 1 -1 23 -11 11 23 21 2 0.88059574D+00 0.16161004D-01 0.23514257D+06 0.23514257D+06 0.23514257D+06 0.10924665D+01  1  2 12  1  7  1        1 0.224886943558D-07 0.100000000000D+01
-.503437487354D-04 0.000000000000D+00 -.506910370403D-05 0.184708791422D-07 0.000000000000D+00  7 1 -1 23 -11 11 23 21 2 0.89906621D+00 0.16161004D-01 0.12465669D+06 0.12465669D+06 0.12465669D+06 0.11139511D+01  1  2  5  1  7  1        1 -.402995640494D-07 0.100000000000D+01
0.221806717676D-05 0.000000000000D+00 0.000000000000D+00 0.184708791422D-07 0.000000000000D+00  7 21 -1 23 -11 11 23 -1 2 0.88059574D+00 0.16161004D-01 0.23514257D+06 0.23514257D+06 0.23514257D+06 0.10924665D+01  1  2 12  3  7  1        1 0.550429507789D-10 0.100000000000D+01
-.680149134289D-05 0.000000000000D+00 -.704714983252D-06 0.184708791422D-07 0.000000000000D+00  7 21 -1 23 -11 11 23 -1 2 0.89906621D+00 0.16161004D-01 0.12465669D+06 0.12465669D+06 0.12465669D+06 0.11139511D+01  1  2  5  3  7  1        1 -.830672885711D-10 0.100000000000D+01
  </mgrwgt>
  </event>
  <event>
  8     66 0.25924217E-05 0.23641969E+03 0.75467711E-02 0.10148501E+00
        1 -1    0    0  501    0 0.00000000E+00 0.00000000E+00 0.12982841E+03 0.12982880E+03 0.32000000E+00 0.0000E+00 0.9000E+01
       -1 -1    0    0    0  501 0.00000000E+00 0.00000000E+00 -.64710176E+03 0.64710184E+03 0.32000000E+00 0.0000E+00 0.9000E+01
       25  2    1    2    0    0 -.43463246E+02 -.15599347E+03 -.47788757E+03 0.58695826E+03 0.29986739E+03 0.0000E+00 0.0000E+00
       23  2    3    3    0    0 -.89647143E+02 -.12839836E+03 -.12901832E+03 0.22237707E+03 0.91011441E+02 0.0000E+00 0.0000E+00
       23  1    1    2    0    0 0.43463246E+02 0.15599347E+03 -.39385781E+02 0.18997239E+03 0.91188000E+02 0.0000E+00 0.9000E+01
      -11  1    4    4    0    0 -.12103085E+02 0.14286525E+02 -.12837186E+02 0.22702044E+02 0.51099893E-03 0.0000E+00 0.9000E+01
       11  1    4    4    0    0 -.77544057E+02 -.14268489E+03 -.11618114E+03 0.19967502E+03 0.51099893E-03 0.0000E+00 0.9000E+01
       23  1    3    3    0    0 0.46183897E+02 -.27595106E+02 -.34886925E+03 0.36458119E+03 0.91188000E+02 0.0000E+00 0.9000E+01
#aMCatNLO 1  0  0  2  2 0.92582649D+02 0.00000000D+00  -5  7  0 0.00000000D+00 0.00000000D+00 0.00000000D+00 0.00000000D+00 0.00000000D+00
  <mgrwgt>
 0.3938938901D-03    4    2    0
 0.289848885722576D+03 0.000000000000000D+00 0.000000000000000D+00 0.289848885722576D+03
 0.289848885722576D+03 0.000000000000000D+00 0.000000000000000D+00 -.289848885722576D+03
 0.219462898546539D+03 0.434632458184334D+02 0.155993469959179D+03 0.116729156972325D+03
 0.189712296029660D+02 -.121030853716530D+02 0.142865247132441D+02 0.305255446352697D+01
 0.163941010345724D+03 -.775440574460114D+02 -.142684888644979D+03 0.224632272916539D+02
 0.177322632949924D+03 0.461838969992310D+02 -.275951060274444D+02 -.142244938727506D+03
 0.000000000000000D+00 0.000000000000000D+00 0.000000000000000D+00 0.000000000000000D+00
 0.419789642884234D+03 0.000000000000000D+00 0.000000000000000D+00 0.419789642884234D+03
 0.310493179614081D+03 0.000000000000000D+00 0.000000000000000D+00 -.310493179614081D+03
 0.198475001634156D+03 0.226917340728422D+02 0.130140170765894D+03 0.116729156972325D+03
 0.186436180209729D+02 -.139725431281558D+02 0.119597007776520D+02 0.305255446352697D+01
 0.191539970551040D+03 -.952114605861406D+02 -.164674653518356D+03 0.224632272916539D+02
 0.178385746423559D+03 0.285051921558391D+02 -.495989375859732D+02 -.142244938727506D+03
 0.143238485868587D+03 0.579870774856151D+02 0.721737195607834D+02 0.109296463270153D+03
0.132912584264D-04 0.000000000000D+00 0.000000000000D+00 0.562244856892D-06 0.000000000000D+00  7 1 -1 23 -11 11 23 21 0 0.19973638D-01 0.99554153D-01 0.55894269D+05 0.55894269D+05 0.55894269D+05 0.11430626D+01  1  2  2  2  7  2       -1 0.447976812965D-03 0.100000000000D+01
-.701131890713D-06 0.000000000000D+00 -.510419320262D-07 0.562244856892D-06 0.000000000000D+00  7 1 -1 23 -11 11 23 21 2 0.19973638D-01 0.99554153D-01 0.55894269D+05 0.55894269D+05 0.55894269D+05 0.11430626D+01  1  2  3  2  7  2       -1 -.308765776935D-04 0.100000000000D+01
0.835411848125D-06 0.000000000000D+00 0.000000000000D+00 0.562244856892D-06 0.000000000000D+00  7 1 -1 23 -11 11 23 21 2 0.19973638D-01 0.99554153D-01 0.55894269D+05 0.55894269D+05 0.55894269D+05 0.11430626D+01  1  2 15  2  7  2       -1 0.367900236408D-04 0.100000000000D+01
-.136237143668D-05 0.000000000000D+00 0.000000000000D+00 0.562244856892D-06 0.000000000000D+00  7 1 -1 23 -11 11 23 21 2 0.19973638D-01 0.99554153D-01 0.55894269D+05 0.55894269D+05 0.55894269D+05 0.11430626D+01  1  2  4  2  7  2       -1 -.599963688276D-04 0.100000000000D+01
  </mgrwgt>
  </event>
  <event>
  8     66 0.25924217E-05 0.21143224E+03 0.75467711E-02 0.10213954E+00
        1 -1    0    0  501    0 0.00000000E+00 0.00000000E+00 0.15968022E+04 0.15968022E+04 0.32000000E+00 0.0000E+00 0.9000E+01
       -1 -1    0    0    0  501 0.00000000E+00 0.00000000E+00 -.47584160E+02 0.47585236E+02 0.32000000E+00 0.0000E+00 0.9000E+01
       25  2    1    2    0    0 -.70562018E+02 -.60666559E+02 0.14412497E+04 0.14751780E+04 0.30048293E+03 0.0000E+00 0.0000E+00
       23  2    3    3    0    0 0.65348098E+02 0.31627973E+02 0.38892286E+03 0.40620799E+03 0.92050200E+02 0.0000E+00 0.0000E+00
       23  1    1    2    0    0 0.70562018E+02 0.60666559E+02 0.10796833E+03 0.16920946E+03 0.91188000E+02 0.0000E+00 0.9000E+01
      -11  1    4    4    0    0 0.66743385E+02 0.51784257E+02 0.36613004E+03 0.37574925E+03 0.51099893E-03 0.0000E+00 0.9000E+01
       11  1    4    4    0    0 -.13952877E+01 -.20156283E+02 0.22792815E+02 0.30458742E+02 0.51099893E-03 0.0000E+00 0.9000E+01
       23  1    3    3    0    0 -.13591012E+03 -.92294532E+02 0.10523268E+04 0.10689700E+04 0.91188000E+02 0.0000E+00 0.9000E+01
#aMCatNLO 1  0  0  2  2 0.10555504D+03 0.00000000D+00  -5  7  0 0.00000000D+00 0.00000000D+00 0.00000000D+00 0.00000000D+00 0.00000000D+00
  <mgrwgt>
 0.3983568711D-03    4    2    0
 0.275650866714859D+03 0.000000000000000D+00 0.000000000000000D+00 0.275650866714859D+03
 0.275650866714859D+03 0.000000000000000D+00 0.000000000000000D+00 -.275650866714859D+03
 0.201304336787735D+03 0.705620176303435D+02 0.606665588425788D+02 -.153456035957159D+03
 0.918953864334693D+02 0.667433853638711D+02 0.517842567299776D+02 0.361728256133002D+02
 0.268000865108143D+02 -.139528765150185D+01 -.201562832330128D+02 -.176074431871088D+02
 0.231301923697699D+03 -.135910115342713D+03 -.922945323395437D+02 0.134890653530967D+03
 0.000000000000000D+00 -.000000000000000D+00 0.000000000000000D+00 0.000000000000000D+00
 0.407128391027017D+03 0.000000000000000D+00 0.000000000000000D+00 0.407128391027017D+03
 0.302682559759586D+03 0.000000000000000D+00 0.000000000000000D+00 -.302682559759586D+03
 0.205944916584796D+03 0.973298269053105D+02 0.328055962606395D+02 -.153456035957159D+03
 0.952684268615269D+02 0.790453483901191D+02 0.389799017662254D+02 0.361728256133002D+02
 0.298847436622864D+02 0.233051100937250D+01 -.240342373835430D+02 -.176074431871088D+02
 0.230217749584937D+03 -.105575202537424D+03 -.123868273093328D+03 0.134890653530967D+03
 0.148495114093057D+03 -.731304837673784D+02 0.761170124500057D+02 0.104445831267432D+03
0.677337244013D-05 0.000000000000D+00 0.000000000000D+00 0.220820534901D-06 0.000000000000D+00  7 1 -1 23 -11 11 23 21 0 0.24566196D+00 0.73207252D-02 0.44703593D+05 0.44703593D+05 0.44703593D+05 0.11515974D+01  1  2  2  2  7  2       -1 0.451009852301D-03 0.100000000000D+01
-.344112921313D-06 0.000000000000D+00 -.260115336400D-07 0.220820534901D-06 0.000000000000D+00  7 1 -1 23 -11 11 23 21 2 0.24566196D+00 0.73207252D-02 0.44703593D+05 0.44703593D+05 0.44703593D+05 0.11515974D+01  1  2  3  2  7  2       -1 -.303866888748D-04 0.100000000000D+01
0.397961515961D-06 0.000000000000D+00 0.000000000000D+00 0.220820534901D-06 0.000000000000D+00  7 1 -1 23 -11 11 23 21 2 0.24566196D+00 0.73207252D-02 0.44703593D+05 0.44703593D+05 0.44703593D+05 0.11515974D+01  1  2 15  2  7  2       -1 0.351417573147D-04 0.100000000000D+01
-.650115310781D-06 0.000000000000D+00 0.000000000000D+00 0.220820534901D-06 0.000000000000D+00  7 1 -1 23 -11 11 23 21 2 0.24566196D+00 0.73207252D-02 0.44703593D+05 0.44703593D+05 0.44703593D+05 0.11515974D+01  1  2  4  2  7  2       -1 -.574080496775D-04 0.100000000000D+01
  </mgrwgt>
  </event>
  <event>
  8     66 0.25924217E-05 0.30689002E+03 0.75467711E-02 0.93468539E-01
        1 -1    0    0  501    0 0.00000000E+00 0.00000000E+00 0.41509799E+04 0.41509800E+04 0.32000000E+00 0.0000E+00 0.9000E+01
       -1 -1    0    0    0  501 0.00000000E+00 0.00000000E+00 -.64915892E+02 0.64916681E+02 0.32000000E+00 0.0000E+00 0.9000E+01
       25  2    1    2    0    0 -.36440400E+03 0.24599206E+03 0.28834108E+04 0.29321550E+04 0.30028823E+03 0.0000E+00 0.0000E+00
       23  2    3    3    0    0 -.13085140E+03 0.63299508E+02 0.48030510E+03 0.50910828E+03 0.85844833E+02 0.0000E+00 0.0000E+00
       23  1    1    2    0    0 0.36440400E+03 -.24599206E+03 0.12026533E+04 0.12837416E+04 0.91188000E+02 0.0000E+00 0.9000E+01
      -11  1    4    4    0    0 -.48956673E+02 0.59286290E+02 0.31931132E+03 0.32843773E+03 0.51099893E-03 0.0000E+00 0.9000E+01
       11  1    4    4    0    0 -.81894728E+02 0.40132180E+01 0.16099378E+03 0.18067055E+03 0.51099893E-03 0.0000E+00 0.9000E+01
       23  1    3    3    0    0 -.23355260E+03 0.18269256E+03 0.24031057E+04 0.24230468E+04 0.91188000E+02 0.0000E+00 0.9000E+01
#aMCatNLO 1  0  0  2  1 0.18048170D+03 0.00000000D+00  -5  7  0 0.00000000D+00 0.00000000D+00 0.00000000D+00 0.00000000D+00 0.00000000D+00
  <mgrwgt>
 0.2980578792D-03    9    2    0
 0.519101392524408D+03 0.000000000000000D+00 0.000000000000000D+00 0.519101392524408D+03
 0.519101392524408D+03 0.000000000000000D+00 0.000000000000000D+00 -.519101392524408D+03
 0.479678570039767D+03 0.364404001330884D+03 -.245992064630761D+03 -.168742132154753D+03
 0.769916967749552D+02 -.489566729697237D+02 0.592862903118800D+02 0.401264564566152D+01
 0.100035843327716D+03 -.818947279400791D+02 0.401321801187091D+01 -.573089658526211D+02
 0.381496674906379D+03 -.233552600421081D+03 0.182692556307010D+03 0.222038452361712D+03
 0.000000000000000D+00 -.000000000000000D+00 0.000000000000000D+00 -.000000000000000D+00
 0.600494208559679D+03 0.000000000000000D+00 0.000000000000000D+00 0.600494208559679D+03
 0.637519752029181D+03 0.000000000000000D+00 0.000000000000000D+00 -.637519752029181D+03
 0.540271159636385D+03 0.380133515844108D+03 -.332569207171544D+03 -.168742132154753D+03
 0.664847147624354D+02 -.467440008821501D+02 0.471074766198986D+02 0.401264564566152D+01
 0.983048587038083D+02 -.788359468448986D+02 -.128226815739591D+02 -.573089658526211D+02
 0.348712803257888D+03 -.222291417393830D+03 0.120709648486905D+03 0.222038452361712D+03
 0.184240424228344D+03 -.322621507232293D+02 0.177574763638700D+03 -.370255434695015D+02
0.455818440404D-03 0.000000000000D+00 0.000000000000D+00 0.812440457125D-07 0.000000000000D+00  7 1 -1 23 -11 11 23 21 0 0.63861236D+00 0.99871220D-02 0.21073705D+06 0.21073705D+06 0.21073705D+06 0.10960854D+01  1  2  2  2  7  2       -1 0.217587190240D-03 0.100000000000D+01
-.248580701317D-04 0.000000000000D+00 -.175046283090D-05 0.812440457125D-07 0.000000000000D+00  7 1 -1 23 -11 11 23 21 2 0.63861236D+00 0.99871220D-02 0.21073705D+06 0.21073705D+06 0.21073705D+06 0.10960854D+01  1  2  3  2  7  2       -1 -.142559974423D-04 0.100000000000D+01
0.283525431260D-04 0.000000000000D+00 0.000000000000D+00 0.812440457125D-07 0.000000000000D+00  7 1 -1 23 -11 11 23 21 2 0.63861236D+00 0.99871220D-02 0.21073705D+06 0.21073705D+06 0.21073705D+06 0.10960854D+01  1  2 15  2  7  2       -1 0.162600628345D-04 0.100000000000D+01
0.155893731217D-03 0.000000000000D+00 0.000000000000D+00 0.812440457125D-07 0.000000000000D+00  7 1 -1 23 -11 11 23 21 2 0.63861236D+00 0.12898847D-01 0.30738516D+06 0.30738516D+06 0.30738516D+06 0.10837713D+01  1  2 12  2  7  2       -1 0.570015144920D-04 0.100000000000D+01
-.172427383883D-03 0.000000000000D+00 0.000000000000D+00 0.812440457125D-07 0.000000000000D+00  7 1 -1 23 -11 11 23 21 2 0.63861236D+00 0.99871220D-02 0.21073705D+06 0.21073705D+06 0.21073705D+06 0.10960854D+01  1  2  4  2  7  2       -1 -.988863709285D-04 0.100000000000D+01
-.178128751365D-03 0.000000000000D+00 -.157469186679D-03 0.812440457125D-07 0.000000000000D+00  7 1 -1 23 -11 11 23 21 2 0.63861236D+00 0.18072169D-01 0.21073705D+06 0.21073705D+06 0.21073705D+06 0.10960854D+01  1  2  5  2  7  2       -1 -.401761512124D-04 0.100000000000D+01
0.250331900274D-03 0.000000000000D+00 0.133325778331D-03 0.812440457125D-07 0.000000000000D+00  7 1 -1 23 -11 11 23 21 2 0.63861236D+00 0.99871220D-02 0.21073705D+06 0.21073705D+06 0.21073705D+06 0.10960854D+01  1  2  6  2  7  2       -1 0.143564279573D-03 0.100000000000D+01
0.536645786011D-05 0.000000000000D+00 0.000000000000D+00 0.812440457125D-07 0.000000000000D+00  7 1 21 23 -11 11 23 1 2 0.63861236D+00 0.12898847D-01 0.30738516D+06 0.30738516D+06 0.30738516D+06 0.10837713D+01  1  2 12  4  7  2       -1 0.255838128381D-04 0.100000000000D+01
-.313505035251D-05 0.000000000000D+00 -.102308556610D-04 0.812440457125D-07 0.000000000000D+00  7 1 21 23 -11 11 23 1 2 0.63861236D+00 0.18072169D-01 0.21073705D+06 0.21073705D+06 0.21073705D+06 0.10960854D+01  1  2  5  4  7  2       -1 -.862046118097D-05 0.100000000000D+01
  </mgrwgt>
  </event>
  <event>
  9     66 0.25924217E-05 0.17965813E+03 0.75467711E-02 0.10538588E+00
       21 -1    0    0  501  502 0.00000000E+00 0.00000000E+00 0.17682162E+03 0.17682321E+03 0.75000000E+00 0.0000E+00 0.9000E+01
       -1 -1    0    0    0  501 0.00000000E+00 0.00000000E+00 -.10382980E+04 0.10382981E+04 0.32000000E+00 0.0000E+00 0.9000E+01
       25  2    1    2    0    0 -.40382048E+02 -.51630061E+02 0.26669330E+01 0.30893035E+03 0.30188487E+03 0.0000E+00 0.0000E+00
       23  2    3    3    0    0 -.98831411E+02 0.43889065E+02 -.61503647E+02 0.15090077E+03 0.85407533E+02 0.0000E+00 0.0000E+00
       23  1    1    2    0    0 -.21146601E+02 0.26167616E+02 -.82125073E+03 0.82698243E+03 0.91188000E+02 0.0000E+00 0.9000E+01
      -11  1    4    4    0    0 -.80520131E+01 0.25160672E+02 -.51232143E+02 0.57642231E+02 0.51099893E-03 0.0000E+00 0.9000E+01
       11  1    4    4    0    0 -.90779398E+02 0.18728393E+02 -.10271505E+02 0.93258542E+02 0.51099893E-03 0.0000E+00 0.9000E+01
       23  1    3    3    0    0 0.58449364E+02 -.95519126E+02 0.64170580E+02 0.15802957E+03 0.91188000E+02 0.0000E+00 0.9000E+01
       -1  1    1    2    0  502 0.61528649E+02 0.25462445E+02 -.42892618E+02 0.79208521E+02 0.32000000E+00 0.0000E+00 0.9000E+01
#aMCatNLO 2  0  0  1  2 0.66589118D+02 0.00000000D+00  -5  7  0 0.00000000D+00 0.00000000D+00 0.00000000D+00 0.00000000D+00 0.00000000D+00
  <mgrwgt>
 0.1384196388D-04    2    2    0
 0.392359621343937D+03 0.000000000000000D+00 0.000000000000000D+00 0.392359621343937D+03
 0.392359621343937D+03 0.000000000000000D+00 0.000000000000000D+00 -.392359621343937D+03
 0.339589650955333D+03 0.541630392536688D+01 0.371601621876617D+02 -.324954867158410D+03
 0.301814536597337D+02 -.570122179250065D+01 0.261335020691426D+02 -.139805681103983D+02
 0.117770552755441D+03 -.813243989535171D+02 0.226411616073195D+02 0.821195654655003D+02
 0.297177585317366D+03 0.816093168206508D+02 -.859348258641239D+02 0.256815869803308D+03
 0.000000000000000D+00 0.000000000000000D+00 0.000000000000000D+00 0.000000000000000D+00
 0.438833320228621D+03 0.000000000000000D+00 0.000000000000000D+00 0.438833320228621D+03
 0.418368916528697D+03 0.000000000000000D+00 0.000000000000000D+00 -.418368916528697D+03
 0.339179657269772D+03 -.211466009024576D+02 0.261676162837308D+02 -.324954867158410D+03
 0.298889718172105D+02 -.805201310786433D+01 0.251606724177098D+02 -.139805681103983D+02
 0.123835676813139D+03 -.907793981764804D+02 0.187283925162229D+02 0.821195654655003D+02
 0.294635153769900D+03 0.584493635437774D+02 -.955191258937745D+02 0.256815869803308D+03
 0.696627770872960D+02 0.615286486430249D+02 0.254624446761111D+02 0.204644036999239D+02
-.888470218997D-06 0.000000000000D+00 0.000000000000D+00 0.467488579959D-08 0.000000000000D+00  7 21 -1 23 -11 11 23 -1 2 0.27933516D-01 0.14980749D+00 0.45648207D+05 0.45648207D+05 0.45648207D+05 0.11507902D+01  1  2 13  3  7  1        1 -.658537566109D-04 0.100000000000D+01
0.122926603686D-05 0.000000000000D+00 0.000000000000D+00 0.467488579959D-08 0.140412819179D-12  7 21 -1 23 -11 11 23 -1 2 0.27203429D-01 0.15973815D+00 0.45648207D+05 0.45648207D+05 0.45648207D+05 0.11507902D+01  1  2  1  3  7  1        1 0.796957204899D-04 0.100000000000D+01
  </mgrwgt>
  </event>
  <event>
  8     66 0.25924217E-05 0.19321863E+03 0.75467711E-02 0.93492464E-01
        3 -1    0    0  501    0 0.00000000E+00 0.00000000E+00 0.11033669E+04 0.11033670E+04 0.50000000E+00 0.0000E+00 0.9000E+01
       -3 -1    0    0    0  501 0.00000000E+00 0.00000000E+00 -.81218791E+02 0.81220330E+02 0.50000000E+00 0.0000E+00 0.9000E+01
       25  2    1    2    0    0 -.82510677E+01 0.71196890E+02 0.10230228E+04 0.10685999E+04 0.30032147E+03 0.0000E+00 0.0000E+00
       23  2    3    3    0    0 -.65550287E+02 -.66976873E+02 0.51087921E+03 0.52732223E+03 0.91040799E+02 0.0000E+00 0.0000E+00
       23  1    1    2    0    0 0.82510677E+01 -.71196890E+02 -.87467776E+00 0.11598747E+03 0.91188000E+02 0.0000E+00 0.9000E+01
      -11  1    4    4    0    0 -.59621015E+02 -.51829667E+02 0.18658330E+03 0.20261862E+03 0.51099893E-03 0.0000E+00 0.9000E+01
       11  1    4    4    0    0 -.59292727E+01 -.15147206E+02 0.32429591E+03 0.32470361E+03 0.51099893E-03 0.0000E+00 0.9000E+01
       23  1    3    3    0    0 0.57299220E+02 0.13817376E+03 0.51214358E+03 0.54127764E+03 0.91188000E+02 0.0000E+00 0.9000E+01
#aMCatNLO 1  0  0  1  2 0.47596471D+03 0.00000000D+00  -5  7  0 0.00000000D+00 0.00000000D+00 0.00000000D+00 0.00000000D+00 0.00000000D+00
  <mgrwgt>
 0.3200705830D-04    3    2    0
 0.299357819748589D+03 0.000000000000000D+00 0.000000000000000D+00 0.299357819748589D+03
 0.299357819748589D+03 0.000000000000000D+00 0.000000000000000D+00 -.299357819748589D+03
 0.230980004161537D+03 0.825106774076099D+01 -.711968896922933D+02 -.199748426170882D+03
 0.823490972617676D+02 -.596210146779474D+02 -.518296670335361D+02 0.232463770035851D+02
 0.887922861554450D+02 -.592927269291176D+01 -.151472056953361D+02 0.872896097234185D+02
 0.196594251918429D+03 0.572992196300982D+02 0.138173762421166D+03 0.892124394438786D+02
 0.000000000000000D+00 0.000000000000000D+00 0.000000000000000D+00 -.000000000000000D+00
 0.580028958778509D+03 0.000000000000000D+00 0.000000000000000D+00 0.580028958778509D+03
 0.669042511460230D+03 0.000000000000000D+00 0.000000000000000D+00 -.669042511460230D+03
 0.347239638492952D+03 -.511343524804099D+02 -.264094603192456D+03 -.199748426170882D+03
 0.158525602563895D+03 -.843597890373354D+02 -.132186983542364D+03 0.232463770035851D+02
 0.126327017463306D+03 -.280228670655241D+02 -.869123598628849D+02 0.872896097234185D+02
 0.132762510685591D+03 0.234729911399473D+02 0.282982726497213D+02 0.892124394438786D+02
 0.484216701032996D+03 0.140044017443322D+03 0.454895673947984D+03 -.890135526817208D+02
0.679841294144D-05 0.000000000000D+00 0.000000000000D+00 0.510423478762D-06 0.000000000000D+00  7 3 -3 23 -11 11 23 21 0 0.16974888D+00 0.12495326D-01 0.37333441D+05 0.37333441D+05 0.37333441D+05 0.11586251D+01  1  2  2  1  7  1        3 0.312399452624D-04 0.100000000000D+01
-.289665384960D-06 0.000000000000D+00 -.261076957584D-07 0.510423478762D-06 0.000000000000D+00  7 3 -3 23 -11 11 23 21 2 0.16974888D+00 0.12495326D-01 0.37333441D+05 0.37333441D+05 0.37333441D+05 0.11586251D+01  1  2  3  1  7  1        3 -.178683791225D-05 0.100000000000D+01
0.414022547410D-06 0.000000000000D+00 0.000000000000D+00 0.510423478762D-06 0.000000000000D+00  7 3 -3 23 -11 11 23 21 2 0.16974888D+00 0.12495326D-01 0.37333441D+05 0.37333441D+05 0.37333441D+05 0.11586251D+01  1  2 15  1  7  1        3 0.255395094703D-05 0.100000000000D+01
  </mgrwgt>
  </event>
  <event>
  8     66 0.25924217E-05 0.20417123E+03 0.75467711E-02 0.97380696E-01
        1 -1    0    0  501    0 0.00000000E+00 0.00000000E+00 0.14334539E+04 0.14334540E+04 0.32000000E+00 0.0000E+00 0.9000E+01
       -1 -1    0    0    0  501 0.00000000E+00 0.00000000E+00 -.68263204E+02 0.68263954E+02 0.32000000E+00 0.0000E+00 0.9000E+01
       25  2    1    2    0    0 0.21493234E+03 -.33679643E+02 0.64435583E+03 0.74326659E+03 0.29986756E+03 0.0000E+00 0.0000E+00
       23  2    3    3    0    0 0.17799561E+03 0.58546173E+02 0.24478946E+03 0.32155761E+03 0.91473100E+02 0.0000E+00 0.0000E+00
       23  1    1    2    0    0 -.21493234E+03 0.33679643E+02 0.72083491E+03 0.75845134E+03 0.91188000E+02 0.0000E+00 0.9000E+01
      -13  1    4    4    0    0 -.92915650E+01 -.14729714E+01 0.24533424E+02 0.26275518E+02 0.10565837E+00 0.0000E+00 0.9000E+01
       13  1    4    4    0    0 0.18728717E+03 0.60019144E+02 0.22025603E+03 0.29528209E+03 0.10565837E+00 0.0000E+00 0.9000E+01
       23  1    3    3    0    0 0.36936732E+02 -.92225815E+02 0.39956638E+03 0.42170898E+03 0.91188000E+02 0.0000E+00 0.9000E+01
#aMCatNLO 1  0  0  2  1 0.18947849D+03 0.00000000D+00  -5  7  0 0.00000000D+00 0.00000000D+00 0.00000000D+00 0.00000000D+00 0.00000000D+00
  <mgrwgt>
 0.5294825442D-03    9    2    0
 0.312814240049066D+03 0.000000000000000D+00 0.000000000000000D+00 0.312814240049066D+03
 0.312814240049066D+03 0.000000000000000D+00 0.000000000000000D+00 -.312814240049066D+03
 0.247595579376871D+03 -.214932337129752D+03 0.336796428349987D+02 0.752202878046717D+02
 0.953510264227920D+01 -.929182716888340D+01 -.147305340460873D+01 0.155249603206273D+01
 0.228153131069421D+03 0.187287432398717D+03 0.600192260548220D+02 -.115650168119448D+03
 0.140344667009561D+03 0.369367318999191D+02 -.922258154852120D+02 0.388773842827140D+02
 0.000000000000000D+00 0.000000000000000D+00 -.000000000000000D+00 -.000000000000000D+00
 0.394452815526756D+03 0.000000000000000D+00 0.000000000000000D+00 0.394452815526756D+03
 0.459606483820676D+03 0.000000000000000D+00 0.000000000000000D+00 -.459606483820676D+03
 0.322099804198114D+03 -.291582782166857D+03 0.689523166172146D+02 0.752202878046717D+02
 0.123327551905662D+02 -.122340680281603D+02 -.119105596898774D+00 0.155249603206273D+01
 0.194458100551900D+03 0.130426625877560D+03 0.861851886717849D+02 -.115650168119448D+03
 0.124801233744512D+03 0.126231381875377D+01 -.758093144363505D+02 0.388773842827140D+02
 0.200367405662340D+03 0.172127910498704D+03 -.792090852557502D+02 -.651536682939199D+02
0.100243152424D-04 0.000000000000D+00 0.000000000000D+00 0.673347591682D-06 0.000000000000D+00  7 1 -1 23 -13 13 23 21 0 0.22053144D+00 0.10502092D-01 0.83181112D+05 0.83181112D+05 0.83181112D+05 0.11283446D+01  1  2  2  2  7  2       -1 0.489674059734D-03 0.100000000000D+01
-.552439480952D-06 0.000000000000D+00 -.384960099936D-07 0.673347591682D-06 0.000000000000D+00  7 1 -1 23 -13 13 23 21 2 0.22053144D+00 0.10502092D-01 0.83181112D+05 0.83181112D+05 0.83181112D+05 0.11283446D+01  1  2  3  2  7  2       -1 -.343574258792D-04 0.100000000000D+01
0.638265343224D-06 0.000000000000D+00 0.000000000000D+00 0.673347591682D-06 0.000000000000D+00  7 1 -1 23 -13 13 23 21 2 0.22053144D+00 0.10502092D-01 0.83181112D+05 0.83181112D+05 0.83181112D+05 0.11283446D+01  1  2 15  2  7  2       -1 0.396951249453D-04 0.100000000000D+01
0.121834450230D-05 0.000000000000D+00 0.000000000000D+00 0.673347591682D-06 0.000000000000D+00  7 1 -1 23 -13 13 23 21 2 0.22053144D+00 0.16280429D-01 0.15595696D+06 0.15595696D+06 0.15595696D+06 0.11062197D+01  1  2 12  2  7  2       -1 0.362804979853D-04 0.100000000000D+01
-.410099130180D-05 0.000000000000D+00 0.000000000000D+00 0.673347591682D-06 0.000000000000D+00  7 1 -1 23 -13 13 23 21 2 0.22053144D+00 0.10502092D-01 0.83181112D+05 0.83181112D+05 0.83181112D+05 0.11283446D+01  1  2  4  2  7  2       -1 -.255049665241D-03 0.100000000000D+01
-.402746023274D-05 0.000000000000D+00 -.337299630653D-05 0.673347591682D-06 0.000000000000D+00  7 1 -1 23 -13 13 23 21 2 0.22053144D+00 0.19792700D-01 0.83181112D+05 0.83181112D+05 0.83181112D+05 0.11283446D+01  1  2  5  2  7  2       -1 -.929360727151D-04 0.100000000000D+01
0.558532311609D-05 0.000000000000D+00 0.279308497426D-05 0.673347591682D-06 0.000000000000D+00  7 1 -1 23 -13 13 23 21 2 0.22053144D+00 0.10502092D-01 0.83181112D+05 0.83181112D+05 0.83181112D+05 0.11283446D+01  1  2  6  2  7  2       -1 0.347363524131D-03 0.100000000000D+01
0.620743271087D-07 0.000000000000D+00 0.000000000000D+00 0.673347591682D-06 0.000000000000D+00  7 1 21 23 -13 13 23 1 2 0.22053144D+00 0.16280429D-01 0.15595696D+06 0.15595696D+06 0.15595696D+06 0.11062197D+01  1  2 12  4  7  2       -1 0.232372359946D-04 0.100000000000D+01
-.868258381937D-07 0.000000000000D+00 -.232513302013D-06 0.673347591682D-06 0.000000000000D+00  7 1 21 23 -13 13 23 1 2 0.22053144D+00 0.19792700D-01 0.83181112D+05 0.83181112D+05 0.83181112D+05 0.11283446D+01  1  2  5  4  7  2       -1 -.244247347331D-04 0.100000000000D+01
  </mgrwgt>
  </event>
  <event>
  8     66 0.25924217E-05 0.21801385E+03 0.75467711E-02 0.92633701E-01
        1 -1    0    0  501    0 0.00000000E+00 0.00000000E+00 0.34694575E+03 0.34694590E+03 0.32000000E+00 0.0000E+00 0.9000E+01
       -1 -1    0    0    0  501 0.00000000E+00 0.00000000E+00 -.17202464E+03 0.17202494E+03 0.32000000E+00 0.0000E+00 0.9000E+01
       25  2    1    2    0    0 -.74825866E+02 -.10894331E+03 0.96626496E+02 0.34032915E+03 0.29836169E+03 0.0000E+00 0.0000E+00
       23  2    3    3    0    0 -.58086300E+02 -.15849223E+03 -.83824231E+01 0.19174439E+03 0.90564011E+02 0.0000E+00 0.0000E+00
       23  1    1    2    0    0 0.74825866E+02 0.10894331E+03 0.78294611E+02 0.17864169E+03 0.91188000E+02 0.0000E+00 0.9000E+01
      -11  1    4    4    0    0 -.37580182E+02 -.69479585E+02 -.47723223E+02 0.92288617E+02 0.51099893E-03 0.0000E+00 0.9000E+01
       11  1    4    4    0    0 -.20506118E+02 -.89012643E+02 0.39340800E+02 0.99455770E+02 0.51099893E-03 0.0000E+00 0.9000E+01
       23  1    3    3    0    0 -.16739566E+02 0.49548915E+02 0.10500892E+03 0.14858477E+03 0.91188000E+02 0.0000E+00 0.9000E+01
#aMCatNLO 1  0  0  1  1 0.52679977D+03 0.00000000D+00  -5  7  0 0.00000000D+00 0.00000000D+00 0.00000000D+00 0.00000000D+00 0.00000000D+00
  <mgrwgt>
 0.2823244111D-03    5    2    0
 0.244301729967078D+03 0.000000000000000D+00 0.000000000000000D+00 0.244301729967078D+03
 0.244301729967078D+03 0.000000000000000D+00 0.000000000000000D+00 -.244301729967078D+03
 0.161714876084725D+03 0.748258662714077D+02 0.108943313353239D+03 0.192066138465202D+02
 0.115109500917077D+03 -.375801822013456D+02 -.694795849801036D+02 -.837288145030423D+02
 0.915529911260030D+02 -.205061181212748D+02 -.890126434481038D+02 0.618050241445173D+01
 0.120226091806350D+03 -.167395659487873D+02 0.495489150749684D+02 0.583416982420703D+02
 0.000000000000000D+00 0.000000000000000D+00 -.000000000000000D+00 0.000000000000000D+00
 0.248883907564538D+04 0.000000000000000D+00 0.000000000000000D+00 0.248883907564538D+04
 0.391832031647332D+03 0.000000000000000D+00 0.000000000000000D+00 -.391832031647332D+03
 0.330912684345485D+03 0.201989187253193D+02 0.316877047107570D+03 0.192066138465202D+02
 0.107114747572261D+03 -.622223933579741D+02 0.243193037357151D+02 -.837288145030423D+02
 0.474278024979183D+02 -.359175508811016D+02 -.303500803687566D+02 0.618050241445173D+01
 0.233051091487610D+03 -.559140980114590D+02 0.198664087820025D+03 0.583416982420703D+02
 0.216216478138944D+04 0.133855123525216D+03 -.509510358294554D+03 0.209700704399805D+04
0.262765346547D-05 0.000000000000D+00 0.000000000000D+00 0.161366512753D-07 0.000000000000D+00  7 1 -1 23 -11 11 23 21 0 0.53376304D-01 0.26465364D-01 0.47530038D+05 0.47530038D+05 0.47530038D+05 0.11492357D+01  1  2  2  1  7  1        1 0.279485760326D-03 0.100000000000D+01
-.143680320314D-06 0.000000000000D+00 -.100908811844D-07 0.161366512753D-07 0.000000000000D+00  7 1 -1 23 -11 11 23 21 2 0.53376304D-01 0.26465364D-01 0.47530038D+05 0.47530038D+05 0.47530038D+05 0.11492357D+01  1  2  3  1  7  1        1 -.201839936684D-04 0.100000000000D+01
0.171256783680D-06 0.000000000000D+00 0.000000000000D+00 0.161366512753D-07 0.000000000000D+00  7 1 -1 23 -11 11 23 21 2 0.53376304D-01 0.26465364D-01 0.47530038D+05 0.47530038D+05 0.47530038D+05 0.11492357D+01  1  2 15  1  7  1        1 0.240578934535D-04 0.100000000000D+01
-.356178687014D-05 0.000000000000D+00 -.211906951056D-05 0.161366512753D-07 0.000000000000D+00  7 1 -1 23 -11 11 23 21 2 0.59441975D+00 0.26465364D-01 0.47530038D+05 0.47530038D+05 0.47530038D+05 0.11492357D+01  1  2  5  1  7  1        1 -.996712264432D-06 0.100000000000D+01
-.138487046637D-05 0.000000000000D+00 -.600221889688D-06 0.161366512753D-07 0.000000000000D+00  7 21 -1 23 -11 11 23 -1 2 0.59441975D+00 0.26465364D-01 0.47530038D+05 0.47530038D+05 0.47530038D+05 0.11492357D+01  1  2  5  3  7  1        1 -.385367138653D-07 0.100000000000D+01
  </mgrwgt>
  </event>
  <event>
  8     66 0.25924217E-05 0.23721425E+03 0.75467711E-02 0.97540721E-01
        1 -1    0    0  501    0 0.00000000E+00 0.00000000E+00 0.14719505E+04 0.14719506E+04 0.32000000E+00 0.0000E+00 0.9000E+01
       -1 -1    0    0    0  501 0.00000000E+00 0.00000000E+00 -.64458027E+02 0.64458821E+02 0.32000000E+00 0.0000E+00 0.9000E+01
       25  2    1    2    0    0 -.15533151E+03 0.10262580E+03 0.11663571E+04 0.12184134E+04 0.29913597E+03 0.0000E+00 0.0000E+00
       23  2    3    3    0    0 -.11716836E+03 0.46857016E+02 0.25144774E+03 0.29649094E+03 0.93578345E+02 0.0000E+00 0.0000E+00
       23  1    1    2    0    0 0.15533151E+03 -.10262580E+03 0.24113539E+03 0.31799601E+03 0.91188000E+02 0.0000E+00 0.9000E+01
      -13  1    4    4    0    0 -.12272632E+03 0.17762647E+02 0.17479530E+03 0.21431441E+03 0.10565837E+00 0.0000E+00 0.9000E+01
       13  1    4    4    0    0 0.55579587E+01 0.29094369E+02 0.76652446E+02 0.82176529E+02 0.10565837E+00 0.0000E+00 0.9000E+01
       23  1    3    3    0    0 -.38163148E+02 0.55768782E+02 0.91490937E+03 0.92192244E+03 0.91188000E+02 0.0000E+00 0.9000E+01
#aMCatNLO 1  0  0  1  1 0.25622211D+03 0.00000000D+00  -5  7  0 0.00000000D+00 0.00000000D+00 0.00000000D+00 0.00000000D+00 0.00000000D+00
  <mgrwgt>
 0.6417280730D-03    6    2    0
 0.308025427866887D+03 0.000000000000000D+00 0.000000000000000D+00 0.308025427866887D+03
 0.308025427866887D+03 0.000000000000000D+00 0.000000000000000D+00 -.308025427866887D+03
 0.242148501351745D+03 0.155331505713445D+03 -.102625798058455D+03 -.125142775534809D+03
 0.135137685183751D+03 -.122726477917664D+03 0.177626333407553D+02 -.537112132757174D+02
 0.298172831034158D+02 0.555812070223952D+01 0.290943816925077D+02 0.341973973560217D+01
 0.208947386094862D+03 -.381631484980207D+02 0.557687830251915D+02 0.175434249074924D+03
 0.000000000000000D+00 -.000000000000000D+00 0.000000000000000D+00 0.000000000000000D+00
 0.502888141057903D+03 0.000000000000000D+00 0.000000000000000D+00 0.502888141057903D+03
 0.430557165802405D+03 0.000000000000000D+00 0.000000000000000D+00 -.430557165802405D+03
 0.331344713092199D+03 0.212073165590340D+03 -.202084946787456D+03 -.125142775534809D+03
 0.114649468224488D+03 -.980124318865350D+02 -.255571776277356D+02 -.537112132757174D+02
 0.229283963128422D+02 0.107768004111440D+02 0.199468621722282D+02 0.341973973560217D+01
 0.198286855324878D+03 0.212877865105379D+01 -.148565878855691D+02 0.175434249074924D+03
 0.266235873905901D+03 -.126966312766002D+03 0.222551850128532D+03 0.723309752554979D+02
0.878161630627D-05 0.000000000000D+00 0.000000000000D+00 0.417077734005D-07 0.000000000000D+00  7 1 -1 23 -13 13 23 21 0 0.22645399D+00 0.99166833D-02 0.56270601D+05 0.56270601D+05 0.56270601D+05 0.11428092D+01  1  2  2  1  7  1        1 0.444377337791D-03 0.100000000000D+01
-.447392129008D-06 0.000000000000D+00 -.337237188688D-07 0.417077734005D-07 0.000000000000D+00  7 1 -1 23 -13 13 23 21 2 0.22645399D+00 0.99166833D-02 0.56270601D+05 0.56270601D+05 0.56270601D+05 0.11428092D+01  1  2  3  1  7  1        1 -.295674078108D-04 0.100000000000D+01
0.580772907917D-06 0.000000000000D+00 0.000000000000D+00 0.417077734005D-07 0.000000000000D+00  7 1 -1 23 -13 13 23 21 2 0.22645399D+00 0.99166833D-02 0.56270601D+05 0.56270601D+05 0.56270601D+05 0.11428092D+01  1  2 15  1  7  1        1 0.383823234708D-04 0.100000000000D+01
-.179954937837D-05 0.000000000000D+00 -.241646891309D-05 0.417077734005D-07 0.000000000000D+00  7 1 -1 23 -13 13 23 21 2 0.42611262D+00 0.99166833D-02 0.56270601D+05 0.56270601D+05 0.56270601D+05 0.11428092D+01  1  2  5  1  7  1        1 -.164004647160D-04 0.100000000000D+01
0.310042208616D-05 0.000000000000D+00 0.200277908607D-05 0.417077734005D-07 0.000000000000D+00  7 1 -1 23 -13 13 23 21 2 0.22645399D+00 0.99166833D-02 0.56270601D+05 0.56270601D+05 0.56270601D+05 0.11428092D+01  1  2  6  1  7  1        1 0.204901781375D-03 0.100000000000D+01
0.126683709490D-07 0.000000000000D+00 -.166198222487D-06 0.417077734005D-07 0.000000000000D+00  7 21 -1 23 -13 13 23 -1 2 0.42611262D+00 0.99166833D-02 0.56270601D+05 0.56270601D+05 0.56270601D+05 0.11428092D+01  1  2  5  3  7  1        1 0.345028923625D-07 0.100000000000D+01
  </mgrwgt>
  </event>
  <event>
  9     66 0.25924217E-05 0.39691484E+03 0.75467711E-02 0.94326299E-01
        3 -1    0    0  501    0 0.00000000E+00 0.00000000E+00 0.72799544E+03 0.72799561E+03 0.50000000E+00 0.0000E+00 0.9000E+01
       -3 -1    0    0    0  502 0.00000000E+00 0.00000000E+00 -.39906180E+03 0.39906211E+03 0.50000000E+00 0.0000E+00 0.9000E+01
       25  2    1    2    0    0 -.16806946E+02 -.38951103E+03 0.93577516E+02 0.50313797E+03 0.30395681E+03 0.0000E+00 0.0000E+00
       23  2    3    3    0    0 -.23725593E+02 -.60670011E+01 -.12344554E+02 0.94956719E+02 0.90910275E+02 0.0000E+00 0.0000E+00
       23  1    1    2    0    0 0.19943813E+03 0.28714221E+03 0.10101885E+03 0.37516166E+03 0.91188000E+02 0.0000E+00 0.9000E+01
      -11  1    4    4    0    0 0.11471633E+02 0.16545202E+02 -.40018061E+02 0.44797179E+02 0.51099893E-03 0.0000E+00 0.9000E+01
       11  1    4    4    0    0 -.35197225E+02 -.22612203E+02 0.27673507E+02 0.50159539E+02 0.51099893E-03 0.0000E+00 0.9000E+01
       23  1    3    3    0    0 0.69186470E+01 -.38344403E+03 0.10592207E+03 0.40818125E+03 0.91188000E+02 0.0000E+00 0.9000E+01
       21  1    1    2  501  502 -.18263118E+03 0.10236882E+03 0.13433728E+03 0.24875810E+03 0.75000000E+00 0.0000E+00 0.9000E+01
#aMCatNLO 2  0  0  2  1 0.20936457D+03 0.00000000D+00  -5  7  0 0.00000000D+00 0.00000000D+00 0.00000000D+00 0.00000000D+00 0.00000000D+00
  <mgrwgt>
 0.3413582755D-05    1    2    0
 0.415243594454031D+03 0.000000000000000D+00 0.000000000000000D+00 0.415243594454031D+03
 0.415243594454031D+03 0.000000000000000D+00 0.000000000000000D+00 -.415243594454031D+03
 0.364626022261365D+03 0.120797902403543D+03 0.331221798766915D+03 0.183540612034087D+02
 0.562698025821827D+02 -.577897481907321D+00 0.232992306403301D+02 -.512162334490435D+02
 0.515158665839685D+02 -.456623697059259D+02 -.167462578769368D+02 0.169822068605856D+02
 0.358075497480547D+03 -.745576352157099D+02 -.337774771530308D+03 0.158799653850492D+02
 0.000000000000000D+00 -.000000000000000D+00 0.000000000000000D+00 0.000000000000000D+00
 0.581143392267147D+03 0.000000000000000D+00 0.000000000000000D+00 0.581143392267147D+03
 0.499902016038383D+03 0.000000000000000D+00 0.000000000000000D+00 -.499902016038383D+03
 0.361771113326092D+03 0.199438126698763D+03 0.287142210671698D+03 0.183540612034087D+02
 0.550313059477227D+02 0.114716326033398D+02 0.165452020543396D+02 -.512162334490435D+02
 0.451503239467880D+02 -.351972253204715D+02 -.226122031740415D+02 0.169822068605856D+02
 0.394518210876447D+03 0.691864701178211D+01 -.383444032933163D+03 0.158799653850492D+02
 0.224574454208481D+03 -.182631180993413D+03 0.102368823381167D+03 0.812413762287645D+02
0.402174497442D-05 0.000000000000D+00 0.000000000000D+00 0.217976689457D-07 0.338059195328D-11  7 3 -3 23 -11 11 23 21 2 0.11199920D+00 0.61394087D-01 0.26359818D+06 0.26359818D+06 0.26359818D+06 0.10887329D+01  1  2  1  2  7  2       -3 0.341358275463D-05 0.100000000000D+01
  </mgrwgt>
  </event>
  <event>
  9     66 0.25924217E-05 0.21551094E+03 0.75467711E-02 0.99535435E-01
        1 -1    0    0  501    0 0.00000000E+00 0.00000000E+00 0.29560610E+04 0.29560610E+04 0.32000000E+00 0.0000E+00 0.9000E+01
       21 -1    0    0  502  501 0.00000000E+00 0.00000000E+00 -.69636594E+02 0.69640633E+02 0.75000000E+00 0.0000E+00 0.9000E+01
       25  2    1    2    0    0 0.24553223E+02 -.94849511E+02 0.17156177E+04 0.17444265E+04 0.30013422E+03 0.0000E+00 0.0000E+00
       23  2    3    3    0    0 0.31532155E+02 -.47201026E+02 0.21841540E+03 0.24367704E+03 0.91929302E+02 0.0000E+00 0.0000E+00
       23  1    1    2    0    0 0.15694094E+03 0.19540913E+03 0.38374641E+03 0.46732402E+03 0.91188000E+02 0.0000E+00 0.9000E+01
      -13  1    4    4    0    0 0.10994392E+02 -.60222811E+02 0.68778238E+02 0.92076711E+02 0.10565837E+00 0.0000E+00 0.9000E+01
       13  1    4    4    0    0 0.20537763E+02 0.13021784E+02 0.14963716E+03 0.15160033E+03 0.10565837E+00 0.0000E+00 0.9000E+01
       23  1    3    3    0    0 -.69789329E+01 -.47648485E+02 0.14972023E+04 0.15007495E+04 0.91188000E+02 0.0000E+00 0.9000E+01
        1  1    1    2  502    0 -.18149416E+03 -.10055962E+03 0.78706025E+03 0.81395105E+03 0.32000000E+00 0.0000E+00 0.9000E+01
#aMCatNLO 2  0  0  2  1 0.20749064D+03 0.00000000D+00  -5  7  0 0.00000000D+00 0.00000000D+00 0.00000000D+00 0.00000000D+00 0.00000000D+00
  <mgrwgt>
 0.4394854118D-04    1    2    0
 0.332211717788483D+03 0.000000000000000D+00 0.000000000000000D+00 0.332211717788483D+03
 0.332211717788483D+03 0.000000000000000D+00 0.000000000000000D+00 -.332211717788483D+03
 0.270680699728136D+03 0.771380881187259D+02 0.151193137746570D+03 -.190113493264017D+03
 0.953018467693740D+02 -.130765879584533D+02 -.735597949776955D+02 -.591641902493178D+02
 0.242649478527835D+02 0.132455385479130D+02 0.898150535097621D+01 0.182394069120803D+02
 0.274175941226672D+03 -.773070387081856D+02 -.866148481198501D+02 0.231038276601255D+03
 0.000000000000000D+00 -.000000000000000D+00 -.000000000000000D+00 0.000000000000000D+00
 0.477282766001447D+03 0.000000000000000D+00 0.000000000000000D+00 0.477282766001447D+03
 0.431308352940949D+03 0.000000000000000D+00 0.000000000000000D+00 -.431308352940949D+03
 0.327526451147018D+03 0.156940936602688D+03 0.195409127100510D+03 -.190113493264017D+03
 0.851356348410965D+02 0.109943797401480D+02 -.602229069878603D+02 -.591641902493178D+02
 0.303981179209452D+02 0.205377756086500D+02 0.130218808810397D+02 0.182394069120803D+02
 0.253007944974546D+03 -.697893291380583D+01 -.476484849365606D+02 0.231038276601255D+03
 0.212522970058790D+03 -.181494159037680D+03 -.100559616057129D+03 0.459744130604973D+02
0.576476350275D-06 0.000000000000D+00 0.000000000000D+00 0.733007315974D-06 0.715333072268D-11  7 1 21 23 -13 13 23 1 2 0.45477880D+00 0.10713631D-01 0.10984346D+06 0.10984346D+06 0.10984346D+06 0.11183913D+01  1  2  1  4  7  2       -1 0.439485411779D-04 0.100000000000D+01
  </mgrwgt>
  </event>
  <event>
  8     66 0.25924217E-05 0.29889505E+03 0.75467711E-02 0.96489628E-01
        1 -1    0    0  501    0 0.00000000E+00 0.00000000E+00 0.53818627E+03 0.53818636E+03 0.32000000E+00 0.0000E+00 0.9000E+01
       -1 -1    0    0    0  501 0.00000000E+00 0.00000000E+00 -.34536393E+03 0.34536408E+03 0.32000000E+00 0.0000E+00 0.9000E+01
       25  2    1    2    0    0 -.65345647E+02 -.24121920E+03 0.39019360E+03 0.55229914E+03 0.30054373E+03 0.0000E+00 0.0000E+00
       23  2    3    3    0    0 -.54408791E+02 -.20659275E+03 0.11911324E+03 0.26399649E+03 0.99324215E+02 0.0000E+00 0.0000E+00
       23  1    1    2    0    0 0.65345647E+02 0.24121920E+03 -.19737126E+03 0.33125130E+03 0.91188000E+02 0.0000E+00 0.9000E+01
      -13  1    4    4    0    0 0.19978775E+02 -.10943077E+03 0.73866794E+02 0.13353112E+03 0.10565837E+00 0.0000E+00 0.9000E+01
       13  1    4    4    0    0 -.74387566E+02 -.97161980E+02 0.45246448E+02 0.13046537E+03 0.10565837E+00 0.0000E+00 0.9000E+01
       23  1    3    3    0    0 -.10936856E+02 -.34626451E+02 0.27108036E+03 0.28830265E+03 0.91188000E+02 0.0000E+00 0.9000E+01
#aMCatNLO 1  0  0  2  1 0.21399012D+03 0.00000000D+00  -5  7  0 0.00000000D+00 0.00000000D+00 0.00000000D+00 0.00000000D+00 0.00000000D+00
  <mgrwgt>
 0.3195312406D-03    4    2    0
 0.431126700179765D+03 0.000000000000000D+00 0.000000000000000D+00 0.431126700179765D+03
 0.431126700179765D+03 0.000000000000000D+00 0.000000000000000D+00 -.431126700179765D+03
 0.383570330033761D+03 0.653456468237892D+02 0.241219202599608D+03 -.276322618467251D+03
 0.120310691403759D+03 0.199788744972288D+02 -.109430783997856D+03 0.458302362364513D+02
 0.123569485216733D+03 -.743876651114778D+02 -.971619681746230D+02 0.171885105935460D+02
 0.234802893705279D+03 -.109368562095402D+02 -.346264504271284D+02 0.213303871637254D+03
 0.000000000000000D+00 -.000000000000000D+00 0.000000000000000D+00 0.000000000000000D+00
 0.687603345601350D+03 0.000000000000000D+00 0.000000000000000D+00 0.687603345601350D+03
 0.491238896470561D+03 0.000000000000000D+00 0.000000000000000D+00 -.491238896470561D+03
 0.390028566201208D+03 0.154233289489462D+03 0.208961561167675D+03 -.276322618467251D+03
 0.137885751188004D+03 0.496460227291382D+02 -.120197097528888D+03 0.458302362364513D+02
 0.118190080123372D+03 -.466091380743446D+02 -.107242894361871D+03 0.171885105935460D+02
 0.242305809760296D+03 0.438836304182602D+02 -.545209998575251D+02 0.213303871637254D+03
 0.290432034799031D+03 -.201153804562515D+03 0.729994305806091D+02 0.196364449130788D+03
0.202957873239D-04 0.000000000000D+00 0.000000000000D+00 0.170136719901D-07 0.000000000000D+00  7 1 -1 23 -13 13 23 21 0 0.82797906D-01 0.53132931D-01 0.89338252D+05 0.89338252D+05 0.89338252D+05 0.11257623D+01  1  2  2  2  7  2       -1 0.360244055175D-03 0.100000000000D+01
-.943588882719D-06 0.000000000000D+00 -.779411673272D-07 0.170136719901D-07 0.000000000000D+00  7 1 -1 23 -13 13 23 21 2 0.82797906D-01 0.53132931D-01 0.89338252D+05 0.89338252D+05 0.89338252D+05 0.11257623D+01  1  2  3  2  7  2       -1 -.212259487568D-04 0.100000000000D+01
0.127716633022D-05 0.000000000000D+00 0.000000000000D+00 0.170136719901D-07 0.000000000000D+00  7 1 -1 23 -13 13 23 21 2 0.82797906D-01 0.53132931D-01 0.89338252D+05 0.89338252D+05 0.89338252D+05 0.11257623D+01  1  2 15  2  7  2       -1 0.287297440396D-04 0.100000000000D+01
-.214344515537D-05 0.000000000000D+00 0.000000000000D+00 0.170136719901D-07 0.000000000000D+00  7 1 -1 23 -13 13 23 21 2 0.82797906D-01 0.53132931D-01 0.89338252D+05 0.89338252D+05 0.89338252D+05 0.11257623D+01  1  2  4  2  7  2       -1 -.482166098649D-04 0.100000000000D+01
  </mgrwgt>
  </event>
  <event>
  8     66 0.25924217E-05 0.22275314E+03 0.75467711E-02 0.98113629E-01
        1 -1    0    0  501    0 0.00000000E+00 0.00000000E+00 0.14177863E+03 0.14177899E+03 0.32000000E+00 0.0000E+00 0.9000E+01
       -1 -1    0    0    0  501 0.00000000E+00 0.00000000E+00 -.74029646E+03 0.74029652E+03 0.32000000E+00 0.0000E+00 0.9000E+01
       25  2    1    2    0    0 0.12112862E+03 -.79190307E+02 -.89074259E+02 0.34468251E+03 0.29988091E+03 0.0000E+00 0.0000E+00
       23  2    3    3    0    0 -.13497124E+02 0.19438549E+02 -.11933584E+03 0.15211367E+03 0.91309889E+02 0.0000E+00 0.0000E+00
       23  1    1    2    0    0 -.12112862E+03 0.79190307E+02 -.50944357E+03 0.53739301E+03 0.91188000E+02 0.0000E+00 0.9000E+01
      -13  1    4    4    0    0 0.31515072E+02 0.23164452E+02 -.90333567E+02 0.98437574E+02 0.10565837E+00 0.0000E+00 0.9000E+01
       13  1    4    4    0    0 -.45012196E+02 -.37259030E+01 -.29002278E+02 0.53676097E+02 0.10565837E+00 0.0000E+00 0.9000E+01
       23  1    3    3    0    0 0.13462574E+03 -.98628856E+02 0.30261586E+02 0.19256884E+03 0.91188000E+02 0.0000E+00 0.9000E+01
#aMCatNLO 1  0  0  2  1 0.24058899D+03 0.00000000D+00  -5  7  0 0.00000000D+00 0.00000000D+00 0.00000000D+00 0.00000000D+00 0.00000000D+00
  <mgrwgt>
 0.4020970194D-03    3    2    0
 0.323972850237616D+03 0.000000000000000D+00 0.000000000000000D+00 0.323972850237616D+03
 0.323972850237616D+03 0.000000000000000D+00 0.000000000000000D+00 -.323972850237616D+03
 0.260994340560204D+03 -.121128619924649D+03 0.791903070805765D+02 -.197128250537789D+03
 0.505646197002719D+02 0.315151742440461D+02 0.231644879152973D+02 -.320465451714002D+02
 0.462816359829428D+02 -.450122980734132D+02 -.372593890963967D+01 0.100995163572055D+02
 0.290105104231813D+03 0.134625743754017D+03 -.986288560862341D+02 0.219075279351984D+03
 0.000000000000000D+00 0.000000000000000D+00 0.000000000000000D+00 0.000000000000000D+00
 0.554653908918743D+03 0.000000000000000D+00 0.000000000000000D+00 0.554653908918743D+03
 0.414800643425797D+03 0.000000000000000D+00 0.000000000000000D+00 -.414800643425797D+03
 0.280516753388134D+03 -.177524204063220D+03 -.860177293727418D-01 -.197128250537789D+03
 0.401458583751068D+02 0.220681463701572D+02 0.988462457743630D+01 -.320465451714002D+02
 0.601847638607296D+02 -.561002238378434D+02 -.193124430268723D+02 0.100995163572055D+02
 0.310323149449071D+03 0.720942416702090D+02 -.186530555231141D+03 0.219075279351984D+03
 0.278284027271500D+03 0.139462039860697D+03 0.196044391409950D+03 0.139853265492946D+03
0.177098276279D-04 0.000000000000D+00 0.000000000000D+00 0.694344330811D-06 0.000000000000D+00  7 1 -1 23 -13 13 23 21 0 0.21812130D-01 0.11389180D+00 0.49618960D+05 0.49618960D+05 0.49618960D+05 0.11475877D+01  1  2  2  2  7  2       -1 0.393895425734D-03 0.100000000000D+01
-.816018777549D-06 0.000000000000D+00 -.680104011957D-07 0.694344330811D-06 0.000000000000D+00  7 1 -1 23 -13 13 23 21 2 0.21812130D-01 0.11389180D+00 0.49618960D+05 0.49618960D+05 0.49618960D+05 0.11475877D+01  1  2  3  2  7  2       -1 -.239022371859D-04 0.100000000000D+01
0.109601995158D-05 0.000000000000D+00 0.000000000000D+00 0.694344330811D-06 0.000000000000D+00  7 1 -1 23 -13 13 23 21 2 0.21812130D-01 0.11389180D+00 0.49618960D+05 0.49618960D+05 0.49618960D+05 0.11475877D+01  1  2 15  2  7  2       -1 0.321038308967D-04 0.100000000000D+01
  </mgrwgt>
  </event>
  <event>
  9     66 0.25924217E-05 0.15793310E+03 0.75467711E-02 0.10128046E+00
        1 -1    0    0  502    0 0.00000000E+00 0.00000000E+00 0.68403590E+03 0.68403598E+03 0.32000000E+00 0.0000E+00 0.9000E+01
       -1 -1    0    0    0  501 0.00000000E+00 0.00000000E+00 -.43739176E+03 0.43739188E+03 0.32000000E+00 0.0000E+00 0.9000E+01
       25  2    1    2    0    0 0.55858698E+02 -.67187102E+02 -.14347570E+03 0.34459729E+03 0.30087824E+03 0.0000E+00 0.0000E+00
       23  2    3    3    0    0 0.10656899E+03 -.12725042E+02 -.17420894E+03 0.22295258E+03 0.88545034E+02 0.0000E+00 0.0000E+00
       23  1    1    2    0    0 0.10788619E+03 -.47810288E+02 0.51821535E+03 0.53924730E+03 0.91188000E+02 0.0000E+00 0.9000E+01
      -13  1    4    4    0    0 0.75793891E+02 -.22630219E+02 -.47681598E+02 0.92360093E+02 0.10565837E+00 0.0000E+00 0.9000E+01
       13  1    4    4    0    0 0.30775102E+02 0.99051777E+01 -.12652734E+03 0.13059249E+03 0.10565837E+00 0.0000E+00 0.9000E+01
       23  1    3    3    0    0 -.50710296E+02 -.54462060E+02 0.30733243E+02 0.12164470E+03 0.91188000E+02 0.0000E+00 0.9000E+01
       21  1    1    2  502  501 -.16374489E+03 0.11499739E+03 -.12809551E+03 0.23758327E+03 0.75000000E+00 0.0000E+00 0.9000E+01
#aMCatNLO 2  0  0  1  1 0.20009195D+03 0.00000000D+00  -5  7  0 0.00000000D+00 0.00000000D+00 0.00000000D+00 0.00000000D+00 0.00000000D+00
  <mgrwgt>
 0.1303674858D-04    1    2    0
 0.387528921479592D+03 0.000000000000000D+00 0.000000000000000D+00 0.387528921479592D+03
 0.387528921479592D+03 0.000000000000000D+00 0.000000000000000D+00 -.387528921479592D+03
 0.334492582153690D+03 0.364545161702419D+02 0.235589399004623D+01 0.319742950174268D+03
 0.109007049600916D+03 0.515460841644398D+02 -.560108102004105D+01 -.958862136149714D+02
 0.205066227798844D+03 -.116799107511713D+02 0.397211677550834D+02 -.200843138545146D+03
 0.126491983405734D+03 -.763206895835104D+02 -.364759807250885D+02 -.230135980141509D+02
 0.000000000000000D+00 -.000000000000000D+00 0.000000000000000D+00 -.000000000000000D+00
 0.435051886825020D+03 0.000000000000000D+00 0.000000000000000D+00 0.435051886825020D+03
 0.687713858220113D+03 0.000000000000000D+00 0.000000000000000D+00 -.687713858220113D+03
 0.352811647459825D+03 0.107886187294960D+03 -.478102880573623D+02 0.319742950174268D+03
 0.124302125974210D+03 0.757939551682790D+02 -.226302655804418D+02 -.958862136149714D+02
 0.203428569127696D+03 0.307750382117114D+02 0.990522386141723D+01 -.200843138545146D+03
 0.119927174041569D+03 -.507102954447984D+02 -.544620599311219D+02 -.230135980141509D+02
 0.322296228441834D+03 -.163744885230152D+03 0.114997389707509D+03 -.252661971395093D+03
0.126232551381D-05 0.000000000000D+00 0.000000000000D+00 0.675376179291D-07 0.132486516392D-10  7 1 -1 23 -13 13 23 21 2 0.10523621D+00 0.67290992D-01 0.83623013D+05 0.83623013D+05 0.83623013D+05 0.11281524D+01  1  2  1  1  7  1        1 0.130367485781D-04 0.100000000000D+01
  </mgrwgt>
  </event>
  <event>
  8     66 0.25924217E-05 0.28249728E+03 0.75467711E-02 0.91322695E-01
        1 -1    0    0  501    0 0.00000000E+00 0.00000000E+00 0.96671302E+02 0.96671832E+02 0.32000000E+00 0.0000E+00 0.9000E+01
       -1 -1    0    0    0  501 0.00000000E+00 0.00000000E+00 -.21443637E+04 0.21443637E+04 0.32000000E+00 0.0000E+00 0.9000E+01
       25  2    1    2    0    0 0.13261771E+03 -.21118894E+03 -.18954973E+04 0.19349852E+04 0.29844531E+03 0.0000E+00 0.0000E+00
       23  2    3    3    0    0 0.70125781E+02 -.14856086E+03 -.16287741E+04 0.16395465E+04 0.90662850E+02 0.0000E+00 0.0000E+00
       23  1    1    2    0    0 -.13261771E+03 0.21118894E+03 -.15219516E+03 0.30605039E+03 0.91188000E+02 0.0000E+00 0.9000E+01
      -11  1    4    4    0    0 0.10110891E+00 -.57709811E+02 -.89523535E+03 0.89709351E+03 0.51099893E-03 0.0000E+00 0.9000E+01
       11  1    4    4    0    0 0.70024672E+02 -.90851054E+02 -.73353873E+03 0.74245299E+03 0.51099893E-03 0.0000E+00 0.9000E+01
       23  1    3    3    0    0 0.62491925E+02 -.62628071E+02 -.26672318E+03 0.29543869E+03 0.91188000E+02 0.0000E+00 0.9000E+01
#aMCatNLO 1  0  0  1  2 0.59853170D+03 0.00000000D+00  -5  7  0 0.00000000D+00 0.00000000D+00 0.00000000D+00 0.00000000D+00 0.00000000D+00
  <mgrwgt>
 0.2213286851D-03    5    2    0
 0.455301058811905D+03 0.000000000000000D+00 0.000000000000000D+00 0.455301058811905D+03
 0.455301058811905D+03 0.000000000000000D+00 0.000000000000000D+00 -.455301058811905D+03
 0.410959876273199D+03 -.132617705964235D+03 0.211188935115690D+03 0.313663109580913D+03
 0.194653435731785D+03 0.101108908329870D+00 -.577098105704019D+02 -.185901930014470D+03
 0.177686673670351D+03 0.700246724325276D+02 -.908510536916506D+02 -.135702561854476D+03
 0.127302131948475D+03 0.624919246233779D+02 -.626280708536377D+02 0.794138228803335D+01
 0.000000000000000D+00 -.000000000000000D+00 0.000000000000000D+00 0.000000000000000D+00
 0.126611956632737D+04 0.000000000000000D+00 0.000000000000000D+00 0.126611956632737D+04
 0.669017409947141D+03 0.000000000000000D+00 0.000000000000000D+00 -.669017409947141D+03
 0.332012515904532D+03 0.246664015452492D+02 0.540747787429412D+02 0.313663109580913D+03
 0.259791704127113D+03 0.963052195687851D+02 -.153809969228177D+03 -.185901930014470D+03
 0.287399251729172D+03 0.168481392307777D+03 -.189201387538921D+03 -.135702561854476D+03
 0.210492089876168D+03 0.134001530176582D+03 -.134060407705358D+03 0.794138228803335D+01
 0.845441414637521D+03 -.423454543598393D+03 0.422996985729515D+03 0.597102156380225D+03
0.334588243009D-03 0.000000000000D+00 0.000000000000D+00 0.152615689575D-06 0.000000000000D+00  7 1 -1 23 -11 11 23 21 0 0.14872551D-01 0.32990215D+00 0.79804715D+05 0.79804715D+05 0.79804715D+05 0.11298515D+01  1  2  2  1  7  1        1 0.189603207079D-03 0.100000000000D+01
-.134396941212D-04 0.000000000000D+00 -.128490695226D-05 0.152615689575D-06 0.000000000000D+00  7 1 -1 23 -11 11 23 21 2 0.14872551D-01 0.32990215D+00 0.79804715D+05 0.79804715D+05 0.79804715D+05 0.11298515D+01  1  2  3  1  7  1        1 -.972225764199D-05 0.100000000000D+01
0.205369391939D-04 0.000000000000D+00 0.000000000000D+00 0.152615689575D-06 0.000000000000D+00  7 1 -1 23 -11 11 23 21 2 0.14872551D-01 0.32990215D+00 0.79804715D+05 0.79804715D+05 0.79804715D+05 0.11298515D+01  1  2 15  1  7  1        1 0.148563957052D-04 0.100000000000D+01
0.159075728478D-03 0.000000000000D+00 -.136956702027D-03 0.152615689575D-06 0.000000000000D+00  7 1 -1 23 -11 11 23 21 2 0.65929147D-01 0.32990215D+00 0.79804715D+05 0.79804715D+05 0.79804715D+05 0.11298515D+01  1  2  5  1  7  1        1 0.164626760605D-04 0.100000000000D+01
0.277716940115D-04 0.000000000000D+00 -.246236368560D-04 0.152615689575D-06 0.000000000000D+00  7 21 -1 23 -11 11 23 -1 2 0.65929147D-01 0.32990215D+00 0.79804715D+05 0.79804715D+05 0.79804715D+05 0.11298515D+01  1  2  5  3  7  1        1 0.101286639188D-04 0.100000000000D+01
  </mgrwgt>
  </event>
  <event>
  9     66 -.25924217E-05 0.26777825E+03 0.75467711E-02 0.10215456E+00
        1 -1    0    0  501    0 0.00000000E+00 0.00000000E+00 0.63360924E+03 0.63360932E+03 0.32000000E+00 0.0000E+00 0.9000E+01
       -1 -1    0    0    0  502 0.00000000E+00 0.00000000E+00 -.13755882E+03 0.13755920E+03 0.32000000E+00 0.0000E+00 0.9000E+01
       25  2    1    2    0    0 0.19337530E+03 0.21399030E+02 0.34413744E+03 0.49637562E+03 0.30017705E+03 0.0000E+00 0.0000E+00
       23  2    3    3    0    0 0.15593639E+03 0.94101799E+02 0.30625310E+03 0.36816549E+03 0.92647500E+02 0.0000E+00 0.0000E+00
       23  1    1    2    0    0 -.19793390E+03 -.18051546E+02 0.15525148E+03 0.26818270E+03 0.91188000E+02 0.0000E+00 0.9000E+01
      -13  1    4    4    0    0 0.85426478E+02 0.89392611E+02 0.24588513E+03 0.27522397E+03 0.10565837E+00 0.0000E+00 0.9000E+01
       13  1    4    4    0    0 0.70509909E+02 0.47091884E+01 0.60367970E+02 0.92941523E+02 0.10565837E+00 0.0000E+00 0.9000E+01
       23  1    3    3    0    0 0.37438909E+02 -.72702770E+02 0.37884334E+02 0.12821013E+03 0.91188000E+02 0.0000E+00 0.9000E+01
       21  1    1    2  501  502 0.45586071E+01 -.33474835E+01 -.33384984E+01 0.66101903E+01 0.75000000E+00 0.0000E+00 0.9000E+01
#aMCatNLO 2  0  0  2  1 0.56556648D+01 0.00000000D+00  -5  7  0 0.00000000D+00 0.00000000D+00 0.00000000D+00 0.00000000D+00 0.00000000D+00
  <mgrwgt>
 -.1323884277D-03    3    2    0
 0.289451273397153D+03 0.000000000000000D+00 0.000000000000000D+00 0.289451273397153D+03
 0.289451273397153D+03 0.000000000000000D+00 0.000000000000000D+00 -.289451273397153D+03
 0.218808113949262D+03 -.196205241451742D+03 -.193209404119359D+02 -.263048260685283D+02
 0.151532778080031D+03 0.866190833054532D+02 0.885169798083311D+02 0.873158721286486D+02
 0.711997599547389D+02 0.710684507482333D+02 0.429891543458521D+01 -.447718599862746D+00
 0.137361894810273D+03 0.385177073980553D+02 -.734949548309804D+02 -.605633274602576D+02
 0.000000000000000D+00 0.000000000000000D+00 -.000000000000000D+00 -.000000000000000D+00
 0.290202259965235D+03 0.000000000000000D+00 0.000000000000000D+00 0.290202259965235D+03
 0.300312785893904D+03 0.000000000000000D+00 0.000000000000000D+00 -.300312785893904D+03
 0.220251864586600D+03 -.197933903894314D+03 -.180515463197813D+02 -.263048260685283D+02
 0.151369767975159D+03 0.854264985090180D+02 0.893927205300049D+02 0.873158721286486D+02
 0.706683827523031D+02 0.705098889523873D+02 0.470907940083375D+01 -.447718599862746D+00
 0.136640157702645D+03 0.374389093282649D+02 -.727027701553058D+02 -.605633274602576D+02
 0.115848728424321D+02 0.455860710464351D+01 -.334748345575152D+01 -.101105259286689D+02
-.100764823063D-04 0.000000000000D+00 0.000000000000D+00 0.169493865381D-06 0.000000000000D+00  7 1 -1 23 -13 13 23 21 2 0.97222071D-01 0.21187952D-01 0.73205658D+05 0.73205658D+05 0.73205658D+05 0.11330102D+01  1  2 13  2  7  2       -1 -.869727819458D-03 0.100000000000D+01
-.257903391044D-04 0.000000000000D+00 0.000000000000D+00 0.169493865381D-06 0.000000000000D+00  7 1 -1 23 -13 13 23 21 2 0.97222071D-01 0.20396674D-01 0.71705194D+05 0.71705194D+05 0.71705194D+05 0.11337721D+01  1  2  8  2  7  2       -1 -.236953712180D-02 0.100000000000D+01
0.360601714194D-04 0.000000000000D+00 0.000000000000D+00 0.169493865381D-06 0.363029100887D-07  7 1 -1 23 -13 13 23 21 2 0.97474316D-01 0.21162048D-01 0.73205658D+05 0.73205658D+05 0.73205658D+05 0.11330102D+01  1  2  1  2  7  2       -1 0.310687651354D-02 0.100000000000D+01
  </mgrwgt>
  </event>
  <event>
  8     66 0.25924217E-05 0.56523398E+03 0.75467711E-02 0.91038493E-01
        1 -1    0    0  501    0 0.00000000E+00 0.00000000E+00 0.27753036E+04 0.27753036E+04 0.32000000E+00 0.0000E+00 0.9000E+01
       -1 -1    0    0    0  501 0.00000000E+00 0.00000000E+00 -.18366159E+03 0.18366187E+03 0.32000000E+00 0.0000E+00 0.9000E+01
       25  2    1    2    0    0 0.66482565E+03 -.29064847E+02 0.16270418E+04 0.17835478E+04 0.30156241E+03 0.0000E+00 0.0000E+00
       23  2    3    3    0    0 0.40660436E+03 0.77138223E+02 0.11199760E+04 0.11975544E+04 0.92265057E+02 0.0000E+00 0.0000E+00
       23  1    1    2    0    0 -.66482565E+03 0.29064847E+02 0.96460023E+03 0.11754177E+04 0.91188000E+02 0.0000E+00 0.9000E+01
      -13  1    4    4    0    0 0.53608309E+02 -.78989390E+01 0.23131977E+03 0.23758176E+03 0.10565837E+00 0.0000E+00 0.9000E+01
       13  1    4    4    0    0 0.35299605E+03 0.85037162E+02 0.88865627E+03 0.95997266E+03 0.10565837E+00 0.0000E+00 0.9000E+01
       23  1    3    3    0    0 0.25822129E+03 -.10620307E+03 0.50706573E+03 0.58599337E+03 0.91188000E+02 0.0000E+00 0.9000E+01
#aMCatNLO 1  0  0  1  2 0.68133406D+01 0.00000000D+00  -5  7  0 0.00000000D+00 0.00000000D+00 0.00000000D+00 0.00000000D+00 0.00000000D+00
  <mgrwgt>
 0.8550433268D-03   11    2    0
 0.713944760036763D+03 0.000000000000000D+00 0.000000000000000D+00 0.713944760036763D+03
 0.713944760036763D+03 0.000000000000000D+00 0.000000000000000D+00 -.713944760036763D+03
 0.685012327116437D+03 -.664825646307361D+03 0.290648472891230D+02 -.134494355351946D+03
 0.724829313778380D+02 0.536079160570062D+02 -.789906088077628D+01 0.481411623701707D+02
 0.376393001594680D+03 0.352996442380812D+03 0.850372837616639D+02 0.991658393116341D+02
 0.294001259984572D+03 0.258221287869543D+03 -.106203070170011D+03 -.128126463298587D+02
 0.000000000000000D+00 -.000000000000000D+00 0.000000000000000D+00 0.000000000000000D+00
 0.727963498396132D+03 0.000000000000000D+00 0.000000000000000D+00 0.727963498396132D+03
 0.714781217170008D+03 0.000000000000000D+00 0.000000000000000D+00 -.714781217170008D+03
 0.682032030458011D+03 -.661807588118958D+03 0.278284730682124D+02 -.134494355351946D+03
 0.727347490908745D+02 0.539285167801730D+02 -.803039780159904D+01 0.481411623701707D+02
 0.377802114880823D+03 0.354661497895887D+03 0.843551790483966D+02 0.991658393116341D+02
 0.295336880873968D+03 0.259522384495926D+03 -.106736075906598D+03 -.128126463298587D+02
 0.148389402624636D+02 -.630481105302804D+01 0.258282159158834D+01 0.131822812261233D+02
0.104308296570D-03 0.000000000000D+00 0.000000000000D+00 0.234511132258D-06 0.000000000000D+00  7 1 -1 23 -13 13 23 21 0 0.42696981D+00 0.28255653D-01 0.47795296D+06 0.47795296D+06 0.47795296D+06 0.10698973D+01  1  2  2  1  7  1        1 0.120895954848D-03 0.100000000000D+01
-.578761282981D-05 0.000000000000D+00 -.400571323832D-06 0.234511132258D-06 0.000000000000D+00  7 1 -1 23 -13 13 23 21 2 0.42696981D+00 0.28255653D-01 0.47795296D+06 0.47795296D+06 0.47795296D+06 0.10698973D+01  1  2  3  1  7  1        1 -.767850329670D-05 0.100000000000D+01
0.629826620529D-05 0.000000000000D+00 0.000000000000D+00 0.234511132258D-06 0.000000000000D+00  7 1 -1 23 -13 13 23 21 2 0.42696981D+00 0.28255653D-01 0.47795296D+06 0.47795296D+06 0.47795296D+06 0.10698973D+01  1  2 15  1  7  1        1 0.835599395517D-05 0.100000000000D+01
0.221114533962D-03 0.000000000000D+00 0.000000000000D+00 0.234511132258D-06 0.000000000000D+00  7 1 -1 23 -13 13 23 21 2 0.43560107D+00 0.28255653D-01 0.48274026D+06 0.48274026D+06 0.48274026D+06 0.10695903D+01  1  2 12  1  7  1        1 0.266792705566D-03 0.100000000000D+01
-.460886114401D-03 0.000000000000D+00 0.000000000000D+00 0.234511132258D-06 0.000000000000D+00  7 1 -1 23 -13 13 23 21 2 0.42696981D+00 0.28255653D-01 0.47795296D+06 0.47795296D+06 0.47795296D+06 0.10698973D+01  1  2  4  1  7  1        1 -.611463768033D-03 0.100000000000D+01
-.670060574577D-02 0.000000000000D+00 -.421628057392D-03 0.234511132258D-06 0.000000000000D+00  7 1 -1 23 -13 13 23 21 2 0.43550035D+00 0.28255653D-01 0.47795296D+06 0.47795296D+06 0.47795296D+06 0.10698973D+01  1  2  5  1  7  1        1 -.810339248180D-02 0.100000000000D+01
0.670771646197D-02 0.000000000000D+00 0.421545571099D-03 0.234511132258D-06 0.000000000000D+00  7 1 -1 23 -13 13 23 21 2 0.42696981D+00 0.28255653D-01 0.47795296D+06 0.47795296D+06 0.47795296D+06 0.10698973D+01  1  2  6  1  7  1        1 0.889921708330D-02 0.100000000000D+01
0.236383912778D-03 0.000000000000D+00 0.000000000000D+00 0.234511132258D-06 0.308286134437D-07  7 1 -1 23 -13 13 23 21 2 0.43535362D+00 0.28288757D-01 0.48274026D+06 0.48274026D+06 0.48274026D+06 0.10695903D+01  1  2 11  1  7  1        1 0.285422678001D-03 0.100000000000D+01
0.130597819652D-04 0.000000000000D+00 0.000000000000D+00 0.234511132258D-06 0.000000000000D+00  7 21 -1 23 -13 13 23 -1 2 0.43560107D+00 0.28255653D-01 0.48274026D+06 0.48274026D+06 0.48274026D+06 0.10695903D+01  1  2 12  3  7  1        1 0.396194824084D-05 0.100000000000D+01
-.240720324200D-04 0.000000000000D+00 -.151850330695D-05 0.234511132258D-06 0.000000000000D+00  7 21 -1 23 -13 13 23 -1 2 0.43550035D+00 0.28255653D-01 0.47795296D+06 0.47795296D+06 0.47795296D+06 0.10698973D+01  1  2  5  3  7  1        1 -.732718606742D-05 0.100000000000D+01
0.851609576546D-06 0.000000000000D+00 0.000000000000D+00 0.234511132258D-06 0.109447767112D-09  7 21 -1 23 -13 13 23 -1 2 0.43535362D+00 0.28288757D-01 0.48274026D+06 0.48274026D+06 0.48274026D+06 0.10695903D+01  1  2 11  3  7  1        1 0.258902136231D-06 0.100000000000D+01
  </mgrwgt>
  </event>
  <event>
  8     66 0.25924217E-05 0.37885044E+03 0.75467711E-02 0.97210575E-01
        3 -1    0    0  501    0 0.00000000E+00 0.00000000E+00 0.46333980E+03 0.46334007E+03 0.50000000E+00 0.0000E+00 0.9000E+01
       -3 -1    0    0    0  501 0.00000000E+00 0.00000000E+00 -.37297005E+03 0.37297039E+03 0.50000000E+00 0.0000E+00 0.9000E+01
       25  2    1    2    0    0 0.22789886E+03 0.25323079E+03 0.15352460E+03 0.47802633E+03 0.29812019E+03 0.0000E+00 0.0000E+00
       23  2    3    3    0    0 0.21210991E+03 0.17246139E+03 0.73997014E+01 0.28713180E+03 0.87500675E+02 0.0000E+00 0.0000E+00
       23  1    1    2    0    0 -.22789886E+03 -.25323079E+03 -.63154857E+02 0.35828412E+03 0.91188000E+02 0.0000E+00 0.9000E+01
      -11  1    4    4    0    0 0.78074294E+01 0.35216144E+02 -.16861247E+02 0.39817514E+02 0.51099893E-03 0.0000E+00 0.9000E+01
       11  1    4    4    0    0 0.20430248E+03 0.13724525E+03 0.24260948E+02 0.24731428E+03 0.51099893E-03 0.0000E+00 0.9000E+01
       23  1    3    3    0    0 0.15788949E+02 0.80769401E+02 0.14612490E+03 0.19089454E+03 0.91188000E+02 0.0000E+00 0.9000E+01
#aMCatNLO 1  0  0  1  1 0.41099907D+02 0.00000000D+00  -5  7  0 0.00000000D+00 0.00000000D+00 0.00000000D+00 0.00000000D+00 0.00000000D+00
  <mgrwgt>
 0.3492877782D-04    4    2    0
 0.415706773797556D+03 0.000000000000000D+00 0.000000000000000D+00 0.415706773797556D+03
 0.415706773797556D+03 0.000000000000000D+00 0.000000000000000D+00 -.415706773797556D+03
 0.367258923238633D+03 -.227898855812548D+03 -.253230794459022D+03 -.102470198650065D+03
 0.418847512715520D+02 0.780742938553536D+01 0.352161441946703D+02 -.212884857030706D+02
 0.246133907226809D+03 0.204302477791047D+03 0.137245249663760D+03 -.247776106721035D+01
 0.176135965858118D+03 0.157889486359664D+02 0.807694006005914D+02 0.126236445420346D+03
 0.000000000000000D+00 -.000000000000000D+00 -.000000000000000D+00 -.000000000000000D+00
 0.423218421861984D+03 0.000000000000000D+00 0.000000000000000D+00 0.423218421861984D+03
 0.476508363042748D+03 0.000000000000000D+00 0.000000000000000D+00 -.476508363042748D+03
 0.351319819130540D+03 -.219386184845740D+03 -.237655053086112D+03 -.102470198650065D+03
 0.436485974437391D+02 0.882070352150818D+01 0.370701446539045D+02 -.212884857030706D+02
 0.257231395262200D+03 0.210265614387697D+03 0.148156075861897D+03 -.247776106721035D+01
 0.180228977602779D+03 0.200106397728151D+02 0.884938820894511D+02 0.126236445420346D+03
 0.672979954654732D+02 -.197107728362808D+02 -.360650495191409D+02 -.532899411807642D+02
0.193749685934D-04 0.000000000000D+00 0.000000000000D+00 0.830954038176D-08 0.000000000000D+00  7 3 -3 23 -11 11 23 21 0 0.71283092D-01 0.57380055D-01 0.14352766D+06 0.14352766D+06 0.14352766D+06 0.11090667D+01  1  2  2  1  7  1        3 0.464683708171D-04 0.100000000000D+01
-.106510718631D-05 0.000000000000D+00 -.744049809452D-07 0.830954038176D-08 0.000000000000D+00  7 3 -3 23 -11 11 23 21 2 0.71283092D-01 0.57380055D-01 0.14352766D+06 0.14352766D+06 0.14352766D+06 0.11090667D+01  1  2  3  1  7  1        3 -.314213694364D-05 0.100000000000D+01
0.119397174281D-05 0.000000000000D+00 0.000000000000D+00 0.830954038176D-08 0.000000000000D+00  7 3 -3 23 -11 11 23 21 2 0.71283092D-01 0.57380055D-01 0.14352766D+06 0.14352766D+06 0.14352766D+06 0.11090667D+01  1  2 15  1  7  1        3 0.352229594444D-05 0.100000000000D+01
-.404050292559D-05 0.000000000000D+00 0.000000000000D+00 0.830954038176D-08 0.000000000000D+00  7 3 -3 23 -11 11 23 21 2 0.71283092D-01 0.57380055D-01 0.14352766D+06 0.14352766D+06 0.14352766D+06 0.11090667D+01  1  2  4  1  7  1        3 -.119197519992D-04 0.100000000000D+01
  </mgrwgt>
  </event>
  <event>
  8     66 0.25924217E-05 0.71510107E+02 0.75467711E-02 0.10172932E+00
        1 -1    0    0  501    0 0.00000000E+00 0.00000000E+00 0.19188481E+04 0.19188481E+04 0.32000000E+00 0.0000E+00 0.9000E+01
       -1 -1    0    0    0  501 0.00000000E+00 0.00000000E+00 -.40756513E+02 0.40757769E+02 0.32000000E+00 0.0000E+00 0.9000E+01
       25  2    1    2    0    0 0.12318518E+03 0.67235029E+02 0.16085645E+04 0.16423438E+04 0.30019705E+03 0.0000E+00 0.0000E+00
       23  2    3    3    0    0 0.15477094E+03 0.12194954E+03 0.11734250E+04 0.11932859E+04 0.90439679E+02 0.0000E+00 0.0000E+00
       23  1    1    2    0    0 -.12318518E+03 -.67235029E+02 0.26952710E+03 0.31726211E+03 0.91188000E+02 0.0000E+00 0.9000E+01
      -13  1    4    4    0    0 0.17089884E+02 0.62879179E+02 0.28836378E+03 0.29563413E+03 0.10565837E+00 0.0000E+00 0.9000E+01
       13  1    4    4    0    0 0.13768105E+03 0.59070365E+02 0.88506121E+03 0.89765179E+03 0.10565837E+00 0.0000E+00 0.9000E+01
       23  1    3    3    0    0 -.31585755E+02 -.54714515E+02 0.43513950E+03 0.44905788E+03 0.91188000E+02 0.0000E+00 0.9000E+01
#aMCatNLO 1  0  0  2  1 0.61626483D+02 0.00000000D+00  -5  7  0 0.00000000D+00 0.00000000D+00 0.00000000D+00 0.00000000D+00 0.00000000D+00
  <mgrwgt>
 0.4046853778D-03    6    2    0
 0.279654815062955D+03 0.000000000000000D+00 0.000000000000000D+00 0.279654815062955D+03
 0.279654815062955D+03 0.000000000000000D+00 0.000000000000000D+00 -.279654815062955D+03
 0.206526256724502D+03 -.123185181409378D+03 -.672350291484216D+02 -.121007046526986D+03
 0.674987579905657D+02 0.170897196355881D+02 0.628791837723615D+02 0.176134057231286D+02
 0.173102347116574D+03 0.137681216504059D+03 0.590703598776239D+02 0.867121547602025D+02
 0.112182268294268D+03 -.315857547302687D+02 -.547145145015639D+02 0.166814860436552D+02
 0.000000000000000D+00 -.000000000000000D+00 0.000000000000000D+00 0.000000000000000D+00
 0.316329283388256D+03 0.000000000000000D+00 0.000000000000000D+00 0.316329283388256D+03
 0.308488481382944D+03 0.000000000000000D+00 0.000000000000000D+00 -.308488481382944D+03
 0.207974416309924D+03 -.112535120330343D+03 -.873570139056076D+02 -.121007046526986D+03
 0.626646761383819D+02 0.204341014759891D+02 0.565603842917437D+02 0.176134057231286D+02
 0.175493918544714D+03 0.146637948694716D+03 0.421477124601954D+02 0.867121547602025D+02
 0.116561476100079D+03 -.257084787504423D+02 -.658189069367058D+02 0.166814860436552D+02
 0.621232776781006D+02 -.288284510899201D+02 0.544678240903744D+02 0.784080200531194D+01
0.620350881026D-05 0.000000000000D+00 0.000000000000D+00 0.290555816179D-06 0.000000000000D+00  7 1 -1 23 -13 13 23 21 0 0.29520750D+00 0.62703315D-02 0.60830371D+05 0.60830371D+05 0.60830371D+05 0.11398801D+01  1  2  2  2  7  2       -1 0.320613613452D-03 0.100000000000D+01
-.338025450972D-06 0.000000000000D+00 -.238231072528D-07 0.290555816179D-06 0.000000000000D+00  7 1 -1 23 -13 13 23 21 2 0.29520750D+00 0.62703315D-02 0.60830371D+05 0.60830371D+05 0.60830371D+05 0.11398801D+01  1  2  3  2  7  2       -1 -.226992901779D-04 0.100000000000D+01
0.389835402742D-06 0.000000000000D+00 0.000000000000D+00 0.290555816179D-06 0.000000000000D+00  7 1 -1 23 -13 13 23 21 2 0.29520750D+00 0.62703315D-02 0.60830371D+05 0.60830371D+05 0.60830371D+05 0.11398801D+01  1  2 15  2  7  2       -1 0.261784634944D-04 0.100000000000D+01
0.411712960457D-05 0.000000000000D+00 0.000000000000D+00 0.290555816179D-06 0.000000000000D+00  7 1 -1 23 -13 13 23 21 2 0.29520750D+00 0.72835817D-02 0.78077864D+05 0.78077864D+05 0.78077864D+05 0.11306495D+01  1  2 12  2  7  2       -1 0.216145776376D-03 0.100000000000D+01
-.310881685596D-05 0.000000000000D+00 0.000000000000D+00 0.290555816179D-06 0.000000000000D+00  7 1 -1 23 -13 13 23 21 2 0.29520750D+00 0.62703315D-02 0.60830371D+05 0.60830371D+05 0.60830371D+05 0.11398801D+01  1  2  4  2  7  2       -1 -.208765155761D-03 0.100000000000D+01
0.938110144238D-07 0.000000000000D+00 0.000000000000D+00 0.290555816179D-06 0.000000000000D+00  7 1 21 23 -13 13 23 1 2 0.29520750D+00 0.72835817D-02 0.78077864D+05 0.78077864D+05 0.78077864D+05 0.11306495D+01  1  2 12  4  7  2       -1 0.732119703775D-04 0.100000000000D+01
  </mgrwgt>
  </event>
  <event>
  8     66 0.25924217E-05 0.97356048E+02 0.75467711E-02 0.10593333E+00
        3 -1    0    0  501    0 0.00000000E+00 0.00000000E+00 0.50141830E+03 0.50141855E+03 0.50000000E+00 0.0000E+00 0.9000E+01
       -3 -1    0    0    0  501 0.00000000E+00 0.00000000E+00 -.84315988E+02 0.84317471E+02 0.50000000E+00 0.0000E+00 0.9000E+01
       25  2    1    2    0    0 0.14000790E+02 -.23194254E+01 0.23383208E+03 0.38054189E+03 0.29988879E+03 0.0000E+00 0.0000E+00
       23  2    3    3    0    0 0.51951265E+02 -.30606817E+02 -.15660878E+02 0.11072269E+03 0.91534360E+02 0.0000E+00 0.0000E+00
       23  1    1    2    0    0 -.14000790E+02 0.23194254E+01 0.18327023E+03 0.20519413E+03 0.91188000E+02 0.0000E+00 0.9000E+01
      -11  1    4    4    0    0 0.77372938E+02 -.20495866E+02 -.18200226E+01 0.80062255E+02 0.51099893E-03 0.0000E+00 0.9000E+01
       11  1    4    4    0    0 -.25421674E+02 -.10110950E+02 -.13840855E+02 0.30660432E+02 0.51099893E-03 0.0000E+00 0.9000E+01
       23  1    3    3    0    0 -.37950475E+02 0.28287391E+02 0.24949296E+03 0.26981920E+03 0.91188000E+02 0.0000E+00 0.9000E+01
#aMCatNLO 1  0  0  1  2 0.93048507D+02 0.00000000D+00  -5  7  0 0.00000000D+00 0.00000000D+00 0.00000000D+00 0.00000000D+00 0.00000000D+00
  <mgrwgt>
 0.8318429498D-04    9    2    0
 0.205616358277935D+03 0.000000000000000D+00 0.000000000000000D+00 0.205616358277935D+03
 0.205616358277935D+03 0.000000000000000D+00 0.000000000000000D+00 -.205616358277935D+03
 0.106380534053629D+03 -.140007900597179D+02 0.231942542500699D+01 0.529165836476312D+02
 0.115882030441843D+03 0.773729383375143D+02 -.204958663643127D+02 -.837973320238764D+02
 0.577093487322903D+02 -.254216736086237D+02 -.101109501776027D+02 -.508121651629581D+02
 0.131260803328108D+03 -.379504746691727D+02 0.282873911169084D+02 0.816929135392034D+02
 0.000000000000000D+00 -.000000000000000D+00 0.000000000000000D+00 0.000000000000000D+00
 0.309865169945230D+03 0.000000000000000D+00 0.000000000000000D+00 0.309865169945230D+03
 0.232666549406874D+03 0.000000000000000D+00 0.000000000000000D+00 -.232666549406874D+03
 0.107616435793376D+03 -.681028616642988D+01 -.204817256661713D+02 0.529165836476312D+02
 0.128499564716470D+03 0.855843948487449D+02 -.465344671869864D+02 -.837973320238764D+02
 0.596200561825357D+02 -.214792928195855D+02 -.226122743356674D+02 -.508121651629581D+02
 0.125892182115838D+03 -.293098871677361D+02 0.888012149781098D+00 0.816929135392034D+02
 0.120903480543885D+03 -.279849286949935D+02 0.887404550390440D+02 0.771986205383558D+02
0.298547076496D-05 0.000000000000D+00 0.000000000000D+00 0.140277255958D-06 0.000000000000D+00  7 3 -3 23 -11 11 23 21 0 0.77141410D-01 0.12971824D-01 0.22865470D+05 0.22865470D+05 0.22865470D+05 0.11784394D+01  1  2  2  1  7  1        3 0.936080386791D-04 0.100000000000D+01
-.146813437622D-06 0.000000000000D+00 -.114649938299D-07 0.140277255958D-06 0.000000000000D+00  7 3 -3 23 -11 11 23 21 2 0.77141410D-01 0.12971824D-01 0.22865470D+05 0.22865470D+05 0.22865470D+05 0.11784394D+01  1  2  3  1  7  1        3 -.639264624344D-05 0.100000000000D+01
0.183963662740D-06 0.000000000000D+00 0.000000000000D+00 0.140277255958D-06 0.000000000000D+00  7 3 -3 23 -11 11 23 21 2 0.77141410D-01 0.12971824D-01 0.22865470D+05 0.22865470D+05 0.22865470D+05 0.11784394D+01  1  2 15  1  7  1        3 0.801026552192D-05 0.100000000000D+01
0.896472166398D-06 0.000000000000D+00 0.000000000000D+00 0.140277255958D-06 0.000000000000D+00  7 3 -3 23 -11 11 23 21 2 0.11925961D+00 0.12971824D-01 0.42260692D+05 0.42260692D+05 0.42260692D+05 0.11537753D+01  1  2 12  1  7  1        3 0.137868612663D-04 0.100000000000D+01
-.240358112358D-05 0.000000000000D+00 0.000000000000D+00 0.140277255958D-06 0.000000000000D+00  7 3 -3 23 -11 11 23 21 2 0.77141410D-01 0.12971824D-01 0.22865470D+05 0.22865470D+05 0.22865470D+05 0.11784394D+01  1  2  4  1  7  1        3 -.104658293473D-03 0.100000000000D+01
-.239505737732D-05 0.000000000000D+00 -.109936713650D-05 0.140277255958D-06 0.000000000000D+00  7 3 -3 23 -11 11 23 21 2 0.12627853D+00 0.12971824D-01 0.22865470D+05 0.22865470D+05 0.22865470D+05 0.11784394D+01  1  2  5  1  7  1        3 -.329182885757D-04 0.100000000000D+01
0.272090254882D-05 0.000000000000D+00 0.978146599584D-06 0.140277255958D-06 0.000000000000D+00  7 3 -3 23 -11 11 23 21 2 0.77141410D-01 0.12971824D-01 0.22865470D+05 0.22865470D+05 0.22865470D+05 0.11784394D+01  1  2  6  1  7  1        3 0.118475309475D-03 0.100000000000D+01
0.454615100601D-07 0.000000000000D+00 0.000000000000D+00 0.140277255958D-06 0.000000000000D+00  7 21 -3 23 -11 11 23 -3 2 0.11925961D+00 0.12971824D-01 0.42260692D+05 0.42260692D+05 0.42260692D+05 0.11537753D+01  1  2 12  3  7  1        3 0.966234205708D-05 0.100000000000D+01
-.847308244984D-07 0.000000000000D+00 -.612840418262D-07 0.140277255958D-06 0.000000000000D+00  7 21 -3 23 -11 11 23 -3 2 0.12627853D+00 0.12971824D-01 0.22865470D+05 0.22865470D+05 0.22865470D+05 0.11784394D+01  1  2  5  3  7  1        3 -.163892937306D-04 0.100000000000D+01
  </mgrwgt>
  </event>
  <event>
  8     66 0.25924217E-05 0.24003934E+03 0.75467711E-02 0.93746009E-01
        1 -1    0    0  501    0 0.00000000E+00 0.00000000E+00 0.27807589E+03 0.27807607E+03 0.32000000E+00 0.0000E+00 0.9000E+01
       -1 -1    0    0    0  501 0.00000000E+00 0.00000000E+00 -.60674067E+03 0.60674076E+03 0.32000000E+00 0.0000E+00 0.9000E+01
       25  2    1    2    0    0 0.16103948E+03 -.22373441E+02 -.51705599E+03 0.61978705E+03 0.30059077E+03 0.0000E+00 0.0000E+00
       23  2    3    3    0    0 -.87137269E+01 -.59344582E+02 -.33369359E+03 0.35123531E+03 0.91744890E+02 0.0000E+00 0.0000E+00
       23  1    1    2    0    0 -.16103948E+03 0.22373441E+02 0.18839120E+03 0.26502977E+03 0.91188000E+02 0.0000E+00 0.9000E+01
      -13  1    4    4    0    0 0.31515078E+02 -.85370599E+01 -.46485672E+02 0.56806781E+02 0.10565837E+00 0.0000E+00 0.9000E+01
       13  1    4    4    0    0 -.40228805E+02 -.50807522E+02 -.28720792E+03 0.29442853E+03 0.10565837E+00 0.0000E+00 0.9000E+01
       23  1    3    3    0    0 0.16975321E+03 0.36971141E+02 -.18336240E+03 0.26855174E+03 0.91188000E+02 0.0000E+00 0.9000E+01
#aMCatNLO 1  0  0  2  2 0.43202046D+03 0.00000000D+00  -5  7  0 0.00000000D+00 0.00000000D+00 0.00000000D+00 0.00000000D+00 0.00000000D+00
  <mgrwgt>
 0.4738553187D-03    3    2    0
 0.410755485212324D+03 0.000000000000000D+00 0.000000000000000D+00 0.410755485212324D+03
 0.410755485212324D+03 0.000000000000000D+00 0.000000000000000D+00 -.410755485212324D+03
 0.360823369965334D+03 -.161039481622471D+03 0.223734413075631D+02 0.308940070971642D+03
 0.425864288952525D+02 0.315151732417352D+02 -.853700386963882D+01 -.273407634590476D+02
 0.202213202509330D+03 -.402289000724441D+02 -.508075783571090D+02 -.191547395830710D+03
 0.215887969054732D+03 0.169753208453180D+03 0.369711409191847D+02 -.900519116818840D+02
 0.000000000000000D+00 0.000000000000000D+00 -.000000000000000D+00 0.000000000000000D+00
 0.682748123414955D+03 0.000000000000000D+00 0.000000000000000D+00 0.682748123414955D+03
 0.677486452122139D+03 0.000000000000000D+00 0.000000000000000D+00 -.677486452122139D+03
 0.444660732697261D+03 -.221576648502354D+03 0.211820058647349D+03 0.308940070971642D+03
 0.387950369253241D+02 0.253988472198753D+02 0.106035891760812D+02 -.273407634590476D+02
 0.209458446005487D+03 -.711685985760869D+02 0.460159356117249D+02 -.191547395830710D+03
 0.235267855038963D+03 0.135846027266475D+03 0.143081173985220D+03 -.900519116818840D+02
 0.432052504870059D+03 0.131500372592090D+03 -.411520757420376D+03 0.526167129281527D+01
0.316554782895D-04 0.000000000000D+00 0.000000000000D+00 0.880911238439D-06 0.000000000000D+00  7 1 -1 23 -13 13 23 21 0 0.42780926D-01 0.93344739D-01 0.57618885D+05 0.57618885D+05 0.57618885D+05 0.11419166D+01  1  2  2  2  7  2       -1 0.458309823591D-03 0.100000000000D+01
-.114158498289D-05 0.000000000000D+00 -.121565371711D-06 0.880911238439D-06 0.000000000000D+00  7 1 -1 23 -13 13 23 21 2 0.42780926D-01 0.93344739D-01 0.57618885D+05 0.57618885D+05 0.57618885D+05 0.11419166D+01  1  2  3  2  7  2       -1 -.215519875029D-04 0.100000000000D+01
0.196501269367D-05 0.000000000000D+00 0.000000000000D+00 0.880911238439D-06 0.000000000000D+00  7 1 -1 23 -13 13 23 21 2 0.42780926D-01 0.93344739D-01 0.57618885D+05 0.57618885D+05 0.57618885D+05 0.11419166D+01  1  2 15  2  7  2       -1 0.370974825806D-04 0.100000000000D+01
  </mgrwgt>
  </event>
  <event>
  8     66 0.25924217E-05 0.33769295E+03 0.75467711E-02 0.93647441E-01
        1 -1    0    0  501    0 0.00000000E+00 0.00000000E+00 0.63629036E+03 0.63629044E+03 0.32000000E+00 0.0000E+00 0.9000E+01
       -1 -1    0    0    0  501 0.00000000E+00 0.00000000E+00 -.38990614E+03 0.38990627E+03 0.32000000E+00 0.0000E+00 0.9000E+01
       25  2    1    2    0    0 -.13174443E+03 0.42771626E+03 0.11953110E+03 0.55216638E+03 0.30050330E+03 0.0000E+00 0.0000E+00
       23  2    3    3    0    0 -.19206159E+03 0.32655446E+03 0.90224766E+02 0.40035735E+03 0.92844099E+02 0.0000E+00 0.0000E+00
       23  1    1    2    0    0 0.13174443E+03 -.42771626E+03 0.12685312E+03 0.47403033E+03 0.91188000E+02 0.0000E+00 0.9000E+01
      -11  1    4    4    0    0 -.15248348E+03 0.28741606E+03 0.10653026E+03 0.34235639E+03 0.51099893E-03 0.0000E+00 0.9000E+01
       11  1    4    4    0    0 -.39578115E+02 0.39138398E+02 -.16305497E+02 0.58000954E+02 0.51099893E-03 0.0000E+00 0.9000E+01
       23  1    3    3    0    0 0.60317160E+02 0.10116180E+03 0.29306331E+02 0.15180903E+03 0.91188000E+02 0.0000E+00 0.9000E+01
#aMCatNLO 1  0  0  1  2 0.98660201D+02 0.00000000D+00  -5  7  0 0.00000000D+00 0.00000000D+00 0.00000000D+00 0.00000000D+00 0.00000000D+00
  <mgrwgt>
 0.4364741783D-03    9    2    0
 0.498089979491937D+03 0.000000000000000D+00 0.000000000000000D+00 0.498089979491937D+03
 0.498089979491937D+03 0.000000000000000D+00 0.000000000000000D+00 -.498089979491937D+03
 0.456939291562210D+03 0.131744432392299D+03 -.427716258226638D+03 0.134339797383080D+02
 0.326324201866720D+03 -.152483478141758D+03 0.287416060850288D+03 0.250655457360791D+02
 0.637814526916027D+02 -.395781146428535D+02 0.391383981090607D+02 -.311421313051139D+02
 0.149135012863342D+03 0.603171603923120D+02 0.101161799267289D+03 -.735739416927319D+01
 0.000000000000000D+00 0.000000000000000D+00 -.000000000000000D+00 0.000000000000000D+00
 0.559193190588210D+03 0.000000000000000D+00 0.000000000000000D+00 0.559193190588210D+03
 0.542006421754915D+03 0.000000000000000D+00 0.000000000000000D+00 -.542006421754915D+03
 0.418304570909165D+03 0.104017346790772D+03 -.394541990736727D+03 0.134339797383080D+02
 0.359446548929143D+03 -.174208194104519D+03 0.313408750772638D+03 0.250655457360791D+02
 0.695814132663540D+02 -.438029527240258D+02 0.441932354843471D+02 -.311421313051139D+02
 0.153721084772866D+03 0.507229006617807D+02 0.112640919115745D+03 -.735739416927319D+01
 0.100145994465597D+03 0.632708993759928D+02 -.757009146360020D+02 0.171867688332946D+02
0.227948919603D-04 0.000000000000D+00 0.000000000000D+00 0.320339498334D-06 0.000000000000D+00  7 1 -1 23 -11 11 23 21 0 0.97890841D-01 0.59985577D-01 0.24340268D+06 0.24340268D+06 0.24340268D+06 0.10913340D+01  1  2  2  1  7  1        1 0.247545115431D-03 0.100000000000D+01
-.126624262051D-05 0.000000000000D+00 -.875383871603D-07 0.320339498334D-06 0.000000000000D+00  7 1 -1 23 -11 11 23 21 2 0.97890841D-01 0.59985577D-01 0.24340268D+06 0.24340268D+06 0.24340268D+06 0.10913340D+01  1  2  3  1  7  1        1 -.163775555820D-04 0.100000000000D+01
0.140794098755D-05 0.000000000000D+00 0.000000000000D+00 0.320339498334D-06 0.000000000000D+00  7 1 -1 23 -11 11 23 21 2 0.97890841D-01 0.59985577D-01 0.24340268D+06 0.24340268D+06 0.24340268D+06 0.10913340D+01  1  2 15  1  7  1        1 0.182102792990D-04 0.100000000000D+01
0.243364142495D-04 0.000000000000D+00 0.000000000000D+00 0.320339498334D-06 0.000000000000D+00  7 1 -1 23 -11 11 23 21 2 0.11376368D+00 0.59985577D-01 0.29761867D+06 0.29761867D+06 0.29761867D+06 0.10848080D+01  1  2 12  1  7  1        1 0.246163685855D-03 0.100000000000D+01
-.216373607312D-04 0.000000000000D+00 0.000000000000D+00 0.320339498334D-06 0.000000000000D+00  7 1 -1 23 -11 11 23 21 2 0.97890841D-01 0.59985577D-01 0.24340268D+06 0.24340268D+06 0.24340268D+06 0.10913340D+01  1  2  4  1  7  1        1 -.279857171354D-03 0.100000000000D+01
-.673675074535D-04 0.000000000000D+00 -.174116908194D-04 0.320339498334D-06 0.000000000000D+00  7 1 -1 23 -11 11 23 21 2 0.11735280D+00 0.59985577D-01 0.24340268D+06 0.24340268D+06 0.24340268D+06 0.10913340D+01  1  2  5  1  7  1        1 -.661451618077D-03 0.100000000000D+01
0.696588143284D-04 0.000000000000D+00 0.171293021653D-04 0.320339498334D-06 0.000000000000D+00  7 1 -1 23 -11 11 23 21 2 0.97890841D-01 0.59985577D-01 0.24340268D+06 0.24340268D+06 0.24340268D+06 0.10913340D+01  1  2  6  1  7  1        1 0.900965648261D-03 0.100000000000D+01
0.555946613748D-06 0.000000000000D+00 0.000000000000D+00 0.320339498334D-06 0.000000000000D+00  7 21 -1 23 -11 11 23 -1 2 0.11376368D+00 0.59985577D-01 0.29761867D+06 0.29761867D+06 0.29761867D+06 0.10848080D+01  1  2 12  3  7  1        1 0.107181339913D-04 0.100000000000D+01
-.161783623278D-05 0.000000000000D+00 -.461868371529D-06 0.320339498334D-06 0.000000000000D+00  7 21 -1 23 -11 11 23 -1 2 0.11735280D+00 0.59985577D-01 0.24340268D+06 0.24340268D+06 0.24340268D+06 0.10913340D+01  1  2  5  3  7  1        1 -.294423395111D-04 0.100000000000D+01
  </mgrwgt>
  </event>
  <event>
  8     66 0.25924217E-05 0.43155045E+03 0.75467711E-02 0.89747527E-01
        1 -1    0    0  501    0 0.00000000E+00 0.00000000E+00 0.43539020E+03 0.43539032E+03 0.32000000E+00 0.0000E+00 0.9000E+01
       -1 -1    0    0    0  501 0.00000000E+00 0.00000000E+00 -.86329181E+03 0.86329186E+03 0.32000000E+00 0.0000E+00 0.9000E+01
       25  2    1    2    0    0 -.13488053E+03 0.35857795E+03 0.22501271E+03 0.53619726E+03 0.30017641E+03 0.0000E+00 0.0000E+00
       23  2    3    3    0    0 -.10671105E+03 0.35294027E+03 0.22269306E+03 0.44056288E+03 0.92462802E+02 0.0000E+00 0.0000E+00
       23  1    1    2    0    0 0.13488053E+03 -.35857795E+03 -.65291432E+03 0.76248492E+03 0.91188000E+02 0.0000E+00 0.9000E+01
      -13  1    4    4    0    0 0.12440516E+01 0.82280096E+02 0.17389191E+02 0.84106818E+02 0.10565837E+00 0.0000E+00 0.9000E+01
       13  1    4    4    0    0 -.10795510E+03 0.27066017E+03 0.20530387E+03 0.35645606E+03 0.10565837E+00 0.0000E+00 0.9000E+01
       23  1    3    3    0    0 -.28169484E+02 0.56376798E+01 0.23196555E+01 0.95634384E+02 0.91188000E+02 0.0000E+00 0.9000E+01
#aMCatNLO 1  0  0  1  2 0.55089865D+03 0.00000000D+00  -5  7  0 0.00000000D+00 0.00000000D+00 0.00000000D+00 0.00000000D+00 0.00000000D+00
  <mgrwgt>
 0.4227371905D-03    3    2    0
 0.613081485252606D+03 0.000000000000000D+00 0.000000000000000D+00 0.613081485252606D+03
 0.613081485252606D+03 0.000000000000000D+00 0.000000000000000D+00 -.613081485252606D+03
 0.579729219225873D+03 0.134880529345429D+03 -.358577946894687D+03 -.425440730401461D+03
 0.951491156811294D+02 0.124419414433161D+01 0.822798495528611D+02 0.477685309946906D+02
 0.449184622901808D+03 -.107955239772476D+03 0.270660417563062D+03 0.341841235110241D+03
 0.102100012696402D+03 -.281694837172850D+02 0.563767977876388D+01 0.358309642965291D+02
 0.000000000000000D+00 0.000000000000000D+00 0.000000000000000D+00 -.000000000000000D+00
 0.864095095003486D+03 0.000000000000000D+00 0.000000000000000D+00 0.864095095003486D+03
 0.106733042316014D+04 0.000000000000000D+00 0.000000000000000D+00 -.106733042316014D+04
 0.668885473041483D+03 -.926072402293167D+02 -.499516374781157D+03 -.425440730401461D+03
 0.843669966477348D+02 -.314622286210979D+02 0.620168182041128D+02 0.477685309946906D+02
 0.469625234067528D+03 -.275355164120386D+03 0.166948986350684D+03 0.341841235110241D+03
 0.121356261003615D+03 -.688814580487677D+02 -.195851340417752D+02 0.358309642965291D+02
 0.587191553403264D+03 0.468306091019569D+03 0.290135704268136D+03 -.203235328156653D+03
0.124250394159D-03 0.000000000000D+00 0.000000000000D+00 0.180900689506D-05 0.000000000000D+00  7 1 -1 23 -13 13 23 21 0 0.66983121D-01 0.13281414D+00 0.18623579D+06 0.18623579D+06 0.18623579D+06 0.11002117D+01  1  2  2  1  7  1        1 0.416864280725D-03 0.100000000000D+01
-.586813010457D-05 0.000000000000D+00 -.477154229450D-06 0.180900689506D-05 0.000000000000D+00  7 1 -1 23 -13 13 23 21 2 0.66983121D-01 0.13281414D+00 0.18623579D+06 0.18623579D+06 0.18623579D+06 0.11002117D+01  1  2  3  1  7  1        1 -.238313768683D-04 0.100000000000D+01
0.731424876603D-05 0.000000000000D+00 0.000000000000D+00 0.180900689506D-05 0.000000000000D+00  7 1 -1 23 -13 13 23 21 2 0.66983121D-01 0.13281414D+00 0.18623579D+06 0.18623579D+06 0.18623579D+06 0.11002117D+01  1  2 15  1  7  1        1 0.297042866715D-04 0.100000000000D+01
  </mgrwgt>
  </event>
  <event>
  8     66 0.25924217E-05 0.77397403E+02 0.75467711E-02 0.10229494E+00
        1 -1    0    0  501    0 0.00000000E+00 0.00000000E+00 0.66551409E+03 0.66551416E+03 0.32000000E+00 0.0000E+00 0.9000E+01
       -1 -1    0    0    0  501 0.00000000E+00 0.00000000E+00 -.64072967E+02 0.64073766E+02 0.32000000E+00 0.0000E+00 0.9000E+01
       25  2    1    2    0    0 -.47821359E+02 0.25249174E+02 0.47516348E+03 0.56470707E+03 0.30031541E+03 0.0000E+00 0.0000E+00
       23  2    3    3    0    0 -.25701802E+02 -.90316436E+02 0.33741720E+03 0.36189195E+03 0.91092128E+02 0.0000E+00 0.0000E+00
       23  1    1    2    0    0 0.47821359E+02 -.25249174E+02 0.12627764E+03 0.16488086E+03 0.91188000E+02 0.0000E+00 0.9000E+01
      -13  1    4    4    0    0 -.53644879E+02 -.63353882E+02 0.28378906E+03 0.29568181E+03 0.10565837E+00 0.0000E+00 0.9000E+01
       13  1    4    4    0    0 0.27943078E+02 -.26962554E+02 0.53628137E+02 0.66210144E+02 0.10565837E+00 0.0000E+00 0.9000E+01
       23  1    3    3    0    0 -.22119557E+02 0.11556561E+03 0.13774628E+03 0.20281512E+03 0.91188000E+02 0.0000E+00 0.9000E+01
#aMCatNLO 1  0  0  1  2 0.13178859D+03 0.00000000D+00  -5  7  0 0.00000000D+00 0.00000000D+00 0.00000000D+00 0.00000000D+00 0.00000000D+00
  <mgrwgt>
 0.7414439322D-03    7    2    0
 0.206498866276733D+03 0.000000000000000D+00 0.000000000000000D+00 0.206498866276733D+03
 0.206498866276733D+03 0.000000000000000D+00 0.000000000000000D+00 -.206498866276733D+03
 0.107377227387975D+03 0.478214898556986D+02 -.252492430427665D+02 -.170352120995765D+02
 0.109064763620175D+03 -.536450294290246D+02 -.633538808022888D+02 0.707362655811937D+02
 0.388667938341665D+02 0.279431657595231D+02 -.269624630039657D+02 -.168307428332706D+01
 0.157688947711149D+03 -.221196261861971D+02 0.115565586849021D+03 -.520179791982901D+02
 0.000000000000000D+00 0.000000000000000D+00 0.000000000000000D+00 0.000000000000000D+00
 0.779252379928204D+03 0.000000000000000D+00 0.000000000000000D+00 0.779252379928204D+03
 0.224476846822491D+03 0.000000000000000D+00 0.000000000000000D+00 -.224476846822491D+03
 0.996324000112830D+02 0.164047526866202D+02 -.324353114062682D+02 -.170352120995765D+02
 0.135678056513993D+03 -.907883302057776D+02 -.718498075814249D+02 0.707362655811937D+02
 0.340238491575459D+02 0.168809451192286D+02 -.294927663052117D+02 -.168307428332706D+01
 0.164180815926404D+03 -.709680681350889D+02 0.104392299139157D+03 -.520179791982901D+02
 0.570214105141469D+03 0.128470700535018D+03 0.293855861537476D+02 0.554775533105714D+03
0.423139290376D-05 0.000000000000D+00 0.000000000000D+00 0.105953273229D-06 0.000000000000D+00  7 1 -1 23 -13 13 23 21 0 0.10238685D+00 0.98574469D-02 0.35480405D+05 0.35480405D+05 0.35480405D+05 0.11606349D+01  1  2  2  1  7  1        1 0.867306510236D-03 0.100000000000D+01
-.232662042054D-06 0.000000000000D+00 -.162496629018D-07 0.105953273229D-06 0.000000000000D+00  7 1 -1 23 -13 13 23 21 2 0.10238685D+00 0.98574469D-02 0.35480405D+05 0.35480405D+05 0.35480405D+05 0.11606349D+01  1  2  3  1  7  1        1 -.642400798646D-04 0.100000000000D+01
0.274594799798D-06 0.000000000000D+00 0.000000000000D+00 0.105953273229D-06 0.000000000000D+00  7 1 -1 23 -13 13 23 21 2 0.10238685D+00 0.98574469D-02 0.35480405D+05 0.35480405D+05 0.35480405D+05 0.11606349D+01  1  2 15  1  7  1        1 0.758180909689D-04 0.100000000000D+01
0.308677243817D-05 0.000000000000D+00 0.000000000000D+00 0.105953273229D-06 0.000000000000D+00  7 1 -1 23 -13 13 23 21 2 0.37517018D+00 0.98574469D-02 0.71673478D+05 0.71673478D+05 0.71673478D+05 0.11337884D+01  1  2 12  1  7  1        1 0.467637422490D-04 0.100000000000D+01
-.128853860130D-04 0.000000000000D+00 -.145290342321D-05 0.105953273229D-06 0.000000000000D+00  7 1 -1 23 -13 13 23 21 2 0.39232600D+00 0.98574469D-02 0.35480405D+05 0.35480405D+05 0.35480405D+05 0.11606349D+01  1  2  5  1  7  1        1 -.176728640518D-03 0.100000000000D+01
0.472440395349D-06 0.000000000000D+00 0.000000000000D+00 0.105953273229D-06 0.000000000000D+00  7 21 -1 23 -13 13 23 -1 2 0.37517018D+00 0.98574469D-02 0.71673478D+05 0.71673478D+05 0.71673478D+05 0.11337884D+01  1  2 12  3  7  1        1 0.275539781937D-05 0.100000000000D+01
-.202666464290D-05 0.000000000000D+00 -.231563453344D-06 0.105953273229D-06 0.000000000000D+00  7 21 -1 23 -13 13 23 -1 2 0.39232600D+00 0.98574469D-02 0.35480405D+05 0.35480405D+05 0.35480405D+05 0.11606349D+01  1  2  5  3  7  1        1 -.102310887179D-04 0.100000000000D+01
  </mgrwgt>
  </event>
  <event>
  8     66 0.25924217E-05 0.31308991E+03 0.75467711E-02 0.89861418E-01
        1 -1    0    0  501    0 0.00000000E+00 0.00000000E+00 0.75020030E+03 0.75020037E+03 0.32000000E+00 0.0000E+00 0.9000E+01
       -1 -1    0    0    0  501 0.00000000E+00 0.00000000E+00 -.16575252E+03 0.16575283E+03 0.32000000E+00 0.0000E+00 0.9000E+01
       25  2    1    2    0    0 -.26157650E+03 -.49025336E+02 0.44898752E+03 0.60371854E+03 0.30341479E+03 0.0000E+00 0.0000E+00
       23  2    3    3    0    0 -.21322054E+03 0.70878391E+00 0.42852896E+03 0.48733304E+03 0.91612883E+02 0.0000E+00 0.0000E+00
       23  1    1    2    0    0 0.26157650E+03 0.49025336E+02 0.13546027E+03 0.31223466E+03 0.91188000E+02 0.0000E+00 0.9000E+01
      -13  1    4    4    0    0 -.64478236E+01 0.21523436E+02 0.26308238E+02 0.34597215E+02 0.10565837E+00 0.0000E+00 0.9000E+01
       13  1    4    4    0    0 -.20677272E+03 -.20814652E+02 0.40222072E+03 0.45273582E+03 0.10565837E+00 0.0000E+00 0.9000E+01
       23  1    3    3    0    0 -.48355955E+02 -.49734120E+02 0.20458563E+02 0.11638550E+03 0.91188000E+02 0.0000E+00 0.9000E+01
#aMCatNLO 1  0  0  2  2 0.65049794D+03 0.00000000D+00  -5  7  0 0.00000000D+00 0.00000000D+00 0.00000000D+00 0.00000000D+00 0.00000000D+00
  <mgrwgt>
 0.4806764864D-03    3    2    0
 0.352629780279620D+03 0.000000000000000D+00 0.000000000000000D+00 0.352629780279620D+03
 0.352629780279620D+03 0.000000000000000D+00 0.000000000000000D+00 -.352629780279620D+03
 0.293257830416928D+03 0.261576506009482D+03 0.490253375871337D+02 -.828199947789328D+02
 0.231310867620452D+02 -.644755702515288D+01 0.215234914997312D+02 0.549686245613423D+01
 0.254669401686277D+03 -.206772984781808D+03 -.208147120768859D+02 0.147201170786189D+03
 0.134201241693991D+03 -.483559642025212D+02 -.497341170099790D+02 -.698780384633907D+02
 0.000000000000000D+00 0.000000000000000D+00 0.000000000000000D+00 0.000000000000000D+00
 0.102085429969075D+04 0.000000000000000D+00 0.000000000000000D+00 0.102085429969075D+04
 0.675215800057503D+03 0.000000000000000D+00 0.000000000000000D+00 -.675215800057503D+03
 0.349943510306552D+03 0.257621687760900D+03 -.202279814914179D+03 -.828199947789328D+02
 0.117117085415322D+02 -.666179308775684D+01 0.791006529404500D+01 0.549686245613423D+01
 0.368653660242631D+03 -.210605578503247D+03 -.264353223609580D+03 0.147201170786189D+03
 0.229138156463598D+03 -.505900100467759D+02 -.191694428785795D+03 -.698780384633907D+02
 0.736623064193939D+03 0.102356938768797D+02 0.650417402015510D+03 0.345638499633247D+03
0.123653437534D-04 0.000000000000D+00 0.000000000000D+00 0.224644176418D-07 0.000000000000D+00  7 1 -1 23 -13 13 23 21 0 0.11541546D+00 0.25500416D-01 0.98025295D+05 0.98025295D+05 0.98025295D+05 0.11224335D+01  1  2  2  2  7  2       -1 0.475258155277D-03 0.100000000000D+01
-.675149848920D-06 0.000000000000D+00 -.474861758828D-07 0.224644176418D-07 0.000000000000D+00  7 1 -1 23 -13 13 23 21 2 0.11541546D+00 0.25500416D-01 0.98025295D+05 0.98025295D+05 0.98025295D+05 0.11224335D+01  1  2  3  2  7  2       -1 -.326922515063D-04 0.100000000000D+01
0.787047478754D-06 0.000000000000D+00 0.000000000000D+00 0.224644176418D-07 0.000000000000D+00  7 1 -1 23 -13 13 23 21 2 0.11541546D+00 0.25500416D-01 0.98025295D+05 0.98025295D+05 0.98025295D+05 0.11224335D+01  1  2 15  2  7  2       -1 0.381105826566D-04 0.100000000000D+01
  </mgrwgt>
  </event>
  <event>
  9     66 0.25924217E-05 0.30807656E+03 0.75467711E-02 0.97450439E-01
        1 -1    0    0  501    0 0.00000000E+00 0.00000000E+00 0.41480011E+04 0.41480011E+04 0.32000000E+00 0.0000E+00 0.9000E+01
       21 -1    0    0  502  501 0.00000000E+00 0.00000000E+00 -.31108685E+03 0.31108775E+03 0.75000000E+00 0.0000E+00 0.9000E+01
       25  2    1    2    0    0 0.81832184E+02 0.17263766E+03 -.19193380E+03 0.40412904E+03 0.29996905E+03 0.0000E+00 0.0000E+00
       23  2    3    3    0    0 0.94299224E+02 0.21122773E+03 -.16924603E+03 0.30178351E+03 0.94443472E+02 0.0000E+00 0.0000E+00
       23  1    1    2    0    0 -.22947867E+03 -.16149852E+03 0.31433837E+04 0.31572011E+04 0.91188000E+02 0.0000E+00 0.9000E+01
      -11  1    4    4    0    0 0.10268122E+03 0.15783480E+03 -.15970132E+03 0.24690032E+03 0.51099893E-03 0.0000E+00 0.9000E+01
       11  1    4    4    0    0 -.83819938E+01 0.53392934E+02 -.95447124E+01 0.54883192E+02 0.51099893E-03 0.0000E+00 0.9000E+01
       23  1    3    3    0    0 -.12467040E+02 -.38590077E+02 -.22687777E+02 0.10234553E+03 0.91188000E+02 0.0000E+00 0.9000E+01
        1  1    1    2  502    0 0.14764649E+03 -.11139133E+02 0.88546431E+03 0.89775872E+03 0.32000000E+00 0.0000E+00 0.9000E+01
#aMCatNLO 2  0  0  2  1 0.14806608D+03 0.00000000D+00  -5  7  0 0.00000000D+00 0.00000000D+00 0.00000000D+00 0.00000000D+00 0.00000000D+00
  <mgrwgt>
 0.5991437216D-05    1    2    0
 0.993741929674685D+03 0.000000000000000D+00 0.000000000000000D+00 0.993741929674685D+03
 0.993741929674685D+03 0.000000000000000D+00 0.000000000000000D+00 -.993741929674685D+03
 0.973196812606177D+03 -.156784373606053D+03 -.166982917070556D+03 0.941452149778409D+03
 0.686318200126970D+03 0.153276181899222D+03 0.154017681138850D+03 -.651012778510938D+03
 0.111596168472347D+03 -.805300556084063D-01 0.527666336040341D+02 -.983330092629948D+02
 0.216372678143877D+03 0.358872176244022D+01 -.398013976723282D+02 -.192106362004475D+03
 0.000000000000000D+00 0.000000000000000D+00 -.000000000000000D+00 0.000000000000000D+00
 0.126933991509702D+04 0.000000000000000D+00 0.000000000000000D+00 0.126933991509702D+04
 0.101658381392045D+04 0.000000000000000D+00 0.000000000000000D+00 -.101658381392045D+04
 0.986605105842124D+03 -.229478670345849D+03 -.161498523410162D+03 0.941452149778409D+03
 0.677696756689143D+03 0.102681217635273D+03 0.157834799038075D+03 -.651012778510938D+03
 0.112207147609790D+03 -.838199385022828D+01 0.533929343930791D+02 -.983330092629948D+02
 0.216482624644102D+03 -.124670395520385D+02 -.385900768464165D+02 -.192106362004475D+03
 0.292932094232317D+03 0.147646486112843D+03 -.111391331745754D+02 0.252756101176569D+03
0.139297447637D-04 0.000000000000D+00 0.000000000000D+00 0.182427434721D-05 0.260763060752D-11  7 1 21 23 -11 11 23 1 2 0.63815403D+00 0.47859582D-01 0.15415942D+06 0.15415942D+06 0.15415942D+06 0.11066157D+01  1  2  1  4  7  2       -1 0.599143721567D-05 0.100000000000D+01
  </mgrwgt>
  </event>
  <event>
  8     66 0.25924217E-05 0.77043811E+03 0.75467711E-02 0.82162826E-01
        1 -1    0    0  501    0 0.00000000E+00 0.00000000E+00 0.26769977E+04 0.26769977E+04 0.32000000E+00 0.0000E+00 0.9000E+01
       -1 -1    0    0    0  501 0.00000000E+00 0.00000000E+00 -.47742682E+03 0.47742692E+03 0.32000000E+00 0.0000E+00 0.9000E+01
       25  2    1    2    0    0 -.43982681E+03 -.61161329E+03 -.17586780E+02 0.81100368E+03 0.29983200E+03 0.0000E+00 0.0000E+00
       23  2    3    3    0    0 -.42024391E+02 -.10734213E+03 0.56625608E+02 0.15804204E+03 0.92100189E+02 0.0000E+00 0.0000E+00
       23  1    1    2    0    0 0.43982681E+03 0.61161329E+03 0.22171576E+04 0.23434209E+04 0.91188000E+02 0.0000E+00 0.9000E+01
      -13  1    4    4    0    0 0.17988252E+02 -.34681157E+02 0.50161152E+02 0.63580754E+02 0.10565837E+00 0.0000E+00 0.9000E+01
       13  1    4    4    0    0 -.60012644E+02 -.72660969E+02 0.64644555E+01 0.94461284E+02 0.10565837E+00 0.0000E+00 0.9000E+01
       23  1    3    3    0    0 -.39780242E+03 -.50427117E+03 -.74212388E+02 0.65296164E+03 0.91188000E+02 0.0000E+00 0.9000E+01
#aMCatNLO 1  0  0  1  1 0.14441024D+04 0.00000000D+00  -5  7  0 0.00000000D+00 0.00000000D+00 0.00000000D+00 0.00000000D+00 0.00000000D+00
  <mgrwgt>
 0.6181000707D-03    5    2    0
 0.113051787477082D+04 0.000000000000000D+00 0.000000000000000D+00 0.113051787477082D+04
 0.113051787477082D+04 0.000000000000000D+00 0.000000000000000D+00 -.113051787477082D+04
 0.111247659059154D+04 0.439826812435482D+03 0.611613292235521D+03 0.813492759091225D+03
 0.399053535929109D+02 0.179883551548979D+02 -.346811071643220D+02 0.812878404518909D+01
 0.125496566580052D+03 -.600127465766026D+02 -.726610185048728D+02 -.828748143982740D+02
 0.983157238777139D+03 -.397802421013777D+03 -.504271166566326D+03 -.738746728738140D+03
 0.000000000000000D+00 0.000000000000000D+00 -.000000000000000D+00 0.000000000000000D+00
 0.217212786080525D+04 0.000000000000000D+00 0.000000000000000D+00 0.217212786080525D+04
 0.196904056540525D+04 0.000000000000000D+00 0.000000000000000D+00 -.196904056540525D+04
 0.122994889928273D+04 -.180631621547513D+03 0.900033772536382D+03 0.813492759091225D+03
 0.275945842416513D+02 0.109064691306799D+00 -.263699081209886D+02 0.812878404518909D+01
 0.164104583046227D+03 -.136721899782769D+03 -.370027219947132D+02 -.828748143982740D+02
 0.126120757445539D+04 -.992286678175584D+03 -.227924798154146D+03 -.738746728738140D+03
 0.145831278518450D+04 0.130953113481456D+04 -.608736344266535D+03 0.203087295399996D+03
0.257005794647D-02 0.000000000000D+00 0.000000000000D+00 0.111457051341D-04 0.000000000000D+00  7 1 -1 23 -13 13 23 21 0 0.41184580D+00 0.73450289D-01 0.59357489D+06 0.59357489D+06 0.59357489D+06 0.10632843D+01  1  2  2  1  7  1        1 0.608266382590D-03 0.100000000000D+01
-.117252884112D-03 0.000000000000D+00 -.986969922624D-05 0.111457051341D-04 0.000000000000D+00  7 1 -1 23 -13 13 23 21 2 0.41184580D+00 0.73450289D-01 0.59357489D+06 0.59357489D+06 0.59357489D+06 0.10632843D+01  1  2  3  1  7  1        1 -.313742386981D-04 0.100000000000D+01
0.154035935702D-03 0.000000000000D+00 0.000000000000D+00 0.111457051341D-04 0.000000000000D+00  7 1 -1 23 -13 13 23 21 2 0.41184580D+00 0.73450289D-01 0.59357489D+06 0.59357489D+06 0.59357489D+06 0.10632843D+01  1  2 15  1  7  1        1 0.412165572848D-04 0.100000000000D+01
-.316964356290D-04 0.000000000000D+00 -.518002313946D-03 0.111457051341D-04 0.000000000000D+00  7 1 -1 23 -13 13 23 21 2 0.84105367D+00 0.73450289D-01 0.59357489D+06 0.59357489D+06 0.59357489D+06 0.10632843D+01  1  2  5  1  7  1        1 -.882685570042D-08 0.100000000000D+01
0.291129926021D-04 0.000000000000D+00 -.399959133150D-04 0.111457051341D-04 0.000000000000D+00  7 21 -1 23 -13 13 23 -1 2 0.84105367D+00 0.73450289D-01 0.59357489D+06 0.59357489D+06 0.59357489D+06 0.10632843D+01  1  2  5  3  7  1        1 0.196380335191D-09 0.100000000000D+01
  </mgrwgt>
  </event>
  <event>
  8     66 0.25924217E-05 0.15392978E+03 0.75467711E-02 0.10011483E+00
        1 -1    0    0  501    0 0.00000000E+00 0.00000000E+00 0.16307942E+04 0.16307942E+04 0.32000000E+00 0.0000E+00 0.9000E+01
       -1 -1    0    0    0  501 0.00000000E+00 0.00000000E+00 -.41485604E+02 0.41486838E+02 0.32000000E+00 0.0000E+00 0.9000E+01
       25  2    1    2    0    0 -.21052388E+02 -.15526651E+03 0.10430120E+04 0.10966891E+04 0.30050300E+03 0.0000E+00 0.0000E+00
       23  2    3    3    0    0 -.52323263E+02 -.11543036E+03 0.92962861E+03 0.94262472E+03 0.90940220E+02 0.0000E+00 0.0000E+00
       23  1    1    2    0    0 0.21052388E+02 0.15526651E+03 0.54629659E+03 0.57559197E+03 0.91188000E+02 0.0000E+00 0.9000E+01
      -13  1    4    4    0    0 -.51968473E+02 -.10274403E+03 0.91866801E+03 0.92585527E+03 0.10565837E+00 0.0000E+00 0.9000E+01
       13  1    4    4    0    0 -.35478957E+00 -.12686321E+02 0.10960602E+02 0.16769454E+02 0.10565837E+00 0.0000E+00 0.9000E+01
       23  1    3    3    0    0 0.31270875E+02 -.39836158E+02 0.11338338E+03 0.15406437E+03 0.91188000E+02 0.0000E+00 0.9000E+01
#aMCatNLO 1  0  0  2  1 0.18292873D+03 0.00000000D+00  -5  7  0 0.00000000D+00 0.00000000D+00 0.00000000D+00 0.00000000D+00 0.00000000D+00
  <mgrwgt>
 0.3898115303D-03    7    2    0
 0.260106785891661D+03 0.000000000000000D+00 0.000000000000000D+00 0.260106785891661D+03
 0.260106785891661D+03 0.000000000000000D+00 0.000000000000000D+00 -.260106785891661D+03
 0.181305688358995D+03 0.210523883653669D+02 0.155266517066771D+03 -.236789133974976D+01
 0.169629140694304D+03 -.519685421412968D+02 -.102744156904356D+03 0.124567067166283D+03
 0.204211427119655D+02 -.354719975324828D+00 -.126861996680611D+02 -.159986743633231D+02
 0.148857600018058D+03 0.312708737512547D+02 -.398361604943538D+02 -.106200501463210D+03
 0.000000000000000D+00 -.000000000000000D+00 0.000000000000000D+00 -.000000000000000D+00
 0.324313147917656D+03 0.000000000000000D+00 0.000000000000000D+00 0.324313147917656D+03
 0.447876586035434D+03 0.000000000000000D+00 0.000000000000000D+00 -.447876586035434D+03
 0.194925751114674D+03 0.850420379161900D+02 0.149810019629143D+03 -.236789133974976D+01
 0.164672458497218D+03 0.488965718003453D+01 -.107592544433946D+03 0.124567067166283D+03
 0.219016476294870D+02 0.684356341574741D+01 -.133000085442531D+02 -.159986743633231D+02
 0.169939241729054D+03 0.854920154236391D+02 -.444596819963066D+02 -.106200501463210D+03
 0.220750634982658D+03 -.182267273935611D+03 0.155422153453628D+02 -.123563438117778D+03
0.548717932315D-05 0.000000000000D+00 0.000000000000D+00 0.210110408163D-06 0.000000000000D+00  7 1 -1 23 -13 13 23 21 0 0.25089151D+00 0.63824980D-02 0.42730729D+05 0.42730729D+05 0.42730729D+05 0.11533456D+01  1  2  2  2  7  2       -1 0.426529287167D-03 0.100000000000D+01
-.285277845339D-06 0.000000000000D+00 -.210722134084D-07 0.210110408163D-06 0.000000000000D+00  7 1 -1 23 -13 13 23 21 2 0.25089151D+00 0.63824980D-02 0.42730729D+05 0.42730729D+05 0.42730729D+05 0.11533456D+01  1  2  3  2  7  2       -1 -.294976014250D-04 0.100000000000D+01
0.361356597947D-06 0.000000000000D+00 0.000000000000D+00 0.210110408163D-06 0.000000000000D+00  7 1 -1 23 -13 13 23 21 2 0.25089151D+00 0.63824980D-02 0.42730729D+05 0.42730729D+05 0.42730729D+05 0.11533456D+01  1  2 15  2  7  2       -1 0.373641103670D-04 0.100000000000D+01
0.601290732042D-07 0.000000000000D+00 0.000000000000D+00 0.210110408163D-06 0.000000000000D+00  7 1 -1 23 -13 13 23 21 2 0.25089151D+00 0.11308827D-01 0.10022578D+06 0.10022578D+06 0.10022578D+06 0.11216417D+01  1  2 12  2  7  2       -1 0.243405048180D-05 0.100000000000D+01
-.142232757581D-05 0.000000000000D+00 -.175393182810D-05 0.210110408163D-06 0.000000000000D+00  7 1 -1 23 -13 13 23 21 2 0.25089151D+00 0.14025238D-01 0.42730729D+05 0.42730729D+05 0.42730729D+05 0.11533456D+01  1  2  5  2  7  2       -1 -.445492487718D-04 0.100000000000D+01
0.378655479709D-08 0.000000000000D+00 0.000000000000D+00 0.210110408163D-06 0.000000000000D+00  7 1 21 23 -13 13 23 1 2 0.25089151D+00 0.11308827D-01 0.10022578D+06 0.10022578D+06 0.10022578D+06 0.11216417D+01  1  2 12  4  7  2       -1 0.209826021692D-05 0.100000000000D+01
-.109186945250D-07 0.000000000000D+00 -.149659839800D-06 0.210110408163D-06 0.000000000000D+00  7 1 21 23 -13 13 23 1 2 0.25089151D+00 0.14025238D-01 0.42730729D+05 0.42730729D+05 0.42730729D+05 0.11533456D+01  1  2  5  4  7  2       -1 -.456732772216D-05 0.100000000000D+01
  </mgrwgt>
  </event>
  <event>
  8     66 0.25924217E-05 0.35657153E+03 0.75467711E-02 0.96998272E-01
        1 -1    0    0  501    0 0.00000000E+00 0.00000000E+00 0.26508693E+03 0.26508712E+03 0.32000000E+00 0.0000E+00 0.9000E+01
       -1 -1    0    0    0  501 0.00000000E+00 0.00000000E+00 -.60636727E+03 0.60636736E+03 0.32000000E+00 0.0000E+00 0.9000E+01
       25  2    1    2    0    0 -.21479152E+03 0.19981380E+03 -.11461921E+02 0.42072574E+03 0.30135995E+03 0.0000E+00 0.0000E+00
       23  2    3    3    0    0 -.19903404E+03 0.21960552E+03 0.30294919E+02 0.31729028E+03 0.10915220E+03 0.0000E+00 0.0000E+00
       23  1    1    2    0    0 0.21479152E+03 -.19981380E+03 -.32981842E+03 0.45072874E+03 0.91188000E+02 0.0000E+00 0.9000E+01
      -13  1    4    4    0    0 -.20973653E+03 0.21164660E+03 0.40215401E+02 0.30066756E+03 0.10565837E+00 0.0000E+00 0.9000E+01
       13  1    4    4    0    0 0.10702482E+02 0.79589155E+01 -.99204823E+01 0.16622713E+02 0.10565837E+00 0.0000E+00 0.9000E+01
       23  1    3    3    0    0 -.15757481E+02 -.19791712E+02 -.41756840E+02 0.10343546E+03 0.91188000E+02 0.0000E+00 0.9000E+01
#aMCatNLO 1  0  0  1  1 0.96273729D+02 0.00000000D+00  -5  7  0 0.00000000D+00 0.00000000D+00 0.00000000D+00 0.00000000D+00 0.00000000D+00
  <mgrwgt>
 0.5001976842D-03    4    2    0
 0.400924133099495D+03 0.000000000000000D+00 0.000000000000000D+00 0.400924133099495D+03
 0.400924133099495D+03 0.000000000000000D+00 0.000000000000000D+00 -.400924133099495D+03
 0.349478885699925D+03 0.214791525349999D+03 -.199813805094767D+03 -.166611176508156D+03
 0.343884361812111D+03 -.209736725438485D+03 0.211646815225025D+03 0.171675816311934D+03
 0.138430325023619D+02 0.107026700009191D+02 0.795872736331962D+01 -.370689391124452D+01
 0.946419861845926D+02 -.157574699124338D+02 -.197917374935771D+02 -.135774589253361D+01
 0.000000000000000D+00 0.000000000000000D+00 -.000000000000000D+00 -.000000000000000D+00
 0.414799995638894D+03 0.000000000000000D+00 0.000000000000000D+00 0.414799995638894D+03
 0.614522619012032D+03 0.000000000000000D+00 0.000000000000000D+00 -.614522619012032D+03
 0.318924628334313D+03 0.196697275736256D+03 -.164160180295596D+03 -.166611176508156D+03
 0.380410598330262D+03 -.229344003867785D+03 0.250281771820307D+03 0.171675816311934D+03
 0.142130207834772D+02 0.994316886025866D+01 0.945527843792636D+01 -.370689391124452D+01
 0.940588803303110D+02 -.208657622977360D+02 -.972615622008271D+01 -.135774589253361D+01
 0.221715486872563D+03 0.435693215690064D+02 -.858507137425541D+02 -.199722623373138D+03
0.351095795106D-04 0.000000000000D+00 0.000000000000D+00 0.100635713154D-08 0.000000000000D+00  7 1 -1 23 -13 13 23 21 0 0.40782626D-01 0.93287294D-01 0.12714326D+06 0.12714326D+06 0.12714326D+06 0.11132627D+01  1  2  2  1  7  1        1 0.530982827752D-03 0.100000000000D+01
-.191793602165D-05 0.000000000000D+00 -.134830029885D-06 0.100635713154D-08 0.000000000000D+00  7 1 -1 23 -13 13 23 21 2 0.40782626D-01 0.93287294D-01 0.12714326D+06 0.12714326D+06 0.12714326D+06 0.11132627D+01  1  2  3  1  7  1        1 -.359487925456D-04 0.100000000000D+01
0.221973415251D-05 0.000000000000D+00 0.000000000000D+00 0.100635713154D-08 0.000000000000D+00  7 1 -1 23 -13 13 23 21 2 0.40782626D-01 0.93287294D-01 0.12714326D+06 0.12714326D+06 0.12714326D+06 0.11132627D+01  1  2 15  1  7  1        1 0.416055393163D-04 0.100000000000D+01
-.194424372001D-05 0.000000000000D+00 0.000000000000D+00 0.100635713154D-08 0.000000000000D+00  7 1 -1 23 -13 13 23 21 2 0.40782626D-01 0.93287294D-01 0.12714326D+06 0.12714326D+06 0.12714326D+06 0.11132627D+01  1  2  4  1  7  1        1 -.364418903236D-04 0.100000000000D+01
  </mgrwgt>
  </event>
  <event>
  8     66 0.25924217E-05 0.22432273E+03 0.75467711E-02 0.99726250E-01
        1 -1    0    0  501    0 0.00000000E+00 0.00000000E+00 0.66603469E+03 0.66603477E+03 0.32000000E+00 0.0000E+00 0.9000E+01
       -1 -1    0    0    0  501 0.00000000E+00 0.00000000E+00 -.20782872E+03 0.20782897E+03 0.32000000E+00 0.0000E+00 0.9000E+01
       25  2    1    2    0    0 -.23094669E+03 0.32391692E+02 0.35068234E+02 0.38218661E+03 0.30075111E+03 0.0000E+00 0.0000E+00
       23  2    3    3    0    0 -.13422081E+02 0.10198662E+03 0.20674280E+02 0.13584772E+03 0.86288790E+02 0.0000E+00 0.0000E+00
       23  1    1    2    0    0 0.23094669E+03 -.32391692E+02 0.42313774E+03 0.49167712E+03 0.91188000E+02 0.0000E+00 0.9000E+01
      -11  1    4    4    0    0 0.33550007E+02 0.69164509E+02 0.93847918E+01 0.77442925E+02 0.51099893E-03 0.0000E+00 0.9000E+01
       11  1    4    4    0    0 -.46972088E+02 0.32822112E+02 0.11289488E+02 0.58404799E+02 0.51099893E-03 0.0000E+00 0.9000E+01
       23  1    3    3    0    0 -.21752461E+03 -.69594929E+02 0.14393954E+02 0.24633889E+03 0.91188000E+02 0.0000E+00 0.9000E+01
#aMCatNLO 1  0  0  1  2 0.21350594D+02 0.00000000D+00  -5  7  0 0.00000000D+00 0.00000000D+00 0.00000000D+00 0.00000000D+00 0.00000000D+00
  <mgrwgt>
 0.8013121086D-03    9    2    0
 0.372050104000129D+03 0.000000000000000D+00 0.000000000000000D+00 0.372050104000129D+03
 0.372050104000129D+03 0.000000000000000D+00 0.000000000000000D+00 -.372050104000129D+03
 0.316858627287365D+03 0.230946694154322D+03 -.323916919295684D+02 0.194161121483068D+03
 0.851691685270332D+02 0.335500071130744D+02 0.691645090063896D+02 -.366668103903773D+02
 0.616381029942214D+02 -.469720876190502D+02 0.328221116823741D+02 -.227065565452864D+02
 0.280434309191638D+03 -.217524613648347D+03 -.695949287591953D+02 -.134787754547405D+03
 0.000000000000000D+00 -.000000000000000D+00 0.000000000000000D+00 0.000000000000000D+00
 0.383797941640212D+03 0.000000000000000D+00 0.000000000000000D+00 0.383797941640212D+03
 0.382032011928106D+03 0.000000000000000D+00 0.000000000000000D+00 -.382032011928106D+03
 0.321612433991303D+03 0.236293439064310D+03 -.398268240437102D+02 0.194161121483068D+03
 0.841550495527512D+02 0.349679780377747D+02 0.671926922586961D+02 -.366668103903773D+02
 0.601119945901313D+02 -.459525164058366D+02 0.314043057466807D+02 -.227065565452864D+02
 0.278526974961683D+03 -.212843707054175D+03 -.761041525070144D+02 -.134787754547405D+03
 0.214235004724498D+02 -.124651936420732D+02 0.173339785453478D+02 0.176592971210528D+01
0.979375050065D-05 0.000000000000D+00 0.000000000000D+00 0.230664186291D-07 0.000000000000D+00  7 1 -1 23 -11 11 23 21 0 0.10246690D+00 0.31973674D-01 0.99380941D+05 0.99380941D+05 0.99380941D+05 0.11219434D+01  1  2  2  1  7  1        1 0.309380954898D-03 0.100000000000D+01
-.525940022355D-06 0.000000000000D+00 -.376105806762D-07 0.230664186291D-07 0.000000000000D+00  7 1 -1 23 -11 11 23 21 2 0.10246690D+00 0.31973674D-01 0.99380941D+05 0.99380941D+05 0.99380941D+05 0.11219434D+01  1  2  3  1  7  1        1 -.209133051274D-04 0.100000000000D+01
0.633159008350D-06 0.000000000000D+00 0.000000000000D+00 0.230664186291D-07 0.000000000000D+00  7 1 -1 23 -11 11 23 21 2 0.10246690D+00 0.31973674D-01 0.99380941D+05 0.99380941D+05 0.99380941D+05 0.11219434D+01  1  2 15  1  7  1        1 0.251767254306D-04 0.100000000000D+01
0.204825000315D-04 0.000000000000D+00 0.000000000000D+00 0.230664186291D-07 0.000000000000D+00  7 1 -1 23 -11 11 23 21 2 0.10703715D+00 0.31973674D-01 0.10656542D+06 0.10656542D+06 0.10656542D+06 0.11194628D+01  1  2 12  1  7  1        1 0.758926440381D-03 0.100000000000D+01
-.166167565159D-04 0.000000000000D+00 0.000000000000D+00 0.230664186291D-07 0.000000000000D+00  7 1 -1 23 -11 11 23 21 2 0.10246690D+00 0.31973674D-01 0.99380941D+05 0.99380941D+05 0.99380941D+05 0.11219434D+01  1  2  4  1  7  1        1 -.660743211155D-03 0.100000000000D+01
-.142758749569D-03 0.000000000000D+00 -.239222235082D-04 0.230664186291D-07 0.000000000000D+00  7 1 -1 23 -11 11 23 21 2 0.10795428D+00 0.31973674D-01 0.99380941D+05 0.99380941D+05 0.99380941D+05 0.11219434D+01  1  2  5  1  7  1        1 -.525178791413D-02 0.100000000000D+01
0.143843458922D-03 0.000000000000D+00 0.238897082896D-04 0.230664186291D-07 0.000000000000D+00  7 1 -1 23 -11 11 23 21 2 0.10246690D+00 0.31973674D-01 0.99380941D+05 0.99380941D+05 0.99380941D+05 0.11219434D+01  1  2  6  1  7  1        1 0.571974373341D-02 0.100000000000D+01
0.254639088849D-06 0.000000000000D+00 0.000000000000D+00 0.230664186291D-07 0.000000000000D+00  7 21 -1 23 -11 11 23 -1 2 0.10703715D+00 0.31973674D-01 0.10656542D+06 0.10656542D+06 0.10656542D+06 0.11194628D+01  1  2 12  3  7  1        1 0.200183137355D-04 0.100000000000D+01
-.127052606794D-05 0.000000000000D+00 -.216732672525D-06 0.230664186291D-07 0.000000000000D+00  7 21 -1 23 -11 11 23 -1 2 0.10795428D+00 0.31973674D-01 0.99380941D+05 0.99380941D+05 0.99380941D+05 0.11219434D+01  1  2  5  3  7  1        1 -.984896288507D-04 0.100000000000D+01
  </mgrwgt>
  </event>
  <event>
  9     66 0.25924217E-05 0.42999621E+03 0.75467711E-02 0.96227208E-01
        1 -1    0    0  501    0 0.00000000E+00 0.00000000E+00 0.64825353E+03 0.64825361E+03 0.32000000E+00 0.0000E+00 0.9000E+01
       21 -1    0    0  502  501 0.00000000E+00 0.00000000E+00 -.62653749E+03 0.62653794E+03 0.75000000E+00 0.0000E+00 0.9000E+01
       25  2    1    2    0    0 0.34321084E+03 -.21246059E+03 0.43704426E+03 0.66571787E+03 0.29872967E+03 0.0000E+00 0.0000E+00
       23  2    3    3    0    0 0.16889290E+03 -.13481729E+03 0.72589304E+02 0.24434168E+03 0.87938256E+02 0.0000E+00 0.0000E+00
       23  1    1    2    0    0 -.35383922E+03 0.21328366E+03 -.36857457E+03 0.56111904E+03 0.91188000E+02 0.0000E+00 0.9000E+01
      -13  1    4    4    0    0 0.54150097E+02 -.90839058E+01 0.46867244E+02 0.72189335E+02 0.10565837E+00 0.0000E+00 0.9000E+01
       13  1    4    4    0    0 0.11474280E+03 -.12573338E+03 0.25722060E+02 0.17215234E+03 0.10565837E+00 0.0000E+00 0.9000E+01
       23  1    3    3    0    0 0.17431794E+03 -.77643304E+02 0.36445496E+03 0.42137619E+03 0.91188000E+02 0.0000E+00 0.9000E+01
        1  1    1    2  502    0 0.10628380E+02 -.82306851E+00 -.46753659E+02 0.47954634E+02 0.32000000E+00 0.0000E+00 0.9000E+01
#aMCatNLO 2  0  0  2  1 0.10660202D+02 0.00000000D+00  -5  7  0 0.00000000D+00 0.00000000D+00 0.00000000D+00 0.00000000D+00 0.00000000D+00
  <mgrwgt>
 0.1376259554D-04    2    2    0
 0.612439195524679D+03 0.000000000000000D+00 0.000000000000000D+00 0.612439195524679D+03
 0.612439195524679D+03 0.000000000000000D+00 0.000000000000000D+00 -.612439195524679D+03
 0.579405646052361D+03 -.348797912340526D+03 0.212893260526376D+03 -.400514827818763D+03
 0.701607441788265D+02 0.547567124972198D+02 -.913072093842225D+01 0.429052723493069D+02
 0.172070033134235D+03 0.116231210626019D+03 -.125848809710015D+03 0.161393641076529D+02
 0.403241967683934D+03 0.177809989217287D+03 -.779137298779392D+02 0.341470191361803D+03
 0.000000000000000D+00 0.000000000000000D+00 -.000000000000000D+00 -.000000000000000D+00
 0.613029743596299D+03 0.000000000000000D+00 0.000000000000000D+00 0.613029743596299D+03
 0.662536868348399D+03 0.000000000000000D+00 0.000000000000000D+00 -.662536868348399D+03
 0.582597195197281D+03 -.353839218465607D+03 0.213283662479557D+03 -.400514827818763D+03
 0.696821368429925D+02 0.541500093570741D+02 -.908373746131587D+01 0.429052723493069D+02
 0.170983435641951D+03 0.114742885905993D+03 -.125733552896949D+03 0.161393641076529D+02
 0.401662010727544D+03 0.174317943232180D+03 -.776433036155066D+02 0.341470191361803D+03
 0.506418335349299D+02 0.106283799703600D+02 -.823068505785939D+00 -.495071247520999D+02
-.614415418478D-04 0.000000000000D+00 0.000000000000D+00 0.821847419694D-07 0.000000000000D+00  7 1 21 23 -13 13 23 1 2 0.99635196D-01 0.96431321D-01 0.18938828D+06 0.18938828D+06 0.18938828D+06 0.10996485D+01  1  2 13  4  7  2       -1 -.217531202790D-02 0.100000000000D+01
0.618514355435D-04 0.000000000000D+00 0.000000000000D+00 0.821847419694D-07 0.618382787945D-10  7 1 21 23 -13 13 23 1 2 0.99731270D-01 0.96390345D-01 0.18938828D+06 0.18938828D+06 0.18938828D+06 0.10996485D+01  1  2  1  4  7  2       -1 0.218907462344D-02 0.100000000000D+01
  </mgrwgt>
  </event>
  <event>
  8     66 0.25924217E-05 0.38351846E+03 0.75467711E-02 0.87681971E-01
        1 -1    0    0  501    0 0.00000000E+00 0.00000000E+00 0.83937154E+03 0.83937160E+03 0.32000000E+00 0.0000E+00 0.9000E+01
       -1 -1    0    0    0  501 0.00000000E+00 0.00000000E+00 -.28427559E+03 0.28427577E+03 0.32000000E+00 0.0000E+00 0.9000E+01
       25  2    1    2    0    0 -.37938778E+02 0.32599484E+03 -.31489038E+02 0.44533389E+03 0.29936388E+03 0.0000E+00 0.0000E+00
       23  2    3    3    0    0 -.80941985E+02 0.31374615E+03 -.52381739E+02 0.34164656E+03 0.94817064E+02 0.0000E+00 0.0000E+00
       23  1    1    2    0    0 0.37938778E+02 -.32599484E+03 0.58658499E+03 0.67831348E+03 0.91188000E+02 0.0000E+00 0.9000E+01
      -11  1    4    4    0    0 -.68217996E+02 0.22259702E+03 -.78979466E+02 0.24584728E+03 0.51099893E-03 0.0000E+00 0.9000E+01
       11  1    4    4    0    0 -.12723989E+02 0.91149133E+02 0.26597727E+02 0.95799287E+02 0.51099893E-03 0.0000E+00 0.9000E+01
       23  1    3    3    0    0 0.43003207E+02 0.12248689E+02 0.20892701E+02 0.10368733E+03 0.91188000E+02 0.0000E+00 0.9000E+01
#aMCatNLO 1  0  0  1  1 0.84039024D+03 0.00000000D+00  -5  7  0 0.00000000D+00 0.00000000D+00 0.00000000D+00 0.00000000D+00 0.00000000D+00
  <mgrwgt>
 0.3678644583D-03    5    2    0
 0.488480274973806D+03 0.000000000000000D+00 0.000000000000000D+00 0.488480274973806D+03
 0.488480274973806D+03 0.000000000000000D+00 0.000000000000000D+00 -.488480274973806D+03
 0.446869854043407D+03 0.379387775039340D+02 -.325994838761541D+03 0.289249769872198D+03
 0.327635365522705D+03 -.682179959415686D+02 0.222597016282552D+03 -.230525066127347D+03
 0.950707042665531D+02 -.127239888137863D+02 0.911491331870306D+02 -.238406048089806D+02
 0.107384626114948D+03 0.430032072514209D+02 0.122486892919587D+02 -.348840989358698D+02
 0.000000000000000D+00 -.000000000000000D+00 0.000000000000000D+00 0.000000000000000D+00
 0.171150646700198D+04 0.000000000000000D+00 0.000000000000000D+00 0.171150646700198D+04
 0.809793752194574D+03 0.000000000000000D+00 0.000000000000000D+00 -.809793752194574D+03
 0.780849168816691D+03 0.406150932722855D+03 -.593958048665857D+03 0.289249769872198D+03
 0.272057705812861D+03 0.111639344504223D+03 0.917073930378954D+02 -.230525066127347D+03
 0.704191491471056D+02 0.369090090120121D+02 0.550291484823773D+02 -.238406048089806D+02
 0.165358449804193D+03 0.124803125583931D+03 -.472804934783874D+02 -.348840989358698D+02
 0.123261574561570D+04 -.679502411823021D+03 0.494502000623972D+03 0.901712714807402D+03
0.283796820933D-04 0.000000000000D+00 0.000000000000D+00 0.914563785059D-07 0.000000000000D+00  7 1 -1 23 -11 11 23 21 0 0.12913410D+00 0.43734725D-01 0.14708641D+06 0.14708641D+06 0.14708641D+06 0.11082248D+01  1  2  2  1  7  1        1 0.363021890441D-03 0.100000000000D+01
-.146446551407D-05 0.000000000000D+00 -.108985451780D-06 0.914563785059D-07 0.000000000000D+00  7 1 -1 23 -11 11 23 21 2 0.12913410D+00 0.43734725D-01 0.14708641D+06 0.14708641D+06 0.14708641D+06 0.11082248D+01  1  2  3  1  7  1        1 -.230070080443D-04 0.100000000000D+01
0.169275846530D-05 0.000000000000D+00 0.000000000000D+00 0.914563785059D-07 0.000000000000D+00  7 1 -1 23 -11 11 23 21 2 0.12913410D+00 0.43734725D-01 0.14708641D+06 0.14708641D+06 0.14708641D+06 0.11082248D+01  1  2 15  1  7  1        1 0.265935300312D-04 0.100000000000D+01
0.523498848084D-05 0.000000000000D+00 -.978729067213D-05 0.914563785059D-07 0.000000000000D+00  7 1 -1 23 -11 11 23 21 2 0.52749772D+00 0.43734725D-01 0.14708641D+06 0.14708641D+06 0.14708641D+06 0.11082248D+01  1  2  5  1  7  1        1 0.122274042909D-05 0.100000000000D+01
0.961639575627D-06 0.000000000000D+00 -.164811675355D-05 0.914563785059D-07 0.000000000000D+00  7 21 -1 23 -11 11 23 -1 2 0.52749772D+00 0.43734725D-01 0.14708641D+06 0.14708641D+06 0.14708641D+06 0.11082248D+01  1  2  5  3  7  1        1 0.333054834433D-07 0.100000000000D+01
  </mgrwgt>
  </event>
  <event>
  8     66 0.25924217E-05 0.18837634E+03 0.75467711E-02 0.92775533E-01
        1 -1    0    0  501    0 0.00000000E+00 0.00000000E+00 0.17378547E+03 0.17378576E+03 0.32000000E+00 0.0000E+00 0.9000E+01
       -1 -1    0    0    0  501 0.00000000E+00 0.00000000E+00 -.34032770E+03 0.34032785E+03 0.32000000E+00 0.0000E+00 0.9000E+01
       25  2    1    2    0    0 -.45958914E+02 0.25215708E+02 -.23826339E+03 0.38680599E+03 0.30016891E+03 0.0000E+00 0.0000E+00
       23  2    3    3    0    0 -.12324678E+03 0.50904795E+02 -.20356991E+03 0.25971455E+03 0.90718658E+02 0.0000E+00 0.0000E+00
       23  1    1    2    0    0 0.45958914E+02 -.25215708E+02 0.71721163E+02 0.12730762E+03 0.91188000E+02 0.0000E+00 0.9000E+01
      -11  1    4    4    0    0 0.41040722E+01 -.80005368E+01 -.53561630E+02 0.54311143E+02 0.51099893E-03 0.0000E+00 0.9000E+01
       11  1    4    4    0    0 -.12735085E+03 0.58905332E+02 -.15000828E+03 0.20540341E+03 0.51099893E-03 0.0000E+00 0.9000E+01
       23  1    3    3    0    0 0.77287867E+02 -.25689087E+02 -.34693482E+02 0.12709143E+03 0.91188000E+02 0.0000E+00 0.9000E+01
#aMCatNLO 1  0  0  1  1 0.54683193D+03 0.00000000D+00  -5  7  0 0.00000000D+00 0.00000000D+00 0.00000000D+00 0.00000000D+00 0.00000000D+00
  <mgrwgt>
 0.3653686976D-03    3    2    0
 0.243195645723469D+03 0.000000000000000D+00 0.000000000000000D+00 0.243195645723469D+03
 0.243195645723469D+03 0.000000000000000D+00 0.000000000000000D+00 -.243195645723469D+03
 0.159121233575174D+03 0.459589138322533D+02 -.252157083403914D+02 0.119399589290487D+03
 0.390669501927551D+02 0.410407223502210D+01 -.800053675012141D+01 -.380180825419022D+02
 0.165747161603507D+03 -.127350852574314D+03 0.589053317169052D+02 -.882272283568717D+02
 0.122455946075502D+03 0.772878665070389D+02 -.256890866263924D+02 0.684572160828669D+01
 0.000000000000000D+00 -.000000000000000D+00 0.000000000000000D+00 -.000000000000000D+00
 0.561491152016733D+03 0.000000000000000D+00 0.000000000000000D+00 0.561491152016733D+03
 0.748177958595989D+03 0.000000000000000D+00 0.000000000000000D+00 -.748177958595989D+03
 0.297945007677823D+03 0.212912557056895D+03 -.144457458723652D+03 0.119399589290487D+03
 0.677645253395423D+02 0.431266524244625D+02 -.358712718618979D+02 -.380180825419022D+02
 0.943904289829551D+02 -.323297931124977D+02 -.896067728209189D+01 -.882272283568717D+02
 0.271748139326945D+03 0.221279704651888D+03 -.128531040175093D+03 0.684572160828669D+01
 0.577821009285456D+03 -.444989121020748D+03 0.317820448042735D+03 -.186686806579255D+03
0.444173852142D-05 0.000000000000D+00 0.000000000000D+00 0.336728798290D-06 0.000000000000D+00  7 1 -1 23 -11 11 23 21 0 0.26736260D-01 0.52358141D-01 0.35485645D+05 0.35485645D+05 0.35485645D+05 0.11606291D+01  1  2  2  1  7  1        1 0.361028081503D-03 0.100000000000D+01
-.227188915843D-06 0.000000000000D+00 -.170574454589D-07 0.336728798290D-06 0.000000000000D+00  7 1 -1 23 -11 11 23 21 2 0.26736260D-01 0.52358141D-01 0.35485645D+05 0.35485645D+05 0.35485645D+05 0.11606291D+01  1  2  3  1  7  1        1 -.248749400303D-04 0.100000000000D+01
0.266832825232D-06 0.000000000000D+00 0.000000000000D+00 0.336728798290D-06 0.000000000000D+00  7 1 -1 23 -11 11 23 21 2 0.26736260D-01 0.52358141D-01 0.35485645D+05 0.35485645D+05 0.35485645D+05 0.11606291D+01  1  2 15  1  7  1        1 0.292155561424D-04 0.100000000000D+01
  </mgrwgt>
  </event>
  <event>
  8     66 0.25924217E-05 0.13516343E+03 0.75467711E-02 0.10210376E+00
        1 -1    0    0  501    0 0.00000000E+00 0.00000000E+00 0.17920033E+04 0.17920033E+04 0.32000000E+00 0.0000E+00 0.9000E+01
       -1 -1    0    0    0  501 0.00000000E+00 0.00000000E+00 -.44319783E+02 0.44320939E+02 0.32000000E+00 0.0000E+00 0.9000E+01
       25  2    1    2    0    0 0.10198856E+03 -.13796366E+01 0.57079566E+03 0.65151042E+03 0.29707671E+03 0.0000E+00 0.0000E+00
       23  2    3    3    0    0 0.66418615E+01 -.54716996E+02 0.43995355E+03 0.45819520E+03 0.11552336E+03 0.0000E+00 0.0000E+00
       23  1    1    2    0    0 -.10198856E+03 0.13796366E+01 0.11768878E+04 0.11848138E+04 0.91188000E+02 0.0000E+00 0.9000E+01
      -11  1    4    4    0    0 -.50541110E+02 -.49144078E+02 0.23601146E+03 0.24631474E+03 0.51099893E-03 0.0000E+00 0.9000E+01
       11  1    4    4    0    0 0.57182971E+02 -.55729183E+01 0.20394209E+03 0.21188045E+03 0.51099893E-03 0.0000E+00 0.9000E+01
       23  1    3    3    0    0 0.95346702E+02 0.53337359E+02 0.13084211E+03 0.19331523E+03 0.91188000E+02 0.0000E+00 0.9000E+01
#aMCatNLO 1  0  0  1  2 0.11443786D+03 0.00000000D+00  -5  7  0 0.00000000D+00 0.00000000D+00 0.00000000D+00 0.00000000D+00 0.00000000D+00
  <mgrwgt>
 0.1097859298D-02    9    2    0
 0.281819594685035D+03 0.000000000000000D+00 0.000000000000000D+00 0.281819594685035D+03
 0.281819594685035D+03 0.000000000000000D+00 0.000000000000000D+00 -.281819594685035D+03
 0.210906035360929D+03 -.101988563832337D+03 0.137963655329144D+01 0.160507114664939D+03
 0.706842330591487D+02 -.505411085812069D+02 -.491440777458569D+02 0.516882666103896D+01
 0.579359716752221D+02 0.571829685068772D+02 -.557291936670028D+01 0.745838430398212D+01
 0.224112949274770D+03 0.953467039066663D+02 0.533373605592657D+02 -.173134325629960D+03
 0.000000000000000D+00 0.000000000000000D+00 -.000000000000000D+00 0.000000000000000D+00
 0.411480998988279D+03 0.000000000000000D+00 0.000000000000000D+00 0.411480998988279D+03
 0.313991785592437D+03 0.000000000000000D+00 0.000000000000000D+00 -.313991785592437D+03
 0.220554222919486D+03 -.112611739610750D+03 0.434163119967053D+02 0.160507114664939D+03
 0.649668068632552D+02 -.538810334386285D+02 -.359277533466961D+02 0.516882666103896D+01
 0.551764674383052D+02 0.543979766093219D+02 0.544749514512240D+01 0.745838430398212D+01
 0.234441755393923D+03 0.840564236590056D+02 0.980138166714307D+02 -.173134325629960D+03
 0.150333531965746D+03 0.280383727810511D+02 -.110949870466562D+03 0.974892133958417D+02
0.183181927800D-04 0.000000000000D+00 0.000000000000D+00 0.513783860535D-10 0.000000000000D+00  7 1 -1 23 -11 11 23 21 0 0.27569290D+00 0.68185193D-02 0.41426914D+05 0.41426914D+05 0.41426914D+05 0.11545506D+01  1  2  2  1  7  1        1 0.101583065678D-02 0.100000000000D+01
-.886641248037D-06 0.000000000000D+00 -.703466835663D-07 0.513783860535D-10 0.000000000000D+00  7 1 -1 23 -11 11 23 21 2 0.27569290D+00 0.68185193D-02 0.41426914D+05 0.41426914D+05 0.41426914D+05 0.11545506D+01  1  2  3  1  7  1        1 -.655409299508D-04 0.100000000000D+01
0.115046110841D-05 0.000000000000D+00 0.000000000000D+00 0.513783860535D-10 0.000000000000D+00  7 1 -1 23 -11 11 23 21 2 0.27569290D+00 0.68185193D-02 0.41426914D+05 0.41426914D+05 0.41426914D+05 0.11545506D+01  1  2 15  1  7  1        1 0.850426156967D-04 0.100000000000D+01
0.675257640374D-05 0.000000000000D+00 0.000000000000D+00 0.513783860535D-10 0.000000000000D+00  7 1 -1 23 -11 11 23 21 2 0.41253127D+00 0.68185193D-02 0.73769195D+05 0.73769195D+05 0.73769195D+05 0.11327284D+01  1  2 12  1  7  1        1 0.121535980485D-03 0.100000000000D+01
-.138231658642D-04 0.000000000000D+00 0.000000000000D+00 0.513783860535D-10 0.000000000000D+00  7 1 -1 23 -11 11 23 21 2 0.27569290D+00 0.68185193D-02 0.41426914D+05 0.41426914D+05 0.41426914D+05 0.11545506D+01  1  2  4  1  7  1        1 -.102181479557D-02 0.100000000000D+01
-.154174685966D-04 0.000000000000D+00 -.588527191271D-05 0.513783860535D-10 0.000000000000D+00  7 1 -1 23 -11 11 23 21 2 0.41670128D+00 0.68185193D-02 0.41426914D+05 0.41426914D+05 0.41426914D+05 0.11545506D+01  1  2  5  1  7  1        1 -.282037170182D-03 0.100000000000D+01
0.168584060705D-04 0.000000000000D+00 0.541653318989D-05 0.513783860535D-10 0.000000000000D+00  7 1 -1 23 -11 11 23 21 2 0.27569290D+00 0.68185193D-02 0.41426914D+05 0.41426914D+05 0.41426914D+05 0.11545506D+01  1  2  6  1  7  1        1 0.124618115139D-02 0.100000000000D+01
0.323204483295D-06 0.000000000000D+00 0.000000000000D+00 0.513783860535D-10 0.000000000000D+00  7 21 -1 23 -11 11 23 -1 2 0.41253127D+00 0.68185193D-02 0.73769195D+05 0.73769195D+05 0.73769195D+05 0.11327284D+01  1  2 12  3  7  1        1 0.184034322513D-05 0.100000000000D+01
-.541726543164D-06 0.000000000000D+00 -.286856957438D-06 0.513783860535D-10 0.000000000000D+00  7 21 -1 23 -11 11 23 -1 2 0.41670128D+00 0.68185193D-02 0.41426914D+05 0.41426914D+05 0.41426914D+05 0.11545506D+01  1  2  5  3  7  1        1 -.317855407452D-05 0.100000000000D+01
  </mgrwgt>
  </event>
  <event>
  9     66 -.25924217E-05 0.21278445E+03 0.75467711E-02 0.10377261E+00
        1 -1    0    0  502    0 0.00000000E+00 0.00000000E+00 0.23736929E+03 0.23736951E+03 0.32000000E+00 0.0000E+00 0.9000E+01
       -1 -1    0    0    0  501 0.00000000E+00 0.00000000E+00 -.26050869E+03 0.26050888E+03 0.32000000E+00 0.0000E+00 0.9000E+01
       25  2    1    2    0    0 -.57297308E+02 0.78677389E+02 0.13131614E+02 0.31216927E+03 0.29631756E+03 0.0000E+00 0.0000E+00
       23  2    3    3    0    0 -.61378987E+02 -.66953153E+02 0.45620243E+02 0.13725307E+03 0.92233901E+02 0.0000E+00 0.0000E+00
       23  1    1    2    0    0 0.84058854E+02 -.34468361E+02 -.37295378E+02 0.13401550E+03 0.91188000E+02 0.0000E+00 0.9000E+01
      -13  1    4    4    0    0 0.23611694E+02 -.13350340E+02 0.19574002E+02 0.33449909E+02 0.10565837E+00 0.0000E+00 0.9000E+01
       13  1    4    4    0    0 -.84990681E+02 -.53602814E+02 0.26046241E+02 0.10380316E+03 0.10565837E+00 0.0000E+00 0.9000E+01
       23  1    3    3    0    0 0.40816793E+01 0.14563054E+03 -.32488629E+02 0.17491620E+03 0.91188000E+02 0.0000E+00 0.9000E+01
       21  1    1    2  502  501 -.26761546E+02 -.44209027E+02 0.10243673E+01 0.51693620E+02 0.75000000E+00 0.0000E+00 0.9000E+01
#aMCatNLO 2  0  0  1  2 0.51678027D+02 0.00000000D+00  -5  7  0 0.00000000D+00 0.00000000D+00 0.00000000D+00 0.00000000D+00 0.00000000D+00
  <mgrwgt>
 -.1385282150D-03    2    2    0
 0.221261352000967D+03 0.000000000000000D+00 0.000000000000000D+00 0.221261352000967D+03
 0.221261352000967D+03 0.000000000000000D+00 0.000000000000000D+00 -.221261352000967D+03
 0.131448086162592D+03 0.761141427392808D+02 -.475927958251079D+02 -.300817398503190D+02
 0.347012451099481D+02 0.215246182424116D+02 -.167982672400020D+02 0.214169428124702D+02
 0.116579366280460D+03 -.916792441054698D+02 -.646518483345013D+02 0.317144028721318D+02
 0.159794006448933D+03 -.595951687622258D+01 0.129042911399611D+03 -.230496058342829D+02
 0.000000000000000D+00 -.000000000000000D+00 -.000000000000000D+00 0.000000000000000D+00
 0.250589592716915D+03 0.000000000000000D+00 0.000000000000000D+00 0.250589592716915D+03
 0.246760106651718D+03 0.000000000000000D+00 0.000000000000000D+00 -.246760106651718D+03
 0.132189746356908D+03 0.840588922425330D+02 -.344683805891660D+02 -.300817398503190D+02
 0.345605815832007D+02 0.236118295426867D+02 -.133502758617027D+02 0.214169428124702D+02
 0.105368444333459D+03 -.849908271158770D+02 -.536028452404943D+02 0.317144028721318D+02
 0.173411206550502D+03 0.408165181781340D+01 0.145630529088592D+03 -.230496058342829D+02
 0.518197205445640D+02 -.267615464871560D+02 -.442090273972291D+02 0.382948606519695D+01
-.467782701705D-05 0.000000000000D+00 0.000000000000D+00 0.232380430955D-08 0.000000000000D+00  7 1 -1 23 -13 13 23 21 2 0.38153930D-01 0.35936441D-01 0.57570979D+05 0.57570979D+05 0.57570979D+05 0.11419479D+01  1  2 13  1  7  1        1 -.604158611587D-03 0.100000000000D+01
0.410370925293D-05 0.000000000000D+00 0.000000000000D+00 0.232380430955D-08 0.614381106606D-11  7 1 -1 23 -13 13 23 21 2 0.36517985D-01 0.40077854D-01 0.57570979D+05 0.57570979D+05 0.57570979D+05 0.11419479D+01  1  2  1  1  7  1        1 0.465630396623D-03 0.100000000000D+01
  </mgrwgt>
  </event>
  <event>
  8     66 0.25924217E-05 0.20739190E+03 0.75467711E-02 0.99136186E-01
        1 -1    0    0  501    0 0.00000000E+00 0.00000000E+00 0.15513892E+04 0.15513893E+04 0.32000000E+00 0.0000E+00 0.9000E+01
       -1 -1    0    0    0  501 0.00000000E+00 0.00000000E+00 -.41066443E+02 0.41067690E+02 0.32000000E+00 0.0000E+00 0.9000E+01
       25  2    1    2    0    0 0.57105591E+02 -.13155687E+03 0.90759651E+03 0.96622818E+03 0.29882640E+03 0.0000E+00 0.0000E+00
       23  2    3    3    0    0 -.29736192E+02 0.59396779E+00 0.58432516E+03 0.59498034E+03 0.10807925E+03 0.0000E+00 0.0000E+00
       23  1    1    2    0    0 -.57105591E+02 0.13155687E+03 0.60272628E+03 0.62622877E+03 0.91188000E+02 0.0000E+00 0.9000E+01
      -13  1    4    4    0    0 -.40934614E+02 -.14562850E+02 0.86500397E+02 0.96799014E+02 0.10565837E+00 0.0000E+00 0.9000E+01
       13  1    4    4    0    0 0.11198421E+02 0.15156818E+02 0.49782476E+03 0.49818133E+03 0.10565837E+00 0.0000E+00 0.9000E+01
       23  1    3    3    0    0 0.86841783E+02 -.13215083E+03 0.32327135E+03 0.37124784E+03 0.91188000E+02 0.0000E+00 0.9000E+01
#aMCatNLO 1  0  0  1  2 0.21754886D+03 0.00000000D+00  -5  7  0 0.00000000D+00 0.00000000D+00 0.00000000D+00 0.00000000D+00 0.00000000D+00
  <mgrwgt>
 0.5166939771D-03    6    2    0
 0.252410491338892D+03 0.000000000000000D+00 0.000000000000000D+00 0.252410491338892D+03
 0.252410491338892D+03 0.000000000000000D+00 0.000000000000000D+00 -.252410491338892D+03
 0.172201898044680D+03 -.571055922358858D+02 0.131556869030882D+03 0.277485836101679D+02
 0.465601938882331D+02 -.409345425064111D+02 -.145626281377005D+02 -.167375250985245D+02
 0.821205815941350D+02 0.111981072427345D+02 0.151569381168299D+02 0.799290907145940D+02
 0.203938309150736D+03 0.868420274995623D+02 -.132151179010012D+03 -.909401492262374D+02
 0.000000000000000D+00 0.000000000000000D+00 -.000000000000000D+00 0.000000000000000D+00
 0.452716410101331D+03 0.000000000000000D+00 0.000000000000000D+00 0.452716410101331D+03
 0.341372171283213D+03 0.000000000000000D+00 0.000000000000000D+00 -.341372171283213D+03
 0.232912592806801D+03 -.133568572061664D+03 0.165295121552406D+03 0.277485836101679D+02
 0.643053706012696D+02 -.618597663934087D+02 -.532965697730975D+01 -.167375250985245D+02
 0.876431408019155D+02 -.208437978824933D+02 0.292949940603571D+02 0.799290907145940D+02
 0.164840390424858D+03 0.172372147796864D+02 -.101438999683398D+03 -.909401492262374D+02
 0.244387086749699D+03 0.199034921557879D+03 -.878214589520553D+02 0.111344238818118D+03
0.388673440280D-05 0.000000000000D+00 0.000000000000D+00 0.258378218450D-09 0.000000000000D+00  7 1 -1 23 -13 13 23 21 0 0.23867536D+00 0.63180127D-02 0.43011399D+05 0.43011399D+05 0.43011399D+05 0.11530915D+01  1  2  2  1  7  1        1 0.345327922156D-03 0.100000000000D+01
-.205797988872D-06 0.000000000000D+00 -.149260835074D-07 0.258378218450D-09 0.000000000000D+00  7 1 -1 23 -13 13 23 21 2 0.23867536D+00 0.63180127D-02 0.43011399D+05 0.43011399D+05 0.43011399D+05 0.11530915D+01  1  2  3  1  7  1        1 -.243117114719D-04 0.100000000000D+01
0.250228681039D-06 0.000000000000D+00 0.000000000000D+00 0.258378218450D-09 0.000000000000D+00  7 1 -1 23 -13 13 23 21 2 0.23867536D+00 0.63180127D-02 0.43011399D+05 0.43011399D+05 0.43011399D+05 0.11530915D+01  1  2 15  1  7  1        1 0.295604807839D-04 0.100000000000D+01
-.956227239851D-06 0.000000000000D+00 -.102415642361D-05 0.258378218450D-09 0.000000000000D+00  7 1 -1 23 -13 13 23 21 2 0.47483135D+00 0.63180127D-02 0.43011399D+05 0.43011399D+05 0.43011399D+05 0.11530915D+01  1  2  5  1  7  1        1 -.104763250897D-04 0.100000000000D+01
0.149507153825D-05 0.000000000000D+00 0.821923324426D-06 0.258378218450D-09 0.000000000000D+00  7 1 -1 23 -13 13 23 21 2 0.23867536D+00 0.63180127D-02 0.43011399D+05 0.43011399D+05 0.43011399D+05 0.11530915D+01  1  2  6  1  7  1        1 0.176618576630D-03 0.100000000000D+01
-.100026475760D-07 0.000000000000D+00 -.762440865050D-07 0.258378218450D-09 0.000000000000D+00  7 21 -1 23 -13 13 23 -1 2 0.47483135D+00 0.63180127D-02 0.43011399D+05 0.43011399D+05 0.43011399D+05 0.11530915D+01  1  2  5  3  7  1        1 -.249659542230D-07 0.100000000000D+01
  </mgrwgt>
  </event>
  <event>
  8     66 0.25924217E-05 0.18700028E+03 0.75467711E-02 0.10621967E+00
        1 -1    0    0  501    0 0.00000000E+00 0.00000000E+00 0.24422426E+04 0.24422427E+04 0.32000000E+00 0.0000E+00 0.9000E+01
       -1 -1    0    0    0  501 0.00000000E+00 0.00000000E+00 -.97094044E+02 0.97094571E+02 0.32000000E+00 0.0000E+00 0.9000E+01
       25  2    1    2    0    0 -.51629592E+02 -.52008287E+02 0.15151416E+03 0.34258560E+03 0.29839214E+03 0.0000E+00 0.0000E+00
       23  2    3    3    0    0 0.53899295E+02 0.33225693E+02 0.14091761E+03 0.17879086E+03 0.89996204E+02 0.0000E+00 0.0000E+00
       23  1    1    2    0    0 0.51629592E+02 0.52008287E+02 0.21936344E+04 0.21967516E+04 0.91188000E+02 0.0000E+00 0.9000E+01
      -11  1    4    4    0    0 0.67656893E+02 0.12677461E+02 0.13757883E+03 0.15383793E+03 0.51099893E-03 0.0000E+00 0.9000E+01
       11  1    4    4    0    0 -.13757598E+02 0.20548232E+02 0.33387839E+01 0.24952932E+02 0.51099893E-03 0.0000E+00 0.9000E+01
       23  1    3    3    0    0 -.10552889E+03 -.85233980E+02 0.10596549E+02 0.16379474E+03 0.91188000E+02 0.0000E+00 0.9000E+01
#aMCatNLO 1  0  0  1  2 0.26545402D+02 0.00000000D+00  -5  7  0 0.00000000D+00 0.00000000D+00 0.00000000D+00 0.00000000D+00 0.00000000D+00
  <mgrwgt>
 0.5772662300D-04    4    2    0
 0.486957811931020D+03 0.000000000000000D+00 0.000000000000000D+00 0.486957811931020D+03
 0.486957811931020D+03 0.000000000000000D+00 0.000000000000000D+00 -.486957811931020D+03
 0.445515504797604D+03 0.516295922005335D+02 0.520082871559965D+02 0.429881770894475D+03
 0.698249143843577D+02 0.676568933589576D+02 0.126774610600646D+02 -.117194466963276D+02
 0.570213315679743D+02 -.137575981616258D+02 0.205482322075303D+02 -.513802578793986D+02
 0.401553873112104D+03 -.105528887397865D+03 -.852339804235914D+02 -.366782066318749D+03
 0.000000000000000D+00 0.000000000000000D+00 -.000000000000000D+00 -.000000000000000D+00
 0.495076766783215D+03 0.000000000000000D+00 0.000000000000000D+00 0.495076766783215D+03
 0.509330932437128D+03 0.000000000000000D+00 0.000000000000000D+00 -.509330932437128D+03
 0.445661860322093D+03 0.429305458468266D+02 0.604803578666050D+02 0.429881770894475D+03
 0.687708471008530D+02 0.663040190594345D+02 0.139950361438254D+02 -.117194466963276D+02
 0.577019027210099D+02 -.148774456487677D+02 0.216388606178641D+02 -.513802578793986D+02
 0.402142712170679D+03 -.113374007935405D+03 -.775935548844218D+02 -.366782066318749D+03
 0.301303769057070D+02 0.190168886779115D+02 -.185206997438727D+02 -.142541656539130D+02
0.593634430488D-04 0.000000000000D+00 0.000000000000D+00 0.167035133513D-06 0.000000000000D+00  7 1 -1 23 -11 11 23 21 0 0.37572968D+00 0.14937587D-01 0.34969107D+05 0.34969107D+05 0.34969107D+05 0.11612100D+01  1  2  2  1  7  1        1 0.378236038762D-03 0.100000000000D+01
0.374964555366D-06 0.000000000000D+00 -.227971252061D-06 0.167035133513D-06 0.000000000000D+00  7 1 -1 23 -11 11 23 21 2 0.37572968D+00 0.14937587D-01 0.34969107D+05 0.34969107D+05 0.34969107D+05 0.11612100D+01  1  2  3  1  7  1        1 0.322148095662D-05 0.100000000000D+01
0.348853537516D-05 0.000000000000D+00 0.000000000000D+00 0.167035133513D-06 0.000000000000D+00  7 1 -1 23 -11 11 23 21 2 0.37572968D+00 0.14937587D-01 0.34969107D+05 0.34969107D+05 0.34969107D+05 0.11612100D+01  1  2 15  1  7  1        1 0.299715002838D-04 0.100000000000D+01
-.411692211781D-04 0.000000000000D+00 0.000000000000D+00 0.167035133513D-06 0.000000000000D+00  7 1 -1 23 -11 11 23 21 2 0.37572968D+00 0.14937587D-01 0.34969107D+05 0.34969107D+05 0.34969107D+05 0.11612100D+01  1  2  4  1  7  1        1 -.353702397003D-03 0.100000000000D+01
  </mgrwgt>
  </event>
  <event>
  8     66 0.25924217E-05 0.64458676E+03 0.75467711E-02 0.88051216E-01
        1 -1    0    0  501    0 0.00000000E+00 0.00000000E+00 0.83011422E+03 0.83011428E+03 0.32000000E+00 0.0000E+00 0.9000E+01
       -1 -1    0    0    0  501 0.00000000E+00 0.00000000E+00 -.50412801E+03 0.50412811E+03 0.32000000E+00 0.0000E+00 0.9000E+01
       25  2    1    2    0    0 -.60211948E+03 -.77184323E+02 0.16398767E+03 0.69936912E+03 0.30613709E+03 0.0000E+00 0.0000E+00
       23  2    3    3    0    0 -.17027871E+03 -.12790249E+03 0.21126122E+02 0.23269637E+03 0.91364111E+02 0.0000E+00 0.0000E+00
       23  1    1    2    0    0 0.60211948E+03 0.77184323E+02 0.16199854E+03 0.63487327E+03 0.91188000E+02 0.0000E+00 0.9000E+01
      -13  1    4    4    0    0 -.78980096E+02 -.11401656E+03 0.38986594E+01 0.13875462E+03 0.10565837E+00 0.0000E+00 0.9000E+01
       13  1    4    4    0    0 -.91298617E+02 -.13885921E+02 0.17227462E+02 0.93941753E+02 0.10565837E+00 0.0000E+00 0.9000E+01
       23  1    3    3    0    0 -.43184077E+03 0.50718163E+02 0.14286155E+03 0.46667275E+03 0.91188000E+02 0.0000E+00 0.9000E+01
#aMCatNLO 1  0  0  1  2 0.48771268D+03 0.00000000D+00  -5  7  0 0.00000000D+00 0.00000000D+00 0.00000000D+00 0.00000000D+00 0.00000000D+00
  <mgrwgt>
 0.6032299116D-03    6    2    0
 0.646903343663979D+03 0.000000000000000D+00 0.000000000000000D+00 0.646903343663979D+03
 0.646903343663979D+03 0.000000000000000D+00 0.000000000000000D+00 -.646903343663979D+03
 0.613898157208050D+03 0.602119484341359D+03 0.771843228821949D+02 0.709950400751712D+01
 0.142108914489355D+03 -.789800799963754D+02 -.114016696221280D+03 -.309399987700917D+02
 0.925370626387794D+02 -.912986358176829D+02 -.138857865220330D+02 -.590355759758714D+01
 0.445262552991773D+03 -.431840768527301D+03 0.507181598611185D+02 0.297440523601617D+02
 0.000000000000000D+00 -.000000000000000D+00 0.000000000000000D+00 0.000000000000000D+00
 0.989811308383066D+03 0.000000000000000D+00 0.000000000000000D+00 0.989811308383066D+03
 0.890573558673088D+03 0.000000000000000D+00 0.000000000000000D+00 -.890573558673088D+03
 0.768828401022289D+03 0.753148022395750D+03 -.124497037228634D+03 0.709950400751712D+01
 0.168427360724894D+03 -.450617037423689D+02 -.159310813106629D+03 -.309399987700917D+02
 0.824540567149167D+02 -.721852017325558D+02 -.394095943555487D+02 -.590355759758714D+01
 0.362968523765153D+03 -.343561594885804D+03 -.671685921318397D+02 0.297440523601617D+02
 0.497706524828901D+03 -.292339522035021D+03 0.390386036822651D+03 0.992377497099781D+02
0.959052485838D-04 0.000000000000D+00 0.000000000000D+00 0.288204418601D-07 0.000000000000D+00  7 1 -1 23 -13 13 23 21 0 0.12770989D+00 0.77558167D-01 0.41549210D+06 0.41549210D+06 0.41549210D+06 0.10742400D+01  1  2  2  1  7  1        1 0.409789544961D-03 0.100000000000D+01
-.532798599288D-05 0.000000000000D+00 -.368301406994D-06 0.288204418601D-07 0.000000000000D+00  7 1 -1 23 -13 13 23 21 2 0.12770989D+00 0.77558167D-01 0.41549210D+06 0.41549210D+06 0.41549210D+06 0.10742400D+01  1  2  3  1  7  1        1 -.262714588035D-04 0.100000000000D+01
0.592885037556D-05 0.000000000000D+00 0.000000000000D+00 0.288204418601D-07 0.000000000000D+00  7 1 -1 23 -13 13 23 21 2 0.12770989D+00 0.77558167D-01 0.41549210D+06 0.41549210D+06 0.41549210D+06 0.10742400D+01  1  2 15  1  7  1        1 0.292342263290D-04 0.100000000000D+01
-.353615487176D-04 0.000000000000D+00 -.297663254757D-04 0.288204418601D-07 0.000000000000D+00  7 1 -1 23 -13 13 23 21 2 0.24021099D+00 0.77558167D-01 0.41549210D+06 0.41549210D+06 0.41549210D+06 0.10742400D+01  1  2  5  1  7  1        1 -.509613793457D-04 0.100000000000D+01
0.491234926860D-04 0.000000000000D+00 0.246760453862D-04 0.288204418601D-07 0.000000000000D+00  7 1 -1 23 -13 13 23 21 2 0.12770989D+00 0.77558167D-01 0.41549210D+06 0.41549210D+06 0.41549210D+06 0.10742400D+01  1  2  6  1  7  1        1 0.242220196545D-03 0.100000000000D+01
-.750829218002D-06 0.000000000000D+00 -.204605139946D-05 0.288204418601D-07 0.000000000000D+00  7 21 -1 23 -13 13 23 -1 2 0.24021099D+00 0.77558167D-01 0.41549210D+06 0.41549210D+06 0.41549210D+06 0.10742400D+01  1  2  5  3  7  1        1 -.781218079156D-06 0.100000000000D+01
  </mgrwgt>
  </event>
  <event>
  8     66 0.25924217E-05 0.30639993E+03 0.75467711E-02 0.10026002E+00
        1 -1    0    0  501    0 0.00000000E+00 0.00000000E+00 0.75896349E+03 0.75896356E+03 0.32000000E+00 0.0000E+00 0.9000E+01
       -1 -1    0    0    0  501 0.00000000E+00 0.00000000E+00 -.20739432E+03 0.20739457E+03 0.32000000E+00 0.0000E+00 0.9000E+01
       25  2    1    2    0    0 0.26660654E+03 -.15467466E+02 0.69893813E+02 0.40810667E+03 0.30057880E+03 0.0000E+00 0.0000E+00
       23  2    3    3    0    0 0.18543787E+03 0.96574613E+01 -.72146984E+02 0.21913457E+03 0.91292395E+02 0.0000E+00 0.0000E+00
       23  1    1    2    0    0 -.26660654E+03 0.15467466E+02 0.48167535E+03 0.55825146E+03 0.91188000E+02 0.0000E+00 0.9000E+01
      -11  1    4    4    0    0 0.48134989E+01 -.22059739E+02 -.14768650E+02 0.26979897E+02 0.51099893E-03 0.0000E+00 0.9000E+01
       11  1    4    4    0    0 0.18062437E+03 0.31717200E+02 -.57378334E+02 0.19215467E+03 0.51099893E-03 0.0000E+00 0.9000E+01
       23  1    3    3    0    0 0.81168671E+02 -.25124927E+02 0.14204080E+03 0.18897210E+03 0.91188000E+02 0.0000E+00 0.9000E+01
#aMCatNLO 1  0  0  1  2 0.12781951D+02 0.00000000D+00  -5  7  0 0.00000000D+00 0.00000000D+00 0.00000000D+00 0.00000000D+00 0.00000000D+00
  <mgrwgt>
 0.3662119535D-03    4    2    0
 0.396742825021613D+03 0.000000000000000D+00 0.000000000000000D+00 0.396742825021613D+03
 0.396742825021613D+03 0.000000000000000D+00 0.000000000000000D+00 -.396742825021613D+03
 0.345051678654341D+03 -.266606540822242D+03 0.154674656489543D+02 0.198562633683619D+03
 0.431238736185330D+02 0.481349890594571D+01 -.220597386860018D+02 -.367405312054002D+02
 0.273903310827296D+03 0.180624370696389D+03 0.317171999525935D+02 -.203449943769604D+03
 0.131406786943056D+03 0.811686712199077D+02 -.251249269155460D+02 0.416278412913852D+02
 0.000000000000000D+00 -.000000000000000D+00 0.000000000000000D+00 -.000000000000000D+00
 0.397277484087194D+03 0.000000000000000D+00 0.000000000000000D+00 0.397277484087194D+03
 0.481325797532422D+03 0.000000000000000D+00 0.000000000000000D+00 -.481325797532422D+03
 0.343108195624948D+03 -.264333959684754D+03 0.104125320172749D+02 0.198562633683619D+03
 0.434853667795960D+02 0.509951750920568D+01 -.226959338180722D+02 -.367405312054002D+02
 0.274665919298164D+03 0.182435967291286D+03 0.276876406099047D+02 -.203449943769604D+03
 0.132329111395690D+03 0.820396334050696D+02 -.270622201408884D+02 0.416278412913852D+02
 0.850146885212177D+02 -.524115852080670D+01 0.116579813317810D+02 -.840483134452280D+02
0.144505445246D-04 0.000000000000D+00 0.000000000000D+00 0.635707728973D-06 0.000000000000D+00  7 1 -1 23 -11 11 23 21 0 0.11676364D+00 0.31906843D-01 0.93880915D+05 0.93880915D+05 0.93880915D+05 0.11239794D+01  1  2  2  1  7  1        1 0.376526425975D-03 0.100000000000D+01
-.737634925435D-06 0.000000000000D+00 -.554938958901D-07 0.635707728973D-06 0.000000000000D+00  7 1 -1 23 -11 11 23 21 2 0.11676364D+00 0.31906843D-01 0.93880915D+05 0.93880915D+05 0.93880915D+05 0.11239794D+01  1  2  3  1  7  1        1 -.242811579988D-04 0.100000000000D+01
0.886632856937D-06 0.000000000000D+00 0.000000000000D+00 0.635707728973D-06 0.000000000000D+00  7 1 -1 23 -11 11 23 21 2 0.11676364D+00 0.31906843D-01 0.93880915D+05 0.93880915D+05 0.93880915D+05 0.11239794D+01  1  2 15  1  7  1        1 0.291858095975D-04 0.100000000000D+01
-.462340281916D-06 0.000000000000D+00 0.000000000000D+00 0.635707728973D-06 0.000000000000D+00  7 1 -1 23 -11 11 23 21 2 0.11676364D+00 0.31906843D-01 0.93880915D+05 0.93880915D+05 0.93880915D+05 0.11239794D+01  1  2  4  1  7  1        1 -.152191240508D-04 0.100000000000D+01
  </mgrwgt>
  </event>
  <event>
  8     66 0.25924217E-05 0.33530285E+03 0.75467711E-02 0.95739275E-01
        1 -1    0    0  501    0 0.00000000E+00 0.00000000E+00 0.48623572E+03 0.48623583E+03 0.32000000E+00 0.0000E+00 0.9000E+01
       -1 -1    0    0    0  501 0.00000000E+00 0.00000000E+00 -.38275169E+03 0.38275182E+03 0.32000000E+00 0.0000E+00 0.9000E+01
       25  2    1    2    0    0 0.26640729E+03 0.13203356E+02 0.31957754E+03 0.51379920E+03 0.30118539E+03 0.0000E+00 0.0000E+00
       23  2    3    3    0    0 0.27813036E+03 -.39564692E+02 0.23821312E+03 0.38016793E+03 0.94129167E+02 0.0000E+00 0.0000E+00
       23  1    1    2    0    0 -.26640729E+03 -.13203356E+02 -.21609351E+03 0.35518844E+03 0.91188000E+02 0.0000E+00 0.9000E+01
      -13  1    4    4    0    0 0.21164080E+03 -.43647252E+02 0.12734434E+03 0.25082565E+03 0.10565837E+00 0.0000E+00 0.9000E+01
       13  1    4    4    0    0 0.66489557E+02 0.40825600E+01 0.11086878E+03 0.12934228E+03 0.10565837E+00 0.0000E+00 0.9000E+01
       23  1    3    3    0    0 -.11723065E+02 0.52768049E+02 0.81364419E+02 0.13363127E+03 0.91188000E+02 0.0000E+00 0.9000E+01
#aMCatNLO 1  0  0  2  2 0.20607497D+03 0.00000000D+00  -5  7  0 0.00000000D+00 0.00000000D+00 0.00000000D+00 0.00000000D+00 0.00000000D+00
  <mgrwgt>
 0.3189859232D-03    4    2    0
 0.431401954835827D+03 0.000000000000000D+00 0.000000000000000D+00 0.431401954835827D+03
 0.431401954835827D+03 0.000000000000000D+00 0.000000000000000D+00 -.431401954835827D+03
 0.383652178543398D+03 -.266407295057353D+03 -.132033564804187D+02 -.260243284783625D+03
 0.237349890650141D+03 0.211640985559839D+03 -.436473118792408D+02 0.981731938393071D+02
 0.116971613594157D+03 0.664893742791634D+02 0.408261969207783D+01 0.961501623047826D+02
 0.124830226883958D+03 -.117230647816496D+02 0.527680486675817D+02 0.659199286395350D+02
 0.000000000000000D+00 -.000000000000000D+00 -.000000000000000D+00 0.000000000000000D+00
 0.588941619744387D+03 0.000000000000000D+00 0.000000000000000D+00 0.588941619744387D+03
 0.516550844191211D+03 0.000000000000000D+00 0.000000000000000D+00 -.516550844191211D+03
 0.382186952379795D+03 -.253458471683650D+03 0.760516343162528D+02 -.260243284783625D+03
 0.240966595998876D+03 0.219728370301961D+03 0.120982512422079D+02 0.981731938393071D+02
 0.123506764142378D+03 0.705553875093197D+02 0.321092567820356D+02 0.961501623047826D+02
 0.140412107220096D+03 -.723834208094102D+01 0.836808097598577D+02 0.659199286395350D+02
 0.218420044194454D+03 -.295869440466904D+02 -.203939952100354D+03 0.723907755531768D+02
0.256060581728D-04 0.000000000000D+00 0.000000000000D+00 0.435679406468D-07 0.000000000000D+00  7 1 -1 23 -13 13 23 21 0 0.74805514D-01 0.58884893D-01 0.11242800D+06 0.11242800D+06 0.11242800D+06 0.11175710D+01  1  2  2  2  7  2       -1 0.430882182760D-03 0.100000000000D+01
-.131271540674D-05 0.000000000000D+00 -.983340056134D-07 0.435679406468D-07 0.000000000000D+00  7 1 -1 23 -13 13 23 21 2 0.74805514D-01 0.58884893D-01 0.11242800D+06 0.11242800D+06 0.11242800D+06 0.11175710D+01  1  2  3  2  7  2       -1 -.275890411800D-04 0.100000000000D+01
0.162397438083D-05 0.000000000000D+00 0.000000000000D+00 0.435679406468D-07 0.000000000000D+00  7 1 -1 23 -13 13 23 21 2 0.74805514D-01 0.58884893D-01 0.11242800D+06 0.11242800D+06 0.11242800D+06 0.11175710D+01  1  2 15  2  7  2       -1 0.341307002553D-04 0.100000000000D+01
-.563539992217D-05 0.000000000000D+00 0.000000000000D+00 0.435679406468D-07 0.000000000000D+00  7 1 -1 23 -13 13 23 21 2 0.74805514D-01 0.58884893D-01 0.11242800D+06 0.11242800D+06 0.11242800D+06 0.11175710D+01  1  2  4  2  7  2       -1 -.118437918623D-03 0.100000000000D+01
  </mgrwgt>
  </event>
  <event>
  8     66 0.25924217E-05 0.39202483E+03 0.75467711E-02 0.95668010E-01
        1 -1    0    0  501    0 0.00000000E+00 0.00000000E+00 0.31154087E+04 0.31154087E+04 0.32000000E+00 0.0000E+00 0.9000E+01
       -1 -1    0    0    0  501 0.00000000E+00 0.00000000E+00 -.55440175E+02 0.55441098E+02 0.32000000E+00 0.0000E+00 0.9000E+01
       25  2    1    2    0    0 -.32280478E+03 -.10967973E+03 0.13399222E+04 0.14149719E+04 0.30086785E+03 0.0000E+00 0.0000E+00
       23  2    3    3    0    0 -.24851619E+03 0.14756757E+02 0.99989735E+03 0.10342681E+04 0.89094183E+02 0.0000E+00 0.0000E+00
       23  1    1    2    0    0 0.32280478E+03 0.10967973E+03 0.17200463E+04 0.17558779E+04 0.91188000E+02 0.0000E+00 0.9000E+01
      -13  1    4    4    0    0 -.97757151E+02 0.42540233E+02 0.31961079E+03 0.33692314E+03 0.10565837E+00 0.0000E+00 0.9000E+01
       13  1    4    4    0    0 -.15075904E+03 -.27783476E+02 0.68028656E+03 0.69734498E+03 0.10565837E+00 0.0000E+00 0.9000E+01
       23  1    3    3    0    0 -.74288591E+02 -.12443649E+03 0.34002485E+03 0.38070380E+03 0.91188000E+02 0.0000E+00 0.9000E+01
#aMCatNLO 1  0  0  2  2 0.11834255D+03 0.00000000D+00  -5  7  0 0.00000000D+00 0.00000000D+00 0.00000000D+00 0.00000000D+00 0.00000000D+00
  <mgrwgt>
 0.2341319646D-03    4    2    0
 0.415596310959712D+03 0.000000000000000D+00 0.000000000000000D+00 0.415596310959712D+03
 0.415596310959712D+03 0.000000000000000D+00 0.000000000000000D+00 -.415596310959712D+03
 0.366145551576603D+03 0.322804779105823D+03 0.109679731826136D+03 0.975435523667377D+02
 0.108679566757429D+03 -.977570767921913D+02 0.425403317388539D+02 -.210979227218319D+02
 0.155825251318548D+03 -.150759110554376D+03 -.277835747114009D+02 0.279512523797767D+02
 0.200542252266843D+03 -.742885917592561D+02 -.124436488853589D+03 -.104396882024682D+03
 0.000000000000000D+00 0.000000000000000D+00 0.000000000000000D+00 0.000000000000000D+00
 0.749610472217109D+03 0.000000000000000D+00 0.000000000000000D+00 0.749610472217109D+03
 0.430402998928365D+03 0.000000000000000D+00 0.000000000000000D+00 -.430402998928365D+03
 0.333863934830835D+03 0.298721007223947D+03 0.663392106639524D+02 0.975435523667377D+02
 0.111241875861084D+03 -.105323456903895D+03 0.289240734982080D+02 -.210979227218319D+02
 0.171280468251524D+03 -.162013157369961D+03 -.480360607656346D+02 0.279512523797767D+02
 0.223188693828380D+03 -.888670219708566D+02 -.150671447654737D+03 -.104396882024682D+03
 0.340438498373651D+03 0.574826290207657D+02 0.103444224258211D+03 0.319207473288744D+03
0.506962503896D-04 0.000000000000D+00 0.000000000000D+00 0.653370943433D-07 0.000000000000D+00  7 1 -1 23 -13 13 23 21 0 0.47929372D+00 0.85293300D-02 0.15368346D+06 0.15368346D+06 0.15368346D+06 0.11067214D+01  1  2  2  2  7  2       -1 0.237904566508D-03 0.100000000000D+01
-.280478353827D-05 0.000000000000D+00 -.194686950125D-06 0.653370943433D-07 0.000000000000D+00  7 1 -1 23 -13 13 23 21 2 0.47929372D+00 0.85293300D-02 0.15368346D+06 0.15368346D+06 0.15368346D+06 0.11067214D+01  1  2  3  2  7  2       -1 -.161214063611D-04 0.100000000000D+01
0.316648737583D-05 0.000000000000D+00 0.000000000000D+00 0.653370943433D-07 0.000000000000D+00  7 1 -1 23 -13 13 23 21 2 0.47929372D+00 0.85293300D-02 0.15368346D+06 0.15368346D+06 0.15368346D+06 0.11067214D+01  1  2 15  2  7  2       -1 0.182004169043D-04 0.100000000000D+01
-.101805672367D-05 0.000000000000D+00 0.000000000000D+00 0.653370943433D-07 0.000000000000D+00  7 1 -1 23 -13 13 23 21 2 0.47929372D+00 0.85293300D-02 0.15368346D+06 0.15368346D+06 0.15368346D+06 0.11067214D+01  1  2  4  2  7  2       -1 -.585161240321D-05 0.100000000000D+01
  </mgrwgt>
  </event>
  <event>
  8     66 0.25924217E-05 0.29205541E+03 0.75467711E-02 0.88447963E-01
        1 -1    0    0  501    0 0.00000000E+00 0.00000000E+00 0.75761824E+03 0.75761831E+03 0.32000000E+00 0.0000E+00 0.9000E+01
       -1 -1    0    0    0  501 0.00000000E+00 0.00000000E+00 -.22585797E+03 0.22585820E+03 0.32000000E+00 0.0000E+00 0.9000E+01
       25  2    1    2    0    0 -.18340861E+03 -.16237126E+03 0.59957388E+03 0.71344488E+03 0.29918491E+03 0.0000E+00 0.0000E+00
       23  2    3    3    0    0 0.17572994E+02 -.35638061E+02 0.62453233E+02 0.11908072E+03 0.93278780E+02 0.0000E+00 0.0000E+00
       23  1    1    2    0    0 0.18340861E+03 0.16237126E+03 -.67813610E+02 0.27003163E+03 0.91188000E+02 0.0000E+00 0.9000E+01
      -13  1    4    4    0    0 -.11684447E+02 0.90775533E+01 0.63933481E+02 0.65623391E+02 0.10565837E+00 0.0000E+00 0.9000E+01
       13  1    4    4    0    0 0.29257441E+02 -.44715614E+02 -.14802488E+01 0.53457331E+02 0.10565837E+00 0.0000E+00 0.9000E+01
       23  1    3    3    0    0 -.20098160E+03 -.12673320E+03 0.53712064E+03 0.59436415E+03 0.91188000E+02 0.0000E+00 0.9000E+01
#aMCatNLO 1  0  0  2  2 0.82655454D+03 0.00000000D+00  -5  7  0 0.00000000D+00 0.00000000D+00 0.00000000D+00 0.00000000D+00 0.00000000D+00
  <mgrwgt>
 0.5192280769D-03    3    2    0
 0.413659597560686D+03 0.000000000000000D+00 0.000000000000000D+00 0.413659597560686D+03
 0.413659597560686D+03 0.000000000000000D+00 0.000000000000000D+00 -.413659597560686D+03
 0.364587630078928D+03 0.183408608295163D+03 0.162371258022036D+03 -.254176603239051D+03
 0.369165230358725D+02 -.116844991158704D+02 0.907762225231935D+01 0.338215748851754D+02
 0.644989214760378D+02 0.292574935732650D+02 -.447156823689751D+02 -.361194918521755D+02
 0.361316120530534D+03 -.200981602752558D+03 -.126733197905380D+03 0.256474520206051D+03
 0.000000000000000D+00 -.000000000000000D+00 -.000000000000000D+00 0.000000000000000D+00
 0.209574943196028D+04 0.000000000000000D+00 0.000000000000000D+00 0.209574943196028D+04
 0.697767945712675D+03 0.000000000000000D+00 0.000000000000000D+00 -.697767945712675D+03
 0.740721765621712D+03 0.380599919502306D+03 0.575231638874673D+03 -.254176603239051D+03
 0.553362176421492D+02 0.477373327364107D+01 0.435363012422727D+02 0.338215748851754D+02
 0.634587572790740D+02 0.520856198435105D+02 0.307967356425440D+01 -.361194918521755D+02
 0.309948716573497D+03 -.812254567262346D+02 0.124000811393509D+03 0.256474520206051D+03
 0.162405192055653D+04 -.356233815893223D+03 -.745848425074709D+03 0.139798148624761D+04
0.224495139878D-04 0.000000000000D+00 0.000000000000D+00 0.137415130734D-06 0.000000000000D+00  7 1 -1 23 -13 13 23 21 0 0.11655667D+00 0.34747403D-01 0.85296363D+05 0.85296363D+05 0.85296363D+05 0.11274344D+01  1  2  2  2  7  2       -1 0.508957126224D-03 0.100000000000D+01
-.106344679245D-05 0.000000000000D+00 -.862120448058D-07 0.137415130734D-06 0.000000000000D+00  7 1 -1 23 -13 13 23 21 2 0.11655667D+00 0.34747403D-01 0.85296363D+05 0.85296363D+05 0.85296363D+05 0.11274344D+01  1  2  3  2  7  2       -1 -.306459170306D-04 0.100000000000D+01
0.141985999972D-05 0.000000000000D+00 0.000000000000D+00 0.137415130734D-06 0.000000000000D+00  7 1 -1 23 -13 13 23 21 2 0.11655667D+00 0.34747403D-01 0.85296363D+05 0.85296363D+05 0.85296363D+05 0.11274344D+01  1  2 15  2  7  2       -1 0.409168677319D-04 0.100000000000D+01
  </mgrwgt>
  </event>
  <event>
  9     66 0.25924217E-05 0.18544998E+03 0.75467711E-02 0.10097477E+00
        1 -1    0    0  501    0 0.00000000E+00 0.00000000E+00 0.82459086E+03 0.82459092E+03 0.32000000E+00 0.0000E+00 0.9000E+01
       -1 -1    0    0    0  502 0.00000000E+00 0.00000000E+00 -.14681473E+03 0.14681508E+03 0.32000000E+00 0.0000E+00 0.9000E+01
       25  2    1    2    0    0 0.64348234E+02 -.74865201E+02 0.24436863E+03 0.39837790E+03 0.29873638E+03 0.0000E+00 0.0000E+00
       23  2    3    3    0    0 -.70761375E+02 -.73003307E+02 0.17075559E+03 0.21951425E+03 0.93232930E+02 0.0000E+00 0.0000E+00
       23  1    1    2    0    0 0.59179347E+02 -.49412653E+02 0.36649843E+03 0.38546097E+03 0.91188000E+02 0.0000E+00 0.9000E+01
      -13  1    4    4    0    0 0.20819630E+02 -.86307212E+01 0.12814376E+02 0.25926160E+02 0.10565837E+00 0.0000E+00 0.9000E+01
       13  1    4    4    0    0 -.91581005E+02 -.64372586E+02 0.15794121E+03 0.19358809E+03 0.10565837E+00 0.0000E+00 0.9000E+01
       23  1    3    3    0    0 0.13510961E+03 -.18618933E+01 0.73613039E+02 0.17886365E+03 0.91188000E+02 0.0000E+00 0.9000E+01
       21  1    1    2  501  502 -.12352758E+03 0.12427785E+03 0.66909066E+02 0.18756714E+03 0.75000000E+00 0.0000E+00 0.9000E+01
#aMCatNLO 2  0  0  2  1 0.17522571D+03 0.00000000D+00  -5  7  0 0.00000000D+00 0.00000000D+00 0.00000000D+00 0.00000000D+00 0.00000000D+00
  <mgrwgt>
 0.6838048043D-04    2    2    0
 0.229423597831512D+03 0.000000000000000D+00 0.000000000000000D+00 0.229423597831512D+03
 0.229423597831512D+03 0.000000000000000D+00 0.000000000000000D+00 -.229423597831512D+03
 0.141237192269821D+03 0.200974986282476D+02 -.100934315162734D+02 0.105484152010509D+03
 0.192865472353176D+02 0.150044431315495D+02 -.278000490497338D+01 -.117944547691090D+02
 0.127653690218720D+03 -.122808849400601D+03 -.329552839619669D+02 0.112871783162872D+02
 0.170669765939165D+03 0.877069076408034D+02 0.458287203832137D+02 -.104976875557688D+03
 0.000000000000000D+00 -.000000000000000D+00 0.000000000000000D+00 -.000000000000000D+00
 0.290391610591795D+03 0.000000000000000D+00 0.000000000000000D+00 0.290391610591795D+03
 0.416891487587799D+03 0.000000000000000D+00 0.000000000000000D+00 -.416891487587799D+03
 0.159329732739089D+03 0.591793502833842D+02 -.494126559230518D+02 0.105484152010509D+03
 0.254373718186568D+02 0.208197655255619D+02 -.863064801742390D+01 -.117944547691090D+02
 0.112509313112146D+03 -.915811457237880D+02 -.643726563887310D+02 0.112871783162872D+02
 0.193890353349087D+03 0.135109610053852D+03 -.186189341147360D+01 -.104976875557688D+03
 0.216116327160614D+03 -.123527580139010D+03 0.124277853740680D+03 -.126499876996004D+03
-.527615626999D-08 0.000000000000D+00 0.000000000000D+00 0.180592431282D-07 0.000000000000D+00  7 1 -1 23 -13 13 23 21 2 0.10022554D+00 0.23114165D-01 0.87654405D+05 0.87654405D+05 0.87654405D+05 0.11264486D+01  1  2 13  2  7  2       -1 -.373690559537D-06 0.100000000000D+01
0.133895829461D-05 0.000000000000D+00 0.000000000000D+00 0.180592431282D-07 0.471449020608D-11  7 1 -1 23 -13 13 23 21 2 0.12685990D+00 0.22586867D-01 0.87654405D+05 0.87654405D+05 0.87654405D+05 0.11264486D+01  1  2  1  2  7  2       -1 0.687541709883D-04 0.100000000000D+01
  </mgrwgt>
  </event>
  <event>
  8     66 0.25924217E-05 0.24212212E+03 0.75467711E-02 0.10231307E+00
        1 -1    0    0  501    0 0.00000000E+00 0.00000000E+00 0.16263465E+04 0.16263465E+04 0.32000000E+00 0.0000E+00 0.9000E+01
       -1 -1    0    0    0  501 0.00000000E+00 0.00000000E+00 -.71380911E+02 0.71381628E+02 0.32000000E+00 0.0000E+00 0.9000E+01
       25  2    1    2    0    0 -.13058762E+03 -.28708951E+02 0.14854406E+04 0.15215853E+04 0.30134812E+03 0.0000E+00 0.0000E+00
       23  2    3    3    0    0 -.20173244E+02 -.12600842E+03 0.72925493E+03 0.74583370E+03 0.90388412E+02 0.0000E+00 0.0000E+00
       23  1    1    2    0    0 0.13058762E+03 0.28708951E+02 0.69524962E+02 0.17614284E+03 0.91188000E+02 0.0000E+00 0.9000E+01
      -11  1    4    4    0    0 0.11612575E+02 -.11507585E+03 0.45261430E+03 0.46715844E+03 0.51099893E-03 0.0000E+00 0.9000E+01
       11  1    4    4    0    0 -.31785819E+02 -.10932570E+02 0.27664064E+03 0.27867526E+03 0.51099893E-03 0.0000E+00 0.9000E+01
       23  1    3    3    0    0 -.11041437E+03 0.97299468E+02 0.75618569E+03 0.77575161E+03 0.91188000E+02 0.0000E+00 0.9000E+01
#aMCatNLO 1  0  0  1  2 0.48949471D+02 0.00000000D+00  -5  7  0 0.00000000D+00 0.00000000D+00 0.00000000D+00 0.00000000D+00 0.00000000D+00
  <mgrwgt>
 0.2774544928D-03    4    2    0
 0.340720897887133D+03 0.000000000000000D+00 0.000000000000000D+00 0.340720897887133D+03
 0.340720897887133D+03 0.000000000000000D+00 0.000000000000000D+00 -.340720897887133D+03
 0.280190828292123D+03 0.130587616758315D+03 0.287089508779255D+02 -.228723237568679D+03
 0.131057965980748D+03 0.116125745241021D+02 -.115075849105138D+03 0.616351159053393D+02
 0.630254387313261D+02 -.317858188953265D+02 -.109325696073095D+02 0.533136620971678D+02
 0.207167562770069D+03 -.110414372387090D+03 0.972994678345216D+02 0.113774459566172D+03
 0.000000000000000D+00 0.000000000000000D+00 -.000000000000000D+00 -.000000000000000D+00
 0.353383765281177D+03 0.000000000000000D+00 0.000000000000000D+00 0.353383765281177D+03
 0.392427369554652D+03 0.000000000000000D+00 0.000000000000000D+00 -.392427369554652D+03
 0.277869367659794D+03 0.120315868035980D+03 0.458901583621623D+02 -.228723237568679D+03
 0.123872720205476D+03 0.692027794191965D+01 -.107227202946110D+03 0.616351159053393D+02
 0.636854110892684D+02 -.341180798578389D+02 -.703147539370394D+01 0.533136620971678D+02
 0.217770109152252D+03 -.118235845805732D+03 0.110382182498864D+03 0.113774459566172D+03
 0.626135267290377D+02 0.251177796856714D+02 -.420136625212126D+02 -.390436042734742D+02
0.128306778179D-04 0.000000000000D+00 0.000000000000D+00 0.118006512400D-06 0.000000000000D+00  7 1 -1 23 -11 11 23 21 0 0.25020721D+00 0.10981736D-01 0.58623121D+05 0.58623121D+05 0.58623121D+05 0.11412666D+01  1  2  2  1  7  1        1 0.439981816001D-03 0.100000000000D+01
-.611669411853D-06 0.000000000000D+00 -.492731812157D-07 0.118006512400D-06 0.000000000000D+00  7 1 -1 23 -11 11 23 21 2 0.25020721D+00 0.10981736D-01 0.58623121D+05 0.58623121D+05 0.58623121D+05 0.11412666D+01  1  2  3  1  7  1        1 -.273197126068D-04 0.100000000000D+01
0.768114928191D-06 0.000000000000D+00 0.000000000000D+00 0.118006512400D-06 0.000000000000D+00  7 1 -1 23 -11 11 23 21 2 0.25020721D+00 0.10981736D-01 0.58623121D+05 0.58623121D+05 0.58623121D+05 0.11412666D+01  1  2 15  1  7  1        1 0.343072232819D-04 0.100000000000D+01
-.379531952787D-05 0.000000000000D+00 0.000000000000D+00 0.118006512400D-06 0.000000000000D+00  7 1 -1 23 -11 11 23 21 2 0.25020721D+00 0.10981736D-01 0.58623121D+05 0.58623121D+05 0.58623121D+05 0.11412666D+01  1  2  4  1  7  1        1 -.169514833901D-03 0.100000000000D+01
  </mgrwgt>
  </event>
  <event>
  8     66 0.25924217E-05 0.19426278E+03 0.75467711E-02 0.10527733E+00
        1 -1    0    0  501    0 0.00000000E+00 0.00000000E+00 0.87633800E+02 0.87634384E+02 0.32000000E+00 0.0000E+00 0.9000E+01
       -1 -1    0    0    0  501 0.00000000E+00 0.00000000E+00 -.99681997E+03 0.99682002E+03 0.32000000E+00 0.0000E+00 0.9000E+01
       25  2    1    2    0    0 0.15465464E+02 0.10807066E+03 -.23513709E+03 0.39555974E+03 0.29876346E+03 0.0000E+00 0.0000E+00
       23  2    3    3    0    0 0.17975686E+02 0.12584422E+03 -.15871443E+02 0.15741089E+03 0.91467986E+02 0.0000E+00 0.0000E+00
       23  1    1    2    0    0 -.15465464E+02 -.10807066E+03 -.67404908E+03 0.68889467E+03 0.91188000E+02 0.0000E+00 0.9000E+01
      -13  1    4    4    0    0 -.24346147E+01 0.13200104E+03 -.21179858E+01 0.13204052E+03 0.10565837E+00 0.0000E+00 0.9000E+01
       13  1    4    4    0    0 0.20410301E+02 -.61568223E+01 -.13753457E+02 0.25370368E+02 0.10565837E+00 0.0000E+00 0.9000E+01
       23  1    3    3    0    0 -.25102215E+01 -.17773551E+02 -.21926565E+03 0.23814885E+03 0.91188000E+02 0.0000E+00 0.9000E+01
#aMCatNLO 1  0  0  1  1 0.38909045D+02 0.00000000D+00  -5  7  0 0.00000000D+00 0.00000000D+00 0.00000000D+00 0.00000000D+00 0.00000000D+00
  <mgrwgt>
 0.4659778034D-03    4    2    0
 0.295559582114124D+03 0.000000000000000D+00 0.000000000000000D+00 0.295559582114124D+03
 0.295559582114124D+03 0.000000000000000D+00 0.000000000000000D+00 -.295559582114124D+03
 0.227092546026942D+03 -.154654644905281D+02 -.108070665125060D+03 -.177023512179930D+03
 0.238981334325973D+03 -.243464490364010D+01 0.132001222156189D+03 0.199202981929709D+03
 0.253897807989685D+02 0.204103308335296D+02 -.615700640157797D+01 0.137895118280696D+02
 0.996555030763653D+02 -.251022143936132D+01 -.177735506295509D+02 -.359689815778487D+02
 0.000000000000000D+00 0.000000000000000D+00 -.000000000000000D+00 -.000000000000000D+00
 0.300483442542858D+03 0.000000000000000D+00 0.000000000000000D+00 0.300483442542858D+03
 0.384540403965474D+03 0.000000000000000D+00 0.000000000000000D+00 -.384540403965474D+03
 0.226392617326824D+03 -.296694055214176D+02 -.103541143259951D+03 -.177023512179930D+03
 0.242290937344877D+03 -.175089263113478D+02 0.136808288525202D+03 0.199202981929709D+03
 0.240416378153466D+02 0.188620531569714D+02 -.566327317824367D+01 0.137895118280696D+02
 0.996731364005430D+02 -.875353978732843D+01 -.157826069255142D+02 -.359689815778487D+02
 0.926255176207414D+02 0.370698184631224D+02 -.118212651614936D+02 -.840569614226156D+02
0.257252991623D-04 0.000000000000D+00 0.000000000000D+00 0.126294006720D-06 0.000000000000D+00  7 1 -1 23 -13 13 23 21 0 0.13482172D-01 0.15335697D+00 0.37738027D+05 0.37738027D+05 0.37738027D+05 0.11582009D+01  1  2  2  1  7  1        1 0.500906286838D-03 0.100000000000D+01
-.112315480325D-05 0.000000000000D+00 -.987919224100D-07 0.126294006720D-06 0.000000000000D+00  7 1 -1 23 -13 13 23 21 2 0.13482172D-01 0.15335697D+00 0.37738027D+05 0.37738027D+05 0.37738027D+05 0.11582009D+01  1  2  3  1  7  1        1 -.293361726681D-04 0.100000000000D+01
0.154726734704D-05 0.000000000000D+00 0.000000000000D+00 0.126294006720D-06 0.000000000000D+00  7 1 -1 23 -13 13 23 21 2 0.13482172D-01 0.15335697D+00 0.37738027D+05 0.37738027D+05 0.37738027D+05 0.11582009D+01  1  2 15  1  7  1        1 0.404137541193D-04 0.100000000000D+01
-.176137267105D-05 0.000000000000D+00 0.000000000000D+00 0.126294006720D-06 0.000000000000D+00  7 1 -1 23 -13 13 23 21 2 0.13482172D-01 0.15335697D+00 0.37738027D+05 0.37738027D+05 0.37738027D+05 0.11582009D+01  1  2  4  1  7  1        1 -.460060649351D-04 0.100000000000D+01
  </mgrwgt>
  </event>
  <event>
  8     66 0.25924217E-05 0.15011777E+03 0.75467711E-02 0.97689036E-01
        1 -1    0    0  501    0 0.00000000E+00 0.00000000E+00 0.17750131E+03 0.17750160E+03 0.32000000E+00 0.0000E+00 0.9000E+01
       -1 -1    0    0    0  501 0.00000000E+00 0.00000000E+00 -.78344967E+03 0.78344973E+03 0.32000000E+00 0.0000E+00 0.9000E+01
       25  2    1    2    0    0 0.27353082E+03 -.10484130E+03 -.45619610E+03 0.61955450E+03 0.29987014E+03 0.0000E+00 0.0000E+00
       23  2    3    3    0    0 0.18458159E+03 0.52350515E+02 -.18900063E+03 0.28439798E+03 0.91378497E+02 0.0000E+00 0.0000E+00
       23  1    1    2    0    0 -.27353082E+03 0.10484130E+03 -.14975226E+03 0.34139683E+03 0.91188000E+02 0.0000E+00 0.9000E+01
      -13  1    4    4    0    0 0.70478602E+02 0.61434881E+02 -.11450414E+03 0.14782654E+03 0.10565837E+00 0.0000E+00 0.9000E+01
       13  1    4    4    0    0 0.11410299E+03 -.90843652E+01 -.74496496E+02 0.13657144E+03 0.10565837E+00 0.0000E+00 0.9000E+01
       23  1    3    3    0    0 0.88949224E+02 -.15719181E+03 -.26719546E+03 0.33515653E+03 0.91188000E+02 0.0000E+00 0.9000E+01
#aMCatNLO 1  0  0  2  1 0.50853116D+02 0.00000000D+00  -5  7  0 0.00000000D+00 0.00000000D+00 0.00000000D+00 0.00000000D+00 0.00000000D+00
  <mgrwgt>
 0.3683934690D-03    9    2    0
 0.372912206005676D+03 0.000000000000000D+00 0.000000000000000D+00 0.372912206005676D+03
 0.372912206005676D+03 0.000000000000000D+00 0.000000000000000D+00 -.372912206005676D+03
 0.318203049943925D+03 -.273530815721080D+03 0.104841295187799D+03 0.844223034743861D+02
 0.974364740860120D+02 0.704785442186958D+02 0.614349748643796D+02 -.274296400001983D+02
 0.115439358044929D+03 0.114103047540206D+03 -.908445933509699D+01 0.149737278742320D+02
 0.214745529936487D+03 0.889492239621779D+02 -.157191810717082D+03 -.719663913484198D+02
 0.000000000000000D+00 -.000000000000000D+00 0.000000000000000D+00 -.000000000000000D+00
 0.378702763451473D+03 0.000000000000000D+00 0.000000000000000D+00 0.378702763451473D+03
 0.505056448796134D+03 0.000000000000000D+00 0.000000000000000D+00 -.505056448796134D+03
 0.308957859047047D+03 -.270182667404697D+03 0.837490789984981D+02 0.844223034743861D+02
 0.942790186800195D+02 0.715020326012257D+02 0.549873398758319D+02 -.274296400001983D+02
 0.117538850977941D+03 0.115346820210204D+03 -.169198117648469D+02 0.149737278742320D+02
 0.226780351431339D+03 0.913063449420546D+02 -.172040885666548D+03 -.719663913484198D+02
 0.136203132111261D+03 -.797253034878722D+01 0.502242785570646D+02 -.126353685344661D+03
0.186032766373D-04 0.000000000000D+00 0.000000000000D+00 0.698530658239D-06 0.000000000000D+00  7 1 -1 23 -13 13 23 21 0 0.27307921D-01 0.12053075D+00 0.12855357D+06 0.12855357D+06 0.12855357D+06 0.11128788D+01  1  2  2  2  7  2       -1 0.264269564717D-03 0.100000000000D+01
-.103157529438D-05 0.000000000000D+00 -.714414806424D-07 0.698530658239D-06 0.000000000000D+00  7 1 -1 23 -13 13 23 21 2 0.27307921D-01 0.12053075D+00 0.12855357D+06 0.12855357D+06 0.12855357D+06 0.11128788D+01  1  2  3  2  7  2       -1 -.181490715995D-04 0.100000000000D+01
0.120258932141D-05 0.000000000000D+00 0.000000000000D+00 0.698530658239D-06 0.000000000000D+00  7 1 -1 23 -13 13 23 21 2 0.27307921D-01 0.12053075D+00 0.12855357D+06 0.12855357D+06 0.12855357D+06 0.11128788D+01  1  2 15  2  7  2       -1 0.211578154479D-04 0.100000000000D+01
0.906514947838D-04 0.000000000000D+00 0.000000000000D+00 0.698530658239D-06 0.000000000000D+00  7 1 -1 23 -13 13 23 21 2 0.27307921D-01 0.16393443D+00 0.14818396D+06 0.14818396D+06 0.14818396D+06 0.11079696D+01  1  2 12  2  7  2       -1 0.680966003823D-03 0.100000000000D+01
-.885166108753D-04 0.000000000000D+00 0.000000000000D+00 0.698530658239D-06 0.000000000000D+00  7 1 -1 23 -13 13 23 21 2 0.27307921D-01 0.12053075D+00 0.12855357D+06 0.12855357D+06 0.12855357D+06 0.11128788D+01  1  2  4  2  7  2       -1 -.155732142606D-02 0.100000000000D+01
-.102297962540D-03 0.000000000000D+00 -.851526214908D-05 0.698530658239D-06 0.000000000000D+00  7 1 -1 23 -13 13 23 21 2 0.27307921D-01 0.16426126D+00 0.12855357D+06 0.12855357D+06 0.12855357D+06 0.11128788D+01  1  2  5  2  7  2       -1 -.774724366359D-03 0.100000000000D+01
0.100473766876D-03 0.000000000000D+00 0.812296015511D-05 0.698530658239D-06 0.000000000000D+00  7 1 -1 23 -13 13 23 21 2 0.27307921D-01 0.12053075D+00 0.12855357D+06 0.12855357D+06 0.12855357D+06 0.11128788D+01  1  2  6  2  7  2       -1 0.176769024893D-02 0.100000000000D+01
0.356770603538D-05 0.000000000000D+00 0.000000000000D+00 0.698530658239D-06 0.000000000000D+00  7 1 21 23 -13 13 23 1 2 0.27307921D-01 0.16393443D+00 0.14818396D+06 0.14818396D+06 0.14818396D+06 0.11079696D+01  1  2 12  4  7  2       -1 0.170304983978D-03 0.100000000000D+01
-.384447391414D-05 0.000000000000D+00 -.336693199379D-06 0.698530658239D-06 0.000000000000D+00  7 1 21 23 -13 13 23 1 2 0.27307921D-01 0.16426126D+00 0.12855357D+06 0.12855357D+06 0.12855357D+06 0.11128788D+01  1  2  5  4  7  2       -1 -.185800283904D-03 0.100000000000D+01
  </mgrwgt>
  </event>
  <event>
  8     66 0.25924217E-05 0.15496549E+03 0.75467711E-02 0.99113720E-01
        1 -1    0    0  501    0 0.00000000E+00 0.00000000E+00 0.72513040E+03 0.72513047E+03 0.32000000E+00 0.0000E+00 0.9000E+01
       -1 -1    0    0    0  501 0.00000000E+00 0.00000000E+00 -.17099906E+03 0.17099936E+03 0.32000000E+00 0.0000E+00 0.9000E+01
       25  2    1    2    0    0 -.24602011E+03 -.45536452E+02 0.16266070E+03 0.42267024E+03 0.29931951E+03 0.0000E+00 0.0000E+00
       23  2    3    3    0    0 0.25807257E+02 -.28344107E+02 0.71078047E+02 0.12119333E+03 0.90367759E+02 0.0000E+00 0.0000E+00
       23  1    1    2    0    0 0.24602011E+03 0.45536452E+02 0.39147065E+03 0.47345959E+03 0.91188000E+02 0.0000E+00 0.9000E+01
      -13  1    4    4    0    0 0.32877286E+02 -.54039419E+02 0.25106064E+02 0.68055127E+02 0.10565837E+00 0.0000E+00 0.9000E+01
       13  1    4    4    0    0 -.70700290E+01 0.25695312E+02 0.45971982E+02 0.53138204E+02 0.10565837E+00 0.0000E+00 0.9000E+01
       23  1    3    3    0    0 -.27182737E+03 -.17192345E+02 0.91582651E+02 0.30147691E+03 0.91188000E+02 0.0000E+00 0.9000E+01
#aMCatNLO 1  0  0  2  1 0.41165154D+02 0.00000000D+00  -5  7  0 0.00000000D+00 0.00000000D+00 0.00000000D+00 0.00000000D+00 0.00000000D+00
  <mgrwgt>
 0.2923556521D-03    9    2    0
 0.352131765425892D+03 0.000000000000000D+00 0.000000000000000D+00 0.352131765425892D+03
 0.352131765425892D+03 0.000000000000000D+00 0.000000000000000D+00 -.352131765425892D+03
 0.294428283720826D+03 0.246020107982051D+03 0.455364524709912D+02 0.125591802581412D+03
 0.668417494288830D+02 0.328773410797807D+02 -.540395274847854D+02 -.216016059462828D+02
 0.314430288658699D+02 -.707008355841561D+01 0.256954203967516D+02 0.166860226947931D+02
 0.311550468836204D+03 -.271827365503416D+03 -.171923453829574D+02 -.120676219329923D+03
 0.000000000000000D+00 0.000000000000000D+00 -.000000000000000D+00 -.000000000000000D+00
 0.355521470160231D+03 0.000000000000000D+00 0.000000000000000D+00 0.355521470160231D+03
 0.504647963012737D+03 0.000000000000000D+00 0.000000000000000D+00 -.504647963012737D+03
 0.280813938216554D+03 0.229277966155203D+03 0.468991461838662D+02 0.125591802581412D+03
 0.647841981833145D+02 0.290464326398633D+02 -.537277182252734D+02 -.216016059462828D+02
 0.320304342628105D+02 -.891744747124271D+01 0.258457829498489D+02 0.166860226947931D+02
 0.327837013777818D+03 -.290436423580173D+03 -.156776976929554D+02 -.120676219329923D+03
 0.154703848732472D+03 0.410294722563496D+02 -.333951321548628D+01 -.149126492852506D+03
0.644862080299D-05 0.000000000000D+00 0.000000000000D+00 0.202167592606D-06 0.000000000000D+00  7 1 -1 23 -13 13 23 21 0 0.11155855D+00 0.26307576D-01 0.10350159D+06 0.10350159D+06 0.10350159D+06 0.11204975D+01  1  2  2  2  7  2       -1 0.247847582996D-03 0.100000000000D+01
-.354702186621D-06 0.000000000000D+00 -.247644018444D-07 0.202167592606D-06 0.000000000000D+00  7 1 -1 23 -13 13 23 21 2 0.11155855D+00 0.26307576D-01 0.10350159D+06 0.10350159D+06 0.10350159D+06 0.11204975D+01  1  2  3  2  7  2       -1 -.171160489960D-04 0.100000000000D+01
0.413495962463D-06 0.000000000000D+00 0.000000000000D+00 0.202167592606D-06 0.000000000000D+00  7 1 -1 23 -13 13 23 21 2 0.11155855D+00 0.26307576D-01 0.10350159D+06 0.10350159D+06 0.10350159D+06 0.11204975D+01  1  2 15  2  7  2       -1 0.199531252417D-04 0.100000000000D+01
0.574290937041D-04 0.000000000000D+00 0.000000000000D+00 0.202167592606D-06 0.000000000000D+00  7 1 -1 23 -13 13 23 21 2 0.11155855D+00 0.37786439D-01 0.11749983D+06 0.11749983D+06 0.11749983D+06 0.11160196D+01  1  2 12  2  7  2       -1 0.149251442218D-02 0.100000000000D+01
-.546077590159D-04 0.000000000000D+00 0.000000000000D+00 0.202167592606D-06 0.000000000000D+00  7 1 -1 23 -13 13 23 21 2 0.11155855D+00 0.26307576D-01 0.10350159D+06 0.10350159D+06 0.10350159D+06 0.11204975D+01  1  2  4  2  7  2       -1 -.263508124317D-02 0.100000000000D+01
-.601377605225D-04 0.000000000000D+00 -.289721288001D-05 0.202167592606D-06 0.000000000000D+00  7 1 -1 23 -13 13 23 21 2 0.11155855D+00 0.37893191D-01 0.10350159D+06 0.10350159D+06 0.10350159D+06 0.11204975D+01  1  2  5  2  7  2       -1 -.157223615298D-02 0.100000000000D+01
0.575062265282D-04 0.000000000000D+00 0.271446575089D-05 0.202167592606D-06 0.000000000000D+00  7 1 -1 23 -13 13 23 21 2 0.11155855D+00 0.26307576D-01 0.10350159D+06 0.10350159D+06 0.10350159D+06 0.11204975D+01  1  2  6  2  7  2       -1 0.277494593481D-02 0.100000000000D+01
0.254249267651D-05 0.000000000000D+00 0.000000000000D+00 0.202167592606D-06 0.000000000000D+00  7 1 21 23 -13 13 23 1 2 0.11155855D+00 0.37786439D-01 0.11749983D+06 0.11749983D+06 0.11749983D+06 0.11160196D+01  1  2 12  4  7  2       -1 0.668893627540D-03 0.100000000000D+01
-.259038599005D-05 0.000000000000D+00 -.128987373661D-06 0.202167592606D-06 0.000000000000D+00  7 1 21 23 -13 13 23 1 2 0.11155855D+00 0.37893191D-01 0.10350159D+06 0.10350159D+06 0.10350159D+06 0.11204975D+01  1  2  5  4  7  2       -1 -.687365595556D-03 0.100000000000D+01
  </mgrwgt>
  </event>
  <event>
  8     66 0.25924217E-05 0.32031202E+03 0.75467711E-02 0.92405263E-01
        1 -1    0    0  501    0 0.00000000E+00 0.00000000E+00 0.10253181E+03 0.10253231E+03 0.32000000E+00 0.0000E+00 0.9000E+01
       -1 -1    0    0    0  501 0.00000000E+00 0.00000000E+00 -.11498439E+04 0.11498440E+04 0.32000000E+00 0.0000E+00 0.9000E+01
       25  2    1    2    0    0 0.71034872E+02 0.25273486E+03 -.71520715E+03 0.81932915E+03 0.30142682E+03 0.0000E+00 0.0000E+00
       23  2    3    3    0    0 -.81506465E+02 0.67069448E+02 -.22776373E+03 0.26827848E+03 0.94633030E+02 0.0000E+00 0.0000E+00
       23  1    1    2    0    0 -.71034872E+02 -.25273486E+03 -.33210498E+03 0.43304715E+03 0.91188000E+02 0.0000E+00 0.9000E+01
      -11  1    4    4    0    0 -.47268340E+01 0.23472698E+01 -.12316707E+03 0.12328009E+03 0.51099893E-03 0.0000E+00 0.9000E+01
       11  1    4    4    0    0 -.76779631E+02 0.64722178E+02 -.10459666E+03 0.14499839E+03 0.51099893E-03 0.0000E+00 0.9000E+01
       23  1    3    3    0    0 0.15254134E+03 0.18566541E+03 -.48744341E+03 0.55105067E+03 0.91188000E+02 0.0000E+00 0.9000E+01
#aMCatNLO 1  0  0  2  1 0.43759686D+03 0.00000000D+00  -5  7  0 0.00000000D+00 0.00000000D+00 0.00000000D+00 0.00000000D+00 0.00000000D+00
  <mgrwgt>
 0.4717105663D-03    3    2    0
 0.343359756482622D+03 0.000000000000000D+00 0.000000000000000D+00 0.343359756482622D+03
 0.343359756482622D+03 0.000000000000000D+00 0.000000000000000D+00 -.343359756482622D+03
 0.283260345991781D+03 -.710348718723858D+02 -.252734858598888D+03 0.547750900908189D+02
 0.369855407133889D+02 -.472683399981324D+01 0.234726979145536D+01 -.366070701740262D+02
 0.104915028130626D+03 -.767796314206129D+02 0.647221779122288D+02 0.303824128874370D+02
 0.261558598129448D+03 0.152541337292812D+03 0.185665410895204D+03 -.485504328042298D+02
 0.000000000000000D+00 0.000000000000000D+00 -.000000000000000D+00 0.000000000000000D+00
 0.678672977638172D+03 0.000000000000000D+00 0.000000000000000D+00 0.678672977638172D+03
 0.583457024651533D+03 0.000000000000000D+00 0.000000000000000D+00 -.583457024651533D+03
 0.244233219107948D+03 -.172090664770499D+03 -.136817786037566D+03 0.547750900908189D+02
 0.469632737768188D+02 -.208095212067380D+02 0.207950793279727D+02 -.366070701740262D+02
 0.187644246925469D+03 -.132827347386402D+03 0.129012279173944D+03 0.303824128874370D+02
 0.335453251591162D+03 0.381674191357645D+02 0.316859174161205D+03 -.485504328042298D+02
 0.447836010888307D+03 0.287560114227874D+03 -.329848746625555D+03 0.952159529866387D+02
0.466658209461D-04 0.000000000000D+00 0.000000000000D+00 0.978814147813D-08 0.000000000000D+00  7 1 -1 23 -11 11 23 21 0 0.15774167D-01 0.17689911D+00 0.10259979D+06 0.10259979D+06 0.10259979D+06 0.11208085D+01  1  2  2  2  7  2       -1 0.466322073698D-03 0.100000000000D+01
-.257732727574D-05 0.000000000000D+00 -.179209039826D-06 0.978814147813D-08 0.000000000000D+00  7 1 -1 23 -11 11 23 21 2 0.15774167D-01 0.17689911D+00 0.10259979D+06 0.10259979D+06 0.10259979D+06 0.11208085D+01  1  2  3  2  7  2       -1 -.323533651851D-04 0.100000000000D+01
0.300658428935D-05 0.000000000000D+00 0.000000000000D+00 0.978814147813D-08 0.000000000000D+00  7 1 -1 23 -11 11 23 21 2 0.15774167D-01 0.17689911D+00 0.10259979D+06 0.10259979D+06 0.10259979D+06 0.11208085D+01  1  2 15  2  7  2       -1 0.377418577722D-04 0.100000000000D+01
  </mgrwgt>
  </event>
  <event>
  8     66 0.25924217E-05 0.29077540E+03 0.75467711E-02 0.96229660E-01
        1 -1    0    0  501    0 0.00000000E+00 0.00000000E+00 0.14228840E+03 0.14228876E+03 0.32000000E+00 0.0000E+00 0.9000E+01
       -1 -1    0    0    0  501 0.00000000E+00 0.00000000E+00 -.69961309E+03 0.69961317E+03 0.32000000E+00 0.0000E+00 0.9000E+01
       25  2    1    2    0    0 -.23419139E+03 0.18810167E+02 -.34162491E+03 0.51017752E+03 0.29727781E+03 0.0000E+00 0.0000E+00
       23  2    3    3    0    0 -.53764001E+02 0.71781945E+02 -.21356460E+02 0.12775474E+03 0.88441844E+02 0.0000E+00 0.0000E+00
       23  1    1    2    0    0 0.23419139E+03 -.18810167E+02 -.21569978E+03 0.33172440E+03 0.91188000E+02 0.0000E+00 0.9000E+01
      -13  1    4    4    0    0 0.21204989E+02 0.21970833E+02 -.22183797E+02 0.37742563E+02 0.10565837E+00 0.0000E+00 0.9000E+01
       13  1    4    4    0    0 -.74968990E+02 0.49811112E+02 0.82733689E+00 0.90012177E+02 0.10565837E+00 0.0000E+00 0.9000E+01
       23  1    3    3    0    0 -.18042739E+03 -.52971778E+02 -.32026845E+03 0.38242278E+03 0.91188000E+02 0.0000E+00 0.9000E+01
#aMCatNLO 1  0  0  1  1 0.23411856D+03 0.00000000D+00  -5  7  0 0.00000000D+00 0.00000000D+00 0.00000000D+00 0.00000000D+00 0.00000000D+00
  <mgrwgt>
 0.4069568328D-03    5    2    0
 0.315510710212757D+03 0.000000000000000D+00 0.000000000000000D+00 0.315510710212757D+03
 0.315510710212757D+03 0.000000000000000D+00 0.000000000000000D+00 -.315510710212757D+03
 0.252074795837597D+03 0.234191392440111D+03 -.188101671744416D+02 0.519814105210735D+01
 0.307626274597232D+02 0.212051255243619D+02 0.219707926602377D+02 0.373713387539344D+01
 0.120824109041051D+03 -.749691269267709D+02 0.498111516669400D+02 0.806036258676656D+02
 0.227359888087142D+03 -.180427391037702D+03 -.529717771527361D+02 -.895389007951664D+02
 0.000000000000000D+00 0.000000000000000D+00 0.000000000000000D+00 0.000000000000000D+00
 0.465095341890853D+03 0.000000000000000D+00 0.000000000000000D+00 0.465095341890853D+03
 0.443106013210010D+03 0.000000000000000D+00 0.000000000000000D+00 -.443106013210010D+03
 0.187826620438972D+03 0.158676833241296D+03 -.419312523500326D+02 0.519814105210735D+01
 0.229024773647269D+02 0.119928416233964D+02 0.191501710079922D+02 0.373713387539344D+01
 0.150057413264305D+03 -.121469315367021D+03 0.355737009155238D+02 0.806036258676656D+02
 0.312265889151807D+03 -.273060879343860D+03 -.813343445299733D+02 -.895389007951664D+02
 0.235148954881052D+03 0.223860519846188D+03 0.685417249564899D+02 0.219893286808429D+02
0.177644069065D-04 0.000000000000D+00 0.000000000000D+00 0.258309822867D-08 0.000000000000D+00  7 1 -1 23 -13 13 23 21 0 0.21890556D-01 0.10763282D+00 0.84550333D+05 0.84550333D+05 0.84550333D+05 0.11277526D+01  1  2  2  1  7  1        1 0.443599824177D-03 0.100000000000D+01
-.978913493753D-06 0.000000000000D+00 -.682199999965D-07 0.258309822867D-08 0.000000000000D+00  7 1 -1 23 -13 13 23 21 2 0.21890556D-01 0.10763282D+00 0.84550333D+05 0.84550333D+05 0.84550333D+05 0.11277526D+01  1  2  3  1  7  1        1 -.310894214736D-04 0.100000000000D+01
0.118635296585D-05 0.000000000000D+00 0.000000000000D+00 0.258309822867D-08 0.000000000000D+00  7 1 -1 23 -13 13 23 21 2 0.21890556D-01 0.10763282D+00 0.84550333D+05 0.84550333D+05 0.84550333D+05 0.11277526D+01  1  2 15  1  7  1        1 0.376775145170D-04 0.100000000000D+01
-.378666941552D-05 0.000000000000D+00 -.595231141865D-05 0.258309822867D-08 0.000000000000D+00  7 1 -1 23 -13 13 23 21 2 0.44748739D-01 0.10763282D+00 0.84550333D+05 0.84550333D+05 0.84550333D+05 0.11277526D+01  1  2  5  1  7  1        1 -.475418087199D-04 0.100000000000D+01
0.701170698541D-07 0.000000000000D+00 -.460227528798D-06 0.258309822867D-08 0.000000000000D+00  7 21 -1 23 -13 13 23 -1 2 0.44748739D-01 0.10763282D+00 0.84550333D+05 0.84550333D+05 0.84550333D+05 0.11277526D+01  1  2  5  3  7  1        1 0.431072432438D-05 0.100000000000D+01
  </mgrwgt>
  </event>
  <event>
  8     66 0.25924217E-05 0.80384940E+02 0.75467711E-02 0.99199120E-01
        1 -1    0    0  501    0 0.00000000E+00 0.00000000E+00 0.13885884E+04 0.13885885E+04 0.32000000E+00 0.0000E+00 0.9000E+01
       -1 -1    0    0    0  501 0.00000000E+00 0.00000000E+00 -.74493538E+02 0.74494225E+02 0.32000000E+00 0.0000E+00 0.9000E+01
       25  2    1    2    0    0 -.18110978E+03 -.10932583E+03 0.10526508E+04 0.11146273E+04 0.29927817E+03 0.0000E+00 0.0000E+00
       23  2    3    3    0    0 -.22372110E+03 -.10669411E+03 0.81383948E+03 0.85545796E+03 0.89659675E+02 0.0000E+00 0.0000E+00
       23  1    1    2    0    0 0.18110978E+03 0.10932583E+03 0.26144407E+03 0.34845537E+03 0.91188000E+02 0.0000E+00 0.9000E+01
      -11  1    4    4    0    0 -.18265468E+03 -.97110230E+02 0.75654714E+03 0.78431927E+03 0.51099893E-03 0.0000E+00 0.9000E+01
       11  1    4    4    0    0 -.41066427E+02 -.95838753E+01 0.57292332E+02 0.71138691E+02 0.51099893E-03 0.0000E+00 0.9000E+01
       23  1    3    3    0    0 0.42611319E+02 -.26317285E+01 0.23881135E+03 0.25916938E+03 0.91188000E+02 0.0000E+00 0.9000E+01
#aMCatNLO 1  0  0  1  2 0.93765383D+02 0.00000000D+00  -5  7  0 0.00000000D+00 0.00000000D+00 0.00000000D+00 0.00000000D+00 0.00000000D+00
  <mgrwgt>
 0.5112306460D-03    9    2    0
 0.321623063626981D+03 0.000000000000000D+00 0.000000000000000D+00 0.321623063626981D+03
 0.321623063626981D+03 0.000000000000000D+00 0.000000000000000D+00 -.321623063626981D+03
 0.258465145660696D+03 0.181109783956406D+03 0.109325833654502D+03 -.117201059843402D+03
 0.238398952925899D+03 -.182654676106419D+03 -.971102298452627D+02 0.118494444224295D+03
 0.447639341796919D+02 -.410664270032155D+02 -.958387534451832D+01 -.150169141242169D+02
 0.101618094487676D+03 0.426113191532282D+02 -.263172846472089D+01 0.137235297433244D+02
 0.000000000000000D+00 -.000000000000000D+00 0.000000000000000D+00 0.000000000000000D+00
 0.409181559132614D+03 0.000000000000000D+00 0.000000000000000D+00 0.409181559132614D+03
 0.351139063452757D+03 0.000000000000000D+00 0.000000000000000D+00 -.351139063452757D+03
 0.265164955858056D+03 0.204748337023027D+03 0.796192974667138D+02 -.117201059843402D+03
 0.235416658342798D+03 -.161264928958035D+03 -.123990694817898D+03 0.118494444224295D+03
 0.426028232227680D+02 -.371223761835116D+02 -.145403584283941D+02 -.150169141242169D+02
 0.106859812783527D+03 0.520227644844931D+02 -.144590784943382D+02 0.137235297433244D+02
 0.110276372378222D+03 -.583837963659737D+02 0.733708342739168D+02 0.580424956798573D+02
0.754043835056D-05 0.000000000000D+00 0.000000000000D+00 0.966260314781D-07 0.000000000000D+00  7 1 -1 23 -11 11 23 21 0 0.21362905D+00 0.11460600D-01 0.84125320D+05 0.84125320D+05 0.84125320D+05 0.11279352D+01  1  2  2  1  7  1        1 0.344960561812D-03 0.100000000000D+01
-.413473020219D-06 0.000000000000D+00 -.289572687091D-07 0.966260314781D-07 0.000000000000D+00  7 1 -1 23 -11 11 23 21 2 0.21362905D+00 0.11460600D-01 0.84125320D+05 0.84125320D+05 0.84125320D+05 0.11279352D+01  1  2  3  1  7  1        1 -.240651378378D-04 0.100000000000D+01
0.488314296962D-06 0.000000000000D+00 0.000000000000D+00 0.966260314781D-07 0.000000000000D+00  7 1 -1 23 -11 11 23 21 2 0.21362905D+00 0.11460600D-01 0.84125320D+05 0.84125320D+05 0.84125320D+05 0.11279352D+01  1  2 15  1  7  1        1 0.284210826098D-04 0.100000000000D+01
0.646814894904D-05 0.000000000000D+00 0.000000000000D+00 0.966260314781D-07 0.000000000000D+00  7 1 -1 23 -11 11 23 21 2 0.27956098D+00 0.11460600D-01 0.11590196D+06 0.11590196D+06 0.11590196D+06 0.11165003D+01  1  2 12  1  7  1        1 0.191181326678D-03 0.100000000000D+01
-.703250169595D-05 0.000000000000D+00 0.000000000000D+00 0.966260314781D-07 0.000000000000D+00  7 1 -1 23 -11 11 23 21 2 0.21362905D+00 0.11460600D-01 0.84125320D+05 0.84125320D+05 0.84125320D+05 0.11279352D+01  1  2  4  1  7  1        1 -.409308744179D-03 0.100000000000D+01
-.120653031164D-04 0.000000000000D+00 -.347302665198D-05 0.966260314781D-07 0.000000000000D+00  7 1 -1 23 -11 11 23 21 2 0.28304891D+00 0.11460600D-01 0.84125320D+05 0.84125320D+05 0.84125320D+05 0.11279352D+01  1  2  5  1  7  1        1 -.354869394434D-03 0.100000000000D+01
0.126707176566D-04 0.000000000000D+00 0.333993412842D-05 0.966260314781D-07 0.000000000000D+00  7 1 -1 23 -11 11 23 21 2 0.21362905D+00 0.11460600D-01 0.84125320D+05 0.84125320D+05 0.84125320D+05 0.11279352D+01  1  2  6  1  7  1        1 0.737466659250D-03 0.100000000000D+01
0.230979454839D-06 0.000000000000D+00 0.000000000000D+00 0.966260314781D-07 0.000000000000D+00  7 21 -1 23 -11 11 23 -1 2 0.27956098D+00 0.11460600D-01 0.11590196D+06 0.11590196D+06 0.11590196D+06 0.11165003D+01  1  2 12  3  7  1        1 0.418550994789D-05 0.100000000000D+01
-.374805862903D-06 0.000000000000D+00 -.128161232565D-06 0.966260314781D-07 0.000000000000D+00  7 21 -1 23 -11 11 23 -1 2 0.28304891D+00 0.11460600D-01 0.84125320D+05 0.84125320D+05 0.84125320D+05 0.11279352D+01  1  2  5  3  7  1        1 -.674121786057D-05 0.100000000000D+01
  </mgrwgt>
  </event>
  <event>
  8     66 0.25924217E-05 0.68637590E+03 0.75467711E-02 0.84768693E-01
        1 -1    0    0  501    0 0.00000000E+00 0.00000000E+00 0.12201524E+04 0.12201524E+04 0.32000000E+00 0.0000E+00 0.9000E+01
       -1 -1    0    0    0  501 0.00000000E+00 0.00000000E+00 -.52472082E+03 0.52472092E+03 0.32000000E+00 0.0000E+00 0.9000E+01
       25  2    1    2    0    0 0.17734959E+03 -.65303749E+03 0.75815205E+03 0.10591913E+04 0.29863148E+03 0.0000E+00 0.0000E+00
       23  2    3    3    0    0 0.21289944E+02 -.21446771E+03 0.40555328E+03 0.46814202E+03 0.90740451E+02 0.0000E+00 0.0000E+00
       23  1    1    2    0    0 -.17734959E+03 0.65303749E+03 -.62720469E+02 0.68568210E+03 0.91188000E+02 0.0000E+00 0.9000E+01
      -11  1    4    4    0    0 0.90913542E+01 -.11859794E+03 0.13035088E+03 0.17646381E+03 0.51099893E-03 0.0000E+00 0.9000E+01
       11  1    4    4    0    0 0.12198589E+02 -.95869768E+02 0.27520240E+03 0.29167821E+03 0.51099893E-03 0.0000E+00 0.9000E+01
       23  1    3    3    0    0 0.15605965E+03 -.43856977E+03 0.35259877E+03 0.59104924E+03 0.91188000E+02 0.0000E+00 0.9000E+01
#aMCatNLO 1  0  0  2  2 0.97387464D+03 0.00000000D+00  -5  7  0 0.00000000D+00 0.00000000D+00 0.00000000D+00 0.00000000D+00 0.00000000D+00
  <mgrwgt>
 0.6602022780D-03    3    2    0
 0.800149669042887D+03 0.000000000000000D+00 0.000000000000000D+00 0.800149669042887D+03
 0.800149669042887D+03 0.000000000000000D+00 0.000000000000000D+00 -.800149669042887D+03
 0.774883923377405D+03 -.177349588900743D+03 0.653037485909072D+03 -.366359125284272D+03
 0.135760155056219D+03 0.909135423407831D+01 -.118597943014432D+03 0.654423020058475D+02
 0.198436062107246D+03 0.121985893308197D+02 -.958697681080300D+02 0.173312009756628D+03
 0.491219197544904D+03 0.156059645335845D+03 -.438569774786610D+03 0.127604813521797D+03
 0.000000000000000D+00 -.000000000000000D+00 -.000000000000000D+00 0.000000000000000D+00
 0.172629433405014D+04 0.000000000000000D+00 0.000000000000000D+00 0.172629433405014D+04
 0.123694704747094D+04 0.000000000000000D+00 0.000000000000000D+00 -.123694704747094D+04
 0.109699095201485D+04 0.208618991757730D+03 0.100862927037509D+04 -.366359125284272D+03
 0.114089088188624D+03 0.606086639974232D+02 -.711351882005986D+02 0.654423020058475D+02
 0.198221014398839D+03 0.939867317113893D+02 -.205185790354616D+02 0.173312009756628D+03
 0.464035481359412D+03 0.353027026773027D+03 -.257104271746553D+03 0.127604813521797D+03
 0.108990484555935D+04 -.716241414239570D+03 -.659871231392476D+03 0.489347286579198D+03
0.333555869476D-03 0.000000000000D+00 0.000000000000D+00 0.715445712611D-06 0.000000000000D+00  7 1 -1 23 -11 11 23 21 0 0.18771577D+00 0.80726291D-01 0.47111188D+06 0.47111188D+06 0.47111188D+06 0.10703419D+01  1  2  2  2  7  2       -1 0.654677589216D-03 0.100000000000D+01
-.180008797536D-04 0.000000000000D+00 -.128094236607D-05 0.715445712611D-06 0.000000000000D+00  7 1 -1 23 -11 11 23 21 2 0.18771577D+00 0.80726291D-01 0.47111188D+06 0.47111188D+06 0.47111188D+06 0.10703419D+01  1  2  3  2  7  2       -1 -.404760044946D-04 0.100000000000D+01
0.204578727219D-04 0.000000000000D+00 0.000000000000D+00 0.715445712611D-06 0.000000000000D+00  7 1 -1 23 -11 11 23 21 2 0.18771577D+00 0.80726291D-01 0.47111188D+06 0.47111188D+06 0.47111188D+06 0.10703419D+01  1  2 15  2  7  2       -1 0.460006932758D-04 0.100000000000D+01
  </mgrwgt>
  </event>
  <event>
  9     66 0.25924217E-05 0.15419103E+03 0.75467711E-02 0.10386044E+00
        1 -1    0    0  501    0 0.00000000E+00 0.00000000E+00 0.15646291E+04 0.15646291E+04 0.32000000E+00 0.0000E+00 0.9000E+01
       21 -1    0    0  502  501 0.00000000E+00 0.00000000E+00 -.64670971E+02 0.64675320E+02 0.75000000E+00 0.0000E+00 0.9000E+01
       25  2    1    2    0    0 -.68412715E+02 0.15754549E+02 0.72935080E+03 0.79160475E+03 0.29959471E+03 0.0000E+00 0.0000E+00
       23  2    3    3    0    0 -.10120578E+03 -.45969993E+01 0.65197240E+03 0.66593758E+03 0.90228067E+02 0.0000E+00 0.0000E+00
       23  1    1    2    0    0 -.78402584E+02 0.21661742E+02 0.58733145E+03 0.59990806E+03 0.91188000E+02 0.0000E+00 0.9000E+01
      -11  1    4    4    0    0 -.10595952E+02 -.82166520E+01 0.35903732E+03 0.35928760E+03 0.51099893E-03 0.0000E+00 0.9000E+01
       11  1    4    4    0    0 -.90609831E+02 0.36196527E+01 0.29293509E+03 0.30664998E+03 0.51099893E-03 0.0000E+00 0.9000E+01
       23  1    3    3    0    0 0.32793069E+02 0.20351548E+02 0.77378398E+02 0.12566717E+03 0.91188000E+02 0.0000E+00 0.9000E+01
        1  1    1    2  502    0 0.14681530E+03 -.37416290E+02 0.18327586E+03 0.23779162E+03 0.32000000E+00 0.0000E+00 0.9000E+01
#aMCatNLO 2  0  0  2  1 0.15150812D+03 0.00000000D+00  -5  7  0 0.00000000D+00 0.00000000D+00 0.00000000D+00 0.00000000D+00 0.00000000D+00
  <mgrwgt>
 0.7720104896D-04    2    2    0
 0.211955804393247D+03 0.000000000000000D+00 0.000000000000000D+00 0.211955804393247D+03
 0.211955804393247D+03 0.000000000000000D+00 0.000000000000000D+00 -.211955804393247D+03
 0.115895990300790D+03 -.360081521489971D+02 0.108574017612486D+02 0.608453698288560D+02
 0.612557684999919D+02 0.984716292521916D+01 -.134266372327772D+02 0.589493678462135D+02
 0.650291223621923D+02 -.643878336549300D+02 -.306309683778393D+01 0.857968939906267D+01
 0.181730727623519D+03 0.905488228787080D+02 0.563233230931246D+01 -.128374427074132D+03
 0.000000000000000D+00 0.000000000000000D+00 -.000000000000000D+00 -.000000000000000D+00
 0.260082627994664D+03 0.000000000000000D+00 0.000000000000000D+00 0.260082627994664D+03
 0.389066964499915D+03 0.000000000000000D+00 0.000000000000000D+00 -.389066964499915D+03
 0.136504969411624D+03 -.784025844807213D+02 0.216617415551373D+02 0.608453698288560D+02
 0.604550704869292D+02 -.105959523994910D+02 -.821665204685598D+01 0.589493678462135D+02
 0.910870709879594D+02 -.906098313938073D+02 0.361965271358596D+01 0.857968939906267D+01
 0.162125925647444D+03 0.327930693525772D+02 0.203515478248236D+02 -.128374427074132D+03
 0.198976555960622D+03 0.146815298921443D+03 -.374162900466909D+02 -.128984336505251D+03
-.212698976192D-10 0.000000000000D+00 0.000000000000D+00 0.629567689946D-07 0.000000000000D+00  7 1 21 23 -11 11 23 1 2 0.19616992D+00 0.10129070D-01 0.56837496D+05 0.56837496D+05 0.56837496D+05 0.11424311D+01  1  2 13  4  7  2       -1 -.260099715194D-07 0.100000000000D+01
0.953556494213D-07 0.000000000000D+00 0.000000000000D+00 0.629567689946D-07 0.212299459546D-11  7 1 21 23 -11 11 23 1 2 0.24071239D+00 0.99497126D-02 0.56837496D+05 0.56837496D+05 0.56837496D+05 0.11424311D+01  1  2  1  4  7  2       -1 0.772270589306D-04 0.100000000000D+01
  </mgrwgt>
  </event>
  <event>
  8     66 0.25924217E-05 0.20392635E+03 0.75467711E-02 0.94864821E-01
        1 -1    0    0  501    0 0.00000000E+00 0.00000000E+00 0.57826577E+03 0.57826585E+03 0.32000000E+00 0.0000E+00 0.9000E+01
       -1 -1    0    0    0  501 0.00000000E+00 0.00000000E+00 -.35502673E+03 0.35502687E+03 0.32000000E+00 0.0000E+00 0.9000E+01
       25  2    1    2    0    0 -.33399902E+03 -.21086527E+03 0.68975678E+02 0.49955093E+03 0.29794963E+03 0.0000E+00 0.0000E+00
       23  2    3    3    0    0 -.31832608E+03 -.20981703E+03 0.92627722E+02 0.40404486E+03 0.96528082E+02 0.0000E+00 0.0000E+00
       23  1    1    2    0    0 0.33399902E+03 0.21086527E+03 0.15426336E+03 0.43374179E+03 0.91188000E+02 0.0000E+00 0.9000E+01
      -11  1    4    4    0    0 -.25239152E+03 -.12517942E+03 0.40037232E+02 0.28455992E+03 0.51099893E-03 0.0000E+00 0.9000E+01
       11  1    4    4    0    0 -.65934563E+02 -.84637602E+02 0.52590490E+02 0.11948494E+03 0.51099893E-03 0.0000E+00 0.9000E+01
       23  1    3    3    0    0 -.15672936E+02 -.10482439E+01 -.23652045E+02 0.95506075E+02 0.91188000E+02 0.0000E+00 0.9000E+01
#aMCatNLO 1  0  0  1  2 0.88167809D+02 0.00000000D+00  -5  7  0 0.00000000D+00 0.00000000D+00 0.00000000D+00 0.00000000D+00 0.00000000D+00
  <mgrwgt>
 0.5745801955D-03    9    2    0
 0.453100331144394D+03 0.000000000000000D+00 0.000000000000000D+00 0.453100331144394D+03
 0.453100331144394D+03 0.000000000000000D+00 0.000000000000000D+00 -.453100331144394D+03
 0.408706891301632D+03 0.333999020243158D+03 0.210865269650255D+03 0.520246497862241D+02
 0.283204194965574D+03 -.252391520532322D+03 -.125179423431413D+03 -.288660416209176D+02
 0.110101631395505D+03 -.659345632558474D+02 -.846376023486049D+02 0.247280988531632D+02
 0.104187944626076D+03 -.156729364549890D+02 -.104824387023757D+01 -.478867070184697D+02
 0.000000000000000D+00 -.000000000000000D+00 -.000000000000000D+00 0.000000000000000D+00
 0.510376456106063D+03 0.000000000000000D+00 0.000000000000000D+00 0.510376456106063D+03
 0.490486644586308D+03 0.000000000000000D+00 0.000000000000000D+00 -.490486644586308D+03
 0.446003414493567D+03 0.357613982577266D+03 0.244968303410397D+03 0.520246497862241D+02
 0.260548849277795D+03 -.237368058697593D+03 -.103483618081600D+03 -.288660416209176D+02
 0.100199435186745D+03 -.601241129401209D+02 -.762465670178962D+02 0.247280988531632D+02
 0.103727956449867D+03 -.992838635505501D+01 0.724762309847332D+01 -.478867070184697D+02
 0.903834452843965D+02 -.501934245844963D+02 -.724857414093737D+02 0.198898115197552D+02
0.221806927061D-04 0.000000000000D+00 0.000000000000D+00 0.363398401363D-08 0.000000000000D+00  7 1 -1 23 -11 11 23 21 0 0.88963982D-01 0.54619514D-01 0.19666180D+06 0.19666180D+06 0.19666180D+06 0.10983873D+01  1  2  2  1  7  1        1 0.331660487077D-03 0.100000000000D+01
-.123156857791D-05 0.000000000000D+00 -.851797003020D-07 0.363398401363D-08 0.000000000000D+00  7 1 -1 23 -11 11 23 21 2 0.88963982D-01 0.54619514D-01 0.19666180D+06 0.19666180D+06 0.19666180D+06 0.10983873D+01  1  2  3  1  7  1        1 -.222171422637D-04 0.100000000000D+01
0.143221020390D-05 0.000000000000D+00 0.000000000000D+00 0.363398401363D-08 0.000000000000D+00  7 1 -1 23 -11 11 23 21 2 0.88963982D-01 0.54619514D-01 0.19666180D+06 0.19666180D+06 0.19666180D+06 0.10983873D+01  1  2 15  1  7  1        1 0.258366593808D-04 0.100000000000D+01
0.250109479570D-04 0.000000000000D+00 0.000000000000D+00 0.363398401363D-08 0.000000000000D+00  7 1 -1 23 -11 11 23 21 2 0.10349512D+00 0.54619514D-01 0.23970055D+06 0.23970055D+06 0.23970055D+06 0.10918363D+01  1  2 12  1  7  1        1 0.355129697604D-03 0.100000000000D+01
-.227443346732D-04 0.000000000000D+00 0.000000000000D+00 0.363398401363D-08 0.000000000000D+00  7 1 -1 23 -11 11 23 21 2 0.88963982D-01 0.54619514D-01 0.19666180D+06 0.19666180D+06 0.19666180D+06 0.10983873D+01  1  2  4  1  7  1        1 -.410301243626D-03 0.100000000000D+01
-.669247910214D-04 0.000000000000D+00 -.171101036332D-04 0.363398401363D-08 0.000000000000D+00  7 1 -1 23 -11 11 23 21 2 0.10665128D+00 0.54619514D-01 0.19666180D+06 0.19666180D+06 0.19666180D+06 0.10983873D+01  1  2  5  1  7  1        1 -.924408340162D-03 0.100000000000D+01
0.691646738765D-04 0.000000000000D+00 0.168326028838D-04 0.363398401363D-08 0.000000000000D+00  7 1 -1 23 -11 11 23 21 2 0.88963982D-01 0.54619514D-01 0.19666180D+06 0.19666180D+06 0.19666180D+06 0.10983873D+01  1  2  6  1  7  1        1 0.124771078664D-02 0.100000000000D+01
0.574498273921D-06 0.000000000000D+00 0.000000000000D+00 0.363398401363D-08 0.000000000000D+00  7 21 -1 23 -11 11 23 -1 2 0.10349512D+00 0.54619514D-01 0.23970055D+06 0.23970055D+06 0.23970055D+06 0.10918363D+01  1  2 12  3  7  1        1 0.174384707672D-04 0.100000000000D+01
-.160902957828D-05 0.000000000000D+00 -.453870530230D-06 0.363398401363D-08 0.000000000000D+00  7 21 -1 23 -11 11 23 -1 2 0.10665128D+00 0.54619514D-01 0.19666180D+06 0.19666180D+06 0.19666180D+06 0.10983873D+01  1  2  5  3  7  1        1 -.462691799091D-04 0.100000000000D+01
  </mgrwgt>
  </event>
  <event>
  8     66 0.25924217E-05 0.29787084E+03 0.75467711E-02 0.96901835E-01
        1 -1    0    0  501    0 0.00000000E+00 0.00000000E+00 0.40164400E+03 0.40164412E+03 0.32000000E+00 0.0000E+00 0.9000E+01
       -1 -1    0    0    0  501 0.00000000E+00 0.00000000E+00 -.37461649E+03 0.37461663E+03 0.32000000E+00 0.0000E+00 0.9000E+01
       25  2    1    2    0    0 0.17152419E+03 0.27270989E+03 0.18426805E+02 0.44132725E+03 0.30106305E+03 0.0000E+00 0.0000E+00
       23  2    3    3    0    0 -.44324675E+02 0.52091119E+02 0.35526636E+02 0.11903696E+03 0.90716559E+02 0.0000E+00 0.0000E+00
       23  1    1    2    0    0 -.17152419E+03 -.27270989E+03 0.86007015E+01 0.33493351E+03 0.91188000E+02 0.0000E+00 0.9000E+01
      -13  1    4    4    0    0 0.25541856E+02 0.23225400E+02 -.21180113E+01 0.34587610E+02 0.10565837E+00 0.0000E+00 0.9000E+01
       13  1    4    4    0    0 -.69866531E+02 0.28865718E+02 0.37644647E+02 0.84449348E+02 0.10565837E+00 0.0000E+00 0.9000E+01
       23  1    3    3    0    0 0.21584887E+03 0.22061877E+03 -.17099831E+02 0.32229029E+03 0.91188000E+02 0.0000E+00 0.9000E+01
#aMCatNLO 1  0  0  1  2 0.53698386D+02 0.00000000D+00  -5  7  0 0.00000000D+00 0.00000000D+00 0.00000000D+00 0.00000000D+00 0.00000000D+00
  <mgrwgt>
 0.5213806501D-03    9    2    0
 0.387895046373947D+03 0.000000000000000D+00 0.000000000000000D+00 0.387895046373947D+03
 0.387895046373947D+03 0.000000000000000D+00 0.000000000000000D+00 -.387895046373947D+03
 0.334837068210541D+03 -.171524191216899D+03 -.272709886980167D+03 -.306272337693107D+01
 0.346823166700505D+02 0.255419852675420D+02 0.232253929364167D+02 -.332433469184064D+01
 0.831891574245628D+02 -.698666593187199D+02 0.288657260964615D+02 0.347254328349509D+02
 0.323081550442739D+03 0.215848865268077D+03 0.220618767947288D+03 -.283383747661791D+02
 0.000000000000000D+00 0.000000000000000D+00 0.000000000000000D+00 0.000000000000000D+00
 0.429530982893220D+03 0.000000000000000D+00 0.000000000000000D+00 0.429530982893220D+03
 0.406531768679955D+03 0.000000000000000D+00 0.000000000000000D+00 -.406531768679955D+03
 0.354615831754165D+03 -.171728858051242D+03 -.296541659509471D+03 -.306272337693107D+01
 0.331425693457121D+02 0.255218511804837D+02 0.208809438008247D+02 -.332433469184064D+01
 0.814317877736195D+02 -.699155277007688D+02 0.231754042199085D+02 0.347254328349509D+02
 0.308456121928366D+03 0.215661390799293D+03 0.198788905236718D+03 -.283383747661791D+02
 0.584164407713126D+02 0.461143772233319D+00 0.536964062520199D+02 0.229992142132647D+02
0.136975595044D-04 0.000000000000D+00 0.000000000000D+00 0.221392373606D-06 0.000000000000D+00  7 1 -1 23 -13 13 23 21 0 0.61791404D-01 0.57633327D-01 0.14698669D+06 0.14698669D+06 0.14698669D+06 0.11082481D+01  1  2  2  1  7  1        1 0.309296290515D-03 0.100000000000D+01
-.760849172339D-06 0.000000000000D+00 -.526022351473D-07 0.221392373606D-06 0.000000000000D+00  7 1 -1 23 -13 13 23 21 2 0.61791404D-01 0.57633327D-01 0.14698669D+06 0.14698669D+06 0.14698669D+06 0.11082481D+01  1  2  3  1  7  1        1 -.211010490624D-04 0.100000000000D+01
0.870315216888D-06 0.000000000000D+00 0.000000000000D+00 0.221392373606D-06 0.000000000000D+00  7 1 -1 23 -13 13 23 21 2 0.61791404D-01 0.57633327D-01 0.14698669D+06 0.14698669D+06 0.14698669D+06 0.11082481D+01  1  2 15  1  7  1        1 0.241369311540D-04 0.100000000000D+01
0.250219608402D-04 0.000000000000D+00 0.000000000000D+00 0.221392373606D-06 0.000000000000D+00  7 1 -1 23 -13 13 23 21 2 0.69788347D-01 0.57633327D-01 0.16895575D+06 0.16895575D+06 0.16895575D+06 0.11034964D+01  1  2 12  1  7  1        1 0.581552894731D-03 0.100000000000D+01
-.239731205044D-04 0.000000000000D+00 0.000000000000D+00 0.221392373606D-06 0.000000000000D+00  7 1 -1 23 -13 13 23 21 2 0.61791404D-01 0.57633327D-01 0.14698669D+06 0.14698669D+06 0.14698669D+06 0.11082481D+01  1  2  4  1  7  1        1 -.664859751884D-03 0.100000000000D+01
-.656066567987D-04 0.000000000000D+00 -.137005608521D-04 0.221392373606D-06 0.000000000000D+00  7 1 -1 23 -13 13 23 21 2 0.71094651D-01 0.57633327D-01 0.14698669D+06 0.14698669D+06 0.14698669D+06 0.11082481D+01  1  2  5  1  7  1        1 -.150402952748D-02 0.100000000000D+01
0.670017518153D-04 0.000000000000D+00 0.135669150809D-04 0.221392373606D-06 0.000000000000D+00  7 1 -1 23 -13 13 23 21 2 0.61791404D-01 0.57633327D-01 0.14698669D+06 0.14698669D+06 0.14698669D+06 0.11082481D+01  1  2  6  1  7  1        1 0.185819647799D-02 0.100000000000D+01
0.480412439757D-06 0.000000000000D+00 0.000000000000D+00 0.221392373606D-06 0.000000000000D+00  7 21 -1 23 -13 13 23 -1 2 0.69788347D-01 0.57633327D-01 0.16895575D+06 0.16895575D+06 0.16895575D+06 0.11034964D+01  1  2 12  3  7  1        1 0.363534932448D-04 0.100000000000D+01
-.133259045998D-05 0.000000000000D+00 -.295873317164D-06 0.221392373606D-06 0.000000000000D+00  7 21 -1 23 -13 13 23 -1 2 0.71094651D-01 0.57633327D-01 0.14698669D+06 0.14698669D+06 0.14698669D+06 0.11082481D+01  1  2  5  3  7  1        1 -.981651090613D-04 0.100000000000D+01
  </mgrwgt>
  </event>
  <event>
  8     66 0.25924217E-05 0.25650187E+03 0.75467711E-02 0.96508054E-01
        1 -1    0    0  501    0 0.00000000E+00 0.00000000E+00 0.12509428E+04 0.12509429E+04 0.32000000E+00 0.0000E+00 0.9000E+01
       -1 -1    0    0    0  501 0.00000000E+00 0.00000000E+00 -.12926223E+03 0.12926262E+03 0.32000000E+00 0.0000E+00 0.9000E+01
       25  2    1    2    0    0 0.33094039E+03 -.15921308E+02 0.50562500E+03 0.67478733E+03 0.29984375E+03 0.0000E+00 0.0000E+00
       23  2    3    3    0    0 0.47745713E+02 0.19612175E+02 0.28278043E+03 0.30137495E+03 0.90541698E+02 0.0000E+00 0.0000E+00
       23  1    1    2    0    0 -.33094039E+03 0.15921308E+02 0.61605560E+03 0.70541816E+03 0.91188000E+02 0.0000E+00 0.9000E+01
      -11  1    4    4    0    0 0.35894046E+02 0.18495610E+02 0.35374024E+02 0.53682322E+02 0.51099893E-03 0.0000E+00 0.9000E+01
       11  1    4    4    0    0 0.11851666E+02 0.11165645E+01 0.24740640E+03 0.24769263E+03 0.51099893E-03 0.0000E+00 0.9000E+01
       23  1    3    3    0    0 0.28319468E+03 -.35533483E+02 0.22284457E+03 0.37341238E+03 0.91188000E+02 0.0000E+00 0.9000E+01
#aMCatNLO 1  0  0  1  2 0.13141252D+03 0.00000000D+00  -5  7  0 0.00000000D+00 0.00000000D+00 0.00000000D+00 0.00000000D+00 0.00000000D+00
  <mgrwgt>
 0.5505251726D-03    9    2    0
 0.402119334184889D+03 0.000000000000000D+00 0.000000000000000D+00 0.402119334184889D+03
 0.402119334184889D+03 0.000000000000000D+00 0.000000000000000D+00 -.402119334184889D+03
 0.351393706920775D+03 -.330940389106445D+03 0.159213081569534D+02 0.733979340592734D+02
 0.427911280980714D+02 0.358940464553997D+02 0.184956101176623D+02 -.141637028823182D+02
 0.800207237703403D+02 0.118516663388856D+02 0.111656452416474D+01 0.791303198615057D+02
 0.330033109580592D+03 0.283194676312160D+03 -.355334827987804D+02 -.138364551038461D+03
 0.000000000000000D+00 -.000000000000000D+00 -.000000000000000D+00 0.000000000000000D+00
 0.479761316639926D+03 0.000000000000000D+00 0.000000000000000D+00 0.479761316639926D+03
 0.467158484249326D+03 0.000000000000000D+00 0.000000000000000D+00 -.467158484249326D+03
 0.315596196783570D+03 -.288803996359860D+03 0.499069438320805D+02 0.733979340592734D+02
 0.498211662649001D+02 0.417447317307953D+02 0.232145536545539D+02 -.141637028823182D+02
 0.827038481887885D+02 0.221316217557658D+02 0.940799140676018D+01 0.791303198615057D+02
 0.366783130283407D+03 0.327215316792684D+03 -.280834981229674D-01 -.138364551038461D+03
 0.132015459368587D+03 -.102287673919386D+03 -.825014053952716D+02 0.126028323905996D+02
0.147862704923D-04 0.000000000000D+00 0.000000000000D+00 0.923222705595D-06 0.000000000000D+00  7 1 -1 23 -11 11 23 21 0 0.19245278D+00 0.19886530D-01 0.12094890D+06 0.12094890D+06 0.12094890D+06 0.11150060D+01  1  2  2  1  7  1        1 0.350189117594D-03 0.100000000000D+01
-.800405976737D-06 0.000000000000D+00 -.567831720049D-07 0.923222705595D-06 0.000000000000D+00  7 1 -1 23 -11 11 23 21 2 0.19245278D+00 0.19886530D-01 0.12094890D+06 0.12094890D+06 0.12094890D+06 0.11150060D+01  1  2  3  1  7  1        1 -.235672393292D-04 0.100000000000D+01
0.923837361961D-06 0.000000000000D+00 0.000000000000D+00 0.923222705595D-06 0.000000000000D+00  7 1 -1 23 -11 11 23 21 2 0.19245278D+00 0.19886530D-01 0.12094890D+06 0.12094890D+06 0.12094890D+06 0.11150060D+01  1  2 15  1  7  1        1 0.272015662593D-04 0.100000000000D+01
0.774193905488D-05 0.000000000000D+00 0.000000000000D+00 0.923222705595D-06 0.000000000000D+00  7 1 -1 23 -11 11 23 21 2 0.24253359D+00 0.19886530D-01 0.18056235D+06 0.18056235D+06 0.18056235D+06 0.11012520D+01  1  2 12  1  7  1        1 0.132580793071D-03 0.100000000000D+01
-.793500255374D-05 0.000000000000D+00 0.000000000000D+00 0.923222705595D-06 0.000000000000D+00  7 1 -1 23 -11 11 23 21 2 0.19245278D+00 0.19886530D-01 0.12094890D+06 0.12094890D+06 0.12094890D+06 0.11150060D+01  1  2  4  1  7  1        1 -.233639065296D-03 0.100000000000D+01
-.196267313305D-04 0.000000000000D+00 -.727124775547D-05 0.923222705595D-06 0.000000000000D+00  7 1 -1 23 -11 11 23 21 2 0.25158878D+00 0.19886530D-01 0.12094890D+06 0.12094890D+06 0.12094890D+06 0.11150060D+01  1  2  5  1  7  1        1 -.319154314991D-03 0.100000000000D+01
0.210676509564D-04 0.000000000000D+00 0.701781631008D-05 0.923222705595D-06 0.000000000000D+00  7 1 -1 23 -11 11 23 21 2 0.19245278D+00 0.19886530D-01 0.12094890D+06 0.12094890D+06 0.12094890D+06 0.11150060D+01  1  2  6  1  7  1        1 0.620318171807D-03 0.100000000000D+01
0.247311668276D-06 0.000000000000D+00 0.000000000000D+00 0.923222705595D-06 0.000000000000D+00  7 21 -1 23 -11 11 23 -1 2 0.24253359D+00 0.19886530D-01 0.18056235D+06 0.18056235D+06 0.18056235D+06 0.11012520D+01  1  2 12  3  7  1        1 0.312845716131D-05 0.100000000000D+01
-.562534654503D-06 0.000000000000D+00 -.258928693631D-06 0.923222705595D-06 0.000000000000D+00  7 21 -1 23 -11 11 23 -1 2 0.25158878D+00 0.19886530D-01 0.12094890D+06 0.12094890D+06 0.12094890D+06 0.11150060D+01  1  2  5  3  7  1        1 -.653231366993D-05 0.100000000000D+01
  </mgrwgt>
  </event>
  <event>
  9     66 -.25924217E-05 0.24569639E+03 0.75467711E-02 0.10239607E+00
        1 -1    0    0  501    0 0.00000000E+00 0.00000000E+00 0.93214906E+03 0.93214912E+03 0.32000000E+00 0.0000E+00 0.9000E+01
       -1 -1    0    0    0  502 0.00000000E+00 0.00000000E+00 -.10174594E+03 0.10174644E+03 0.32000000E+00 0.0000E+00 0.9000E+01
       25  2    1    2    0    0 -.72466821E+01 0.12820675E+03 0.25733377E+03 0.41539206E+03 0.29973390E+03 0.0000E+00 0.0000E+00
       23  2    3    3    0    0 0.45239510E+01 0.19315571E+03 0.16786516E+03 0.27159777E+03 0.90868251E+02 0.0000E+00 0.0000E+00
       23  1    1    2    0    0 0.28767686E+02 -.15953732E+03 0.52649204E+03 0.55838056E+03 0.91188000E+02 0.0000E+00 0.9000E+01
      -11  1    4    4    0    0 -.89604353E+01 0.12551555E+03 0.15790376E+03 0.20191097E+03 0.51099893E-03 0.0000E+00 0.9000E+01
       11  1    4    4    0    0 0.13484386E+02 0.67640163E+02 0.99614052E+01 0.69686799E+02 0.51099893E-03 0.0000E+00 0.9000E+01
       23  1    3    3    0    0 -.11770633E+02 -.64948965E+02 0.89468610E+02 0.14379430E+03 0.91188000E+02 0.0000E+00 0.9000E+01
       21  1    1    2  501  502 -.21521004E+02 0.31330573E+02 0.46577316E+02 0.60122934E+02 0.75000000E+00 0.0000E+00 0.9000E+01
#aMCatNLO 2  0  0  2  1 0.38009978D+02 0.00000000D+00  -5  7  0 0.00000000D+00 0.00000000D+00 0.00000000D+00 0.00000000D+00 0.00000000D+00
  <mgrwgt>
 -.6769670155D-04    2    2    0
 0.288273075140486D+03 0.000000000000000D+00 0.000000000000000D+00 0.288273075140486D+03
 0.288273075140486D+03 0.000000000000000D+00 0.000000000000000D+00 -.288273075140486D+03
 0.217571745599994D+03 0.204826203420238D+02 -.147475805195617D+03 0.129821270542457D+03
 0.133504738331181D+03 -.137999244200824D+02 0.132560941472679D+03 -.778935419365049D+01
 0.107328958849864D+03 0.954576254609558D+01 0.733740656260599D+02 -.777472206494355D+02
 0.118140707499933D+03 -.162284584680369D+02 -.584592019031223D+02 -.442846956993705D+02
 0.000000000000000D+00 -.000000000000000D+00 0.000000000000000D+00 -.000000000000000D+00
 0.306433663229656D+03 0.000000000000000D+00 0.000000000000000D+00 0.306433663229656D+03
 0.309497316228644D+03 0.000000000000000D+00 0.000000000000000D+00 -.309497316228644D+03
 0.226822726339004D+03 0.287676863943865D+02 -.159537317810333D+03 0.129821270542457D+03
 0.126075834251679D+03 -.896043534998811D+01 0.125515547012477D+03 -.778935419365049D+01
 0.103930989948875D+03 0.134843863151522D+02 0.676401632075572D+02 -.777472206494355D+02
 0.120968183807688D+03 -.117706330825249D+02 -.649489651448070D+02 -.442846956993705D+02
 0.381332451110536D+02 -.215210042770256D+02 0.313305727351054D+02 -.306365299898856D+01
-.384932667186D-05 0.000000000000D+00 0.000000000000D+00 0.355179955474D-06 0.000000000000D+00  7 1 -1 23 -11 11 23 21 2 0.13490702D+00 0.16081547D-01 0.70592268D+05 0.70592268D+05 0.70592268D+05 0.11343487D+01  1  2 13  2  7  2       -1 -.312854591023D-03 0.100000000000D+01
0.319669727346D-05 0.000000000000D+00 0.000000000000D+00 0.355179955474D-06 0.169517952955D-08  7 1 -1 23 -11 11 23 21 2 0.14340587D+00 0.15653077D-01 0.70592268D+05 0.70592268D+05 0.70592268D+05 0.11343487D+01  1  2  1  2  7  2       -1 0.245157889476D-03 0.100000000000D+01
  </mgrwgt>
  </event>
  <event>
  8     66 0.25924217E-05 0.49858305E+03 0.75467711E-02 0.87448858E-01
        1 -1    0    0  501    0 0.00000000E+00 0.00000000E+00 0.44532716E+03 0.44532727E+03 0.32000000E+00 0.0000E+00 0.9000E+01
       -1 -1    0    0    0  501 0.00000000E+00 0.00000000E+00 -.62718915E+03 0.62718924E+03 0.32000000E+00 0.0000E+00 0.9000E+01
       25  2    1    2    0    0 -.46449580E+03 0.55710893E+02 0.16435867E+02 0.55628270E+03 0.30053327E+03 0.0000E+00 0.0000E+00
       23  2    3    3    0    0 -.10391972E+03 -.72584084E+02 0.39228861E+02 0.16218945E+03 0.93267131E+02 0.0000E+00 0.0000E+00
       23  1    1    2    0    0 0.46449580E+03 -.55710893E+02 -.19829786E+03 0.51623381E+03 0.91188000E+02 0.0000E+00 0.9000E+01
      -11  1    4    4    0    0 -.92432042E+02 -.60737381E+02 0.67415034E+02 0.12952798E+03 0.51099893E-03 0.0000E+00 0.9000E+01
       11  1    4    4    0    0 -.11487674E+02 -.11846703E+02 -.28186173E+02 0.32661466E+02 0.51099893E-03 0.0000E+00 0.9000E+01
       23  1    3    3    0    0 -.36057608E+03 0.12829498E+03 -.22792995E+02 0.39409324E+03 0.91188000E+02 0.0000E+00 0.9000E+01
#aMCatNLO 1  0  0  2  1 0.74448603D+03 0.00000000D+00  -5  7  0 0.00000000D+00 0.00000000D+00 0.00000000D+00 0.00000000D+00 0.00000000D+00
  <mgrwgt>
 0.4873355345D-03    3    2    0
 0.528492636617376D+03 0.000000000000000D+00 0.000000000000000D+00 0.528492636617376D+03
 0.528492636617376D+03 0.000000000000000D+00 0.000000000000000D+00 -.528492636617376D+03
 0.489700707302506D+03 0.464495800241719D+03 -.557108928885982D+02 -.112389854346085D+03
 0.143030501616681D+03 -.924320421536799D+02 -.607373806520627D+02 0.906918550231843D+02
 0.282917544125214D+02 -.114876735134880D+02 -.118467030027728D+02 -.229806952233831D+02
 0.395962309903044D+03 -.360576084574551D+03 0.128294976543434D+03 0.446786945462840D+02
 0.000000000000000D+00 0.000000000000000D+00 -.000000000000000D+00 0.000000000000000D+00
 0.168719303970069D+04 0.000000000000000D+00 0.000000000000000D+00 0.168719303970069D+04
 0.779565653089800D+03 0.000000000000000D+00 0.000000000000000D+00 -.779565653089800D+03
 0.322302568916701D+03 0.266659783426152D+03 0.108741781894027D+03 -.112389854346085D+03
 0.197667089044423D+03 -.175439409548658D+03 0.826311690392157D+01 0.906918550231843D+02
 0.354934956034259D+02 -.270282755828490D+02 0.107153918171965D+01 -.229806952233831D+02
 0.737393107975786D+03 -.636706154582989D+03 0.357830171053213D+03 0.446786945462840D+02
 0.117390243125015D+04 0.572514056288344D+03 -.475906609032881D+03 0.907627386610886D+03
0.702438026393D-04 0.000000000000D+00 0.000000000000D+00 0.249380330441D-06 0.000000000000D+00  7 1 -1 23 -11 11 23 21 0 0.68511885D-01 0.96490654D-01 0.24858506D+06 0.24858506D+06 0.24858506D+06 0.10906446D+01  1  2  2  2  7  2       -1 0.484056017227D-03 0.100000000000D+01
-.388632930398D-05 0.000000000000D+00 -.269754697753D-06 0.249380330441D-06 0.000000000000D+00  7 1 -1 23 -11 11 23 21 2 0.68511885D-01 0.96490654D-01 0.24858506D+06 0.24858506D+06 0.24858506D+06 0.10906446D+01  1  2  3  2  7  2       -1 -.318561809822D-04 0.100000000000D+01
0.428641756677D-05 0.000000000000D+00 0.000000000000D+00 0.249380330441D-06 0.000000000000D+00  7 1 -1 23 -11 11 23 21 2 0.68511885D-01 0.96490654D-01 0.24858506D+06 0.24858506D+06 0.24858506D+06 0.10906446D+01  1  2 15  2  7  2       -1 0.351356982623D-04 0.100000000000D+01
  </mgrwgt>
  </event>
  <event>
  8     66 0.25924217E-05 0.37256028E+03 0.75467711E-02 0.95617771E-01
        1 -1    0    0  501    0 0.00000000E+00 0.00000000E+00 0.10375021E+04 0.10375021E+04 0.32000000E+00 0.0000E+00 0.9000E+01
       -1 -1    0    0    0  501 0.00000000E+00 0.00000000E+00 -.13648368E+03 0.13648406E+03 0.32000000E+00 0.0000E+00 0.9000E+01
       25  2    1    2    0    0 -.26032805E+03 -.16550169E+03 0.51040673E+03 0.66796816E+03 0.30084038E+03 0.0000E+00 0.0000E+00
       23  2    3    3    0    0 0.43860406E+02 -.16633095E+02 0.79259471E+02 0.11218432E+03 0.64053588E+02 0.0000E+00 0.0000E+00
       23  1    1    2    0    0 0.26032805E+03 0.16550169E+03 0.39061164E+03 0.50601799E+03 0.91188000E+02 0.0000E+00 0.9000E+01
      -13  1    4    4    0    0 0.31309281E+02 -.37200873E+02 0.29432293E+02 0.56837022E+02 0.10565837E+00 0.0000E+00 0.9000E+01
       13  1    4    4    0    0 0.12551125E+02 0.20567778E+02 0.49827178E+02 0.55347295E+02 0.10565837E+00 0.0000E+00 0.9000E+01
       23  1    3    3    0    0 -.30418846E+03 -.14886859E+03 0.43114726E+03 0.55578385E+03 0.91188000E+02 0.0000E+00 0.9000E+01
#aMCatNLO 1  0  0  2  1 0.15592859D+03 0.00000000D+00  -5  7  0 0.00000000D+00 0.00000000D+00 0.00000000D+00 0.00000000D+00 0.00000000D+00
  <mgrwgt>
 0.9762617087D-03    3    2    0
 0.376300874591305D+03 0.000000000000000D+00 0.000000000000000D+00 0.376300874591305D+03
 0.376300874591305D+03 0.000000000000000D+00 0.000000000000000D+00 -.376300874591305D+03
 0.321697171750585D+03 0.260328053435843D+03 0.165501685588859D+03 0.350936317255024D+01
 0.534238649955646D+02 0.313093319590164D+02 -.372010290423171D+02 -.221341031337867D+02
 0.266830369748513D+02 0.125510742172749D+02 0.205679347096623D+02 0.114636407817416D+02
 0.350797675461609D+03 -.304188459612134D+03 -.148868591256204D+03 0.716109917949487D+01
 0.000000000000000D+00 -.000000000000000D+00 -.000000000000000D+00 0.000000000000000D+00
 0.906057878914036D+03 0.000000000000000D+00 0.000000000000000D+00 0.906057878914036D+03
 0.395942313567499D+03 0.000000000000000D+00 0.000000000000000D+00 -.395942313567499D+03
 0.379214171539358D+03 0.284928619505706D+03 0.233005370558229D+03 0.350936317255024D+01
 0.495379449653245D+02 0.349230825893407D+02 -.272849367290545D+02 -.221341031337867D+02
 0.321439088815135D+02 0.146157806627933D+02 0.262334666757437D+02 0.114636407817416D+02
 0.307689116015096D+03 -.281076909235708D+03 -.854507491084464D+02 0.716109917949487D+01
 0.533415051080242D+03 -.533905735221321D+02 -.146503151396472D+03 0.510115565346538D+03
0.314111811242D-04 0.000000000000D+00 0.000000000000D+00 0.321218839248D-09 0.000000000000D+00  7 1 -1 23 -13 13 23 21 0 0.15961573D+00 0.20997522D-01 0.13880116D+06 0.13880116D+06 0.13880116D+06 0.11102210D+01  1  2  2  2  7  2       -1 0.965839407485D-03 0.100000000000D+01
-.174485386024D-05 0.000000000000D+00 -.120627206271D-06 0.321218839248D-09 0.000000000000D+00  7 1 -1 23 -13 13 23 21 2 0.15961573D+00 0.20997522D-01 0.13880116D+06 0.13880116D+06 0.13880116D+06 0.11102210D+01  1  2  3  2  7  2       -1 -.661300119825D-04 0.100000000000D+01
0.201984840338D-05 0.000000000000D+00 0.000000000000D+00 0.321218839248D-09 0.000000000000D+00  7 1 -1 23 -13 13 23 21 2 0.15961573D+00 0.20997522D-01 0.13880116D+06 0.13880116D+06 0.13880116D+06 0.11102210D+01  1  2 15  2  7  2       -1 0.765523131549D-04 0.100000000000D+01
  </mgrwgt>
  </event>
  <event>
  8     66 0.25924217E-05 0.13551040E+03 0.75467711E-02 0.10149086E+00
        1 -1    0    0  501    0 0.00000000E+00 0.00000000E+00 0.80627724E+02 0.80628359E+02 0.32000000E+00 0.0000E+00 0.9000E+01
       -1 -1    0    0    0  501 0.00000000E+00 0.00000000E+00 -.91626548E+03 0.91626554E+03 0.32000000E+00 0.0000E+00 0.9000E+01
       25  2    1    2    0    0 -.34244828E+02 -.11525606E+03 -.31817005E+03 0.45787186E+03 0.30652536E+03 0.0000E+00 0.0000E+00
       23  2    3    3    0    0 0.45169739E+02 0.52438964E+02 -.15507418E+03 0.19453974E+03 0.94908155E+02 0.0000E+00 0.0000E+00
       23  1    1    2    0    0 0.34244828E+02 0.11525606E+03 -.51746771E+03 0.53902203E+03 0.91188000E+02 0.0000E+00 0.9000E+01
      -13  1    4    4    0    0 0.73960195E+02 0.26339480E+02 -.10003896E+03 0.12716793E+03 0.10565837E+00 0.0000E+00 0.9000E+01
       13  1    4    4    0    0 -.28790455E+02 0.26099484E+02 -.55035221E+02 0.67371804E+02 0.10565837E+00 0.0000E+00 0.9000E+01
       23  1    3    3    0    0 -.79414567E+02 -.16769503E+03 -.16309587E+03 0.26333213E+03 0.91188000E+02 0.0000E+00 0.9000E+01
#aMCatNLO 1  0  0  2  1 0.85981619D+02 0.00000000D+00  -5  7  0 0.00000000D+00 0.00000000D+00 0.00000000D+00 0.00000000D+00 0.00000000D+00
  <mgrwgt>
 0.3874597882D-03    9    2    0
 0.271802768113610D+03 0.000000000000000D+00 0.000000000000000D+00 0.271802768113610D+03
 0.271802768113610D+03 0.000000000000000D+00 0.000000000000000D+00 -.271802768113610D+03
 0.193030279234549D+03 0.342448746417040D+02 0.115256221740476D+03 -.120369137523920D+03
 0.794262806474300D+02 0.739602316234262D+02 0.263393395272745D+02 0.120273600162474D+02
 0.389491755734353D+02 -.287906130067273D+02 0.260993967475738D+02 0.263825130719034D+01
 0.232199800771806D+03 -.794144932584028D+02 -.167694958015324D+03 0.105703526200482D+03
 0.000000000000000D+00 0.000000000000000D+00 -.000000000000000D+00 -.000000000000000D+00
 0.314869479786658D+03 0.000000000000000D+00 0.000000000000000D+00 0.314869479786658D+03
 0.321750381215944D+03 0.000000000000000D+00 0.000000000000000D+00 -.321750381215944D+03
 0.194672121675008D+03 0.471242906663648D+01 0.122764194118191D+03 -.120369137523920D+03
 0.701025671697691D+02 0.625701743276651D+02 0.292350101665309D+02 0.120273600162474D+02
 0.448638956605989D+02 -.351749040477203D+02 0.277224618156267D+02 0.263825130719034D+01
 0.240724766185400D+03 -.115438564819502D+03 -.158536633029130D+03 0.105703526200482D+03
 0.862565103118266D+02 0.833308654729212D+02 -.211850330712181D+02 -.688090142928600D+01
0.842938908319D-05 0.000000000000D+00 0.000000000000D+00 0.304719143699D-09 0.000000000000D+00  7 1 -1 23 -13 13 23 21 0 0.12404318D-01 0.14096397D+00 0.56410746D+05 0.56410746D+05 0.56410746D+05 0.11427153D+01  1  2  2  2  7  2       -1 0.229236503891D-03 0.100000000000D+01
-.457942471240D-06 0.000000000000D+00 -.323710735886D-07 0.304719143699D-09 0.000000000000D+00  7 1 -1 23 -13 13 23 21 2 0.12404318D-01 0.14096397D+00 0.56410746D+05 0.56410746D+05 0.56410746D+05 0.11427153D+01  1  2  3  2  7  2       -1 -.162620284955D-04 0.100000000000D+01
0.529615744696D-06 0.000000000000D+00 0.000000000000D+00 0.304719143699D-09 0.000000000000D+00  7 1 -1 23 -13 13 23 21 2 0.12404318D-01 0.14096397D+00 0.56410746D+05 0.56410746D+05 0.56410746D+05 0.11427153D+01  1  2 15  2  7  2       -1 0.188072233365D-04 0.100000000000D+01
0.450527489105D-05 0.000000000000D+00 0.000000000000D+00 0.304719143699D-09 0.000000000000D+00  7 1 -1 23 -13 13 23 21 2 0.12404318D-01 0.17621414D+00 0.80970143D+05 0.80970143D+05 0.80970143D+05 0.11293236D+01  1  2 12  2  7  2       -1 0.803937021657D-04 0.100000000000D+01
-.445809558523D-05 0.000000000000D+00 0.000000000000D+00 0.304719143699D-09 0.000000000000D+00  7 1 -1 23 -13 13 23 21 2 0.12404318D-01 0.14096397D+00 0.56410746D+05 0.56410746D+05 0.56410746D+05 0.11427153D+01  1  2  4  2  7  2       -1 -.158311757471D-03 0.100000000000D+01
-.111548295071D-04 0.000000000000D+00 -.417080760292D-05 0.304719143699D-09 0.000000000000D+00  7 1 -1 23 -13 13 23 21 2 0.12404318D-01 0.18499399D+00 0.56410746D+05 0.56410746D+05 0.56410746D+05 0.11427153D+01  1  2  5  2  7  2       -1 -.175163994135D-03 0.100000000000D+01
0.119922488539D-04 0.000000000000D+00 0.402133145333D-05 0.304719143699D-09 0.000000000000D+00  7 1 -1 23 -13 13 23 21 2 0.12404318D-01 0.14096397D+00 0.56410746D+05 0.56410746D+05 0.56410746D+05 0.11427153D+01  1  2  6  2  7  2       -1 0.425857623687D-03 0.100000000000D+01
0.140127619346D-06 0.000000000000D+00 0.000000000000D+00 0.304719143699D-09 0.000000000000D+00  7 1 21 23 -13 13 23 1 2 0.12404318D-01 0.17621414D+00 0.80970143D+05 0.80970143D+05 0.80970143D+05 0.11293236D+01  1  2 12  4  7  2       -1 0.162257691492D-04 0.100000000000D+01
-.321361056987D-06 0.000000000000D+00 -.150086643824D-06 0.304719143699D-09 0.000000000000D+00  7 1 21 23 -13 13 23 1 2 0.12404318D-01 0.18499399D+00 0.56410746D+05 0.56410746D+05 0.56410746D+05 0.11427153D+01  1  2  5  4  7  2       -1 -.333232539431D-04 0.100000000000D+01
  </mgrwgt>
  </event>
  <event>
  8     66 0.25924217E-05 0.19220213E+03 0.75467711E-02 0.95288115E-01
        1 -1    0    0  501    0 0.00000000E+00 0.00000000E+00 0.59231621E+03 0.59231629E+03 0.32000000E+00 0.0000E+00 0.9000E+01
       -1 -1    0    0    0  501 0.00000000E+00 0.00000000E+00 -.19780564E+03 0.19780590E+03 0.32000000E+00 0.0000E+00 0.9000E+01
       25  2    1    2    0    0 0.79218761E+02 -.32910603E+02 -.59587428E+02 0.31908189E+03 0.30150269E+03 0.0000E+00 0.0000E+00
       23  2    3    3    0    0 0.14235659E+03 0.27914539E+00 -.87058837E+02 0.20009503E+03 0.11042329E+03 0.0000E+00 0.0000E+00
       23  1    1    2    0    0 -.79218761E+02 0.32910603E+02 0.45409799E+03 0.47104030E+03 0.91188000E+02 0.0000E+00 0.9000E+01
      -11  1    4    4    0    0 0.68250268E+02 -.86410576E+01 -.10291208E+03 0.12378879E+03 0.51099893E-03 0.0000E+00 0.9000E+01
       11  1    4    4    0    0 0.74106322E+02 0.89202030E+01 0.15853246E+02 0.76306240E+02 0.51099893E-03 0.0000E+00 0.9000E+01
       23  1    3    3    0    0 -.63137829E+02 -.33189748E+02 0.27471409E+02 0.11898687E+03 0.91188000E+02 0.0000E+00 0.9000E+01
#aMCatNLO 1  0  0  2  1 0.40050576D+03 0.00000000D+00  -5  7  0 0.00000000D+00 0.00000000D+00 0.00000000D+00 0.00000000D+00 0.00000000D+00
  <mgrwgt>
 0.3334281796D-03    5    2    0
 0.342291720257298D+03 0.000000000000000D+00 0.000000000000000D+00 0.342291720257298D+03
 0.342291720257298D+03 0.000000000000000D+00 0.000000000000000D+00 -.342291720257298D+03
 0.281971372453871D+03 -.792187606483610D+02 0.329106025602773D+02 0.252653683408686D+03
 0.202178672460692D+03 0.682502689601405D+02 -.864105746159115D+01 -.190114303803742D+03
 0.789341042217149D+02 0.741063213429748D+02 0.892020297599016D+01 -.256763690027123D+02
 0.121499291378318D+03 -.631378296547542D+02 -.331897480746763D+02 -.368630106022319D+02
 0.000000000000000D+00 -.000000000000000D+00 0.000000000000000D+00 -.000000000000000D+00
 0.422434438770134D+03 0.000000000000000D+00 0.000000000000000D+00 0.422434438770134D+03
 0.194678333231689D+04 0.000000000000000D+00 0.000000000000000D+00 -.194678333231689D+04
 0.276535039455573D+03 0.581493991370748D+02 -.306780107359581D+02 0.252653683408686D+03
 0.272595136923429D+03 0.185023869260351D+03 -.626963154216420D+02 -.190114303803742D+03
 0.128601764386499D+03 0.125151071684721D+03 -.147087434651221D+02 -.256763690027123D+02
 0.115400676773461D+03 -.487079460500306D+01 -.601619370119387D+02 -.368630106022319D+02
 0.157608515354806D+04 -.363453545477144D+03 0.168245006634661D+03 -.152434889354675D+04
0.868797654150D-05 0.000000000000D+00 0.000000000000D+00 0.616657989107D-09 0.000000000000D+00  7 1 -1 23 -11 11 23 21 0 0.91125597D-01 0.30431663D-01 0.36941661D+05 0.36941661D+05 0.36941661D+05 0.11590407D+01  1  2  2  2  7  2       -1 0.357791559424D-03 0.100000000000D+01
-.287207343695D-06 0.000000000000D+00 -.333641175161D-07 0.616657989107D-09 0.000000000000D+00  7 1 -1 23 -11 11 23 21 2 0.91125597D-01 0.30431663D-01 0.36941661D+05 0.36941661D+05 0.36941661D+05 0.11590407D+01  1  2  3  2  7  2       -1 -.158892846426D-04 0.100000000000D+01
0.518647752047D-06 0.000000000000D+00 0.000000000000D+00 0.616657989107D-09 0.000000000000D+00  7 1 -1 23 -11 11 23 21 2 0.91125597D-01 0.30431663D-01 0.36941661D+05 0.36941661D+05 0.36941661D+05 0.11590407D+01  1  2 15  2  7  2       -1 0.286933532251D-04 0.100000000000D+01
-.126759970624D-04 0.000000000000D+00 -.425498314402D-05 0.616657989107D-09 0.000000000000D+00  7 1 -1 23 -11 11 23 21 2 0.91125597D-01 0.19060079D+00 0.36941661D+05 0.36941661D+05 0.36941661D+05 0.11590407D+01  1  2  5  2  7  2       -1 -.138819052415D-04 0.100000000000D+01
-.315791110732D-05 0.000000000000D+00 -.956666174415D-06 0.616657989107D-09 0.000000000000D+00  7 1 21 23 -11 11 23 1 2 0.91125597D-01 0.19060079D+00 0.36941661D+05 0.36941661D+05 0.36941661D+05 0.11590407D+01  1  2  5  4  7  2       -1 -.232855431662D-04 0.100000000000D+01
  </mgrwgt>
  </event>
  <event>
  8     66 0.25924217E-05 0.20497590E+03 0.75467711E-02 0.96657807E-01
        3 -1    0    0  501    0 0.00000000E+00 0.00000000E+00 0.46344832E+03 0.46344859E+03 0.50000000E+00 0.0000E+00 0.9000E+01
       -3 -1    0    0    0  501 0.00000000E+00 0.00000000E+00 -.32552718E+03 0.32552756E+03 0.50000000E+00 0.0000E+00 0.9000E+01
       25  2    1    2    0    0 0.25554114E+03 0.11439283E+03 -.85909768E+02 0.41910790E+03 0.29980652E+03 0.0000E+00 0.0000E+00
       23  2    3    3    0    0 0.18792820E+03 0.70062299E+02 0.61295673E+02 0.22800217E+03 0.89454441E+02 0.0000E+00 0.0000E+00
       23  1    1    2    0    0 -.25554114E+03 -.11439283E+03 0.22383091E+03 0.36986825E+03 0.91188000E+02 0.0000E+00 0.9000E+01
      -11  1    4    4    0    0 0.16588215E+03 0.39427947E+02 0.77048711E+02 0.18710413E+03 0.51099893E-03 0.0000E+00 0.9000E+01
       11  1    4    4    0    0 0.22046049E+02 0.30634353E+02 -.15753038E+02 0.40898045E+02 0.51099893E-03 0.0000E+00 0.9000E+01
       23  1    3    3    0    0 0.67612937E+02 0.44330534E+02 -.14720544E+03 0.19110573E+03 0.91188000E+02 0.0000E+00 0.9000E+01
#aMCatNLO 1  0  0  1  2 0.18473873D+03 0.00000000D+00  -5  7  0 0.00000000D+00 0.00000000D+00 0.00000000D+00 0.00000000D+00 0.00000000D+00
  <mgrwgt>
 0.3502000038D-04    9    2    0
 0.388413801673483D+03 0.000000000000000D+00 0.000000000000000D+00 0.388413801673483D+03
 0.388413801673483D+03 0.000000000000000D+00 0.000000000000000D+00 -.388413801673483D+03
 0.335912642816894D+03 -.255541138988412D+03 -.114392832959626D+03 0.161663410554790D+03
 0.176350646162170D+03 0.165882152604778D+03 0.394279469036139D+02 0.450344185261227D+02
 0.443344941732812D+02 0.220460493943040D+02 0.306343525120861D+02 -.232606002904021D+02
 0.220229820194620D+03 0.676129369893300D+02 0.443305335439262D+02 -.183437228790511D+03
 0.000000000000000D+00 -.000000000000000D+00 -.000000000000000D+00 0.000000000000000D+00
 0.682913798356686D+03 0.000000000000000D+00 0.000000000000000D+00 0.682913798356686D+03
 0.429323804779748D+03 0.000000000000000D+00 0.000000000000000D+00 -.429323804779748D+03
 0.278699372210151D+03 -.189647767204754D+03 -.851865881954268D+02 0.161663410554790D+03
 0.221133111819699D+03 0.208496915092804D+03 0.583162986467887D+02 0.450344185261227D+02
 0.533160736366809D+02 0.325152966792012D+02 0.352746887162121D+02 -.232606002904021D+02
 0.245343473757907D+03 0.117527669212074D+03 0.664544869428095D+02 -.183437228790511D+03
 0.313745571711996D+03 -.168892113779325D+03 -.748588861103835D+02 0.253589993576938D+03
0.132846936041D-04 0.000000000000D+00 0.000000000000D+00 0.402020924928D-06 0.000000000000D+00  7 3 -3 23 -11 11 23 21 0 0.71299792D-01 0.50081154D-01 0.97520990D+05 0.97520990D+05 0.97520990D+05 0.11226178D+01  1  2  2  1  7  1        3 0.425427301232D-04 0.100000000000D+01
-.695330454845D-06 0.000000000000D+00 -.510167213798D-07 0.402020924928D-06 0.000000000000D+00  7 3 -3 23 -11 11 23 21 2 0.71299792D-01 0.50081154D-01 0.97520990D+05 0.97520990D+05 0.97520990D+05 0.11226178D+01  1  2  3  1  7  1        3 -.280626636196D-05 0.100000000000D+01
0.823529288044D-06 0.000000000000D+00 0.000000000000D+00 0.402020924928D-06 0.000000000000D+00  7 3 -3 23 -11 11 23 21 2 0.71299792D-01 0.50081154D-01 0.97520990D+05 0.97520990D+05 0.97520990D+05 0.11226178D+01  1  2 15  1  7  1        3 0.332366074724D-05 0.100000000000D+01
0.628609259221D-05 0.000000000000D+00 0.000000000000D+00 0.402020924928D-06 0.000000000000D+00  7 3 -3 23 -11 11 23 21 2 0.12663353D+00 0.50081154D-01 0.17604587D+06 0.17604587D+06 0.17604587D+06 0.11021061D+01  1  2 12  1  7  1        3 0.622221749127D-05 0.100000000000D+01
-.139401602943D-04 0.000000000000D+00 0.000000000000D+00 0.402020924928D-06 0.000000000000D+00  7 3 -3 23 -11 11 23 21 2 0.71299792D-01 0.50081154D-01 0.97520990D+05 0.97520990D+05 0.97520990D+05 0.11226178D+01  1  2  4  1  7  1        3 -.562607356568D-04 0.100000000000D+01
-.136336778981D-04 0.000000000000D+00 -.441610650225D-05 0.402020924928D-06 0.000000000000D+00  7 3 -3 23 -11 11 23 21 2 0.13276355D+00 0.50081154D-01 0.97520990D+05 0.97520990D+05 0.97520990D+05 0.11226178D+01  1  2  5  1  7  1        3 -.124979749624D-04 0.100000000000D+01
0.142668154839D-04 0.000000000000D+00 0.368148423246D-05 0.402020924928D-06 0.000000000000D+00  7 3 -3 23 -11 11 23 21 2 0.71299792D-01 0.50081154D-01 0.97520990D+05 0.97520990D+05 0.97520990D+05 0.11226178D+01  1  2  6  1  7  1        3 0.575790749648D-04 0.100000000000D+01
0.397266729836D-06 0.000000000000D+00 0.000000000000D+00 0.402020924928D-06 0.000000000000D+00  7 21 -3 23 -11 11 23 -3 2 0.12663353D+00 0.50081154D-01 0.17604587D+06 0.17604587D+06 0.17604587D+06 0.11021061D+01  1  2 12  3  7  1        3 0.507136611177D-05 0.100000000000D+01
-.677455117263D-06 0.000000000000D+00 -.299159195514D-06 0.402020924928D-06 0.000000000000D+00  7 21 -3 23 -11 11 23 -3 2 0.13276355D+00 0.50081154D-01 0.97520990D+05 0.97520990D+05 0.97520990D+05 0.11226178D+01  1  2  5  3  7  1        3 -.815407207205D-05 0.100000000000D+01
  </mgrwgt>
  </event>
  <event>
  8     66 0.25924217E-05 0.19968574E+03 0.75467711E-02 0.97243183E-01
        1 -1    0    0  501    0 0.00000000E+00 0.00000000E+00 0.25270571E+04 0.25270571E+04 0.32000000E+00 0.0000E+00 0.9000E+01
       -1 -1    0    0    0  501 0.00000000E+00 0.00000000E+00 -.11661777E+03 0.11661820E+03 0.32000000E+00 0.0000E+00 0.9000E+01
       25  2    1    2    0    0 -.32974957E+03 -.11253601E+03 0.21514805E+04 0.22000831E+04 0.30016342E+03 0.0000E+00 0.0000E+00
       23  2    3    3    0    0 -.56836309E+01 -.73826955E+02 0.32069781E+03 0.33820294E+03 0.77790897E+02 0.0000E+00 0.0000E+00
       23  1    1    2    0    0 0.32974957E+03 0.11253601E+03 0.25895877E+03 0.44359219E+03 0.91188000E+02 0.0000E+00 0.9000E+01
      -13  1    4    4    0    0 0.38773513E+01 -.59441741E+02 0.96939126E+02 0.11377856E+03 0.10565837E+00 0.0000E+00 0.9000E+01
       13  1    4    4    0    0 -.95609822E+01 -.14385214E+02 0.22375868E+03 0.22442439E+03 0.10565837E+00 0.0000E+00 0.9000E+01
       23  1    3    3    0    0 -.32406594E+03 -.38709051E+02 0.18307827E+04 0.18618802E+04 0.91188000E+02 0.0000E+00 0.9000E+01
#aMCatNLO 1  0  0  1  2 0.22840770D+02 0.00000000D+00  -5  7  0 0.00000000D+00 0.00000000D+00 0.00000000D+00 0.00000000D+00 0.00000000D+00
  <mgrwgt>
 0.2599932628D-02    9    2    0
 0.542863110692393D+03 0.000000000000000D+00 0.000000000000000D+00 0.542863110692393D+03
 0.542863110692393D+03 0.000000000000000D+00 0.000000000000000D+00 -.542863110692393D+03
 0.505200379237435D+03 0.329749567547159D+03 0.112536005948754D+03 -.354278198461621D+03
 0.618274665207105D+02 0.387737614511164D+01 -.594418239262500D+02 -.165611333827005D+02
 0.496888265206129D+02 -.956100680305794D+01 -.143851311015559D+02 0.465900701126161D+02
 0.469009549106028D+03 -.324065936889213D+03 -.387090509209477D+02 0.324249261731705D+03
 0.000000000000000D+00 -.000000000000000D+00 0.000000000000000D+00 0.000000000000000D+00
 0.559261859673118D+03 0.000000000000000D+00 0.000000000000000D+00 0.559261859673118D+03
 0.550995271483068D+03 0.000000000000000D+00 0.000000000000000D+00 -.550995271483068D+03
 0.506348828390625D+03 0.334575289031334D+03 0.103054445478820D+03 -.354278198461621D+03
 0.629926016794386D+02 0.447284582689021D+01 -.606118006466866D+02 -.165611333827005D+02
 0.498782889385134D+02 -.908600947760394D+01 -.153184041632354D+02 0.465900701126161D+02
 0.466746730085150D+03 -.319601795010210D+03 -.474801810640632D+02 0.324249261731705D+03
 0.242906820624584D+02 -.103603303704104D+02 0.203559403951652D+02 0.826658819005003D+01
0.181139312000D-03 0.000000000000D+00 0.000000000000D+00 0.232731515195D-07 0.000000000000D+00  7 1 -1 23 -13 13 23 21 0 0.38877805D+00 0.17941230D-01 0.15049314D+06 0.15049314D+06 0.15049314D+06 0.11074394D+01  1  2  2  1  7  1        1 0.706131636705D-03 0.100000000000D+01
-.868178501255D-05 0.000000000000D+00 -.695622653157D-06 0.232731515195D-07 0.000000000000D+00  7 1 -1 23 -13 13 23 21 2 0.38877805D+00 0.17941230D-01 0.15049314D+06 0.15049314D+06 0.15049314D+06 0.11074394D+01  1  2  3  1  7  1        1 -.415070574614D-04 0.100000000000D+01
0.112594596158D-04 0.000000000000D+00 0.000000000000D+00 0.232731515195D-07 0.000000000000D+00  7 1 -1 23 -13 13 23 21 2 0.38877805D+00 0.17941230D-01 0.15049314D+06 0.15049314D+06 0.15049314D+06 0.11074394D+01  1  2 15  1  7  1        1 0.538307544569D-04 0.100000000000D+01
0.295373798570D-03 0.000000000000D+00 0.000000000000D+00 0.232731515195D-07 0.000000000000D+00  7 1 -1 23 -13 13 23 21 2 0.40336774D+00 0.17941230D-01 0.15957077D+06 0.15957077D+06 0.15957077D+06 0.11054383D+01  1  2 12  1  7  1        1 0.120570395332D-02 0.100000000000D+01
-.275049045305D-03 0.000000000000D+00 0.000000000000D+00 0.232731515195D-07 0.000000000000D+00  7 1 -1 23 -13 13 23 21 2 0.38877805D+00 0.17941230D-01 0.15049314D+06 0.15049314D+06 0.15049314D+06 0.11074394D+01  1  2  4  1  7  1        1 -.131499184922D-02 0.100000000000D+01
-.301052048042D-02 0.000000000000D+00 -.441250939972D-03 0.232731515195D-07 0.000000000000D+00  7 1 -1 23 -13 13 23 21 2 0.40274704D+00 0.17941230D-01 0.15049314D+06 0.15049314D+06 0.15049314D+06 0.11074394D+01  1  2  5  1  7  1        1 -.124510402794D-01 0.100000000000D+01
0.302448684874D-02 0.000000000000D+00 0.440976162526D-03 0.232731515195D-07 0.000000000000D+00  7 1 -1 23 -13 13 23 21 2 0.38877805D+00 0.17941230D-01 0.15049314D+06 0.15049314D+06 0.15049314D+06 0.11074394D+01  1  2  6  1  7  1        1 0.144598776911D-01 0.100000000000D+01
0.515253491517D-05 0.000000000000D+00 0.000000000000D+00 0.232731515195D-07 0.000000000000D+00  7 21 -1 23 -13 13 23 -1 2 0.40336774D+00 0.17941230D-01 0.15957077D+06 0.15957077D+06 0.15957077D+06 0.11054383D+01  1  2 12  3  7  1        1 0.668428623876D-05 0.100000000000D+01
-.187146703882D-04 0.000000000000D+00 -.277190760162D-05 0.232731515195D-07 0.000000000000D+00  7 21 -1 23 -13 13 23 -1 2 0.40274704D+00 0.17941230D-01 0.15049314D+06 0.15049314D+06 0.15049314D+06 0.11074394D+01  1  2  5  3  7  1        1 -.247565082188D-04 0.100000000000D+01
  </mgrwgt>
  </event>
  <event>
  8     66 0.25924217E-05 0.14259542E+03 0.75467711E-02 0.10435476E+00
        1 -1    0    0  501    0 0.00000000E+00 0.00000000E+00 0.13362300E+03 0.13362339E+03 0.32000000E+00 0.0000E+00 0.9000E+01
       -1 -1    0    0    0  501 0.00000000E+00 0.00000000E+00 -.76875191E+03 0.76875198E+03 0.32000000E+00 0.0000E+00 0.9000E+01
       25  2    1    2    0    0 -.15214472E+03 0.46057913E+02 -.63397322E+03 0.71911071E+03 0.29988135E+03 0.0000E+00 0.0000E+00
       23  2    3    3    0    0 -.58604630E+01 -.93093431E+01 -.55890184E+02 0.11333859E+03 0.97984255E+02 0.0000E+00 0.0000E+00
       23  1    1    2    0    0 0.15214472E+03 -.46057913E+02 -.11556907E+01 0.18326466E+03 0.91188000E+02 0.0000E+00 0.9000E+01
      -13  1    4    4    0    0 0.16628090E+01 -.11693460E+02 -.83649359E+02 0.84479160E+02 0.10565837E+00 0.0000E+00 0.9000E+01
       13  1    4    4    0    0 -.75232720E+01 0.23841169E+01 0.27759176E+02 0.28859429E+02 0.10565837E+00 0.0000E+00 0.9000E+01
       23  1    3    3    0    0 -.14628426E+03 0.55367257E+02 -.57808303E+03 0.60577212E+03 0.91188000E+02 0.0000E+00 0.9000E+01
#aMCatNLO 1  0  0  1  2 0.75201538D+02 0.00000000D+00  -5  7  0 0.00000000D+00 0.00000000D+00 0.00000000D+00 0.00000000D+00 0.00000000D+00
  <mgrwgt>
 0.4072245938D-03    9    2    0
 0.320504512724605D+03 0.000000000000000D+00 0.000000000000000D+00 0.320504512724605D+03
 0.320504512724605D+03 0.000000000000000D+00 0.000000000000000D+00 -.320504512724605D+03
 0.256844275630903D+03 0.152144720290660D+03 -.460579135059174D+02 0.179956614970169D+03
 0.360427781619630D+02 0.166282535245409D+01 -.116934752106676D+02 -.340525991221994D+02
 0.681312003273512D+02 -.752327207279555D+01 0.238412571250639D+01 0.676725703660747D+02
 0.279990771328992D+03 -.146284273570318D+03 0.553672630040786D+02 -.213576586214045D+03
 0.000000000000000D+00 -.000000000000000D+00 -.000000000000000D+00 0.000000000000000D+00
 0.392112948544554D+03 0.000000000000000D+00 0.000000000000000D+00 0.392112948544554D+03
 0.343071562121900D+03 0.000000000000000D+00 0.000000000000000D+00 -.343071562121900D+03
 0.273377955665462D+03 0.181125347103431D+03 -.350639510746763D+02 0.179956614970169D+03
 0.359857782618787D+02 0.559972688236231D+01 -.101999896558199D+02 -.340525991221994D+02
 0.678724361453697D+02 -.896519770121751D-01 0.520411095951789D+01 0.676725703660747D+02
 0.268169006505817D+03 -.116323225131512D+03 0.667331538478085D+02 -.213576586214045D+03
 0.897793340879269D+02 -.703121968772693D+02 -.266733240768302D+02 0.490413864226543D+02
0.175286594270D-04 0.000000000000D+00 0.000000000000D+00 0.302768516078D-07 0.000000000000D+00  7 1 -1 23 -13 13 23 21 0 0.20557420D-01 0.11826956D+00 0.36867121D+05 0.36867121D+05 0.36867121D+05 0.11591203D+01  1  2  2  1  7  1        1 0.387310234606D-03 0.100000000000D+01
-.662996633637D-06 0.000000000000D+00 -.673146676018D-07 0.302768516078D-07 0.000000000000D+00  7 1 -1 23 -13 13 23 21 2 0.20557420D-01 0.11826956D+00 0.36867121D+05 0.36867121D+05 0.36867121D+05 0.11591203D+01  1  2  3  1  7  1        1 -.196824255149D-04 0.100000000000D+01
0.112607990834D-05 0.000000000000D+00 0.000000000000D+00 0.302768516078D-07 0.000000000000D+00  7 1 -1 23 -13 13 23 21 2 0.20557420D-01 0.11826956D+00 0.36867121D+05 0.36867121D+05 0.36867121D+05 0.11591203D+01  1  2 15  1  7  1        1 0.334300097394D-04 0.100000000000D+01
0.186668978328D-04 0.000000000000D+00 0.000000000000D+00 0.302768516078D-07 0.000000000000D+00  7 1 -1 23 -13 13 23 21 2 0.25754269D-01 0.11826956D+00 0.52901842D+05 0.52901842D+05 0.52901842D+05 0.11451465D+01  1  2 12  1  7  1        1 0.401586391393D-03 0.100000000000D+01
-.226945332021D-04 0.000000000000D+00 0.000000000000D+00 0.302768516078D-07 0.000000000000D+00  7 1 -1 23 -13 13 23 21 2 0.20557420D-01 0.11826956D+00 0.36867121D+05 0.36867121D+05 0.36867121D+05 0.11591203D+01  1  2  4  1  7  1        1 -.673734128777D-03 0.100000000000D+01
-.305089249054D-04 0.000000000000D+00 -.105545762181D-04 0.302768516078D-07 0.000000000000D+00  7 1 -1 23 -13 13 23 21 2 0.26789596D-01 0.11826956D+00 0.36867121D+05 0.36867121D+05 0.36867121D+05 0.11591203D+01  1  2  5  1  7  1        1 -.644842392157D-03 0.100000000000D+01
0.325165738354D-04 0.000000000000D+00 0.101950712332D-04 0.302768516078D-07 0.000000000000D+00  7 1 -1 23 -13 13 23 21 2 0.20557420D-01 0.11826956D+00 0.36867121D+05 0.36867121D+05 0.36867121D+05 0.11591203D+01  1  2  6  1  7  1        1 0.965321707599D-03 0.100000000000D+01
0.584856187325D-06 0.000000000000D+00 0.000000000000D+00 0.302768516078D-07 0.000000000000D+00  7 21 -1 23 -13 13 23 -1 2 0.25754269D-01 0.11826956D+00 0.52901842D+05 0.52901842D+05 0.52901842D+05 0.11451465D+01  1  2 12  3  7  1        1 0.913320382653D-04 0.100000000000D+01
-.882844873731D-06 0.000000000000D+00 -.372608398545D-06 0.302768516078D-07 0.000000000000D+00  7 21 -1 23 -13 13 23 -1 2 0.26789596D-01 0.11826956D+00 0.36867121D+05 0.36867121D+05 0.36867121D+05 0.11591203D+01  1  2  5  3  7  1        1 -.133496841361D-03 0.100000000000D+01
  </mgrwgt>
  </event>
  <event>
  8     66 0.25924217E-05 0.66047487E+02 0.75467711E-02 0.10409759E+00
        1 -1    0    0  501    0 0.00000000E+00 0.00000000E+00 0.49194515E+03 0.49194526E+03 0.32000000E+00 0.0000E+00 0.9000E+01
       -1 -1    0    0    0  501 0.00000000E+00 0.00000000E+00 -.32802700E+03 0.32802716E+03 0.32000000E+00 0.0000E+00 0.9000E+01
       25  2    1    2    0    0 -.49398252E+02 -.12365154E+03 0.41034696E+03 0.52540103E+03 0.29988619E+03 0.0000E+00 0.0000E+00
       23  2    3    3    0    0 0.65027250E+02 -.56793967E+02 0.31493670E+03 0.33836761E+03 0.88619534E+02 0.0000E+00 0.0000E+00
       23  1    1    2    0    0 0.49398252E+02 0.12365154E+03 -.24642881E+03 0.29457138E+03 0.91188000E+02 0.0000E+00 0.9000E+01
      -11  1    4    4    0    0 0.57586797E+02 0.77342582E+01 0.16627115E+03 0.17613107E+03 0.51099893E-03 0.0000E+00 0.9000E+01
       11  1    4    4    0    0 0.74404531E+01 -.64528225E+02 0.14866555E+03 0.16223655E+03 0.51099893E-03 0.0000E+00 0.9000E+01
       23  1    3    3    0    0 -.11442550E+03 -.66857571E+02 0.95410265E+02 0.18703342E+03 0.91188000E+02 0.0000E+00 0.9000E+01
#aMCatNLO 1  0  0  2  1 0.20283365D+02 0.00000000D+00  -5  7  0 0.00000000D+00 0.00000000D+00 0.00000000D+00 0.00000000D+00 0.00000000D+00
  <mgrwgt>
 0.3749351632D-03    6    2    0
 0.401710591691540D+03 0.000000000000000D+00 0.000000000000000D+00 0.401710591691540D+03
 0.401710591691540D+03 0.000000000000000D+00 0.000000000000000D+00 -.401710591691540D+03
 0.350917509346540D+03 0.493982522947977D+02 0.123651537357745D+03 -.311605450852941D+03
 0.145836031536473D+03 0.575867965311322D+02 0.773425818320496D+01 0.133761318062977D+03
 0.135247255198255D+03 0.744045309609254D+01 -.645282249831787D+02 0.118627854557465D+03
 0.171420387301811D+03 -.114425501922022D+03 -.668575705577710D+02 0.592162782324992D+02
 0.000000000000000D+00 -.000000000000000D+00 0.000000000000000D+00 0.000000000000000D+00
 0.413416128237254D+03 0.000000000000000D+00 0.000000000000000D+00 0.413416128237254D+03
 0.410722494460175D+03 0.000000000000000D+00 0.000000000000000D+00 -.410722494460175D+03
 0.351038288344701D+03 0.576342208044707D+02 0.120386744000219D+03 -.311605450852941D+03
 0.147162078737910D+03 0.610245104406837D+02 0.637152524854194D+01 0.133761318062977D+03
 0.136065310218646D+03 0.106237329441992D+02 -.657900985431661D+02 0.118627854557465D+03
 0.169411504658518D+03 -.110426559626069D+03 -.684427782027038D+02 0.592162782324992D+02
 0.204614407376554D+02 -.188559045632851D+02 0.747460749710942D+01 0.269363377707955D+01
0.939115930121D-05 0.000000000000D+00 0.000000000000D+00 0.266868590232D-06 0.000000000000D+00  7 1 -1 23 -11 11 23 21 0 0.75683890D-01 0.50465712D-01 0.49575758D+05 0.49575758D+05 0.49575758D+05 0.11476210D+01  1  2  2  2  7  2       -1 0.209625718897D-03 0.100000000000D+01
-.300836895878D-06 0.000000000000D+00 -.360645244657D-07 0.266868590232D-06 0.000000000000D+00  7 1 -1 23 -11 11 23 21 2 0.75683890D-01 0.50465712D-01 0.49575758D+05 0.49575758D+05 0.49575758D+05 0.11476210D+01  1  2  3  2  7  2       -1 -.884409619157D-05 0.100000000000D+01
0.552852384496D-06 0.000000000000D+00 0.000000000000D+00 0.266868590232D-06 0.000000000000D+00  7 1 -1 23 -11 11 23 21 2 0.75683890D-01 0.50465712D-01 0.49575758D+05 0.49575758D+05 0.49575758D+05 0.11476210D+01  1  2 15  2  7  2       -1 0.162529255394D-04 0.100000000000D+01
0.148110728307D-04 0.000000000000D+00 0.000000000000D+00 0.266868590232D-06 0.000000000000D+00  7 1 -1 23 -11 11 23 21 2 0.75683890D-01 0.52314536D-01 0.54909298D+05 0.54909298D+05 0.54909298D+05 0.11437347D+01  1  2 12  2  7  2       -1 0.404660997971D-03 0.100000000000D+01
-.100562915219D-04 0.000000000000D+00 0.000000000000D+00 0.266868590232D-06 0.000000000000D+00  7 1 -1 23 -11 11 23 21 2 0.75683890D-01 0.50465712D-01 0.49575758D+05 0.49575758D+05 0.49575758D+05 0.11476210D+01  1  2  4  2  7  2       -1 -.295637971169D-03 0.100000000000D+01
0.192292441534D-06 0.000000000000D+00 0.000000000000D+00 0.266868590232D-06 0.000000000000D+00  7 1 21 23 -11 11 23 1 2 0.75683890D-01 0.52314536D-01 0.54909298D+05 0.54909298D+05 0.54909298D+05 0.11437347D+01  1  2 12  4  7  2       -1 0.488775881717D-04 0.100000000000D+01
  </mgrwgt>
  </event>
  <event>
  8     66 0.25924217E-05 0.44802733E+03 0.75467711E-02 0.92691321E-01
        3 -1    0    0  501    0 0.00000000E+00 0.00000000E+00 0.13390363E+04 0.13390364E+04 0.50000000E+00 0.0000E+00 0.9000E+01
       -3 -1    0    0    0  501 0.00000000E+00 0.00000000E+00 -.16342639E+03 0.16342716E+03 0.50000000E+00 0.0000E+00 0.9000E+01
       25  2    1    2    0    0 0.16993939E+03 -.37505708E+03 0.71874948E+03 0.88070482E+03 0.29915374E+03 0.0000E+00 0.0000E+00
       23  2    3    3    0    0 -.45831019E+02 -.11727391E+03 0.16101155E+03 0.22313667E+03 0.89507545E+02 0.0000E+00 0.0000E+00
       23  1    1    2    0    0 -.16993939E+03 0.37505708E+03 0.45686044E+03 0.62175873E+03 0.91188000E+02 0.0000E+00 0.9000E+01
      -13  1    4    4    0    0 -.24015571E+02 -.54933908E+02 0.14241693E+03 0.15452209E+03 0.10565837E+00 0.0000E+00 0.9000E+01
       13  1    4    4    0    0 -.21815447E+02 -.62340003E+02 0.18594620E+02 0.68614581E+02 0.10565837E+00 0.0000E+00 0.9000E+01
       23  1    3    3    0    0 0.21577041E+03 -.25778317E+03 0.55773793E+03 0.65756816E+03 0.91188000E+02 0.0000E+00 0.9000E+01
#aMCatNLO 1  0  0  2  1 0.25372575D+03 0.00000000D+00  -5  7  0 0.00000000D+00 0.00000000D+00 0.00000000D+00 0.00000000D+00 0.00000000D+00
  <mgrwgt>
 0.1544824846D-04    4    2    0
 0.467797515598316D+03 0.000000000000000D+00 0.000000000000000D+00 0.467797515598316D+03
 0.467797515598316D+03 0.000000000000000D+00 0.000000000000000D+00 -.467797515598316D+03
 0.424414583728824D+03 -.169939389209542D+03 0.375057082055993D+03 -.475949233894016D+02
 0.691934253009189D+02 -.240155743321444D+02 -.549338979169050D+02 0.345434386537611D+02
 0.868227252181868D+02 -.218154444455458D+02 -.623400127968102D+02 -.563559651008624D+02
 0.355164296948701D+03 0.215770407987232D+03 -.257783171342278D+03 0.694074498365028D+02
 0.000000000000000D+00 -.000000000000000D+00 0.000000000000000D+00 0.000000000000000D+00
 0.666787993067499D+03 0.000000000000000D+00 0.000000000000000D+00 0.666787993067499D+03
 0.573078623062531D+03 0.000000000000000D+00 0.000000000000000D+00 -.573078623062531D+03
 0.328718286029276D+03 -.138545819283971D+03 0.279786060146883D+03 -.475949233894016D+02
 0.838036540793734D+02 -.176380482636353D+02 -.742879703348987D+02 0.345434386537611D+02
 0.104164041685139D+03 -.138543572823151D+02 -.864997662541797D+02 -.563559651008624D+02
 0.452702906855315D+03 0.249445522394790D+03 -.359978065714615D+03 0.694074498365028D+02
 0.270477727480926D+03 -.794072975648691D+02 0.240979742156810D+03 0.937093700049674D+02
0.288499221080D-04 0.000000000000D+00 0.000000000000D+00 0.119369170042D-06 0.000000000000D+00  7 3 -3 23 -13 13 23 21 0 0.20600565D+00 0.25142588D-01 0.20072849D+06 0.20072849D+06 0.20072849D+06 0.10977041D+01  1  2  2  2  7  2       -3 0.196470495105D-04 0.100000000000D+01
-.159913978296D-05 0.000000000000D+00 -.110791297254D-06 0.119369170042D-06 0.000000000000D+00  7 3 -3 23 -13 13 23 21 2 0.20600565D+00 0.25142588D-01 0.20072849D+06 0.20072849D+06 0.20072849D+06 0.10977041D+01  1  2  3  2  7  2       -3 -.131222926596D-05 0.100000000000D+01
0.184518675782D-05 0.000000000000D+00 0.000000000000D+00 0.119369170042D-06 0.000000000000D+00  7 3 -3 23 -13 13 23 21 2 0.20600565D+00 0.25142588D-01 0.20072849D+06 0.20072849D+06 0.20072849D+06 0.10977041D+01  1  2 15  2  7  2       -3 0.151413159160D-05 0.100000000000D+01
-.536288896443D-05 0.000000000000D+00 0.000000000000D+00 0.119369170042D-06 0.000000000000D+00  7 3 -3 23 -13 13 23 21 2 0.20600565D+00 0.25142588D-01 0.20072849D+06 0.20072849D+06 0.20072849D+06 0.10977041D+01  1  2  4  2  7  2       -3 -.440070338079D-05 0.100000000000D+01
  </mgrwgt>
  </event>
  <event>
  7     66 0.25924217E-05 0.10706122E+03 0.75467711E-02 0.10836644E+00
        1 -1    0    0  501    0 0.00000000E+00 0.00000000E+00 0.63168038E+03 0.63168046E+03 0.32000000E+00 0.0000E+00 0.9000E+01
       -1 -1    0    0    0  501 0.00000000E+00 0.00000000E+00 -.98710235E+02 0.98710754E+02 0.32000000E+00 0.0000E+00 0.9000E+01
       25  2    1    2    0    0 0.29748324E+00 0.16465076E+02 0.15088433E+03 0.33722966E+03 0.30114212E+03 0.0000E+00 0.0000E+00
       23  1    1    2    0    0 -.29748324E+00 -.16465076E+02 0.38208581E+03 0.39316155E+03 0.91188000E+02 0.0000E+00 0.9000E+01
      -11  1    3    3    0    0 -.64626731E+02 0.58799021E+01 0.13834357E+03 0.15280750E+03 0.51099893E-03 0.0000E+00 0.9000E+01
       11  1    3    3    0    0 0.79702940E+00 0.61370011E+02 0.10680190E+01 0.61384478E+02 0.51099893E-03 0.0000E+00 0.9000E+01
       23  1    3    3    0    0 0.64127185E+02 -.50784837E+02 0.11472735E+02 0.12303768E+03 0.91188000E+02 0.0000E+00 0.9000E+01
#aMCatNLO 1  0  0  1  2 0.65948895D+01 0.00000000D+00  -5  7  0 0.00000000D+00 0.00000000D+00 0.00000000D+00 0.00000000D+00 0.00000000D+00
  <mgrwgt>
 0.5864266928D-03   11    2    0
 0.249706903228560D+03 0.000000000000000D+00 0.000000000000000D+00 0.249706903228560D+03
 0.249706903228560D+03 0.000000000000000D+00 0.000000000000000D+00 -.249706903228560D+03
 0.167238896361628D+03 -.297483244762746D+00 -.164650758628129D+02 0.139220723647042D+03
 0.758414350715661D+02 -.646267301612423D+02 0.587991236742865D+01 0.392522057078570D+02
 0.886348228842697D+02 0.797018723745254D+00 0.613700091790337D+02 -.639469980706301D+02
 0.167698652139657D+03 0.641271946822597D+02 -.507848456836495D+02 -.114525931284269D+03
 0.000000000000000D+00 -.000000000000000D+00 -.000000000000000D+00 0.000000000000000D+00
 0.255100993824045D+03 0.000000000000000D+00 0.000000000000000D+00 0.255100993824045D+03
 0.251752593461364D+03 0.000000000000000D+00 0.000000000000000D+00 -.251752593461364D+03
 0.167039754083961D+03 0.149085319087483D+00 -.143037051560712D+02 0.139220723647042D+03
 0.757514076234255D+02 -.644242146911037D+02 0.686007765502901D+01 0.392522057078570D+02
 0.894383241627691D+02 0.103490968516647D+01 0.625213901696287D+02 -.639469980706301D+02
 0.167227862306794D+03 0.645746287387044D+02 -.486192860337266D+02 -.114525931284269D+03
 0.739623910845931D+01 -.133440905185467D+01 -.645847663485994D+01 0.334840036268060D+01
0.201799285669D-05 0.000000000000D+00 0.000000000000D+00 0.434082593250D-09 0.000000000000D+00  7 1 -1 23 -11 11 23 21 0 0.97181642D-01 0.15186236D-01 0.29144211D+05 0.29144211D+05 0.29144211D+05 0.11685039D+01  1  2  2  1  7  1        1 0.229859074247D-03 0.100000000000D+01
-.923982793535D-07 0.000000000000D+00 -.774962391941D-08 0.434082593250D-09 0.000000000000D+00  7 1 -1 23 -11 11 23 21 2 0.97181642D-01 0.15186236D-01 0.29144211D+05 0.29144211D+05 0.29144211D+05 0.11685039D+01  1  2  3  1  7  1        1 -.143703131582D-04 0.100000000000D+01
0.122829721726D-06 0.000000000000D+00 0.000000000000D+00 0.434082593250D-09 0.000000000000D+00  7 1 -1 23 -11 11 23 21 2 0.97181642D-01 0.15186236D-01 0.29144211D+05 0.29144211D+05 0.29144211D+05 0.11685039D+01  1  2 15  1  7  1        1 0.191031865385D-04 0.100000000000D+01
0.256923439451D-05 0.000000000000D+00 0.000000000000D+00 0.434082593250D-09 0.000000000000D+00  7 1 -1 23 -11 11 23 21 2 0.99673002D-01 0.15186236D-01 0.30288661D+05 0.30288661D+05 0.30288661D+05 0.11669503D+01  1  2 12  1  7  1        1 0.384358433361D-03 0.100000000000D+01
-.416696597896D-05 0.000000000000D+00 0.000000000000D+00 0.434082593250D-09 0.000000000000D+00  7 1 -1 23 -11 11 23 21 2 0.97181642D-01 0.15186236D-01 0.29144211D+05 0.29144211D+05 0.29144211D+05 0.11685039D+01  1  2  4  1  7  1        1 -.648070575081D-03 0.100000000000D+01
-.707449283598D-04 0.000000000000D+00 -.935851304693D-05 0.434082593250D-09 0.000000000000D+00  7 1 -1 23 -11 11 23 21 2 0.99868466D-01 0.15186236D-01 0.29144211D+05 0.29144211D+05 0.29144211D+05 0.11685039D+01  1  2  5  1  7  1        1 -.105809167334D-01 0.100000000000D+01
0.709772373361D-04 0.000000000000D+00 0.935503383366D-05 0.434082593250D-09 0.000000000000D+00  7 1 -1 23 -11 11 23 21 2 0.97181642D-01 0.15186236D-01 0.29144211D+05 0.29144211D+05 0.29144211D+05 0.11685039D+01  1  2  6  1  7  1        1 0.110387891935D-01 0.100000000000D+01
0.168076316196D-05 0.000000000000D+00 0.000000000000D+00 0.434082593250D-09 0.725019369567D-10  7 1 -1 23 -11 11 23 21 2 0.99280930D-01 0.15310647D-01 0.30288661D+05 0.30288661D+05 0.30288661D+05 0.11669503D+01  1  2 11  1  7  1        1 0.249694909340D-03 0.100000000000D+01
0.814659913667D-07 0.000000000000D+00 0.000000000000D+00 0.434082593250D-09 0.000000000000D+00  7 21 -1 23 -11 11 23 -1 2 0.99673002D-01 0.15186236D-01 0.30288661D+05 0.30288661D+05 0.30288661D+05 0.11669503D+01  1  2 12  3  7  1        1 0.293956937935D-04 0.100000000000D+01
-.344880875116D-06 0.000000000000D+00 -.459563046902D-07 0.434082593250D-09 0.000000000000D+00  7 21 -1 23 -11 11 23 -1 2 0.99868466D-01 0.15186236D-01 0.29144211D+05 0.29144211D+05 0.29144211D+05 0.11685039D+01  1  2  5  3  7  1        1 -.124330557925D-03 0.100000000000D+01
0.809880093542D-08 0.000000000000D+00 0.000000000000D+00 0.434082593250D-09 0.282679640321D-12  7 21 -1 23 -11 11 23 -1 2 0.99280930D-01 0.15310647D-01 0.30288661D+05 0.30288661D+05 0.30288661D+05 0.11669503D+01  1  2 11  3  7  1        1 0.291438155659D-05 0.100000000000D+01
  </mgrwgt>
  </event>
  <event>
  8     66 0.25924217E-05 0.48356000E+03 0.75467711E-02 0.87285050E-01
        1 -1    0    0  501    0 0.00000000E+00 0.00000000E+00 0.96306089E+03 0.96306094E+03 0.32000000E+00 0.0000E+00 0.9000E+01
       -1 -1    0    0    0  501 0.00000000E+00 0.00000000E+00 -.29043529E+03 0.29043547E+03 0.32000000E+00 0.0000E+00 0.9000E+01
       25  2    1    2    0    0 -.33749042E+03 0.28790840E+03 0.58349209E+03 0.79192185E+03 0.29981022E+03 0.0000E+00 0.0000E+00
       23  2    3    3    0    0 -.12395131E+03 0.58657770E+01 0.26876680E+03 0.30972453E+03 0.91078864E+02 0.0000E+00 0.0000E+00
       23  1    1    2    0    0 0.33749042E+03 -.28790840E+03 0.89133508E+02 0.46157455E+03 0.91188000E+02 0.0000E+00 0.9000E+01
      -13  1    4    4    0    0 -.13632246E+03 0.38726821E+01 0.26227211E+03 0.29561036E+03 0.10565837E+00 0.0000E+00 0.9000E+01
       13  1    4    4    0    0 0.12371153E+02 0.19930949E+01 0.64946901E+01 0.14114178E+02 0.10565837E+00 0.0000E+00 0.9000E+01
       23  1    3    3    0    0 -.21353912E+03 0.28204263E+03 0.31472529E+03 0.48219732E+03 0.91188000E+02 0.0000E+00 0.9000E+01
#aMCatNLO 1  0  0  1  2 0.81015308D+03 0.00000000D+00  -5  7  0 0.00000000D+00 0.00000000D+00 0.00000000D+00 0.00000000D+00 0.00000000D+00
  <mgrwgt>
 0.3522135801D-03    5    2    0
 0.528873342099416D+03 0.000000000000000D+00 0.000000000000000D+00 0.528873342099416D+03
 0.528873342099416D+03 0.000000000000000D+00 0.000000000000000D+00 -.528873342099416D+03
 0.490314526902215D+03 0.337490423957484D+03 -.287908402252805D+03 -.187888396652314D+03
 0.183537164458090D+03 -.136322661133125D+03 0.387268458860576D+01 0.122829251861990D+03
 0.125959584405121D+02 0.123713532489799D+02 0.199309241020188D+01 -.127881604168076D+01
 0.371299034398015D+03 -.213539116073339D+03 0.282042625253998D+03 0.663379608320043D+02
 0.000000000000000D+00 -.000000000000000D+00 0.000000000000000D+00 0.000000000000000D+00
 0.283565414229254D+04 0.000000000000000D+00 0.000000000000000D+00 0.283565414229254D+04
 0.741813079466015D+03 0.000000000000000D+00 0.000000000000000D+00 -.741813079466015D+03
 0.886798155092687D+03 0.803695274014354D+03 -.311235559443661D+03 -.187888396652314D+03
 0.126756309509548D+03 -.312765567757449D+02 -.138343187679077D+01 0.122829251861990D+03
 0.252534862821045D+02 0.251848251836669D+02 0.135195391937622D+01 -.127881604168076D+01
 0.293549382305417D+03 0.115372777993578D+02 0.270780639414127D+03 0.663379608320043D+02
 0.224510988856880D+04 -.809140820221634D+03 0.404863979869482D+02 0.209384106282652D+04
0.361781675219D-04 0.000000000000D+00 0.000000000000D+00 0.199671030838D-05 0.000000000000D+00  7 1 -1 23 -13 13 23 21 0 0.14816323D+00 0.44682370D-01 0.23383027D+06 0.23383027D+06 0.23383027D+06 0.10926505D+01  1  2  2  1  7  1        1 0.349357797581D-03 0.100000000000D+01
-.199029100571D-05 0.000000000000D+00 -.138933689215D-06 0.199671030838D-05 0.000000000000D+00  7 1 -1 23 -13 13 23 21 2 0.14816323D+00 0.44682370D-01 0.23383027D+06 0.23383027D+06 0.23383027D+06 0.10926505D+01  1  2  3  1  7  1        1 -.229457875809D-04 0.100000000000D+01
0.224141438445D-05 0.000000000000D+00 0.000000000000D+00 0.199671030838D-05 0.000000000000D+00  7 1 -1 23 -13 13 23 21 2 0.14816323D+00 0.44682370D-01 0.23383027D+06 0.23383027D+06 0.23383027D+06 0.10926505D+01  1  2 15  1  7  1        1 0.258409540105D-04 0.100000000000D+01
-.211457406253D-04 0.000000000000D+00 -.147502742800D-04 0.199671030838D-05 0.000000000000D+00  7 1 -1 23 -13 13 23 21 2 0.81241134D+00 0.44682370D-01 0.23383027D+06 0.23383027D+06 0.23383027D+06 0.10926505D+01  1  2  5  1  7  1        1 -.391070190389D-07 0.100000000000D+01
-.508545478038D-05 0.000000000000D+00 -.307165014753D-05 0.199671030838D-05 0.000000000000D+00  7 21 -1 23 -13 13 23 -1 2 0.81241134D+00 0.44682370D-01 0.23383027D+06 0.23383027D+06 0.23383027D+06 0.10926505D+01  1  2  5  3  7  1        1 -.276857874661D-09 0.100000000000D+01
  </mgrwgt>
  </event>
  <event>
  8     66 0.25924217E-05 0.21839650E+03 0.75467711E-02 0.98449453E-01
        1 -1    0    0  501    0 0.00000000E+00 0.00000000E+00 0.73066210E+03 0.73066217E+03 0.32000000E+00 0.0000E+00 0.9000E+01
       -1 -1    0    0    0  501 0.00000000E+00 0.00000000E+00 -.17610323E+03 0.17610352E+03 0.32000000E+00 0.0000E+00 0.9000E+01
       25  2    1    2    0    0 0.17672487E+03 0.19913399E+03 0.46005942E+03 0.60989632E+03 0.29905321E+03 0.0000E+00 0.0000E+00
       23  2    3    3    0    0 0.74072836E+02 0.20693858E+03 0.18142053E+03 0.29916615E+03 0.90975928E+02 0.0000E+00 0.0000E+00
       23  1    1    2    0    0 -.17672487E+03 -.19913399E+03 0.94499446E+02 0.29686937E+03 0.91188000E+02 0.0000E+00 0.9000E+01
      -13  1    4    4    0    0 0.34780118E+02 0.19042051E+03 0.13412352E+03 0.23549683E+03 0.10565837E+00 0.0000E+00 0.9000E+01
       13  1    4    4    0    0 0.39292718E+02 0.16518064E+02 0.47297013E+02 0.63669323E+02 0.10565837E+00 0.0000E+00 0.9000E+01
       23  1    3    3    0    0 0.10265203E+03 -.78045841E+01 0.27863889E+03 0.31073016E+03 0.91188000E+02 0.0000E+00 0.9000E+01
#aMCatNLO 1  0  0  1  2 0.66679845D+02 0.00000000D+00  -5  7  0 0.00000000D+00 0.00000000D+00 0.00000000D+00 0.00000000D+00 0.00000000D+00
  <mgrwgt>
 0.4325778935D-03    9    2    0
 0.358708959268752D+03 0.000000000000000D+00 0.000000000000000D+00 0.358708959268752D+03
 0.358708959268752D+03 0.000000000000000D+00 0.000000000000000D+00 -.358708959268752D+03
 0.302174569503985D+03 -.176724867817380D+03 -.199133991106287D+03 -.110037238205660D+03
 0.193975087455404D+03 0.347801118841765D+02 0.190420745957609D+03 -.125147065328610D+02
 0.439130852167262D+02 0.392927239595260D+02 0.165178290415734D+02 0.105641952294202D+02
 0.177355176361389D+03 0.102652031973677D+03 -.780458389289478D+01 0.111987749509101D+03
 0.000000000000000D+00 0.000000000000000D+00 0.000000000000000D+00 0.000000000000000D+00
 0.576259525141596D+03 0.000000000000000D+00 0.000000000000000D+00 0.576259525141596D+03
 0.365400963167064D+03 0.000000000000000D+00 0.000000000000000D+00 -.365400963167064D+03
 0.320879888869960D+03 -.205574933656766D+03 -.200697295939146D+03 -.110037238205660D+03
 0.190625622292695D+03 0.169714666702975D+02 0.189455745001129D+03 -.125147065328610D+02
 0.403726018674406D+02 0.353899389155955D+02 0.163063479740863D+02 0.105641952294202D+02
 0.168631894966351D+03 0.866313621056984D+02 -.867269943792266D+01 0.111987749509101D+03
 0.221150480312214D+03 0.665821659651741D+02 0.360790240185414D+01 0.210858561974532D+03
0.106504704312D-04 0.000000000000D+00 0.000000000000D+00 0.240796131084D-06 0.000000000000D+00  7 1 -1 23 -13 13 23 21 0 0.11240958D+00 0.27092832D-01 0.10730484D+06 0.10730484D+06 0.10730484D+06 0.11192180D+01  1  2  2  1  7  1        1 0.385287349765D-03 0.100000000000D+01
-.585761917415D-06 0.000000000000D+00 -.409006107889D-07 0.240796131084D-06 0.000000000000D+00  7 1 -1 23 -13 13 23 21 2 0.11240958D+00 0.27092832D-01 0.10730484D+06 0.10730484D+06 0.10730484D+06 0.11192180D+01  1  2  3  1  7  1        1 -.265440060720D-04 0.100000000000D+01
0.672519182550D-06 0.000000000000D+00 0.000000000000D+00 0.240796131084D-06 0.000000000000D+00  7 1 -1 23 -13 13 23 21 2 0.11240958D+00 0.27092832D-01 0.10730484D+06 0.10730484D+06 0.10730484D+06 0.11192180D+01  1  2 15  1  7  1        1 0.304754418722D-04 0.100000000000D+01
0.524220269166D-04 0.000000000000D+00 0.000000000000D+00 0.240796131084D-06 0.000000000000D+00  7 1 -1 23 -13 13 23 21 2 0.18109511D+00 0.27092832D-01 0.13081249D+06 0.13081249D+06 0.13081249D+06 0.11122735D+01  1  2 12  1  7  1        1 0.104302413330D-02 0.100000000000D+01
-.486754838832D-04 0.000000000000D+00 0.000000000000D+00 0.240796131084D-06 0.000000000000D+00  7 1 -1 23 -13 13 23 21 2 0.11240958D+00 0.27092832D-01 0.10730484D+06 0.10730484D+06 0.10730484D+06 0.11192180D+01  1  2  4  1  7  1        1 -.220574656928D-02 0.100000000000D+01
-.546010182641D-04 0.000000000000D+00 -.382514858621D-05 0.240796131084D-06 0.000000000000D+00  7 1 -1 23 -13 13 23 21 2 0.18177520D+00 0.27092832D-01 0.10730484D+06 0.10730484D+06 0.10730484D+06 0.11192180D+01  1  2  5  1  7  1        1 -.109815059187D-02 0.100000000000D+01
0.508547994124D-04 0.000000000000D+00 0.342221962609D-05 0.240796131084D-06 0.000000000000D+00  7 1 -1 23 -13 13 23 21 2 0.11240958D+00 0.27092832D-01 0.10730484D+06 0.10730484D+06 0.10730484D+06 0.11192180D+01  1  2  6  1  7  1        1 0.230450301438D-02 0.100000000000D+01
0.284798637127D-05 0.000000000000D+00 0.000000000000D+00 0.240796131084D-06 0.000000000000D+00  7 21 -1 23 -13 13 23 -1 2 0.18109511D+00 0.27092832D-01 0.13081249D+06 0.13081249D+06 0.13081249D+06 0.11122735D+01  1  2 12  3  7  1        1 0.631250953010D-04 0.100000000000D+01
-.281961122010D-05 0.000000000000D+00 -.209080784158D-06 0.240796131084D-06 0.000000000000D+00  7 21 -1 23 -13 13 23 -1 2 0.18177520D+00 0.27092832D-01 0.10730484D+06 0.10730484D+06 0.10730484D+06 0.11192180D+01  1  2  5  3  7  1        1 -.633959739296D-04 0.100000000000D+01
  </mgrwgt>
  </event>
  <event>
  8     66 0.25924217E-05 0.50647730E+03 0.75467711E-02 0.92883181E-01
        1 -1    0    0  501    0 0.00000000E+00 0.00000000E+00 0.49940750E+03 0.49940760E+03 0.32000000E+00 0.0000E+00 0.9000E+01
       -1 -1    0    0    0  501 0.00000000E+00 0.00000000E+00 -.62971181E+03 0.62971189E+03 0.32000000E+00 0.0000E+00 0.9000E+01
       25  2    1    2    0    0 -.13591254E+02 -.47500100E+03 -.27274729E+03 0.62472289E+03 0.30012818E+03 0.0000E+00 0.0000E+00
       23  2    3    3    0    0 -.82598644E+02 -.17867241E+03 -.18819979E+02 0.21806949E+03 0.91944248E+02 0.0000E+00 0.0000E+00
       23  1    1    2    0    0 0.13591254E+02 0.47500100E+03 0.14244298E+03 0.50439660E+03 0.91188000E+02 0.0000E+00 0.9000E+01
      -13  1    4    4    0    0 -.73981398E+02 -.68100305E+02 0.16014253E+02 0.10182026E+03 0.10565837E+00 0.0000E+00 0.9000E+01
       13  1    4    4    0    0 -.86172452E+01 -.11057211E+03 -.34834232E+02 0.11624923E+03 0.10565837E+00 0.0000E+00 0.9000E+01
       23  1    3    3    0    0 0.69007389E+02 -.29632859E+03 -.25392731E+03 0.40665340E+03 0.91188000E+02 0.0000E+00 0.9000E+01
#aMCatNLO 1  0  0  2  2 0.14490529D+03 0.00000000D+00  -5  7  0 0.00000000D+00 0.00000000D+00 0.00000000D+00 0.00000000D+00 0.00000000D+00
  <mgrwgt>
 0.4507843474D-03    4    2    0
 0.560787749864542D+03 0.000000000000000D+00 0.000000000000000D+00 0.560787749864542D+03
 0.560787749864542D+03 0.000000000000000D+00 0.000000000000000D+00 -.560787749864542D+03
 0.524338275520398D+03 0.135912540751084D+02 0.475001002608630D+03 0.202001735549888D+03
 0.104365651750013D+03 -.739814846549961D+02 -.681002486115067D+02 0.279514817585498D+02
 0.112984127900517D+03 -.861715889789288D+01 -.110572163661761D+03 -.215628002153155D+02
 0.379887444558157D+03 0.690073894777805D+02 -.296328590335362D+03 -.208390417093123D+03
 0.000000000000000D+00 -.000000000000000D+00 -.000000000000000D+00 0.000000000000000D+00
 0.888389975952537D+03 0.000000000000000D+00 0.000000000000000D+00 0.888389975952537D+03
 0.581703672980995D+03 0.000000000000000D+00 0.000000000000000D+00 -.581703672980995D+03
 0.532357828951505D+03 0.815374428129738D+02 0.477112723532201D+03 0.202001735549888D+03
 0.954061266813120D+02 -.611360403457474D+02 -.677010210164894D+02 0.279514817585498D+02
 0.112366639844495D+03 0.587302965549230D+01 -.110121818544204D+03 -.215628002153155D+02
 0.390766899457460D+03 0.118560922691864D+03 -.294788500525046D+03 -.208390417093123D+03
 0.339196153998760D+03 -.144835354814583D+03 -.450138344646146D+01 0.306686302971542D+03
0.818868424747D-04 0.000000000000D+00 0.000000000000D+00 0.184255649312D-05 0.000000000000D+00  7 1 -1 23 -13 13 23 21 0 0.76831937D-01 0.96878753D-01 0.25651925D+06 0.25651925D+06 0.25651925D+06 0.10896190D+01  1  2  2  2  7  2       -1 0.476662048642D-03 0.100000000000D+01
-.449187641758D-05 0.000000000000D+00 -.314467036404D-06 0.184255649312D-05 0.000000000000D+00  7 1 -1 23 -13 13 23 21 2 0.76831937D-01 0.96878753D-01 0.25651925D+06 0.25651925D+06 0.25651925D+06 0.10896190D+01  1  2  3  2  7  2       -1 -.310437098464D-04 0.100000000000D+01
0.489249240416D-05 0.000000000000D+00 0.000000000000D+00 0.184255649312D-05 0.000000000000D+00  7 1 -1 23 -13 13 23 21 2 0.76831937D-01 0.96878753D-01 0.25651925D+06 0.25651925D+06 0.25651925D+06 0.10896190D+01  1  2 15  2  7  2       -1 0.338123983167D-04 0.100000000000D+01
-.414499565455D-05 0.000000000000D+00 0.000000000000D+00 0.184255649312D-05 0.000000000000D+00  7 1 -1 23 -13 13 23 21 2 0.76831937D-01 0.96878753D-01 0.25651925D+06 0.25651925D+06 0.25651925D+06 0.10896190D+01  1  2  4  2  7  2       -1 -.286463897161D-04 0.100000000000D+01
  </mgrwgt>
  </event>
  <event>
  8     66 0.25924217E-05 0.48409153E+03 0.75467711E-02 0.94265263E-01
        1 -1    0    0  501    0 0.00000000E+00 0.00000000E+00 0.21334154E+04 0.21334154E+04 0.32000000E+00 0.0000E+00 0.9000E+01
       -1 -1    0    0    0  501 0.00000000E+00 0.00000000E+00 -.14728414E+03 0.14728449E+03 0.32000000E+00 0.0000E+00 0.9000E+01
       25  2    1    2    0    0 -.15233320E+03 -.43083633E+03 0.15457180E+04 0.16395257E+04 0.29995803E+03 0.0000E+00 0.0000E+00
       23  2    3    3    0    0 -.11285602E+03 -.16898596E+03 0.10168875E+04 0.10411102E+04 0.92507072E+02 0.0000E+00 0.0000E+00
       23  1    1    2    0    0 0.15233320E+03 0.43083633E+03 0.44041319E+03 0.64117422E+03 0.91188000E+02 0.0000E+00 0.9000E+01
      -11  1    4    4    0    0 -.12646094E+03 -.13237558E+03 0.87491423E+03 0.89386273E+03 0.51099893E-03 0.0000E+00 0.9000E+01
       11  1    4    4    0    0 0.13604921E+02 -.36610382E+02 0.14197328E+03 0.14724750E+03 0.51099893E-03 0.0000E+00 0.9000E+01
       23  1    3    3    0    0 -.39477178E+02 -.26185037E+03 0.52883052E+03 0.59841543E+03 0.91188000E+02 0.0000E+00 0.9000E+01
#aMCatNLO 1  0  0  1  2 0.64526124D+02 0.00000000D+00  -5  7  0 0.00000000D+00 0.00000000D+00 0.00000000D+00 0.00000000D+00 0.00000000D+00
  <mgrwgt>
 0.2845369257D-03    4    2    0
 0.560552120986939D+03 0.000000000000000D+00 0.000000000000000D+00 0.560552120986939D+03
 0.560552120986939D+03 0.000000000000000D+00 0.000000000000000D+00 -.560552120986939D+03
 0.524132862909088D+03 0.152333198419919D+03 0.430836332501034D+03 -.239947198136368D+03
 0.268430120286555D+03 -.126460941332793D+03 -.132375580638586D+03 0.196313691435099D+03
 0.480328144535242D+02 0.136049211380602D+02 -.366103824771471D+02 0.279595650901592D+02
 0.280508444324712D+03 -.394771782251864D+02 -.261850369385300D+03 0.156739416111089D+02
 0.000000000000000D+00 -.000000000000000D+00 -.000000000000000D+00 -.000000000000000D+00
 0.569126082833396D+03 0.000000000000000D+00 0.000000000000000D+00 0.569126082833396D+03
 0.697612310329181D+03 0.000000000000000D+00 0.000000000000000D+00 -.697612310329181D+03
 0.536949902960844D+03 0.182579240413634D+03 0.434844926407273D+03 -.239947198136368D+03
 0.260657875592292D+03 -.111379348966525D+03 -.130376774339621D+03 0.196313691435099D+03
 0.486117177676375D+02 0.163597623946023D+02 -.362452755360165D+02 0.279595650901592D+02
 0.276740138748367D+03 -.235928715653300D+02 -.259745177079650D+03 0.156739416111089D+02
 0.143778758093437D+03 -.639667822763813D+02 -.847769945198593D+01 -.128486227495786D+03
0.661475836596D-04 0.000000000000D+00 0.000000000000D+00 0.142457091037D-05 0.000000000000D+00  7 1 -1 23 -11 11 23 21 0 0.32821778D+00 0.22659128D-01 0.23434461D+06 0.23434461D+06 0.23434461D+06 0.10925782D+01  1  2  2  1  7  1        1 0.319816665655D-03 0.100000000000D+01
-.357877610613D-05 0.000000000000D+00 -.254024138312D-06 0.142457091037D-05 0.000000000000D+00  7 1 -1 23 -11 11 23 21 2 0.32821778D+00 0.22659128D-01 0.23434461D+06 0.23434461D+06 0.23434461D+06 0.10925782D+01  1  2  3  1  7  1        1 -.206550729813D-04 0.100000000000D+01
0.386249322095D-05 0.000000000000D+00 0.000000000000D+00 0.142457091037D-05 0.000000000000D+00  7 1 -1 23 -11 11 23 21 2 0.32821778D+00 0.22659128D-01 0.23434461D+06 0.23434461D+06 0.23434461D+06 0.10925782D+01  1  2 15  1  7  1        1 0.222925595238D-04 0.100000000000D+01
-.639641837034D-05 0.000000000000D+00 0.000000000000D+00 0.142457091037D-05 0.000000000000D+00  7 1 -1 23 -11 11 23 21 2 0.32821778D+00 0.22659128D-01 0.23434461D+06 0.23434461D+06 0.23434461D+06 0.10925782D+01  1  2  4  1  7  1        1 -.369172265433D-04 0.100000000000D+01
  </mgrwgt>
  </event>
  <event>
  7     66 0.25924217E-05 0.15373530E+03 0.75467711E-02 0.98393923E-01
        1 -1    0    0  501    0 0.00000000E+00 0.00000000E+00 0.32669797E+02 0.32671365E+02 0.32000000E+00 0.0000E+00 0.9000E+01
       -1 -1    0    0    0  501 0.00000000E+00 0.00000000E+00 -.12860141E+04 0.12860141E+04 0.32000000E+00 0.0000E+00 0.9000E+01
       23  2    1    2    0    0 0.41672058E+02 -.52583430E+02 -.20571643E+03 0.23500100E+03 0.91676841E+02 0.0000E+00 0.0000E+00
       23  1    1    2    0    0 -.53664757E+02 0.29480141E+02 -.17982824E+03 0.21071885E+03 0.91188000E+02 0.0000E+00 0.9000E+01
      -11  1    3    3    0    0 0.64565452E+02 -.44945142E+02 -.10366850E+03 0.13013809E+03 0.51099893E-03 0.0000E+00 0.9000E+01
       11  1    3    3    0    0 -.22893395E+02 -.76382873E+01 -.10204793E+03 0.10486291E+03 0.51099893E-03 0.0000E+00 0.9000E+01
       23  1    1    2    0    0 0.11992699E+02 0.23103288E+02 -.86779962E+03 0.87296565E+03 0.91188000E+02 0.0000E+00 0.9000E+01
#aMCatNLO 1  0  0  1  2 0.29554633D+03 0.00000000D+00  -5  7  0 0.00000000D+00 0.00000000D+00 0.00000000D+00 0.00000000D+00 0.00000000D+00
  <mgrwgt>
 0.1355725728D-01    3    2    0
 0.204975314281007D+03 0.000000000000000D+00 0.000000000000000D+00 0.204975314281007D+03
 0.204975314281007D+03 0.000000000000000D+00 0.000000000000000D+00 -.204975314281007D+03
 0.128028074709836D+03 -.536647623739260D+02 0.294801445200017D+02 0.657795631510064D+02
 0.101668050468545D+03 0.645654528493095D+02 -.449451409144965D+02 0.644020891944835D+02
 0.253201571609745D+02 -.228933937480830D+02 -.763828726652826D+01 -.765894568368734D+01
 0.154934346222659D+03 0.119927032726995D+02 0.231032836610231D+02 -.122522706661803D+03
 0.000000000000000D+00 -.000000000000000D+00 -.000000000000000D+00 -.000000000000000D+00
 0.325790555821468D+03 0.000000000000000D+00 0.000000000000000D+00 0.325790555821468D+03
 0.551409728575470D+03 0.000000000000000D+00 0.000000000000000D+00 -.551409728575470D+03
 0.133401016016177D+03 0.211302021881810D+02 0.686086245110458D+02 0.657795631510064D+02
 0.151558579655782D+03 0.137013690242219D+03 -.704433537482688D+01 0.644020891944835D+02
 0.140372810204717D+02 -.116332153729009D+02 -.174760108426461D+01 -.765894568368734D+01
 0.206381348475273D+03 0.115365264090683D+03 0.771819399084073D+02 -.122522706661803D+03
 0.371822059229234D+03 -.261875941148182D+03 -.136998627960362D+03 -.225619172754002D+03
0.413950685621D-03 0.000000000000D+00 0.000000000000D+00 0.120376941923D-09 0.000000000000D+00  7 1 -1 23 -11 11 23 21 0 0.50262463D-02 0.19784845D+00 0.23634544D+05 0.23634544D+05 0.23634544D+05 0.11770694D+01  1  2  2  1  7  1        1 0.133136493257D-01 0.100000000000D+01
-.206835542057D-04 0.000000000000D+00 -.158967962850D-05 0.120376941923D-09 0.000000000000D+00  7 1 -1 23 -11 11 23 21 2 0.50262463D-02 0.19784845D+00 0.23634544D+05 0.23634544D+05 0.23634544D+05 0.11770694D+01  1  2  3  1  7  1        1 -.921675031496D-03 0.100000000000D+01
0.261504250934D-04 0.000000000000D+00 0.000000000000D+00 0.120376941923D-09 0.000000000000D+00  7 1 -1 23 -11 11 23 21 2 0.50262463D-02 0.19784845D+00 0.23634544D+05 0.23634544D+05 0.23634544D+05 0.11770694D+01  1  2 15  1  7  1        1 0.116528298918D-02 0.100000000000D+01
  </mgrwgt>
  </event>
  <event>
  9     66 0.25924217E-05 0.23751246E+03 0.75467711E-02 0.10154967E+00
        1 -1    0    0  502    0 0.00000000E+00 0.00000000E+00 0.89234016E+03 0.89234022E+03 0.32000000E+00 0.0000E+00 0.9000E+01
       -1 -1    0    0    0  501 0.00000000E+00 0.00000000E+00 -.12402261E+03 0.12402303E+03 0.32000000E+00 0.0000E+00 0.9000E+01
       25  2    1    2    0    0 0.14785884E+03 -.89249857E+02 0.45683780E+03 0.56894627E+03 0.29184124E+03 0.0000E+00 0.0000E+00
       23  2    3    3    0    0 0.43144870E+02 -.14981854E+03 0.18742114E+03 0.25986025E+03 0.89964383E+02 0.0000E+00 0.0000E+00
       23  1    1    2    0    0 -.67489301E+02 0.11290766E+03 0.42374657E+02 0.16557116E+03 0.91188000E+02 0.0000E+00 0.9000E+01
      -11  1    4    4    0    0 -.50738942E+01 -.10585598E+03 0.15290871E+03 0.18604383E+03 0.51099893E-03 0.0000E+00 0.9000E+01
       11  1    4    4    0    0 0.48218765E+02 -.43962553E+02 0.34512431E+02 0.73816416E+02 0.51099893E-03 0.0000E+00 0.9000E+01
       23  1    3    3    0    0 0.10471397E+03 0.60568681E+02 0.26941666E+03 0.30908602E+03 0.91188000E+02 0.0000E+00 0.9000E+01
       21  1    1    2  502  501 -.80369540E+02 -.23657801E+02 0.26910509E+03 0.28184582E+03 0.75000000E+00 0.0000E+00 0.9000E+01
#aMCatNLO 2  0  0  1  2 0.83779201D+02 0.00000000D+00  -5  7  0 0.00000000D+00 0.00000000D+00 0.00000000D+00 0.00000000D+00 0.00000000D+00
  <mgrwgt>
 0.7925775182D-04    2    2    0
 0.266122065730408D+03 0.000000000000000D+00 0.000000000000000D+00 0.266122065730408D+03
 0.266122065730408D+03 0.000000000000000D+00 0.000000000000000D+00 -.266122065730408D+03
 0.193922062600991D+03 -.960322123338760D+02 0.104505686841261D+03 -.956393780381290D+02
 0.118800013748124D+03 -.223890848504623D+02 -.110952932462792D+03 0.360779562062543D+02
 0.641719531115346D+02 0.382517094135282D+02 -.468964830476844D+02 -.213439961312366D+02
 0.155350102000167D+03 0.801695877708101D+02 0.533437286692154D+02 0.809054179631113D+02
 0.000000000000000D+00 -.000000000000000D+00 -.000000000000000D+00 0.000000000000000D+00
 0.389703697910860D+03 0.000000000000000D+00 0.000000000000000D+00 0.389703697910860D+03
 0.283984518382412D+03 0.000000000000000D+00 0.000000000000000D+00 -.283984518382412D+03
 0.186453980448229D+03 -.674893005480294D+02 0.112907657672127D+03 -.956393780381290D+02
 0.111950224875115D+03 -.507389419652846D+01 -.105855984824907D+03 0.360779562062543D+02
 0.686536342620519D+02 0.482187646279307D+02 -.439625529774325D+02 -.213439961312366D+02
 0.171739682598584D+03 0.104713969675129D+03 0.605686811326843D+02 0.809054179631113D+02
 0.134890694109292D+03 -.803695395585017D+02 -.236578010024723D+02 0.105719179528448D+03
-.965155191543D-05 0.000000000000D+00 0.000000000000D+00 0.103151906110D-08 0.000000000000D+00  7 1 -1 23 -11 11 23 21 2 0.13927607D+00 0.17880227D-01 0.80245792D+05 0.80245792D+05 0.80245792D+05 0.11296507D+01  1  2 13  1  7  1        1 -.623807441560D-03 0.100000000000D+01
0.117789459098D-04 0.000000000000D+00 0.000000000000D+00 0.103151906110D-08 0.109384814181D-11  7 1 -1 23 -11 11 23 21 2 0.13728265D+00 0.19080371D-01 0.80245792D+05 0.80245792D+05 0.80245792D+05 0.11296507D+01  1  2  1  1  7  1        1 0.703065193380D-03 0.100000000000D+01
  </mgrwgt>
  </event>
  <event>
  7     66 0.25924217E-05 0.23678194E+03 0.75467711E-02 0.94559996E-01
        1 -1    0    0  501    0 0.00000000E+00 0.00000000E+00 0.18865813E+04 0.18865813E+04 0.32000000E+00 0.0000E+00 0.9000E+01
       -1 -1    0    0    0  501 0.00000000E+00 0.00000000E+00 -.13775909E+03 0.13775946E+03 0.32000000E+00 0.0000E+00 0.9000E+01
       23  2    1    2    0    0 -.11490593E+03 0.82765825E+02 0.26433742E+03 0.31343512E+03 0.91179753E+02 0.0000E+00 0.0000E+00
       23  1    1    2    0    0 0.44665983E+03 -.13282409E+02 0.10972877E+04 0.11882916E+04 0.91188000E+02 0.0000E+00 0.9000E+01
      -13  1    3    3    0    0 -.11753159E+03 0.40961031E+02 0.21754011E+03 0.25062959E+03 0.10565837E+00 0.0000E+00 0.9000E+01
       13  1    3    3    0    0 0.26256639E+01 0.41804794E+02 0.46797318E+02 0.62805533E+02 0.10565837E+00 0.0000E+00 0.9000E+01
       23  1    1    2    0    0 -.33175390E+03 -.69483415E+02 0.38719701E+03 0.52261398E+03 0.91188000E+02 0.0000E+00 0.9000E+01
#aMCatNLO 1  0  0  1  2 0.31793741D+02 0.00000000D+00  -5  7  0 0.00000000D+00 0.00000000D+00 0.00000000D+00 0.00000000D+00 0.00000000D+00
  <mgrwgt>
 0.6396031512D-03    9    2    0
 0.509798122915170D+03 0.000000000000000D+00 0.000000000000000D+00 0.509798122915170D+03
 0.509798122915170D+03 0.000000000000000D+00 0.000000000000000D+00 -.509798122915170D+03
 0.477194873398541D+03 0.446659830701169D+03 -.132824091342804D+02 0.140421754366773D+03
 0.124481470265391D+03 -.117531756295033D+03 0.409610293757198D+02 0.202898351889597D+01
 0.444288649073908D+02 0.262582515149577D+01 0.418047946307282D+02 -.148117596900435D+02
 0.373491037259017D+03 -.331753899557632D+03 -.694834148721676D+02 -.127638978195625D+03
 0.000000000000000D+00 0.000000000000000D+00 0.000000000000000D+00 0.000000000000000D+00
 0.603689554373207D+03 0.000000000000000D+00 0.000000000000000D+00 0.603689554373207D+03
 0.512744556485528D+03 0.000000000000000D+00 0.000000000000000D+00 -.512744556485528D+03
 0.476674988648410D+03 0.445416635956937D+03 -.280988393412413D+02 0.140421754366773D+03
 0.123575610650221D+03 -.117855053289239D+03 0.371079666331340D+02 0.202898351889597D+01
 0.431445931288460D+02 0.251168918065041D+01 0.404445188943801D+02 -.148117596900435D+02
 0.376696639954593D+03 -.332731631861175D+03 -.811360561850037D+02 -.127638978195625D+03
 0.963422784766661D+02 0.265836001282683D+01 0.316824099987308D+02 0.909449978876794D+02
0.480753313699D-04 0.000000000000D+00 0.000000000000D+00 0.475544516865D-09 0.000000000000D+00  7 1 -1 23 -13 13 23 21 0 0.29024330D+00 0.21193737D-01 0.23688794D+06 0.23688794D+06 0.23688794D+06 0.10922236D+01  1  2  2  1  7  1        1 0.378030377853D-03 0.100000000000D+01
-.266387728584D-05 0.000000000000D+00 -.184621930986D-06 0.475544516865D-09 0.000000000000D+00  7 1 -1 23 -13 13 23 21 2 0.29024330D+00 0.21193737D-01 0.23688794D+06 0.23688794D+06 0.23688794D+06 0.10922236D+01  1  2  3  1  7  1        1 -.249885911123D-04 0.100000000000D+01
0.299999847289D-05 0.000000000000D+00 0.000000000000D+00 0.475544516865D-09 0.000000000000D+00  7 1 -1 23 -13 13 23 21 2 0.29024330D+00 0.21193737D-01 0.23688794D+06 0.23688794D+06 0.23688794D+06 0.10922236D+01  1  2 15  1  7  1        1 0.281415872927D-04 0.100000000000D+01
0.470542101607D-03 0.000000000000D+00 0.000000000000D+00 0.475544516865D-09 0.000000000000D+00  7 1 -1 23 -13 13 23 21 2 0.34443882D+00 0.21193737D-01 0.25291382D+06 0.25291382D+06 0.25291382D+06 0.10900807D+01  1  2 12  1  7  1        1 0.255271958752D-02 0.100000000000D+01
-.469930786099D-03 0.000000000000D+00 0.000000000000D+00 0.475544516865D-09 0.000000000000D+00  7 1 -1 23 -13 13 23 21 2 0.29024330D+00 0.21193737D-01 0.23688794D+06 0.23688794D+06 0.23688794D+06 0.10922236D+01  1  2  4  1  7  1        1 -.440820165678D-02 0.100000000000D+01
-.547229636524D-03 0.000000000000D+00 -.304560511754D-04 0.475544516865D-09 0.000000000000D+00  7 1 -1 23 -13 13 23 21 2 0.34431305D+00 0.21193737D-01 0.23688794D+06 0.23688794D+06 0.23688794D+06 0.10922236D+01  1  2  5  1  7  1        1 -.299340577147D-02 0.100000000000D+01
0.544901151787D-03 0.000000000000D+00 0.300169849419D-04 0.475544516865D-09 0.000000000000D+00  7 1 -1 23 -13 13 23 21 2 0.29024330D+00 0.21193737D-01 0.23688794D+06 0.23688794D+06 0.23688794D+06 0.10922236D+01  1  2  6  1  7  1        1 0.511146371156D-02 0.100000000000D+01
0.119303139597D-04 0.000000000000D+00 0.000000000000D+00 0.475544516865D-09 0.000000000000D+00  7 21 -1 23 -13 13 23 -1 2 0.34443882D+00 0.21193737D-01 0.25291382D+06 0.25291382D+06 0.25291382D+06 0.10900807D+01  1  2 12  3  7  1        1 0.272318806704D-04 0.100000000000D+01
-.135848156423D-04 0.000000000000D+00 -.770893169125D-06 0.475544516865D-09 0.000000000000D+00  7 21 -1 23 -13 13 23 -1 2 0.34431305D+00 0.21193737D-01 0.23688794D+06 0.23688794D+06 0.23688794D+06 0.10922236D+01  1  2  5  3  7  1        1 -.313879743418D-04 0.100000000000D+01
  </mgrwgt>
  </event>
  <event>
  8     66 0.25924217E-05 0.33580710E+03 0.75467711E-02 0.79579504E-01
        1 -1    0    0  501    0 0.00000000E+00 0.00000000E+00 0.77433427E+03 0.77433434E+03 0.32000000E+00 0.0000E+00 0.9000E+01
       -1 -1    0    0    0  501 0.00000000E+00 0.00000000E+00 -.21735667E+03 0.21735691E+03 0.32000000E+00 0.0000E+00 0.9000E+01
       25  2    1    2    0    0 0.26210658E+03 0.69615905E+02 0.47568382E+02 0.40743168E+03 0.30031915E+03 0.0000E+00 0.0000E+00
       23  2    3    3    0    0 0.28078404E+03 0.42304337E+02 -.30545042E+01 0.29801186E+03 0.90401347E+02 0.0000E+00 0.0000E+00
       23  1    1    2    0    0 -.26210658E+03 -.69615905E+02 0.50940922E+03 0.58425956E+03 0.91188000E+02 0.0000E+00 0.9000E+01
      -11  1    4    4    0    0 0.19257958E+03 0.47772739E+01 -.37311063E+02 0.19621884E+03 0.51099893E-03 0.0000E+00 0.9000E+01
       11  1    4    4    0    0 0.88204465E+02 0.37527063E+02 0.34256559E+02 0.10179302E+03 0.51099893E-03 0.0000E+00 0.9000E+01
       23  1    3    3    0    0 -.18677465E+02 0.27311569E+02 0.50622886E+02 0.10941982E+03 0.91188000E+02 0.0000E+00 0.9000E+01
#aMCatNLO 1  0  0  2  2 0.24069815D+04 0.00000000D+00  -5  7  0 0.00000000D+00 0.00000000D+00 0.00000000D+00 0.00000000D+00 0.00000000D+00
  <mgrwgt>
 0.3057984097D-03    5    2    0
 0.410252202838177D+03 0.000000000000000D+00 0.000000000000000D+00 0.410252202838177D+03
 0.410252202838177D+03 0.000000000000000D+00 0.000000000000000D+00 -.410252202838177D+03
 0.360358295705278D+03 -.262106578593620D+03 -.696159052048975D+02 0.219081302579800D+03
 0.262484792692038D+03 0.192579578516128D+03 0.477727389178715D+01 -.178293437869417D+03
 0.997765706389781D+02 0.882044649984864D+02 0.375270627552700D+02 -.276957751970909D+02
 0.978847466400595D+02 -.186774649209943D+02 0.273115685578403D+02 -.130920895132922D+02
 0.000000000000000D+00 -.000000000000000D+00 0.000000000000000D+00 -.000000000000000D+00
 0.142866956658243D+04 0.000000000000000D+00 0.000000000000000D+00 0.142866956658243D+04
 0.104865983993053D+05 0.000000000000000D+00 0.000000000000000D+00 -.104865983993053D+05
 0.376735117843593D+03 0.261832727008444D+03 -.130618159533372D+03 0.219081302579800D+03
 0.137304691997221D+04 0.135514504725050D+04 -.130580225801318D+03 -.178293437869417D+03
 0.553520949763359D+03 0.552580136927423D+03 -.165401975935475D+02 -.276957751970909D+02
 0.239684866889004D+03 0.221273110750576D+03 -.625877415145037D+00 -.130920895132922D+02
 0.937228011141954D+04 -.239083102193694D+04 0.278364460343383D+03 -.905792883272286D+04
0.129878362770D-04 0.000000000000D+00 0.000000000000D+00 0.672951441814D-06 0.000000000000D+00  7 1 -1 23 -11 11 23 21 0 0.11912837D+00 0.33439511D-01 0.11276641D+06 0.11276641D+06 0.11276641D+06 0.11174651D+01  1  2  2  2  7  2       -1 0.302017477423D-03 0.100000000000D+01
-.686372063735D-06 0.000000000000D+00 -.498767110795D-07 0.672951441814D-06 0.000000000000D+00  7 1 -1 23 -11 11 23 21 2 0.11912837D+00 0.33439511D-01 0.11276641D+06 0.11276641D+06 0.11276641D+06 0.11174651D+01  1  2  3  2  7  2       -1 -.199307108787D-04 0.100000000000D+01
0.816528298008D-06 0.000000000000D+00 0.000000000000D+00 0.672951441814D-06 0.000000000000D+00  7 1 -1 23 -11 11 23 21 2 0.11912837D+00 0.33439511D-01 0.11276641D+06 0.11276641D+06 0.11276641D+06 0.11174651D+01  1  2 15  2  7  2       -1 0.237101570587D-04 0.100000000000D+01
0.183669848976D-04 0.000000000000D+00 -.237967331545D-04 0.672951441814D-06 0.000000000000D+00  7 1 -1 23 -11 11 23 21 2 0.11912837D+00 0.92319971D+00 0.11276641D+06 0.11276641D+06 0.11276641D+06 0.11174651D+01  1  2  5  2  7  2       -1 0.148631269026D-08 0.100000000000D+01
-.645279325447D-06 0.000000000000D+00 -.798958327936D-05 0.672951441814D-06 0.000000000000D+00  7 1 21 23 -11 11 23 1 2 0.11912837D+00 0.92319971D+00 0.11276641D+06 0.11276641D+06 0.11276641D+06 0.11174651D+01  1  2  5  4  7  2       -1 -.213533418255D-12 0.100000000000D+01
  </mgrwgt>
  </event>
  <event>
  8     66 0.25924217E-05 0.21602182E+03 0.75467711E-02 0.10032634E+00
        1 -1    0    0  501    0 0.00000000E+00 0.00000000E+00 0.37019828E+03 0.37019841E+03 0.32000000E+00 0.0000E+00 0.9000E+01
       -1 -1    0    0    0  501 0.00000000E+00 0.00000000E+00 -.16056925E+03 0.16056957E+03 0.32000000E+00 0.0000E+00 0.9000E+01
       25  2    1    2    0    0 -.24503913E+01 0.11074696E+03 0.63424503E+02 0.32592192E+03 0.29988587E+03 0.0000E+00 0.0000E+00
       23  2    3    3    0    0 -.65100180E+02 -.30299627E+02 0.85505239E+02 0.14530646E+03 0.92987739E+02 0.0000E+00 0.0000E+00
       23  1    1    2    0    0 0.24503913E+01 -.11074696E+03 0.14620452E+03 0.20484606E+03 0.91188000E+02 0.0000E+00 0.9000E+01
      -11  1    4    4    0    0 0.11322441E+02 0.16261379E+02 0.40611306E+02 0.45187479E+02 0.51099893E-03 0.0000E+00 0.9000E+01
       11  1    4    4    0    0 -.76422621E+02 -.46561006E+02 0.44893933E+02 0.10011898E+03 0.51099893E-03 0.0000E+00 0.9000E+01
       23  1    3    3    0    0 0.62649788E+02 0.14104659E+03 -.22080736E+02 0.18061546E+03 0.91188000E+02 0.0000E+00 0.9000E+01
#aMCatNLO 1  0  0  2  2 0.15913526D+03 0.00000000D+00  -5  7  0 0.00000000D+00 0.00000000D+00 0.00000000D+00 0.00000000D+00 0.00000000D+00
  <mgrwgt>
 0.3341943100D-03    3    2    0
 0.243808490009572D+03 0.000000000000000D+00 0.000000000000000D+00 0.243808490009572D+03
 0.243808490009572D+03 0.000000000000000D+00 0.000000000000000D+00 -.243808490009572D+03
 0.160119560747759D+03 0.245039132926400D+01 -.110746959963296D+03 0.710783288441478D+02
 0.317272761752188D+02 0.113224413547438D+02 0.162613788800156D+02 0.247788202339735D+02
 0.896787383900859D+02 -.764226211366251D+02 -.465610061782194D+02 0.582510098772061D+01
 0.206091404706082D+03 0.626497884526173D+02 0.141046587261499D+03 -.101682250065842D+03
 0.000000000000000D+00 -.000000000000000D+00 0.000000000000000D+00 0.000000000000000D+00
 0.999360211786981D+03 0.000000000000000D+00 0.000000000000000D+00 0.999360211786981D+03
 0.264985677496859D+03 0.000000000000000D+00 0.000000000000000D+00 -.264985677496859D+03
 0.178171548477269D+03 0.545732447133927D+02 -.124094647237353D+03 0.710783288441478D+02
 0.356371896959162D+02 0.217017510148321D+02 0.136034319245319D+02 0.247788202339735D+02
 0.739420888143697D+02 -.512124274472169D+02 -.530168649740678D+02 0.582510098772061D+01
 0.225176411251333D+03 0.129098206774746D+03 0.124030390909332D+03 -.101682250065842D+03
 0.751418651044952D+03 -.154160775055754D+03 0.394776893775571D+02 0.734374534290122D+03
0.303374292079D-05 0.000000000000D+00 0.000000000000D+00 0.980096569848D-07 0.000000000000D+00  7 1 -1 23 -11 11 23 21 0 0.56953616D-01 0.24702996D-01 0.46665428D+05 0.46665428D+05 0.46665428D+05 0.11499413D+01  1  2  2  2  7  2       -1 0.331408571839D-03 0.100000000000D+01
-.165540836978D-06 0.000000000000D+00 -.116503716187D-07 0.980096569848D-07 0.000000000000D+00  7 1 -1 23 -11 11 23 21 2 0.56953616D-01 0.24702996D-01 0.46665428D+05 0.46665428D+05 0.46665428D+05 0.11499413D+01  1  2  3  2  7  2       -1 -.239134077102D-04 0.100000000000D+01
0.184825141024D-06 0.000000000000D+00 0.000000000000D+00 0.980096569848D-07 0.000000000000D+00  7 1 -1 23 -11 11 23 21 2 0.56953616D-01 0.24702996D-01 0.46665428D+05 0.46665428D+05 0.46665428D+05 0.11499413D+01  1  2 15  2  7  2       -1 0.266991458608D-04 0.100000000000D+01
  </mgrwgt>
  </event>
  <event>
  8     66 0.25924217E-05 0.24812644E+03 0.75467711E-02 0.10198997E+00
        1 -1    0    0  501    0 0.00000000E+00 0.00000000E+00 0.17362370E+04 0.17362371E+04 0.32000000E+00 0.0000E+00 0.9000E+01
       -1 -1    0    0    0  501 0.00000000E+00 0.00000000E+00 -.47145739E+03 0.47145750E+03 0.32000000E+00 0.0000E+00 0.9000E+01
       25  2    1    2    0    0 0.15299898E+03 -.97003178E+02 -.39870581E+03 0.53189105E+03 0.30186661E+03 0.0000E+00 0.0000E+00
       23  2    3    3    0    0 0.12328425E+03 0.60122628E+02 -.15289775E+03 0.22479442E+03 0.91329461E+02 0.0000E+00 0.0000E+00
       23  1    1    2    0    0 -.15299898E+03 0.97003178E+02 0.16634854E+04 0.16758035E+04 0.91188000E+02 0.0000E+00 0.9000E+01
      -13  1    4    4    0    0 0.24669526E+02 0.56409029E+02 -.34189453E+02 0.70423674E+02 0.10565837E+00 0.0000E+00 0.9000E+01
       13  1    4    4    0    0 0.98614725E+02 0.37135996E+01 -.11870830E+03 0.15437075E+03 0.10565837E+00 0.0000E+00 0.9000E+01
       23  1    3    3    0    0 0.29714729E+02 -.15712581E+03 -.24580806E+03 0.30709663E+03 0.91188000E+02 0.0000E+00 0.9000E+01
#aMCatNLO 1  0  0  1  1 0.75272867D+00 0.00000000D+00  -5  7  0 0.00000000D+00 0.00000000D+00 0.00000000D+00 0.00000000D+00 0.00000000D+00
  <mgrwgt>
 0.4271259819D-03   10    2    0
 0.904744122600816D+03 0.000000000000000D+00 0.000000000000000D+00 0.904744122600816D+03
 0.904744122600816D+03 0.000000000000000D+00 0.000000000000000D+00 -.904744122600816D+03
 0.881862459267184D+03 -.152998980909611D+03 0.970031783406057D+02 0.858223654389232D+03
 0.109818726109688D+03 0.246694274310427D+02 0.564090991181420D+02 -.909372612918316D+02
 0.271316317428395D+03 0.986148242142972D+02 0.371352901225526D+01 -.252732804064617D+03
 0.546490742396366D+03 0.297147292642714D+02 -.157125806471003D+03 -.514553589032784D+03
 0.000000000000000D+00 0.000000000000000D+00 0.000000000000000D+00 0.000000000000000D+00
 0.905220880075008D+03 0.000000000000000D+00 0.000000000000000D+00 0.905220880075008D+03
 0.905041361139176D+03 0.000000000000000D+00 0.000000000000000D+00 -.905041361139176D+03
 0.881839067611017D+03 -.153089161318028D+03 0.966475946664152D+02 0.858223654389232D+03
 0.109793467328534D+03 0.246581983670567D+02 0.563648226294903D+02 -.909372612918316D+02
 0.271304758903346D+03 0.985870792758632D+02 0.360413000506794D+01 -.252732804064617D+03
 0.546551107922455D+03 0.296588405784729D+02 -.157346176999268D+03 -.514553589032784D+03
 0.773839448831716D+00 0.185043096635132D+00 0.729629698294772D+00 0.179518935831668D+00
0.738632928551D-04 0.000000000000D+00 0.000000000000D+00 0.740094729209D-06 0.000000000000D+00  7 1 -1 23 -13 13 23 21 0 0.26711340D+00 0.72531917D-01 0.74843252D+05 0.74843252D+05 0.74843252D+05 0.11321979D+01  1  2  2  1  7  1        1 0.897499674057D-04 0.100000000000D+01
0.303413971503D-05 0.000000000000D+00 -.283654493215D-06 0.740094729209D-06 0.000000000000D+00  7 1 -1 23 -13 13 23 21 2 0.26711340D+00 0.72531917D-01 0.74843252D+05 0.74843252D+05 0.74843252D+05 0.11321979D+01  1  2  3  1  7  1        1 0.472591523268D-05 0.100000000000D+01
0.436270722140D-05 0.000000000000D+00 0.000000000000D+00 0.740094729209D-06 0.000000000000D+00  7 1 -1 23 -13 13 23 21 2 0.26711340D+00 0.72531917D-01 0.74843252D+05 0.74843252D+05 0.74843252D+05 0.11321979D+01  1  2 15  1  7  1        1 0.679526536343D-05 0.100000000000D+01
-.151395583173D-01 0.000000000000D+00 0.000000000000D+00 0.740094729209D-06 0.000000000000D+00  7 1 -1 23 -13 13 23 21 2 0.26711340D+00 0.72531917D-01 0.74843252D+05 0.74843252D+05 0.74843252D+05 0.11321979D+01  1  2  4  1  7  1        1 -.235810727217D-01 0.100000000000D+01
-.136244934789D+00 0.000000000000D+00 -.106893201434D-01 0.740094729209D-06 0.000000000000D+00  7 1 -1 23 -13 13 23 21 2 0.26730040D+00 0.72531917D-01 0.74843252D+05 0.74843252D+05 0.74843252D+05 0.11321979D+01  1  2  5  1  7  1        1 -.211826159611D+00 0.100000000000D+01
0.136252384935D+00 0.000000000000D+00 0.106893175257D-01 0.740094729209D-06 0.000000000000D+00  7 1 -1 23 -13 13 23 21 2 0.26711340D+00 0.72531917D-01 0.74843252D+05 0.74843252D+05 0.74843252D+05 0.11321979D+01  1  2  6  1  7  1        1 0.212223985028D+00 0.100000000000D+01
0.151395600613D-01 0.000000000000D+00 0.000000000000D+00 0.740094729209D-06 0.892845859627D-05  7 1 -1 23 -13 13 23 21 2 0.26725415D+00 0.72555746D-01 0.75049471D+05 0.75049471D+05 0.75049471D+05 0.11320970D+01  1  2 11  1  7  1        1 0.235253710806D-01 0.100000000000D+01
0.124330775990D-11 0.000000000000D+00 0.000000000000D+00 0.740094729209D-06 0.000000000000D+00  7 21 -1 23 -13 13 23 -1 2 0.26729801D+00 0.72531917D-01 0.75049471D+05 0.75049471D+05 0.75049471D+05 0.11320970D+01  1  2 12  3  7  1        1 0.129369843935D-11 0.100000000000D+01
-.178575426736D-04 0.000000000000D+00 -.140119674162D-05 0.740094729209D-06 0.000000000000D+00  7 21 -1 23 -13 13 23 -1 2 0.26730040D+00 0.72531917D-01 0.74843252D+05 0.74843252D+05 0.74843252D+05 0.11321979D+01  1  2  5  3  7  1        1 -.185896820472D-04 0.100000000000D+01
0.223028245066D-05 0.000000000000D+00 0.000000000000D+00 0.740094729209D-06 0.881356745374D-09  7 21 -1 23 -13 13 23 -1 2 0.26725415D+00 0.72555746D-01 0.75049471D+05 0.75049471D+05 0.75049471D+05 0.11320970D+01  1  2 11  3  7  1        1 0.232073849718D-05 0.100000000000D+01
  </mgrwgt>
  </event>
  <event>
  8     66 0.25924217E-05 0.11855766E+03 0.75467711E-02 0.10430019E+00
        1 -1    0    0  501    0 0.00000000E+00 0.00000000E+00 0.16983811E+03 0.16983841E+03 0.32000000E+00 0.0000E+00 0.9000E+01
       -1 -1    0    0    0  501 0.00000000E+00 0.00000000E+00 -.29624672E+03 0.29624689E+03 0.32000000E+00 0.0000E+00 0.9000E+01
       25  2    1    2    0    0 0.66144187E+02 -.72795273E+02 -.70615076E+02 0.32081874E+03 0.29709253E+03 0.0000E+00 0.0000E+00
       23  2    3    3    0    0 -.36014504E+02 0.35558163E+02 0.64796099E+02 0.99847469E+02 0.56652936E+02 0.0000E+00 0.0000E+00
       23  1    1    2    0    0 -.66144187E+02 0.72795273E+02 -.55793531E+02 0.14526656E+03 0.91188000E+02 0.0000E+00 0.9000E+01
      -11  1    4    4    0    0 -.30800020E+02 0.83394671E+01 0.29125528E+01 0.32041706E+02 0.51099893E-03 0.0000E+00 0.9000E+01
       11  1    4    4    0    0 -.52144841E+01 0.27218696E+02 0.61883546E+02 0.67805763E+02 0.51099893E-03 0.0000E+00 0.9000E+01
       23  1    3    3    0    0 0.10215869E+03 -.10835344E+03 -.13541117E+03 0.22097127E+03 0.91188000E+02 0.0000E+00 0.9000E+01
#aMCatNLO 1  0  0  2  1 0.86664471D+02 0.00000000D+00  -5  7  0 0.00000000D+00 0.00000000D+00 0.00000000D+00 0.00000000D+00 0.00000000D+00
  <mgrwgt>
 0.1476309443D-02    9    2    0
 0.224308033188582D+03 0.000000000000000D+00 0.000000000000000D+00 0.224308033188582D+03
 0.224308033188582D+03 0.000000000000000D+00 0.000000000000000D+00 -.224308033188582D+03
 0.135202086896135D+03 -.661441872050428D+02 0.727952732435596D+02 -.170337209513892D+02
 0.341101021347924D+02 -.308000198227663D+02 0.833946711373906D+01 0.120545068261641D+02
 0.878833491468723D+02 -.521448411513135D+01 0.272186959571557D+02 0.833992494155434D+02
 0.191420528199365D+03 0.102158691142940D+03 -.108353436314454D+03 -.784200352903183D+02
 0.000000000000000D+00 -.000000000000000D+00 0.000000000000000D+00 -.000000000000000D+00
 0.254933026009551D+03 0.000000000000000D+00 0.000000000000000D+00 0.254933026009551D+03
 0.299370469979171D+03 0.000000000000000D+00 0.000000000000000D+00 -.299370469979171D+03
 0.120415299769530D+03 -.436607835344386D+02 0.631520498978048D+02 -.170337209513892D+02
 0.286374622603734D+02 -.252809162983688D+02 0.597230114839672D+01 0.120545068261641D+02
 0.865097665019414D+02 0.101246556345253D+02 0.206396764855140D+02 0.833992494155434D+02
 0.221347862540985D+03 0.138464665758115D+03 -.123925216598646D+03 -.784200352903183D+02
 0.973931049158930D+02 -.796476215598333D+02 0.341611890669303D+02 -.444374439696205D+02
0.116593471749D-04 0.000000000000D+00 0.000000000000D+00 0.453971000759D-11 0.000000000000D+00  7 1 -1 23 -11 11 23 21 0 0.26128977D-01 0.45576455D-01 0.33923643D+05 0.33923643D+05 0.33923643D+05 0.11624153D+01  1  2  2  2  7  2       -1 0.124648753607D-02 0.100000000000D+01
-.617150272376D-06 0.000000000000D+00 -.447749631281D-07 0.453971000759D-11 0.000000000000D+00  7 1 -1 23 -11 11 23 21 2 0.26128977D-01 0.45576455D-01 0.33923643D+05 0.33923643D+05 0.33923643D+05 0.11624153D+01  1  2  3  2  7  2       -1 -.891512129422D-04 0.100000000000D+01
0.736390463459D-06 0.000000000000D+00 0.000000000000D+00 0.453971000759D-11 0.000000000000D+00  7 1 -1 23 -11 11 23 21 2 0.26128977D-01 0.45576455D-01 0.33923643D+05 0.33923643D+05 0.33923643D+05 0.11624153D+01  1  2 15  2  7  2       -1 0.106376203584D-03 0.100000000000D+01
0.574762644689D-05 0.000000000000D+00 0.000000000000D+00 0.453971000759D-11 0.000000000000D+00  7 1 -1 23 -11 11 23 21 2 0.26128977D-01 0.63120879D-01 0.53320739D+05 0.53320739D+05 0.53320739D+05 0.11448471D+01  1  2 12  2  7  2       -1 0.447823363207D-03 0.100000000000D+01
-.823177258287D-05 0.000000000000D+00 0.000000000000D+00 0.453971000759D-11 0.000000000000D+00  7 1 -1 23 -11 11 23 21 2 0.26128977D-01 0.45576455D-01 0.33923643D+05 0.33923643D+05 0.33923643D+05 0.11624153D+01  1  2  4  2  7  2       -1 -.118913098361D-02 0.100000000000D+01
-.112767438549D-04 0.000000000000D+00 -.485840955503D-05 0.453971000759D-11 0.000000000000D+00  7 1 -1 23 -11 11 23 21 2 0.26128977D-01 0.67695992D-01 0.33923643D+05 0.33923643D+05 0.33923643D+05 0.11624153D+01  1  2  5  2  7  2       -1 -.796025321886D-03 0.100000000000D+01
0.125599485944D-04 0.000000000000D+00 0.450148655450D-05 0.453971000759D-11 0.000000000000D+00  7 1 -1 23 -11 11 23 21 2 0.26128977D-01 0.45576455D-01 0.33923643D+05 0.33923643D+05 0.33923643D+05 0.11624153D+01  1  2  6  2  7  2       -1 0.181436305192D-02 0.100000000000D+01
0.235722362639D-06 0.000000000000D+00 0.000000000000D+00 0.453971000759D-11 0.000000000000D+00  7 1 21 23 -11 11 23 1 2 0.26128977D-01 0.63120879D-01 0.53320739D+05 0.53320739D+05 0.53320739D+05 0.11448471D+01  1  2 12  4  7  2       -1 0.159932681307D-03 0.100000000000D+01
-.369099475116D-06 0.000000000000D+00 -.229406599136D-06 0.453971000759D-11 0.000000000000D+00  7 1 21 23 -11 11 23 1 2 0.26128977D-01 0.67695992D-01 0.33923643D+05 0.33923643D+05 0.33923643D+05 0.11624153D+01  1  2  5  4  7  2       -1 -.224365874198D-03 0.100000000000D+01
  </mgrwgt>
  </event>
  <event>
  8     66 0.25924217E-05 0.21343803E+03 0.75467711E-02 0.90778937E-01
        1 -1    0    0  501    0 0.00000000E+00 0.00000000E+00 0.11675248E+03 0.11675292E+03 0.32000000E+00 0.0000E+00 0.9000E+01
       -1 -1    0    0    0  501 0.00000000E+00 0.00000000E+00 -.76641909E+03 0.76641916E+03 0.32000000E+00 0.0000E+00 0.9000E+01
       25  2    1    2    0    0 -.13044078E+03 -.16686834E+01 -.64568715E+03 0.72395943E+03 0.30031279E+03 0.0000E+00 0.0000E+00
       23  2    3    3    0    0 -.16697959E+03 -.67134999E+01 -.23816192E+03 0.30473085E+03 0.90623037E+02 0.0000E+00 0.0000E+00
       23  1    1    2    0    0 0.13044078E+03 0.16686834E+01 -.39794509E+01 0.15921265E+03 0.91188000E+02 0.0000E+00 0.9000E+01
      -11  1    4    4    0    0 -.83311041E+02 -.17065852E+02 -.18872079E+03 0.20699640E+03 0.51099893E-03 0.0000E+00 0.9000E+01
       11  1    4    4    0    0 -.83668548E+02 0.10352352E+02 -.49441134E+02 0.97734451E+02 0.51099893E-03 0.0000E+00 0.9000E+01
       23  1    3    3    0    0 0.36538811E+02 0.50448165E+01 -.40752523E+03 0.41922858E+03 0.91188000E+02 0.0000E+00 0.9000E+01
#aMCatNLO 1  0  0  1  1 0.64393455D+03 0.00000000D+00  -5  7  0 0.00000000D+00 0.00000000D+00 0.00000000D+00 0.00000000D+00 0.00000000D+00
  <mgrwgt>
 0.2842752702D-03    3    2    0
 0.299134678409301D+03 0.000000000000000D+00 0.000000000000000D+00 0.299134678409301D+03
 0.299134678409301D+03 0.000000000000000D+00 0.000000000000000D+00 -.299134678409301D+03
 0.230710215689695D+03 0.130440778209969D+03 0.166868339761197D+01 0.167016080529037D+03
 0.100636686500967D+03 -.833110414121816D+02 -.170658520724445D+02 -.538123567756796D+02
 0.905881001228027D+02 -.836685481582150D+02 0.103523521269273D+02 0.331452370393618D+02
 0.176334354505138D+03 0.365388113604277D+02 0.504481654790532D+01 -.146348960792719D+03
 0.000000000000000D+00 -.000000000000000D+00 0.000000000000000D+00 -.000000000000000D+00
 0.757300159881720D+03 0.000000000000000D+00 0.000000000000000D+00 0.757300159881720D+03
 0.765652673284213D+03 0.000000000000000D+00 0.000000000000000D+00 -.765652673284213D+03
 0.411187989660688D+03 0.277445792870805D+03 -.236410178207722D+03 0.167016080529037D+03
 0.116371485081096D+03 -.336126793057961D+02 -.975537830538229D+02 -.538123567756796D+02
 0.762961980825641D+02 -.454493593524884D+02 -.515447265770880D+02 0.331452370393618D+02
 0.275108446277970D+03 0.139926474691601D+03 -.162394486435810D+03 -.146348960792719D+03
 0.643988714063615D+03 -.338310228904122D+03 0.547903174274442D+03 -.835251340249269D+01
0.105635239773D-04 0.000000000000D+00 0.000000000000D+00 0.370621078746D-06 0.000000000000D+00  7 1 -1 23 -11 11 23 21 0 0.17961960D-01 0.11791067D+00 0.45555793D+05 0.45555793D+05 0.45555793D+05 0.11508683D+01  1  2  2  1  7  1        1 0.278789202886D-03 0.100000000000D+01
-.505563056184D-06 0.000000000000D+00 -.405667135127D-07 0.370621078746D-06 0.000000000000D+00  7 1 -1 23 -11 11 23 21 2 0.17961960D-01 0.11791067D+00 0.45555793D+05 0.45555793D+05 0.45555793D+05 0.11508683D+01  1  2  3  1  7  1        1 -.176723272304D-04 0.100000000000D+01
0.662506334347D-06 0.000000000000D+00 0.000000000000D+00 0.370621078746D-06 0.000000000000D+00  7 1 -1 23 -11 11 23 21 2 0.17961960D-01 0.11791067D+00 0.45555793D+05 0.45555793D+05 0.45555793D+05 0.11508683D+01  1  2 15  1  7  1        1 0.231583945654D-04 0.100000000000D+01
  </mgrwgt>
  </event>
  <event>
  7     66 0.25924217E-05 0.12263469E+03 0.75467711E-02 0.10176779E+00
        1 -1    0    0  501    0 0.00000000E+00 0.00000000E+00 0.20229055E+04 0.20229055E+04 0.32000000E+00 0.0000E+00 0.9000E+01
       -1 -1    0    0    0  501 0.00000000E+00 0.00000000E+00 -.53847868E+02 0.53848819E+02 0.32000000E+00 0.0000E+00 0.9000E+01
       23  2    1    2    0    0 -.20212621E+02 -.11926804E+03 0.11429475E+04 0.11526754E+04 0.87739943E+02 0.0000E+00 0.0000E+00
       23  1    1    2    0    0 -.13339257E+03 0.59721500E+02 0.17210530E+03 0.24350713E+03 0.91188000E+02 0.0000E+00 0.9000E+01
      -11  1    3    3    0    0 -.15699117E+02 -.12736334E+02 0.42378750E+02 0.46953540E+02 0.51099893E-03 0.0000E+00 0.9000E+01
       11  1    3    3    0    0 -.45135043E+01 -.10653171E+03 0.11005687E+04 0.11057219E+04 0.51099893E-03 0.0000E+00 0.9000E+01
       23  1    1    2    0    0 0.15360520E+03 0.59546540E+02 0.65400481E+03 0.68057174E+03 0.91188000E+02 0.0000E+00 0.9000E+01
#aMCatNLO 1  0  0  1  2 0.73260342D+02 0.00000000D+00  -5  7  0 0.00000000D+00 0.00000000D+00 0.00000000D+00 0.00000000D+00 0.00000000D+00
  <mgrwgt>
 0.7139740457D-03    9    2    0
 0.330045691819966D+03 0.000000000000000D+00 0.000000000000000D+00 0.330045691819966D+03
 0.330045691819966D+03 0.000000000000000D+00 0.000000000000000D+00 -.330045691819966D+03
 0.252721428645818D+03 -.133392578819659D+03 0.597215014693787D+02 -.184912496416189D+03
 0.213073012607208D+02 -.156991152880585D+02 -.127363329609769D+02 -.673236131639511D+01
 0.195775144586201D+03 -.451349870831324D+01 -.106531702569106D+03 0.164190535399838D+03
 0.190287509147192D+03 0.153605192816030D+03 0.595465340607046D+02 0.274543223327467D+02
 0.000000000000000D+00 -.000000000000000D+00 -.000000000000000D+00 0.000000000000000D+00
 0.432222245708127D+03 0.000000000000000D+00 0.000000000000000D+00 0.432222245708127D+03
 0.345469761027464D+03 0.000000000000000D+00 0.000000000000000D+00 -.345469761027464D+03
 0.241573141402471D+03 -.106899995547032D+03 0.664988039308619D+02 -.184912496416189D+03
 0.193997891705654D+02 -.135173474751291D+02 -.121781956054465D+02 -.673236131639511D+01
 0.193561607724890D+03 0.163536864818615D+02 -.101193483034293D+03 0.164190535399838D+03
 0.209609807761331D+03 0.175038389963359D+03 0.650295501293616D+02 0.274543223327467D+02
 0.113547660676334D+03 -.709747334230589D+02 -.181566754204838D+02 0.867524846806633D+02
0.182051924710D-04 0.000000000000D+00 0.000000000000D+00 0.632854538632D-10 0.000000000000D+00  7 1 -1 23 -11 11 23 21 0 0.31121630D+00 0.82843624D-02 0.59390990D+05 0.59390990D+05 0.59390990D+05 0.11407778D+01  1  2  2  1  7  1        1 0.529901055901D-03 0.100000000000D+01
-.898290335977D-06 0.000000000000D+00 -.699127326260D-07 0.632854538632D-10 0.000000000000D+00  7 1 -1 23 -11 11 23 21 2 0.31121630D+00 0.82843624D-02 0.59390990D+05 0.59390990D+05 0.59390990D+05 0.11407778D+01  1  2  3  1  7  1        1 -.340265868756D-04 0.100000000000D+01
0.111387912412D-05 0.000000000000D+00 0.000000000000D+00 0.632854538632D-10 0.000000000000D+00  7 1 -1 23 -11 11 23 21 2 0.31121630D+00 0.82843624D-02 0.59390990D+05 0.59390990D+05 0.59390990D+05 0.11407778D+01  1  2 15  1  7  1        1 0.421929339189D-04 0.100000000000D+01
0.248120843490D-04 0.000000000000D+00 0.000000000000D+00 0.632854538632D-10 0.000000000000D+00  7 1 -1 23 -11 11 23 21 2 0.41318620D+00 0.82843624D-02 0.77622354D+05 0.77622354D+05 0.77622354D+05 0.11308633D+01  1  2 12  1  7  1        1 0.328772090082D-03 0.100000000000D+01
-.267583217457D-04 0.000000000000D+00 0.000000000000D+00 0.632854538632D-10 0.000000000000D+00  7 1 -1 23 -11 11 23 21 2 0.31121630D+00 0.82843624D-02 0.59390990D+05 0.59390990D+05 0.59390990D+05 0.11407778D+01  1  2  4  1  7  1        1 -.101358583418D-02 0.100000000000D+01
-.340850539789D-04 0.000000000000D+00 -.730636904598D-05 0.632854538632D-10 0.000000000000D+00  7 1 -1 23 -11 11 23 21 2 0.41311749D+00 0.82843624D-02 0.59390990D+05 0.59390990D+05 0.59390990D+05 0.11407778D+01  1  2  5  1  7  1        1 -.464931207057D-03 0.100000000000D+01
0.350237886993D-04 0.000000000000D+00 0.702277233529D-05 0.632854538632D-10 0.000000000000D+00  7 1 -1 23 -11 11 23 21 2 0.31121630D+00 0.82843624D-02 0.59390990D+05 0.59390990D+05 0.59390990D+05 0.11407778D+01  1  2  6  1  7  1        1 0.132667573184D-02 0.100000000000D+01
0.920409046692D-06 0.000000000000D+00 0.000000000000D+00 0.632854538632D-10 0.000000000000D+00  7 21 -1 23 -11 11 23 -1 2 0.41318620D+00 0.82843624D-02 0.77622354D+05 0.77622354D+05 0.77622354D+05 0.11308633D+01  1  2 12  3  7  1        1 0.383352414954D-05 0.100000000000D+01
-.111413577155D-05 0.000000000000D+00 -.270915683775D-06 0.632854538632D-10 0.000000000000D+00  7 21 -1 23 -11 11 23 -1 2 0.41311749D+00 0.82843624D-02 0.59390990D+05 0.59390990D+05 0.59390990D+05 0.11407778D+01  1  2  5  3  7  1        1 -.485766212459D-05 0.100000000000D+01
  </mgrwgt>
  </event>
  <event>
  8     66 0.25924217E-05 0.10979633E+03 0.75467711E-02 0.95716085E-01
        1 -1    0    0  501    0 0.00000000E+00 0.00000000E+00 0.22653078E+03 0.22653101E+03 0.32000000E+00 0.0000E+00 0.9000E+01
       -1 -1    0    0    0  501 0.00000000E+00 0.00000000E+00 -.67353779E+03 0.67353787E+03 0.32000000E+00 0.0000E+00 0.9000E+01
       25  2    1    2    0    0 -.28544230E+03 -.11261987E+03 -.12414449E+03 0.44540857E+03 0.29802080E+03 0.0000E+00 0.0000E+00
       23  2    3    3    0    0 -.11078864E+03 0.26034554E+02 0.40344951E+02 0.15368785E+03 0.95080596E+02 0.0000E+00 0.0000E+00
       23  1    1    2    0    0 0.28544230E+03 0.11261987E+03 -.32286252E+03 0.45466031E+03 0.91188000E+02 0.0000E+00 0.9000E+01
      -13  1    4    4    0    0 0.11392718E+02 -.14633799E+02 0.11177806E+02 0.21654021E+02 0.10565837E+00 0.0000E+00 0.9000E+01
       13  1    4    4    0    0 -.12218135E+03 0.40668353E+02 0.29167145E+02 0.13203383E+03 0.10565837E+00 0.0000E+00 0.9000E+01
       23  1    3    3    0    0 -.17465366E+03 -.13865442E+03 -.16448944E+03 0.29172072E+03 0.91188000E+02 0.0000E+00 0.9000E+01
#aMCatNLO 1  0  0  2  1 0.17783931D+03 0.00000000D+00  -5  7  0 0.00000000D+00 0.00000000D+00 0.00000000D+00 0.00000000D+00 0.00000000D+00
  <mgrwgt>
 0.5666773869D-03    9    2    0
 0.390611289647738D+03 0.000000000000000D+00 0.000000000000000D+00 0.390611289647738D+03
 0.390611289647738D+03 0.000000000000000D+00 0.000000000000000D+00 -.390611289647738D+03
 0.339088748491928D+03 0.285442299272266D+03 0.112619866944894D+03 -.111827489309645D+03
 0.313438636456640D+02 0.113928812865174D+02 -.146338659607835D+02 0.252683598848662D+02
 0.168809237598838D+03 -.122181514666487D+03 0.406684216642712D+02 0.109152717107001D+03
 0.241980729559046D+03 -.174653665892296D+03 -.138654422648382D+03 -.225935876822220D+02
 0.000000000000000D+00 0.000000000000000D+00 -.000000000000000D+00 -.000000000000000D+00
 0.439691660101948D+03 0.000000000000000D+00 0.000000000000000D+00 0.439691660101948D+03
 0.602887812476771D+03 0.000000000000000D+00 0.000000000000000D+00 -.602887812476771D+03
 0.320851781463517D+03 0.233743837372857D+03 0.165798207014505D+03 -.111827489309645D+03
 0.279493398800749D+02 0.674796665523055D+01 -.985598977681693D+01 0.252683598848662D+02
 0.199153725184013D+03 -.151007019917857D+03 0.703190624109597D+02 0.109152717107001D+03
 0.253253950899351D+03 -.213449390805074D+03 -.987481628321225D+02 -.225935876822220D+02
 0.241370675151764D+03 0.123964606694843D+03 -.127513116816525D+03 -.163196152374823D+03
0.339694471899D-04 0.000000000000D+00 0.000000000000D+00 0.618687719614D-08 0.000000000000D+00  7 1 -1 23 -13 13 23 21 0 0.34850913D-01 0.10362122D+00 0.12544345D+06 0.12544345D+06 0.12544345D+06 0.11137317D+01  1  2  2  2  7  2       -1 0.500804344360D-03 0.100000000000D+01
-.186519612221D-05 0.000000000000D+00 -.130451621570D-06 0.618687719614D-08 0.000000000000D+00  7 1 -1 23 -13 13 23 21 2 0.34850913D-01 0.10362122D+00 0.12544345D+06 0.12544345D+06 0.12544345D+06 0.11137317D+01  1  2  3  2  7  2       -1 -.341087067928D-04 0.100000000000D+01
0.220591982977D-05 0.000000000000D+00 0.000000000000D+00 0.618687719614D-08 0.000000000000D+00  7 1 -1 23 -13 13 23 21 2 0.34850913D-01 0.10362122D+00 0.12544345D+06 0.12544345D+06 0.12544345D+06 0.11137317D+01  1  2 15  2  7  2       -1 0.403394966278D-04 0.100000000000D+01
0.171885376786D-04 0.000000000000D+00 0.000000000000D+00 0.618687719614D-08 0.000000000000D+00  7 1 -1 23 -13 13 23 21 2 0.34850913D-01 0.16357314D+00 0.20672405D+06 0.20672405D+06 0.20672405D+06 0.10967241D+01  1  2 12  2  7  2       -1 0.913626377021D-04 0.100000000000D+01
-.270984817693D-04 0.000000000000D+00 0.000000000000D+00 0.618687719614D-08 0.000000000000D+00  7 1 -1 23 -13 13 23 21 2 0.34850913D-01 0.10362122D+00 0.12544345D+06 0.12544345D+06 0.12544345D+06 0.11137317D+01  1  2  4  2  7  2       -1 -.495547979213D-03 0.100000000000D+01
-.315571230599D-04 0.000000000000D+00 -.115099520310D-04 0.618687719614D-08 0.000000000000D+00  7 1 -1 23 -13 13 23 21 2 0.34850913D-01 0.17117751D+00 0.12544345D+06 0.12544345D+06 0.12544345D+06 0.11137317D+01  1  2  5  2  7  2       -1 -.153322940190D-03 0.100000000000D+01
0.342414777940D-04 0.000000000000D+00 0.101979915881D-04 0.618687719614D-08 0.000000000000D+00  7 1 -1 23 -13 13 23 21 2 0.34850913D-01 0.10362122D+00 0.12544345D+06 0.12544345D+06 0.12544345D+06 0.11137317D+01  1  2  6  2  7  2       -1 0.626171431690D-03 0.100000000000D+01
0.903024064716D-06 0.000000000000D+00 0.000000000000D+00 0.618687719614D-08 0.000000000000D+00  7 1 21 23 -13 13 23 1 2 0.34850913D-01 0.16357314D+00 0.20672405D+06 0.20672405D+06 0.20672405D+06 0.10967241D+01  1  2 12  4  7  2       -1 0.302113002647D-04 0.100000000000D+01
-.126335981810D-05 0.000000000000D+00 -.650976513489D-06 0.618687719614D-08 0.000000000000D+00  7 1 21 23 -13 13 23 1 2 0.34850913D-01 0.17117751D+00 0.12544345D+06 0.12544345D+06 0.12544345D+06 0.11137317D+01  1  2  5  4  7  2       -1 -.392321975133D-04 0.100000000000D+01
  </mgrwgt>
  </event>
  <event>
  8     66 0.25924217E-05 0.67701297E+02 0.75467711E-02 0.10032310E+00
        1 -1    0    0  501    0 0.00000000E+00 0.00000000E+00 0.16769553E+03 0.16769584E+03 0.32000000E+00 0.0000E+00 0.9000E+01
       -1 -1    0    0    0  501 0.00000000E+00 0.00000000E+00 -.83436133E+03 0.83436139E+03 0.32000000E+00 0.0000E+00 0.9000E+01
       25  2    1    2    0    0 0.17191134E+03 0.47174799E+02 -.71554483E+03 0.79594226E+03 0.29956753E+03 0.0000E+00 0.0000E+00
       23  2    3    3    0    0 0.21460629E+03 0.86352415E+01 -.56321514E+03 0.60932034E+03 0.89048034E+02 0.0000E+00 0.0000E+00
       23  1    1    2    0    0 -.17191134E+03 -.47174799E+02 0.48879029E+02 0.20611497E+03 0.91188000E+02 0.0000E+00 0.9000E+01
      -11  1    4    4    0    0 0.22267966E+03 0.97649685E+01 -.55314050E+03 0.59636063E+03 0.51099893E-03 0.0000E+00 0.9000E+01
       11  1    4    4    0    0 -.80733753E+01 -.11297270E+01 -.10074645E+02 0.12959712E+02 0.51099893E-03 0.0000E+00 0.9000E+01
       23  1    3    3    0    0 -.42694949E+02 0.38539558E+02 -.15232968E+03 0.18662192E+03 0.91188000E+02 0.0000E+00 0.9000E+01
#aMCatNLO 1  0  0  1  2 0.76059367D+02 0.00000000D+00  -5  7  0 0.00000000D+00 0.00000000D+00 0.00000000D+00 0.00000000D+00 0.00000000D+00
  <mgrwgt>
 0.4495394331D-03    6    2    0
 0.374057280487191D+03 0.000000000000000D+00 0.000000000000000D+00 0.374057280487191D+03
 0.374057280487191D+03 0.000000000000000D+00 0.000000000000000D+00 -.374057280487191D+03
 0.319636834740054D+03 -.171911336995690D+03 -.471747990620613D+02 0.249145510343753D+03
 0.305872436427586D+03 0.222679661679052D+03 0.976496850210337D+01 -.209466849479347D+03
 0.838100532549611D+01 -.807337527182686D+01 -.112972695391510D+01 -.194565644342632D+01
 0.114224284481245D+03 -.426949494115355D+02 0.385395575138730D+02 -.377330044209799D+02
 0.000000000000000D+00 0.000000000000000D+00 0.000000000000000D+00 -.000000000000000D+00
 0.410199178025778D+03 0.000000000000000D+00 0.000000000000000D+00 0.410199178025778D+03
 0.418256833738777D+03 0.000000000000000D+00 0.000000000000000D+00 -.418256833738777D+03
 0.330952330408974D+03 -.181496404887390D+03 -.787385759817504D+02 0.249145510343753D+03
 0.299920883488974D+03 0.213754566687026D+03 -.196255074442707D+02 -.209466849479347D+03
 0.877261183343530D+01 -.832609787137849D+01 -.196194638573770D+01 -.194565644342632D+01
 0.112325200045439D+03 -.460326812803416D+02 0.275483548103469D+02 -.377330044209799D+02
 0.764849859877324D+02 0.221006173520846D+02 0.727776750014118D+02 -.805765571299969D+01
0.289809016556D-04 0.000000000000D+00 0.000000000000D+00 0.254876915874D-06 0.000000000000D+00  7 1 -1 23 -11 11 23 21 0 0.25799341D-01 0.12836331D+00 0.72655322D+05 0.72655322D+05 0.72655322D+05 0.11332876D+01  1  2  2  1  7  1        1 0.384892293130D-03 0.100000000000D+01
-.139987129342D-05 0.000000000000D+00 -.111294293204D-06 0.254876915874D-06 0.000000000000D+00  7 1 -1 23 -11 11 23 21 2 0.25799341D-01 0.12836331D+00 0.72655322D+05 0.72655322D+05 0.72655322D+05 0.11332876D+01  1  2  3  1  7  1        1 -.238778774366D-04 0.100000000000D+01
0.176891354693D-05 0.000000000000D+00 0.000000000000D+00 0.254876915874D-06 0.000000000000D+00  7 1 -1 23 -11 11 23 21 2 0.25799341D-01 0.12836331D+00 0.72655322D+05 0.72655322D+05 0.72655322D+05 0.11332876D+01  1  2 15  1  7  1        1 0.301727030678D-04 0.100000000000D+01
0.235418386598D-04 0.000000000000D+00 0.000000000000D+00 0.254876915874D-06 0.000000000000D+00  7 1 -1 23 -11 11 23 21 2 0.29663877D-01 0.12836331D+00 0.97003839D+05 0.97003839D+05 0.97003839D+05 0.11228078D+01  1  2 12  1  7  1        1 0.326264612521D-03 0.100000000000D+01
-.183985402684D-04 0.000000000000D+00 0.000000000000D+00 0.254876915874D-06 0.000000000000D+00  7 1 -1 23 -11 11 23 21 2 0.25799341D-01 0.12836331D+00 0.72655322D+05 0.72655322D+05 0.72655322D+05 0.11332876D+01  1  2  4  1  7  1        1 -.313827486574D-03 0.100000000000D+01
0.506421008501D-06 0.000000000000D+00 0.000000000000D+00 0.254876915874D-06 0.000000000000D+00  7 21 -1 23 -11 11 23 -1 2 0.29663877D-01 0.12836331D+00 0.97003839D+05 0.97003839D+05 0.97003839D+05 0.11228078D+01  1  2 12  3  7  1        1 0.459151884191D-04 0.100000000000D+01
  </mgrwgt>
  </event>
  <event>
  8     66 0.25924217E-05 0.26431688E+03 0.75467711E-02 0.95589720E-01
        1 -1    0    0  501    0 0.00000000E+00 0.00000000E+00 0.34364892E+03 0.34364907E+03 0.32000000E+00 0.0000E+00 0.9000E+01
       -1 -1    0    0    0  501 0.00000000E+00 0.00000000E+00 -.24489143E+03 0.24489164E+03 0.32000000E+00 0.0000E+00 0.9000E+01
       25  2    1    2    0    0 0.12373700E+03 -.14357622E+03 0.12592571E+03 0.37645974E+03 0.29989943E+03 0.0000E+00 0.0000E+00
       23  2    3    3    0    0 0.11937417E+03 -.16901562E+03 0.15911720E+03 0.27604498E+03 0.89811333E+02 0.0000E+00 0.0000E+00
       23  1    1    2    0    0 -.12373700E+03 0.14357622E+03 -.27168220E+02 0.21208098E+03 0.91188000E+02 0.0000E+00 0.9000E+01
      -11  1    4    4    0    0 0.13067886E+03 -.16699162E+03 0.15813592E+03 0.26451869E+03 0.51099893E-03 0.0000E+00 0.9000E+01
       11  1    4    4    0    0 -.11304685E+02 -.20239959E+01 0.98127175E+00 0.11526290E+02 0.51099893E-03 0.0000E+00 0.9000E+01
       23  1    3    3    0    0 0.43628284E+01 0.25439395E+02 -.33191487E+02 0.10041476E+03 0.91188000E+02 0.0000E+00 0.9000E+01
#aMCatNLO 1  0  0  1  2 0.30695782D+03 0.00000000D+00  -5  7  0 0.00000000D+00 0.00000000D+00 0.00000000D+00 0.00000000D+00 0.00000000D+00
  <mgrwgt>
 0.3658767199D-03    5    2    0
 0.290097884213313D+03 0.000000000000000D+00 0.000000000000000D+00 0.290097884213313D+03
 0.290097884213313D+03 0.000000000000000D+00 0.000000000000000D+00 -.290097884213313D+03
 0.219755748339225D+03 -.123737002979969D+03 0.143576223018542D+03 -.636581484289149D+02
 0.241406295619885D+03 0.130678859669197D+03 -.166991622257703D+03 0.115385585305160D+03
 0.115250460802125D+02 -.113046851306019D+02 -.202399592140171D+01 -.966551477738406D+00
 0.107508678387302D+03 0.436282844137411D+01 0.254393951605627D+02 -.507608853985066D+02
 0.000000000000000D+00 -.000000000000000D+00 0.000000000000000D+00 0.000000000000000D+00
 0.819692507709863D+03 0.000000000000000D+00 0.000000000000000D+00 0.819692507709863D+03
 0.376122544323137D+03 0.000000000000000D+00 0.000000000000000D+00 -.376122544323137D+03
 0.158014876931710D+03 -.988692697763203D+02 0.531597368338390D+02 -.636581484289149D+02
 0.376629279595644D+03 0.171362657632051D+03 -.314913671538407D+03 0.115385585305160D+03
 0.124850343936712D+02 -.972415918315839D+01 -.777062354207378D+01 -.966551477738406D+00
 0.109262637096634D+03 0.186323636541569D+02 -.264431476857385D+02 -.507608853985066D+02
 0.539423224015341D+03 -.814015923267287D+02 0.295967705932381D+03 0.443569963386726D+03
0.662705347848D-05 0.000000000000D+00 0.000000000000D+00 0.254868048038D-06 0.000000000000D+00  7 1 -1 23 -11 11 23 21 0 0.52869092D-01 0.37675633D-01 0.69863413D+05 0.69863413D+05 0.69863413D+05 0.11347317D+01  1  2  2  1  7  1        1 0.395886614064D-03 0.100000000000D+01
-.364292187851D-06 0.000000000000D+00 -.254496303006D-07 0.254868048038D-06 0.000000000000D+00  7 1 -1 23 -11 11 23 21 2 0.52869092D-01 0.37675633D-01 0.69863413D+05 0.69863413D+05 0.69863413D+05 0.11347317D+01  1  2  3  1  7  1        1 -.280211918140D-04 0.100000000000D+01
0.421661631150D-06 0.000000000000D+00 0.000000000000D+00 0.254868048038D-06 0.000000000000D+00  7 1 -1 23 -11 11 23 21 2 0.52869092D-01 0.37675633D-01 0.69863413D+05 0.69863413D+05 0.69863413D+05 0.11347317D+01  1  2 15  1  7  1        1 0.324340236796D-04 0.100000000000D+01
-.236400229685D-05 0.000000000000D+00 -.224217250881D-05 0.254868048038D-06 0.000000000000D+00  7 1 -1 23 -11 11 23 21 2 0.17464839D+00 0.37675633D-01 0.69863413D+05 0.69863413D+05 0.69863413D+05 0.11347317D+01  1  2  5  1  7  1        1 -.307038238846D-04 0.100000000000D+01
-.238696830223D-06 0.000000000000D+00 -.310340816608D-06 0.254868048038D-06 0.000000000000D+00  7 21 -1 23 -11 11 23 -1 2 0.17464839D+00 0.37675633D-01 0.69863413D+05 0.69863413D+05 0.69863413D+05 0.11347317D+01  1  2  5  3  7  1        1 -.371890218409D-05 0.100000000000D+01
  </mgrwgt>
  </event>
  <event>
  8     66 0.25924217E-05 0.22475386E+03 0.75467711E-02 0.92569651E-01
        1 -1    0    0  501    0 0.00000000E+00 0.00000000E+00 0.17828083E+03 0.17828111E+03 0.32000000E+00 0.0000E+00 0.9000E+01
       -1 -1    0    0    0  501 0.00000000E+00 0.00000000E+00 -.37839879E+03 0.37839892E+03 0.32000000E+00 0.0000E+00 0.9000E+01
       25  2    1    2    0    0 0.39924639E+02 -.11111918E+03 -.24095795E+03 0.40200423E+03 0.29934131E+03 0.0000E+00 0.0000E+00
       23  2    3    3    0    0 0.40018265E+02 -.17165034E+03 -.95650020E+02 0.22008756E+03 0.90687961E+02 0.0000E+00 0.0000E+00
       23  1    1    2    0    0 -.39924639E+02 0.11111918E+03 0.40839990E+02 0.15467581E+03 0.91188000E+02 0.0000E+00 0.9000E+01
      -13  1    4    4    0    0 0.20216965E+02 -.16978214E+03 -.63719109E+02 0.18246873E+03 0.10565837E+00 0.0000E+00 0.9000E+01
       13  1    4    4    0    0 0.19801301E+02 -.18681919E+01 -.31930910E+02 0.37618823E+02 0.10565837E+00 0.0000E+00 0.9000E+01
       23  1    3    3    0    0 -.93625781E-01 0.60531158E+02 -.14530793E+03 0.18191667E+03 0.91188000E+02 0.0000E+00 0.9000E+01
#aMCatNLO 1  0  0  1  2 0.51075162D+03 0.00000000D+00  -5  7  0 0.00000000D+00 0.00000000D+00 0.00000000D+00 0.00000000D+00 0.00000000D+00
  <mgrwgt>
 0.3678757311D-03    5    2    0
 0.259733258368963D+03 0.000000000000000D+00 0.000000000000000D+00 0.259733258368963D+03
 0.259733258368963D+03 0.000000000000000D+00 0.000000000000000D+00 -.259733258368963D+03
 0.181489558340305D+03 -.399246398111825D+02 0.111119179544306D+03 0.103352598012371D+03
 0.170993624533114D+03 0.202169653736764D+02 -.169782371961212D+03 0.201000330241302D+01
 0.280125816002382D+02 0.198012999415590D+02 -.186796441464775D+01 -.197262251198760D+02
 0.138970752264270D+03 -.936255040529410D-01 0.605311568315538D+02 -.856363761949082D+02
 0.000000000000000D+00 -.000000000000000D+00 -.000000000000000D+00 0.000000000000000D+00
 0.742477449894971D+03 0.000000000000000D+00 0.000000000000000D+00 0.742477449894971D+03
 0.536677688801319D+03 0.000000000000000D+00 0.000000000000000D+00 -.536677688801319D+03
 0.346476966202734D+03 0.263301980513194D+02 0.316790148078696D+03 0.103352598012371D+03
 0.870036241133015D+02 0.525931958417623D+02 -.692787575431532D+02 0.201000330241302D+01
 0.435063816170673D+02 0.287762578068479D+02 0.259924656499473D+02 -.197262251198760D+02
 0.251513322057140D+03 0.489084566913024D+02 0.212645417925000D+03 -.856363761949082D+02
 0.550654844706047D+03 -.156608108391232D+03 -.486149274110490D+03 0.205799761093652D+03
0.501018100741D-05 0.000000000000D+00 0.000000000000D+00 0.167803790140D-06 0.000000000000D+00  7 1 -1 23 -13 13 23 21 0 0.27427852D-01 0.58215230D-01 0.50514298D+05 0.50514298D+05 0.50514298D+05 0.11469047D+01  1  2  2  1  7  1        1 0.325096385569D-03 0.100000000000D+01
-.271262378976D-06 0.000000000000D+00 -.192404142794D-07 0.167803790140D-06 0.000000000000D+00  7 1 -1 23 -13 13 23 21 2 0.27427852D-01 0.58215230D-01 0.50514298D+05 0.50514298D+05 0.50514298D+05 0.11469047D+01  1  2  3  1  7  1        1 -.231527688381D-04 0.100000000000D+01
0.312959575074D-06 0.000000000000D+00 0.000000000000D+00 0.167803790140D-06 0.000000000000D+00  7 1 -1 23 -13 13 23 21 2 0.27427852D-01 0.58215230D-01 0.50514298D+05 0.50514298D+05 0.50514298D+05 0.11469047D+01  1  2 15  1  7  1        1 0.267117051938D-04 0.100000000000D+01
0.352773853891D-05 0.000000000000D+00 -.226301544987D-05 0.167803790140D-06 0.000000000000D+00  7 1 -1 23 -13 13 23 21 2 0.14409115D+00 0.58215230D-01 0.50514298D+05 0.50514298D+05 0.50514298D+05 0.11469047D+01  1  2  5  1  7  1        1 0.307401938952D-04 0.100000000000D+01
0.629242636271D-06 0.000000000000D+00 -.458687554969D-06 0.167803790140D-06 0.000000000000D+00  7 21 -1 23 -13 13 23 -1 2 0.14409115D+00 0.58215230D-01 0.50514298D+05 0.50514298D+05 0.50514298D+05 0.11469047D+01  1  2  5  3  7  1        1 0.848021527902D-05 0.100000000000D+01
  </mgrwgt>
  </event>
  <event>
  8     66 0.25924217E-05 0.14621028E+03 0.75467711E-02 0.10393940E+00
        1 -1    0    0  501    0 0.00000000E+00 0.00000000E+00 0.16555665E+03 0.16555696E+03 0.32000000E+00 0.0000E+00 0.9000E+01
       -1 -1    0    0    0  501 0.00000000E+00 0.00000000E+00 -.65875083E+03 0.65875091E+03 0.32000000E+00 0.0000E+00 0.9000E+01
       25  2    1    2    0    0 -.80855301E+02 -.41146569E+02 0.19859159E+01 0.31269355E+03 0.29923685E+03 0.0000E+00 0.0000E+00
       23  2    3    3    0    0 -.27069385E+01 -.13029016E+03 0.22147280E+02 0.16177809E+03 0.93267335E+02 0.0000E+00 0.0000E+00
       23  1    1    2    0    0 0.80855301E+02 0.41146569E+02 -.49518010E+03 0.51161431E+03 0.91188000E+02 0.0000E+00 0.9000E+01
      -13  1    4    4    0    0 -.37458773E+02 -.55778292E+02 -.19020695E+02 0.69829618E+02 0.10565837E+00 0.0000E+00 0.9000E+01
       13  1    4    4    0    0 0.34751835E+02 -.74511864E+02 0.41167975E+02 0.91948470E+02 0.10565837E+00 0.0000E+00 0.9000E+01
       23  1    3    3    0    0 -.78148362E+02 0.89143587E+02 -.20161364E+02 0.15091546E+03 0.91188000E+02 0.0000E+00 0.9000E+01
#aMCatNLO 1  0  0  2  1 0.51439120D+02 0.00000000D+00  -5  7  0 0.00000000D+00 0.00000000D+00 0.00000000D+00 0.00000000D+00 0.00000000D+00
  <mgrwgt>
 0.2213293976D-03    7    2    0
 0.330243452875737D+03 0.000000000000000D+00 0.000000000000000D+00 0.330243452875737D+03
 0.330243452875737D+03 0.000000000000000D+00 0.000000000000000D+00 -.330243452875737D+03
 0.268752875168500D+03 0.808553006421365D+02 0.411465687093426D+02 -.235970838895090D+03
 0.729464045300711D+02 -.374588641705246D+02 -.557782675405437D+02 0.284041598906656D+02
 0.145495261117814D+03 0.347519262948463D+02 -.745118887403279D+02 0.120038131703586D+03
 0.173292364935089D+03 -.781483627664582D+02 0.891435875715290D+02 0.875285473008386D+02
 0.000000000000000D+00 0.000000000000000D+00 -.000000000000000D+00 -.000000000000000D+00
 0.332802145962612D+03 0.000000000000000D+00 0.000000000000000D+00 0.332802145962612D+03
 0.755638408317571D+03 0.000000000000000D+00 0.000000000000000D+00 -.755638408317571D+03
 0.263300336537944D+03 0.601692409851376D+02 0.413429740997695D+02 -.235970838895090D+03
 0.760432387845139D+02 -.432515341179452D+02 -.557232685885199D+02 0.284041598906656D+02
 0.143174362786415D+03 0.235285431259068D+02 -.744053274623582D+02 0.120038131703586D+03
 0.179968994428448D+03 -.918830520673068D+02 0.892739926394470D+02 0.875285473008386D+02
 0.425953621742864D+03 0.514368020742077D+02 -.488370688338468D+00 -.422836262354959D+03
0.974503815955D-05 0.000000000000D+00 0.000000000000D+00 0.785955406336D-07 0.000000000000D+00  7 1 -1 23 -13 13 23 21 0 0.25470283D-01 0.10134631D+00 0.45710460D+05 0.45710460D+05 0.45710460D+05 0.11507376D+01  1  2  2  2  7  2       -1 0.231554335518D-03 0.100000000000D+01
-.416954035552D-06 0.000000000000D+00 -.374235124601D-07 0.785955406336D-07 0.000000000000D+00  7 1 -1 23 -13 13 23 21 2 0.25470283D-01 0.10134631D+00 0.45710460D+05 0.45710460D+05 0.45710460D+05 0.11507376D+01  1  2  3  2  7  2       -1 -.131192858217D-04 0.100000000000D+01
0.586324604199D-06 0.000000000000D+00 0.000000000000D+00 0.785955406336D-07 0.000000000000D+00  7 1 -1 23 -13 13 23 21 2 0.25470283D-01 0.10134631D+00 0.45710460D+05 0.45710460D+05 0.45710460D+05 0.11507376D+01  1  2 15  2  7  2       -1 0.184484605278D-04 0.100000000000D+01
0.163746022363D-03 0.000000000000D+00 0.000000000000D+00 0.785955406336D-07 0.000000000000D+00  7 1 -1 23 -13 13 23 21 2 0.25470283D-01 0.23173894D+00 0.56187089D+05 0.56187089D+05 0.56187089D+05 0.11428653D+01  1  2 12  2  7  2       -1 0.428083213611D-03 0.100000000000D+01
-.165116194067D-03 0.000000000000D+00 -.280114693809D-05 0.785955406336D-07 0.000000000000D+00  7 1 -1 23 -13 13 23 21 2 0.25470283D-01 0.23233102D+00 0.45710460D+05 0.45710460D+05 0.45710460D+05 0.11507376D+01  1  2  5  2  7  2       -1 -.437579527334D-03 0.100000000000D+01
0.147295796222D-04 0.000000000000D+00 0.000000000000D+00 0.785955406336D-07 0.000000000000D+00  7 1 21 23 -13 13 23 1 2 0.25470283D-01 0.23173894D+00 0.56187089D+05 0.56187089D+05 0.56187089D+05 0.11428653D+01  1  2 12  4  7  2       -1 0.277263305150D-03 0.100000000000D+01
-.147254813887D-04 0.000000000000D+00 -.252819705402D-06 0.785955406336D-07 0.000000000000D+00  7 1 21 23 -13 13 23 1 2 0.25470283D-01 0.23233102D+00 0.45710460D+05 0.45710460D+05 0.45710460D+05 0.11507376D+01  1  2  5  4  7  2       -1 -.283321104035D-03 0.100000000000D+01
  </mgrwgt>
  </event>
  <event>
  8     66 0.25924217E-05 0.36670101E+03 0.75467711E-02 0.94994506E-01
        1 -1    0    0  501    0 0.00000000E+00 0.00000000E+00 0.73621179E+03 0.73621186E+03 0.32000000E+00 0.0000E+00 0.9000E+01
       -1 -1    0    0    0  501 0.00000000E+00 0.00000000E+00 -.19396803E+03 0.19396829E+03 0.32000000E+00 0.0000E+00 0.9000E+01
       25  2    1    2    0    0 -.27311792E+03 0.13454110E+03 0.38724095E+03 0.57657610E+03 0.29964935E+03 0.0000E+00 0.0000E+00
       23  2    3    3    0    0 -.72155685E+02 0.15751793E+03 0.24246913E+03 0.31164613E+03 0.91179454E+02 0.0000E+00 0.0000E+00
       23  1    1    2    0    0 0.27311792E+03 -.13454110E+03 0.15500281E+03 0.35360406E+03 0.91188000E+02 0.0000E+00 0.9000E+01
      -13  1    4    4    0    0 -.33003417E+02 0.15031537E+03 0.17271706E+03 0.23133337E+03 0.10565837E+00 0.0000E+00 0.9000E+01
       13  1    4    4    0    0 -.39152268E+02 0.72025588E+01 0.69752067E+02 0.80312757E+02 0.10565837E+00 0.0000E+00 0.9000E+01
       23  1    3    3    0    0 -.20096223E+03 -.22976829E+02 0.14477183E+03 0.26492997E+03 0.91188000E+02 0.0000E+00 0.9000E+01
#aMCatNLO 1  0  0  2  1 0.20539341D+03 0.00000000D+00  -5  7  0 0.00000000D+00 0.00000000D+00 0.00000000D+00 0.00000000D+00 0.00000000D+00
  <mgrwgt>
 0.3738717729D-03    4    2    0
 0.377891126697394D+03 0.000000000000000D+00 0.000000000000000D+00 0.377891126697394D+03
 0.377891126697394D+03 0.000000000000000D+00 0.000000000000000D+00 -.377891126697394D+03
 0.323990361538479D+03 0.273117918625891D+03 -.134541099512294D+03 -.629269266158625D+02
 0.160796415296665D+03 -.330034084279636D+02 0.150315561544555D+03 0.465992935776895D+02
 0.488005577739412D+02 -.391522761660465D+02 0.720236666626490D+01 0.282262222847846D+02
 0.222194918785704D+03 -.200962234031881D+03 -.229768286985253D+02 -.118985892466116D+02
 0.000000000000000D+00 0.000000000000000D+00 -.000000000000000D+00 0.000000000000000D+00
 0.548966356876309D+03 0.000000000000000D+00 0.000000000000000D+00 0.548966356876309D+03
 0.458615408214356D+03 0.000000000000000D+00 0.000000000000000D+00 -.458615408214356D+03
 0.280307992879661D+03 0.251105312404161D+03 -.569529939275745D+02 -.629269266158625D+02
 0.208375607847851D+03 -.464511339002335D+02 0.197714925949975D+03 0.465992935776895D+02
 0.553576633685362D+02 -.429464183972840D+02 0.205756267462142D+02 0.282262222847846D+02
 0.239153007896158D+03 -.217767625221532D+03 0.362573416164840D+02 -.118985892466116D+02
 0.224387493098460D+03 0.560598651148885D+02 -.197594900385099D+03 0.903509486619530D+02
0.155869111012D-04 0.000000000000D+00 0.000000000000D+00 0.745063029516D-06 0.000000000000D+00  7 1 -1 23 -13 13 23 21 0 0.11326338D+00 0.29841260D-01 0.13446963D+06 0.13446963D+06 0.13446963D+06 0.11113173D+01  1  2  2  2  7  2       -1 0.472952869889D-03 0.100000000000D+01
-.864988184912D-06 0.000000000000D+00 -.598578427567D-07 0.745063029516D-06 0.000000000000D+00  7 1 -1 23 -13 13 23 21 2 0.11326338D+00 0.29841260D-01 0.13446963D+06 0.13446963D+06 0.13446963D+06 0.11113173D+01  1  2  3  2  7  2       -1 -.324148594034D-04 0.100000000000D+01
0.991851553229D-06 0.000000000000D+00 0.000000000000D+00 0.745063029516D-06 0.000000000000D+00  7 1 -1 23 -13 13 23 21 2 0.11326338D+00 0.29841260D-01 0.13446963D+06 0.13446963D+06 0.13446963D+06 0.11113173D+01  1  2 15  2  7  2       -1 0.371689801176D-04 0.100000000000D+01
-.277083529299D-05 0.000000000000D+00 0.000000000000D+00 0.745063029516D-06 0.000000000000D+00  7 1 -1 23 -13 13 23 21 2 0.11326338D+00 0.29841260D-01 0.13446963D+06 0.13446963D+06 0.13446963D+06 0.11113173D+01  1  2  4  2  7  2       -1 -.103835217658D-03 0.100000000000D+01
  </mgrwgt>
  </event>
  <event>
  8     66 0.25924217E-05 0.18649781E+03 0.75467711E-02 0.98143944E-01
        1 -1    0    0  501    0 0.00000000E+00 0.00000000E+00 0.10243474E+03 0.10243524E+03 0.32000000E+00 0.0000E+00 0.9000E+01
       -1 -1    0    0    0  501 0.00000000E+00 0.00000000E+00 -.13554787E+04 0.13554787E+04 0.32000000E+00 0.0000E+00 0.9000E+01
       25  2    1    2    0    0 0.64011738E+02 0.27004412E+03 -.96469198E+03 0.10474466E+04 0.29915292E+03 0.0000E+00 0.0000E+00
       23  2    3    3    0    0 0.40464229E+02 0.50920408E+02 -.60862371E+03 0.61887976E+03 0.91428087E+02 0.0000E+00 0.0000E+00
       23  1    1    2    0    0 -.64011738E+02 -.27004412E+03 -.28835196E+03 0.41046734E+03 0.91188000E+02 0.0000E+00 0.9000E+01
      -13  1    4    4    0    0 0.32840844E+02 -.15880440E+02 -.34075536E+03 0.34270240E+03 0.10565837E+00 0.0000E+00 0.9000E+01
       13  1    4    4    0    0 0.76233849E+01 0.66800848E+02 -.26786835E+03 0.27617736E+03 0.10565837E+00 0.0000E+00 0.9000E+01
       23  1    3    3    0    0 0.23547509E+02 0.21912371E+03 -.35606827E+03 0.42856685E+03 0.91188000E+02 0.0000E+00 0.9000E+01
#aMCatNLO 1  0  0  1  2 0.10459785D+03 0.00000000D+00  -5  7  0 0.00000000D+00 0.00000000D+00 0.00000000D+00 0.00000000D+00 0.00000000D+00
  <mgrwgt>
 0.3298565870D-03    9    2    0
 0.372623796658290D+03 0.000000000000000D+00 0.000000000000000D+00 0.372623796658290D+03
 0.372623796658290D+03 0.000000000000000D+00 0.000000000000000D+00 -.372623796658290D+03
 0.318160542482254D+03 -.640117380636976D+02 -.270044120411258D+03 0.126053757857420D+03
 0.974832808404991D+02 0.328408773404531D+02 -.158805501669643D+02 -.904006357573411D+02
 0.898922783362675D+02 0.762335125429637D+01 0.668009579283078D+02 -.596668940032834D+02
 0.239711491657558D+03 0.235475094689481D+02 0.219123712649914D+03 0.240137719032049D+02
 0.000000000000000D+00 0.000000000000000D+00 0.000000000000000D+00 0.000000000000000D+00
 0.485665110779105D+03 0.000000000000000D+00 0.000000000000000D+00 0.485665110779105D+03
 0.401280181940998D+03 0.000000000000000D+00 0.000000000000000D+00 -.401280181940998D+03
 0.341391536052782D+03 -.107878010000790D+03 -.284087512278823D+03 0.126053757857420D+03
 0.947284932375464D+02 0.200570286867631D+02 -.199731841723539D+02 -.904006357573411D+02
 0.868957039790859D+02 -.413467356260710D+01 0.630367321849137D+02 -.596668940032834D+02
 0.229536381480218D+03 -.766178465485264D+01 0.209132338230881D+03 0.240137719032049D+02
 0.134393177970471D+03 0.996174395314869D+02 0.318916260353819D+02 0.843849288381076D+02
0.496884585767D-04 0.000000000000D+00 0.000000000000D+00 0.255260610006D-06 0.000000000000D+00  7 1 -1 23 -13 13 23 21 0 0.15759232D-01 0.20853522D+00 0.10059789D+06 0.10059789D+06 0.10059789D+06 0.11215097D+01  1  2  2  1  7  1        1 0.277668975147D-03 0.100000000000D+01
-.267333423174D-05 0.000000000000D+00 -.190816764206D-06 0.255260610006D-06 0.000000000000D+00  7 1 -1 23 -13 13 23 21 2 0.15759232D-01 0.20853522D+00 0.10059789D+06 0.10059789D+06 0.10059789D+06 0.11215097D+01  1  2  3  1  7  1        1 -.187901882048D-04 0.100000000000D+01
0.314715708868D-05 0.000000000000D+00 0.000000000000D+00 0.255260610006D-06 0.000000000000D+00  7 1 -1 23 -13 13 23 21 2 0.15759232D-01 0.20853522D+00 0.10059789D+06 0.10059789D+06 0.10059789D+06 0.11215097D+01  1  2 15  1  7  1        1 0.221205688777D-04 0.100000000000D+01
0.547521061978D-04 0.000000000000D+00 0.000000000000D+00 0.255260610006D-06 0.000000000000D+00  7 1 -1 23 -13 13 23 21 2 0.21007934D-01 0.20853522D+00 0.13750004D+06 0.13750004D+06 0.13750004D+06 0.11105463D+01  1  2 12  1  7  1        1 0.255465867606D-03 0.100000000000D+01
-.606168227201D-04 0.000000000000D+00 0.000000000000D+00 0.255260610006D-06 0.000000000000D+00  7 1 -1 23 -13 13 23 21 2 0.15759232D-01 0.20853522D+00 0.10059789D+06 0.10059789D+06 0.10059789D+06 0.11215097D+01  1  2  4  1  7  1        1 -.426060271014D-03 0.100000000000D+01
-.847380244584D-04 0.000000000000D+00 -.249296802442D-04 0.255260610006D-06 0.000000000000D+00  7 1 -1 23 -13 13 23 21 2 0.22090524D-01 0.20853522D+00 0.10059789D+06 0.10059789D+06 0.10059789D+06 0.11215097D+01  1  2  5  1  7  1        1 -.382787650155D-03 0.100000000000D+01
0.893692671218D-04 0.000000000000D+00 0.235725536527D-04 0.255260610006D-06 0.000000000000D+00  7 1 -1 23 -13 13 23 21 2 0.15759232D-01 0.20853522D+00 0.10059789D+06 0.10059789D+06 0.10059789D+06 0.11215097D+01  1  2  6  1  7  1        1 0.628153909453D-03 0.100000000000D+01
0.205212645634D-05 0.000000000000D+00 0.000000000000D+00 0.255260610006D-06 0.000000000000D+00  7 21 -1 23 -13 13 23 -1 2 0.21007934D-01 0.20853522D+00 0.13750004D+06 0.13750004D+06 0.13750004D+06 0.11105463D+01  1  2 12  3  7  1        1 0.764067448981D-04 0.100000000000D+01
-.289854770708D-05 0.000000000000D+00 -.104955853079D-05 0.255260610006D-06 0.000000000000D+00  7 21 -1 23 -13 13 23 -1 2 0.22090524D-01 0.20853522D+00 0.10059789D+06 0.10059789D+06 0.10059789D+06 0.11215097D+01  1  2  5  3  7  1        1 -.102321369625D-03 0.100000000000D+01
  </mgrwgt>
  </event>
  <event>
  8     66 0.25924217E-05 0.87234028E+02 0.75467711E-02 0.10794646E+00
        1 -1    0    0  501    0 0.00000000E+00 0.00000000E+00 0.96162665E+03 0.96162670E+03 0.32000000E+00 0.0000E+00 0.9000E+01
       -1 -1    0    0    0  501 0.00000000E+00 0.00000000E+00 -.22146430E+03 0.22146453E+03 0.32000000E+00 0.0000E+00 0.9000E+01
       25  2    1    2    0    0 0.10851934E+02 0.11392938E+03 0.90629231E+03 0.96170450E+03 0.30068612E+03 0.0000E+00 0.0000E+00
       23  2    3    3    0    0 -.91431014E+01 0.58335078E+02 0.79266262E+03 0.80448655E+03 0.12408870E+03 0.0000E+00 0.0000E+00
       23  1    1    2    0    0 -.10851934E+02 -.11392938E+03 -.16612996E+03 0.22138673E+03 0.91188000E+02 0.0000E+00 0.9000E+01
      -13  1    4    4    0    0 0.83179561E+01 0.48347486E+02 0.77811868E+03 0.77966362E+03 0.10565837E+00 0.0000E+00 0.9000E+01
       13  1    4    4    0    0 -.17461058E+02 0.99875923E+01 0.14543936E+02 0.24822929E+02 0.10565837E+00 0.0000E+00 0.9000E+01
       23  1    3    3    0    0 0.19995035E+02 0.55594303E+02 0.11362969E+03 0.15721795E+03 0.91188000E+02 0.0000E+00 0.9000E+01
#aMCatNLO 1  0  0  2  1 0.30996855D+02 0.00000000D+00  -5  7  0 0.00000000D+00 0.00000000D+00 0.00000000D+00 0.00000000D+00 0.00000000D+00
  <mgrwgt>
 0.5502868927D-03    9    2    0
 0.461482546512779D+03 0.000000000000000D+00 0.000000000000000D+00 0.461482546512779D+03
 0.461482546512779D+03 0.000000000000000D+00 0.000000000000000D+00 -.461482546512779D+03
 0.417008009743041D+03 -.108519339755064D+02 -.113929381618704D+03 -.390490410098408D+03
 0.375398058624243D+03 0.831792829319755D+01 0.483474957811552D+02 0.372178766373703D+03
 0.201553073972347D+02 -.174610498066300D+02 0.998754534392282D+01 -.126376181715452D+01
 0.110403717261038D+03 0.199950554889388D+02 0.555943404936265D+02 0.195754055418596D+02
 0.000000000000000D+00 -.000000000000000D+00 0.000000000000000D+00 -.000000000000000D+00
 0.475239740386010D+03 0.000000000000000D+00 0.000000000000000D+00 0.475239740386010D+03
 0.479539339836982D+03 0.000000000000000D+00 0.000000000000000D+00 -.479539339836982D+03
 0.417532770918601D+03 0.295482344928680D+01 -.116305081946258D+03 -.390490410098408D+03
 0.375609664569810D+03 0.207427033294346D+02 0.462095903182580D+02 0.372178766373703D+03
 0.195318723099606D+02 -.168044596485589D+02 0.987456722707718D+01 -.126376181715452D+01
 0.110811137655585D+03 0.236548644657670D+02 0.549646046970506D+02 0.195754055418596D+02
 0.312936347690341D+02 -.305479315959296D+02 0.525631970387175D+01 -.429959945097230D+01
0.189741373305D-04 0.000000000000D+00 0.000000000000D+00 0.193234286644D-08 0.000000000000D+00  7 1 -1 23 -13 13 23 21 0 0.14794258D+00 0.34071453D-01 0.26269833D+05 0.26269833D+05 0.26269833D+05 0.11727242D+01  1  2  2  2  7  2       -1 0.312252263163D-03 0.100000000000D+01
0.349114799574D-06 0.000000000000D+00 -.728656833541D-07 0.193234286644D-08 0.000000000000D+00  7 1 -1 23 -13 13 23 21 2 0.14794258D+00 0.34071453D-01 0.26269833D+05 0.26269833D+05 0.26269833D+05 0.11727242D+01  1  2  3  2  7  2       -1 0.790139130388D-05 0.100000000000D+01
0.115951839673D-05 0.000000000000D+00 0.000000000000D+00 0.193234286644D-08 0.000000000000D+00  7 1 -1 23 -13 13 23 21 2 0.14794258D+00 0.34071453D-01 0.26269833D+05 0.26269833D+05 0.26269833D+05 0.11727242D+01  1  2 15  2  7  2       -1 0.262429681808D-04 0.100000000000D+01
0.421215413958D-04 0.000000000000D+00 0.000000000000D+00 0.193234286644D-08 0.000000000000D+00  7 1 -1 23 -13 13 23 21 2 0.14794258D+00 0.35895023D-01 0.32046037D+05 0.32046037D+05 0.32046037D+05 0.11646867D+01  1  2 12  2  7  2       -1 0.857321784374D-03 0.100000000000D+01
-.359385113874D-04 0.000000000000D+00 0.000000000000D+00 0.193234286644D-08 0.000000000000D+00  7 1 -1 23 -13 13 23 21 2 0.14794258D+00 0.34071453D-01 0.26269833D+05 0.26269833D+05 0.26269833D+05 0.11727242D+01  1  2  4  2  7  2       -1 -.813383568090D-03 0.100000000000D+01
-.142764777538D-03 0.000000000000D+00 -.377181596636D-04 0.193234286644D-08 0.000000000000D+00  7 1 -1 23 -13 13 23 21 2 0.14794258D+00 0.36415446D-01 0.26269833D+05 0.26269833D+05 0.26269833D+05 0.11727242D+01  1  2  5  2  7  2       -1 -.289124115601D-02 0.100000000000D+01
0.145036482686D-03 0.000000000000D+00 0.376348306161D-04 0.193234286644D-08 0.000000000000D+00  7 1 -1 23 -13 13 23 21 2 0.14794258D+00 0.34071453D-01 0.26269833D+05 0.26269833D+05 0.26269833D+05 0.11727242D+01  1  2  6  2  7  2       -1 0.328255921675D-02 0.100000000000D+01
0.487121265323D-06 0.000000000000D+00 0.000000000000D+00 0.193234286644D-08 0.000000000000D+00  7 1 21 23 -13 13 23 1 2 0.14794258D+00 0.35895023D-01 0.32046037D+05 0.32046037D+05 0.32046037D+05 0.11646867D+01  1  2 12  4  7  2       -1 0.105808119346D-03 0.100000000000D+01
-.155864369052D-05 0.000000000000D+00 -.426989927764D-06 0.193234286644D-08 0.000000000000D+00  7 1 21 23 -13 13 23 1 2 0.14794258D+00 0.36415446D-01 0.26269833D+05 0.26269833D+05 0.26269833D+05 0.11727242D+01  1  2  5  4  7  2       -1 -.337174126304D-03 0.100000000000D+01
  </mgrwgt>
  </event>
  <event>
  8     66 0.25924217E-05 0.31476094E+03 0.75467711E-02 0.99532034E-01
        3 -1    0    0  501    0 0.00000000E+00 0.00000000E+00 0.11504098E+03 0.11504207E+03 0.50000000E+00 0.0000E+00 0.9000E+01
       -3 -1    0    0    0  501 0.00000000E+00 0.00000000E+00 -.10836116E+04 0.10836117E+04 0.50000000E+00 0.0000E+00 0.9000E+01
       25  2    1    2    0    0 -.11577306E+03 0.22986389E+03 -.37429972E+03 0.54465535E+03 0.30051349E+03 0.0000E+00 0.0000E+00
       23  2    3    3    0    0 -.10311724E+03 0.23814734E+03 -.18172151E+03 0.33104261E+03 0.96016548E+02 0.0000E+00 0.0000E+00
       23  1    1    2    0    0 0.11577306E+03 -.22986389E+03 -.59427091E+03 0.65399845E+03 0.91188000E+02 0.0000E+00 0.9000E+01
      -11  1    4    4    0    0 -.10815199E+03 0.23278918E+03 -.19045523E+03 0.31962611E+03 0.51099893E-03 0.0000E+00 0.9000E+01
       11  1    4    4    0    0 0.50347514E+01 0.53581648E+01 0.87337162E+01 0.11416499E+02 0.51099893E-03 0.0000E+00 0.9000E+01
       23  1    3    3    0    0 -.12655821E+02 -.82834566E+01 -.19257821E+03 0.21361274E+03 0.91188000E+02 0.0000E+00 0.9000E+01
#aMCatNLO 1  0  0  1  2 0.32346128D+02 0.00000000D+00  -5  7  0 0.00000000D+00 0.00000000D+00 0.00000000D+00 0.00000000D+00 0.00000000D+00
  <mgrwgt>
 0.6226046688D-04    4    2    0
 0.353072891373506D+03 0.000000000000000D+00 0.000000000000000D+00 0.353072891373506D+03
 0.353072891373506D+03 0.000000000000000D+00 0.000000000000000D+00 -.353072891373506D+03
 0.295016106331054D+03 0.115773064375867D+03 -.229863886949470D+03 -.111706950062378D+03
 0.281318268913313D+03 -.108151994699134D+03 0.232789178773500D+03 0.115118689676963D+03
 0.313584695539844D+02 0.503475135820366D+01 0.535816483443664D+01 0.304843396047256D+02
 0.984529379486606D+02 -.126558210349365D+02 -.828345665846636D+01 -.338960792193106D+02
 0.000000000000000D+00 -.000000000000000D+00 0.000000000000000D+00 -.000000000000000D+00
 0.358490970459695D+03 0.000000000000000D+00 0.000000000000000D+00 0.358490970459695D+03
 0.405260748941518D+03 0.000000000000000D+00 0.000000000000000D+00 -.405260748941518D+03
 0.303651613205840D+03 0.128791931009833D+03 -.234143645382549D+03 -.111706950062378D+03
 0.273576878901397D+03 -.960850238412045D+02 0.228822341894151D+03 0.115118689676963D+03
 0.315337922773295D+02 0.640243152930717D+01 0.490856035575159D+01 0.304843396047256D+02
 0.981239430186331D+02 -.838098189944084D+01 -.968874633187460D+01 -.338960792193106D+02
 0.568654919980137D+02 -.307283567984949D+02 0.101014894645203D+02 -.467697784818224D+02
0.378924162955D-04 0.000000000000D+00 0.000000000000D+00 0.307474777704D-07 0.000000000000D+00  7 3 -3 23 -11 11 23 21 0 0.17698705D-01 0.16670957D+00 0.99074450D+05 0.99074450D+05 0.99074450D+05 0.11220536D+01  1  2  2  1  7  1        3 0.779749721634D-04 0.100000000000D+01
-.207136609595D-05 0.000000000000D+00 -.145516855877D-06 0.307474777704D-07 0.000000000000D+00  7 3 -3 23 -11 11 23 21 2 0.17698705D-01 0.16670957D+00 0.99074450D+05 0.99074450D+05 0.99074450D+05 0.11220536D+01  1  2  3  1  7  1        3 -.536644877505D-05 0.100000000000D+01
0.239658264916D-05 0.000000000000D+00 0.000000000000D+00 0.307474777704D-07 0.000000000000D+00  7 3 -3 23 -11 11 23 21 2 0.17698705D-01 0.16670957D+00 0.99074450D+05 0.99074450D+05 0.99074450D+05 0.11220536D+01  1  2 15  1  7  1        3 0.620901251932D-05 0.100000000000D+01
-.639077216006D-05 0.000000000000D+00 0.000000000000D+00 0.307474777704D-07 0.000000000000D+00  7 3 -3 23 -11 11 23 21 2 0.17698705D-01 0.16670957D+00 0.99074450D+05 0.99074450D+05 0.99074450D+05 0.11220536D+01  1  2  4  1  7  1        3 -.165570690266D-04 0.100000000000D+01
  </mgrwgt>
  </event>
  <event>
  8     66 0.25924217E-05 0.26313435E+03 0.75467711E-02 0.95235549E-01
        1 -1    0    0  501    0 0.00000000E+00 0.00000000E+00 0.21072208E+04 0.21072209E+04 0.32000000E+00 0.0000E+00 0.9000E+01
       -1 -1    0    0    0  501 0.00000000E+00 0.00000000E+00 -.62487327E+02 0.62488146E+02 0.32000000E+00 0.0000E+00 0.9000E+01
       25  2    1    2    0    0 0.13843053E+03 -.19215691E+03 0.16957853E+04 0.17382378E+04 0.29949231E+03 0.0000E+00 0.0000E+00
       23  2    3    3    0    0 0.74203449E+02 -.65182494E+02 0.13130410E+04 0.13198408E+04 0.90266999E+02 0.0000E+00 0.0000E+00
       23  1    1    2    0    0 -.13843053E+03 0.19215691E+03 0.34894826E+03 0.43147124E+03 0.91188000E+02 0.0000E+00 0.9000E+01
      -13  1    4    4    0    0 -.22685052E+01 -.71117445E+01 0.68713167E+01 0.10146388E+02 0.10565837E+00 0.0000E+00 0.9000E+01
       13  1    4    4    0    0 0.76471954E+02 -.58070750E+02 0.13061697E+04 0.13096944E+04 0.10565837E+00 0.0000E+00 0.9000E+01
       23  1    3    3    0    0 0.64227084E+02 -.12697441E+03 0.38274421E+03 0.41839694E+03 0.91188000E+02 0.0000E+00 0.9000E+01
#aMCatNLO 1  0  0  1  1 0.31718704D+03 0.00000000D+00  -5  7  0 0.00000000D+00 0.00000000D+00 0.00000000D+00 0.00000000D+00 0.00000000D+00
  <mgrwgt>
 0.4603880509D-03    5    2    0
 0.362871207377000D+03 0.000000000000000D+00 0.000000000000000D+00 0.362871207377000D+03
 0.362871207377000D+03 0.000000000000000D+00 0.000000000000000D+00 -.362871207377000D+03
 0.306804211893883D+03 -.138430533011046D+03 0.192156905769274D+03 -.172413120693533D+03
 0.109742435140259D+02 -.226861309303767D+01 -.711167469321010D+01 -.804434574077919D+01
 0.235465150421649D+03 0.764720620916233D+02 -.580708195905581D+02 0.214996838801471D+03
 0.172498808924443D+03 0.642270840124599D+02 -.126974411485506D+03 -.345393723671584D+02
 0.000000000000000D+00 -.000000000000000D+00 -.000000000000000D+00 0.000000000000000D+00
 0.110043924694449D+04 0.000000000000000D+00 0.000000000000000D+00 0.110043924694449D+04
 0.431720006892280D+03 0.000000000000000D+00 0.000000000000000D+00 -.431720006892280D+03
 0.289134177572545D+03 -.156243251324584D+02 0.212868310402051D+03 -.172413120693533D+03
 0.104819957118445D+02 0.215291675172386D+01 -.636597872805747D+01 -.804434574077919D+01
 0.285707685781421D+03 0.183871183871196D+03 -.399578373007637D+02 0.214996838801471D+03
 0.206704973314684D+03 0.142370360789275D+03 -.113795460253205D+03 -.345393723671584D+02
 0.740130421456276D+03 -.312770136279736D+03 -.527490341200256D+02 0.668719240052209D+03
0.222154544429D-04 0.000000000000D+00 0.000000000000D+00 0.442743263570D-06 0.000000000000D+00  7 1 -1 23 -13 13 23 21 0 0.32418789D+00 0.96134998D-02 0.69239685D+05 0.69239685D+05 0.69239685D+05 0.11350630D+01  1  2  2  1  7  1        1 0.452341011878D-03 0.100000000000D+01
-.107919942704D-05 0.000000000000D+00 -.853131945243D-07 0.442743263570D-06 0.000000000000D+00  7 1 -1 23 -13 13 23 21 2 0.32418789D+00 0.96134998D-02 0.69239685D+05 0.69239685D+05 0.69239685D+05 0.11350630D+01  1  2  3  1  7  1        1 -.283108190508D-04 0.100000000000D+01
0.138595804316D-05 0.000000000000D+00 0.000000000000D+00 0.442743263570D-06 0.000000000000D+00  7 1 -1 23 -13 13 23 21 2 0.32418789D+00 0.96134998D-02 0.69239685D+05 0.69239685D+05 0.69239685D+05 0.11350630D+01  1  2 15  1  7  1        1 0.363580691285D-04 0.100000000000D+01
-.120591927122D-04 0.000000000000D+00 -.520375402564D-05 0.442743263570D-06 0.000000000000D+00  7 1 -1 23 -13 13 23 21 2 0.98402629D+00 0.96134998D-02 0.69239685D+05 0.69239685D+05 0.69239685D+05 0.11350630D+01  1  2  5  1  7  1        1 -.210827336020D-09 0.100000000000D+01
-.127257695675D-05 0.000000000000D+00 -.658867880088D-06 0.442743263570D-06 0.000000000000D+00  7 21 -1 23 -13 13 23 -1 2 0.98402629D+00 0.96134998D-02 0.69239685D+05 0.69239685D+05 0.69239685D+05 0.11350630D+01  1  2  5  3  7  1        1 -.187909696866D-12 0.100000000000D+01
  </mgrwgt>
  </event>
  <event>
  8     66 0.25924217E-05 0.19794615E+03 0.75467711E-02 0.98096757E-01
        1 -1    0    0  501    0 0.00000000E+00 0.00000000E+00 0.54344671E+03 0.54344681E+03 0.32000000E+00 0.0000E+00 0.9000E+01
       -1 -1    0    0    0  501 0.00000000E+00 0.00000000E+00 -.11059789E+03 0.11059835E+03 0.32000000E+00 0.0000E+00 0.9000E+01
       25  2    1    2    0    0 0.59661024E+02 -.71168148E+02 0.41803818E+03 0.52305298E+03 0.30034008E+03 0.0000E+00 0.0000E+00
       23  2    3    3    0    0 0.44772881E+02 -.14215394E+03 0.34432105E+03 0.38517585E+03 0.87126867E+02 0.0000E+00 0.0000E+00
       23  1    1    2    0    0 -.59661024E+02 0.71168148E+02 0.14810644E+02 0.13099217E+03 0.91188000E+02 0.0000E+00 0.9000E+01
      -13  1    4    4    0    0 0.11993902E+02 -.49866658E+02 0.38713908E+02 0.64259747E+02 0.10565837E+00 0.0000E+00 0.9000E+01
       13  1    4    4    0    0 0.32778979E+02 -.92287281E+02 0.30560715E+03 0.32091610E+03 0.10565837E+00 0.0000E+00 0.9000E+01
       23  1    3    3    0    0 0.14888142E+02 0.70985791E+02 0.73717125E+02 0.13787714E+03 0.91188000E+02 0.0000E+00 0.9000E+01
#aMCatNLO 1  0  0  2  1 0.26325182D+03 0.00000000D+00  -5  7  0 0.00000000D+00 0.00000000D+00 0.00000000D+00 0.00000000D+00 0.00000000D+00
  <mgrwgt>
 0.3050186993D-03    5    2    0
 0.245161663690130D+03 0.000000000000000D+00 0.000000000000000D+00 0.245161663690130D+03
 0.245161663690130D+03 0.000000000000000D+00 0.000000000000000D+00 -.245161663690130D+03
 0.161656654941507D+03 -.596610256630309D+02 0.711681501466608D+02 -.958815892881156D+02
 0.515403367652774D+02 0.119938716659136D+02 -.498665945560849D+02 -.508685597583047D+01
 0.158287398919408D+03 0.327790106594043D+02 -.922873442978134D+02 0.124352254500348D+03
 0.118838936754068D+03 0.148881433377130D+02 0.709857887072375D+02 -.233838092364015D+02
 0.000000000000000D+00 0.000000000000000D+00 0.000000000000000D+00 -.000000000000000D+00
 0.381512490871740D+03 0.000000000000000D+00 0.000000000000000D+00 0.381512490871740D+03
 0.446060929520971D+03 0.000000000000000D+00 0.000000000000000D+00 -.446060929520971D+03
 0.147906630276562D+03 -.657753607486096D+02 -.643759968801126D+01 -.958815892881156D+02
 0.846835788903573D+02 0.930324681871505D+01 -.840171531807082D+02 -.508685597583047D+01
 0.227671526667344D+03 0.251557481053682D+02 -.189045045407118D+03 0.124352254500348D+03
 0.962618352976971D+02 0.106395833168931D+02 0.170612521029215D+02 -.233838092364015D+02
 0.271049849260750D+03 0.206767825076332D+02 0.262438546172916D+03 -.645484386492318D+02
0.229159471706D-05 0.000000000000D+00 0.000000000000D+00 0.184873344038D-07 0.000000000000D+00  7 1 -1 23 -13 13 23 21 0 0.83607229D-01 0.17015103D-01 0.39182678D+05 0.39182678D+05 0.39182678D+05 0.11567263D+01  1  2  2  2  7  2       -1 0.270348911408D-03 0.100000000000D+01
-.120227103073D-06 0.000000000000D+00 -.880032710427D-08 0.184873344038D-07 0.000000000000D+00  7 1 -1 23 -13 13 23 21 2 0.83607229D-01 0.17015103D-01 0.39182678D+05 0.39182678D+05 0.39182678D+05 0.11567263D+01  1  2  3  2  7  2       -1 -.189779982446D-04 0.100000000000D+01
0.146333424333D-06 0.000000000000D+00 0.000000000000D+00 0.184873344038D-07 0.000000000000D+00  7 1 -1 23 -13 13 23 21 2 0.83607229D-01 0.17015103D-01 0.39182678D+05 0.39182678D+05 0.39182678D+05 0.11567263D+01  1  2 15  2  7  2       -1 0.230989136322D-04 0.100000000000D+01
0.299569068522D-06 0.000000000000D+00 -.729474987999D-06 0.184873344038D-07 0.000000000000D+00  7 1 -1 23 -13 13 23 21 2 0.83607229D-01 0.47137680D-01 0.39182678D+05 0.39182678D+05 0.39182678D+05 0.11567263D+01  1  2  5  2  7  2       -1 0.884559754210D-05 0.100000000000D+01
0.754632175598D-07 0.000000000000D+00 -.833083706207D-07 0.184873344038D-07 0.000000000000D+00  7 1 21 23 -13 13 23 1 2 0.83607229D-01 0.47137680D-01 0.39182678D+05 0.39182678D+05 0.39182678D+05 0.11567263D+01  1  2  5  4  7  2       -1 0.217032749284D-04 0.100000000000D+01
  </mgrwgt>
  </event>
  <event>
  8     66 0.25924217E-05 0.19813364E+03 0.75467711E-02 0.97634397E-01
        1 -1    0    0  501    0 0.00000000E+00 0.00000000E+00 0.12691907E+03 0.12691947E+03 0.32000000E+00 0.0000E+00 0.9000E+01
       -1 -1    0    0    0  501 0.00000000E+00 0.00000000E+00 -.12291455E+04 0.12291456E+04 0.32000000E+00 0.0000E+00 0.9000E+01
       25  2    1    2    0    0 -.17310645E+02 0.31735506E+03 -.46889423E+03 0.64161500E+03 0.30132063E+03 0.0000E+00 0.0000E+00
       23  2    3    3    0    0 -.10117991E+03 0.25947687E+03 -.27171389E+03 0.40165818E+03 0.99675662E+02 0.0000E+00 0.0000E+00
       23  1    1    2    0    0 0.17310645E+02 -.31735506E+03 -.63333224E+03 0.71445005E+03 0.91188000E+02 0.0000E+00 0.9000E+01
      -13  1    4    4    0    0 -.10610886E+03 0.26659025E+03 -.26619162E+03 0.39139167E+03 0.10565837E+00 0.0000E+00 0.9000E+01
       13  1    4    4    0    0 0.49289459E+01 -.71133784E+01 -.55222726E+01 0.10266514E+02 0.10565837E+00 0.0000E+00 0.9000E+01
       23  1    3    3    0    0 0.83869265E+02 0.57878189E+02 -.19718034E+03 0.23995682E+03 0.91188000E+02 0.0000E+00 0.9000E+01
#aMCatNLO 1  0  0  2  1 0.10361358D+02 0.00000000D+00  -5  7  0 0.00000000D+00 0.00000000D+00 0.00000000D+00 0.00000000D+00 0.00000000D+00
  <mgrwgt>
 0.9229117111D-03    9    2    0
 0.394971276991118D+03 0.000000000000000D+00 0.000000000000000D+00 0.394971276991118D+03
 0.394971276991118D+03 0.000000000000000D+00 0.000000000000000D+00 -.394971276991118D+03
 0.342765663931409D+03 0.173106454742875D+02 -.317355061670994D+03 -.903280433276548D+02
 0.300464096730249D+03 -.106108984613470D+03 0.266590553789590D+03 0.891573521274740D+02
 0.991844926195004D+01 0.492906769264507D+01 -.711368233568408D+01 0.484514716702975D+01
 0.136794344058629D+03 0.838692714465371D+02 0.578781902170879D+02 -.367445596684890D+01
 0.000000000000000D+00 -.000000000000000D+00 -.000000000000000D+00 -.000000000000000D+00
 0.398956463264663D+03 0.000000000000000D+00 0.000000000000000D+00 0.398956463264663D+03
 0.401797962469262D+03 0.000000000000000D+00 0.000000000000000D+00 -.401797962469262D+03
 0.339738632989880D+03 0.201711051077477D+02 -.313912501358519D+03 -.903280433276548D+02
 0.302289960310776D+03 -.103582768065314D+03 0.269630852882670D+03 0.891573521274740D+02
 0.988885477914300D+01 0.501208254531750D+01 -.701377404338968D+01 0.484514716702975D+01
 0.138093055856598D+03 0.850213584220350D+02 0.592647257416501D+02 -.367445596684890D+01
 0.107439217975267D+02 -.662177800978668D+01 -.796930322241155D+01 -.284149920459898D+01
0.398040397149D-04 0.000000000000D+00 0.000000000000D+00 0.406149884820D-08 0.000000000000D+00  7 1 -1 23 -13 13 23 21 0 0.19526045D-01 0.18909935D+00 0.14553480D+06 0.14553480D+06 0.14553480D+06 0.11085891D+01  1  2  2  2  7  2       -1 0.236883735877D-03 0.100000000000D+01
-.220809296256D-05 0.000000000000D+00 -.152857993150D-06 0.406149884820D-08 0.000000000000D+00  7 1 -1 23 -13 13 23 21 2 0.19526045D-01 0.18909935D+00 0.14553480D+06 0.14553480D+06 0.14553480D+06 0.11085891D+01  1  2  3  2  7  2       -1 -.161497813400D-04 0.100000000000D+01
0.254933811902D-05 0.000000000000D+00 0.000000000000D+00 0.406149884820D-08 0.000000000000D+00  7 1 -1 23 -13 13 23 21 2 0.19526045D-01 0.18909935D+00 0.14553480D+06 0.14553480D+06 0.14553480D+06 0.11085891D+01  1  2 15  2  7  2       -1 0.186456158694D-04 0.100000000000D+01
0.361141992694D-04 0.000000000000D+00 0.000000000000D+00 0.406149884820D-08 0.000000000000D+00  7 1 -1 23 -13 13 23 21 2 0.19526045D-01 0.19330863D+00 0.14952896D+06 0.14952896D+06 0.14952896D+06 0.11076597D+01  1  2 12  2  7  2       -1 0.243678501873D-03 0.100000000000D+01
-.324273679446D-04 0.000000000000D+00 0.000000000000D+00 0.406149884820D-08 0.000000000000D+00  7 1 -1 23 -13 13 23 21 2 0.19526045D-01 0.18909935D+00 0.14553480D+06 0.14553480D+06 0.14553480D+06 0.11085891D+01  1  2  4  2  7  2       -1 -.237170676514D-03 0.100000000000D+01
-.149976220704D-02 0.000000000000D+00 -.185015597140D-03 0.406149884820D-08 0.000000000000D+00  7 1 -1 23 -13 13 23 21 2 0.19526045D-01 0.19356395D+00 0.14553480D+06 0.14553480D+06 0.14553480D+06 0.11085891D+01  1  2  5  2  7  2       -1 -.100994112248D-01 0.100000000000D+01
0.150372054951D-02 0.000000000000D+00 0.184965234179D-03 0.406149884820D-08 0.000000000000D+00  7 1 -1 23 -13 13 23 21 2 0.19526045D-01 0.18909935D+00 0.14553480D+06 0.14553480D+06 0.14553480D+06 0.11085891D+01  1  2  6  2  7  2       -1 0.109980686877D-01 0.100000000000D+01
0.121952537368D-05 0.000000000000D+00 0.000000000000D+00 0.406149884820D-08 0.000000000000D+00  7 1 21 23 -13 13 23 1 2 0.19526045D-01 0.19330863D+00 0.14952896D+06 0.14952896D+06 0.14952896D+06 0.11076597D+01  1  2 12  4  7  2       -1 0.532421358859D-04 0.100000000000D+01
-.630159104318D-05 0.000000000000D+00 -.781910961985D-06 0.406149884820D-08 0.000000000000D+00  7 1 21 23 -13 13 23 1 2 0.19526045D-01 0.19356395D+00 0.14553480D+06 0.14553480D+06 0.14553480D+06 0.11085891D+01  1  2  5  4  7  2       -1 -.274875283377D-03 0.100000000000D+01
  </mgrwgt>
  </event>
  <event>
  9     66 0.25924217E-05 0.25124129E+03 0.75467711E-02 0.98996055E-01
        1 -1    0    0  502    0 0.00000000E+00 0.00000000E+00 0.14785249E+04 0.14785250E+04 0.32000000E+00 0.0000E+00 0.9000E+01
       -1 -1    0    0    0  501 0.00000000E+00 0.00000000E+00 -.19628792E+03 0.19628818E+03 0.32000000E+00 0.0000E+00 0.9000E+01
       25  2    1    2    0    0 -.14241184E+03 0.16122991E+03 0.17241753E+03 0.40420296E+03 0.29559434E+03 0.0000E+00 0.0000E+00
       23  2    3    3    0    0 -.87153077E+02 0.19084372E+03 0.40608081E+02 0.23209982E+03 0.90577736E+02 0.0000E+00 0.0000E+00
       23  1    1    2    0    0 -.20378396E+02 -.17748512E+03 0.61777890E+02 0.20987617E+03 0.91188000E+02 0.0000E+00 0.9000E+01
      -13  1    4    4    0    0 -.13594599E+02 0.97256984E+02 -.17319272E+02 0.99718114E+02 0.10565837E+00 0.0000E+00 0.9000E+01
       13  1    4    4    0    0 -.73558478E+02 0.93586738E+02 0.57927353E+02 0.13238171E+03 0.10565837E+00 0.0000E+00 0.9000E+01
       23  1    3    3    0    0 -.55258765E+02 -.29613817E+02 0.13180945E+03 0.17210314E+03 0.91188000E+02 0.0000E+00 0.9000E+01
       21  1    1    2  502  501 0.16279024E+03 0.16255214E+02 0.10480416E+04 0.10607340E+04 0.75000000E+00 0.0000E+00 0.9000E+01
#aMCatNLO 2  0  0  1  2 0.16359980D+03 0.00000000D+00  -5  7  0 0.00000000D+00 0.00000000D+00 0.00000000D+00 0.00000000D+00 0.00000000D+00
  <mgrwgt>
 0.2424609318D-03    2    2    0
 0.271790723696936D+03 0.000000000000000D+00 0.000000000000000D+00 0.271790723696936D+03
 0.271790723696936D+03 0.000000000000000D+00 0.000000000000000D+00 -.271790723696936D+03
 0.199068630987298D+03 0.383092767974125D+02 -.171624939224854D+03 -.197572277023248D+02
 0.118949572975837D+03 0.206798630827091D+02 0.100679412723961D+03 -.598748697499450D+02
 0.105362653768131D+03 -.406460274520065D+02 0.968731728859380D+02 0.804845553164875D+01
 0.120200589662606D+03 -.183431124281151D+02 -.259276463850445D+02 0.715836419206211D+02
 0.000000000000000D+00 0.000000000000000D+00 0.000000000000000D+00 0.000000000000000D+00
 0.989431032156582D+03 0.000000000000000D+00 0.000000000000000D+00 0.989431032156582D+03
 0.293316497352537D+03 0.000000000000000D+00 0.000000000000000D+00 -.293316497352537D+03
 0.201548622344455D+03 -.203783960170582D+02 -.177485122627893D+03 -.197572277023248D+02
 0.115016227574565D+03 -.135945178589103D+02 0.972569877288775D+02 -.598748697499450D+02
 0.119306814719213D+03 -.735585596715498D+02 0.935867335739777D+02 0.804845553164875D+01
 0.131795212648378D+03 -.552587646464188D+02 -.296138121855857D+02 0.715836419206211D+02
 0.715080652222508D+03 0.162790238193937D+03 0.162552135106231D+02 0.696114534804046D+03
-.922961439804D-05 0.000000000000D+00 0.000000000000D+00 0.350154188401D-08 0.000000000000D+00  7 1 -1 23 -13 13 23 21 2 0.22171264D+00 0.27981977D-01 0.11974223D+06 0.11974223D+06 0.11974223D+06 0.11153569D+01  1  2 13  1  7  1        1 -.115741368466D-03 0.100000000000D+01
0.343486412036D-04 0.000000000000D+00 0.000000000000D+00 0.350154188401D-08 0.171253913351D-11  7 1 -1 23 -13 13 23 21 2 0.22746525D+00 0.30198144D-01 0.11974223D+06 0.11974223D+06 0.11974223D+06 0.11153569D+01  1  2  1  1  7  1        1 0.358202300217D-03 0.100000000000D+01
  </mgrwgt>
  </event>
  <event>
  8     66 0.25924217E-05 0.23792051E+03 0.75467711E-02 0.93280480E-01
        1 -1    0    0  501    0 0.00000000E+00 0.00000000E+00 0.17709793E+04 0.17709793E+04 0.32000000E+00 0.0000E+00 0.9000E+01
       -1 -1    0    0    0  501 0.00000000E+00 0.00000000E+00 -.46444244E+02 0.46445346E+02 0.32000000E+00 0.0000E+00 0.9000E+01
       25  2    1    2    0    0 0.53435207E+02 0.11483761E+03 0.59975878E+03 0.68187199E+03 0.29865667E+03 0.0000E+00 0.0000E+00
       23  2    3    3    0    0 0.13108701E+03 0.41154245E+02 0.33233975E+03 0.37973421E+03 0.12194627E+03 0.0000E+00 0.0000E+00
       23  1    1    2    0    0 -.53435207E+02 -.11483761E+03 0.11247763E+04 0.11355527E+04 0.91188000E+02 0.0000E+00 0.9000E+01
      -11  1    4    4    0    0 0.13670675E+03 0.67321933E+02 0.24630678E+03 0.28963427E+03 0.51099893E-03 0.0000E+00 0.9000E+01
       11  1    4    4    0    0 -.56197445E+01 -.26167688E+02 0.86032968E+02 0.90099950E+02 0.51099893E-03 0.0000E+00 0.9000E+01
       23  1    3    3    0    0 -.77651799E+02 0.73683361E+02 0.26741904E+03 0.30213777E+03 0.91188000E+02 0.0000E+00 0.9000E+01
#aMCatNLO 1  0  0  1  2 0.46189260D+03 0.00000000D+00  -5  7  0 0.00000000D+00 0.00000000D+00 0.00000000D+00 0.00000000D+00 0.00000000D+00
  <mgrwgt>
 0.6599185619D-03    5    2    0
 0.286797529982006D+03 0.000000000000000D+00 0.000000000000000D+00 0.286797529982006D+03
 0.286797529982006D+03 0.000000000000000D+00 0.000000000000000D+00 -.286797529982006D+03
 0.216294344629797D+03 -.534352069000501D+02 -.114837605291730D+03 0.149749775456403D+03
 0.177169911048862D+03 0.136706751685005D+03 0.673219296637230D+02 -.903780903269645D+02
 0.268185752149148D+02 -.561974240688620D+01 -.261676866406869D+02 0.170488935509172D+01
 0.153312229070438D+03 -.776518023780685D+02 0.736833622686941D+02 -.610765744845303D+02
 0.000000000000000D+00 -.000000000000000D+00 0.000000000000000D+00 0.000000000000000D+00
 0.787756541875041D+03 0.000000000000000D+00 0.000000000000000D+00 0.787756541875041D+03
 0.495356615220100D+03 0.000000000000000D+00 0.000000000000000D+00 -.495356615220100D+03
 0.358173403590776D+03 -.801429017746591D+01 -.312223816515508D+03 0.149749775456403D+03
 0.199327065860310D+03 0.166474894261270D+03 -.620418371264945D+02 -.903780903269645D+02
 0.539530981766830D+02 0.766557715318202D+00 -.539207060823463D+02 0.170488935509172D+01
 0.124994710206323D+03 -.556471618192857D+02 -.219424626297184D+02 -.610765744845303D+02
 0.546664879261049D+03 -.103579999979837D+03 0.450128822354067D+03 0.292399926654941D+03
0.122885802725D-04 0.000000000000D+00 0.000000000000D+00 0.147821438668D-09 0.000000000000D+00  7 1 -1 23 -11 11 23 21 0 0.27245844D+00 0.71453553D-02 0.56606170D+05 0.56606170D+05 0.56606170D+05 0.11425849D+01  1  2  2  1  7  1        1 0.652056447815D-03 0.100000000000D+01
-.653722147482D-06 0.000000000000D+00 -.471913839038D-07 0.147821438668D-09 0.000000000000D+00  7 1 -1 23 -11 11 23 21 2 0.27245844D+00 0.71453553D-02 0.56606170D+05 0.56606170D+05 0.56606170D+05 0.11425849D+01  1  2  3  1  7  1        1 -.452849220296D-04 0.100000000000D+01
0.766761115588D-06 0.000000000000D+00 0.000000000000D+00 0.147821438668D-09 0.000000000000D+00  7 1 -1 23 -11 11 23 21 2 0.27245844D+00 0.71453553D-02 0.56606170D+05 0.56606170D+05 0.56606170D+05 0.11425849D+01  1  2 15  1  7  1        1 0.531154060918D-04 0.100000000000D+01
0.497486571103D-06 0.000000000000D+00 -.306827406932D-05 0.147821438668D-09 0.000000000000D+00  7 1 -1 23 -11 11 23 21 2 0.79963335D+00 0.71453553D-02 0.56606170D+05 0.56606170D+05 0.56606170D+05 0.11425849D+01  1  2  5  1  7  1        1 0.311822855673D-07 0.100000000000D+01
0.220269110152D-06 0.000000000000D+00 -.374308523892D-06 0.147821438668D-09 0.000000000000D+00  7 21 -1 23 -11 11 23 -1 2 0.79963335D+00 0.71453553D-02 0.56606170D+05 0.56606170D+05 0.56606170D+05 0.11425849D+01  1  2  5  3  7  1        1 0.447785636591D-09 0.100000000000D+01
  </mgrwgt>
  </event>
  <event>
  8     66 0.25924217E-05 0.21149828E+03 0.75467711E-02 0.99970860E-01
        1 -1    0    0  501    0 0.00000000E+00 0.00000000E+00 0.92552838E+03 0.92552843E+03 0.32000000E+00 0.0000E+00 0.9000E+01
       -1 -1    0    0    0  501 0.00000000E+00 0.00000000E+00 -.12150726E+03 0.12150768E+03 0.32000000E+00 0.0000E+00 0.9000E+01
       25  2    1    2    0    0 -.66749991E+02 -.14997216E+03 0.16344944E+03 0.37950743E+03 0.30060433E+03 0.0000E+00 0.0000E+00
       23  2    3    3    0    0 0.33237201E+02 0.14988649E+02 -.14549771E+02 0.10164330E+03 0.93756562E+02 0.0000E+00 0.0000E+00
       23  1    1    2    0    0 0.66749991E+02 0.14997216E+03 0.64057168E+03 0.66752868E+03 0.91188000E+02 0.0000E+00 0.9000E+01
      -11  1    4    4    0    0 0.95457059E+00 -.32478313E+02 -.27762655E+02 0.42737771E+02 0.51099893E-03 0.0000E+00 0.9000E+01
       11  1    4    4    0    0 0.32282631E+02 0.47466962E+02 0.13212884E+02 0.58905526E+02 0.51099893E-03 0.0000E+00 0.9000E+01
       23  1    3    3    0    0 -.99987192E+02 -.16496080E+03 0.17799921E+03 0.27786413E+03 0.91188000E+02 0.0000E+00 0.9000E+01
#aMCatNLO 1  0  0  2  1 0.14086384D+03 0.00000000D+00  -5  7  0 0.00000000D+00 0.00000000D+00 0.00000000D+00 0.00000000D+00 0.00000000D+00
  <mgrwgt>
 0.2506170589D-03    9    2    0
 0.335348569292153D+03 0.000000000000000D+00 0.000000000000000D+00 0.335348569292153D+03
 0.335348569292153D+03 0.000000000000000D+00 0.000000000000000D+00 -.335348569292153D+03
 0.274182579025582D+03 0.667499905586123D+02 0.149972155896476D+03 0.199783949588820D+03
 0.100000054316515D+03 0.954570595120707D+00 -.324783130078794D+02 -.945740918140216D+02
 0.761189694911234D+02 0.322826307539968D+02 0.474669618821311D+02 -.499881665764208D+02
 0.220395535751086D+03 -.999871919077298D+02 -.164960804770727D+03 -.552216911983773D+02
 0.000000000000000D+00 0.000000000000000D+00 0.000000000000000D+00 -.000000000000000D+00
 0.374636086813522D+03 0.000000000000000D+00 0.000000000000000D+00 0.374636086813522D+03
 0.497825810225510D+03 0.000000000000000D+00 0.000000000000000D+00 -.497825810225510D+03
 0.251238694407945D+03 0.209958156616438D+02 0.120213058505318D+03 0.199783949588820D+03
 0.105732920825644D+03 -.169608489028660D+02 -.441307297511515D+02 -.945740918140216D+02
 0.666603807298557D+02 0.198492716724432D+02 0.393801469709151D+02 -.499881665764208D+02
 0.261698050881168D+03 -.141968351397782D+03 -.192265884944754D+03 -.552216911983773D+02
 0.187131850194418D+03 0.118084112966561D+03 0.768034092196726D+02 -.123189723411988D+03
0.652842065082D-05 0.000000000000D+00 0.000000000000D+00 0.716770781807D-07 0.000000000000D+00  7 1 -1 23 -11 11 23 21 0 0.14238902D+00 0.18693461D-01 0.60281347D+05 0.60281347D+05 0.60281347D+05 0.11402197D+01  1  2  2  2  7  2       -1 0.298122430213D-03 0.100000000000D+01
-.319823558753D-06 0.000000000000D+00 -.250708542718D-07 0.716770781807D-07 0.000000000000D+00  7 1 -1 23 -11 11 23 21 2 0.14238902D+00 0.18693461D-01 0.60281347D+05 0.60281347D+05 0.60281347D+05 0.11402197D+01  1  2  3  2  7  2       -1 -.189877746497D-04 0.100000000000D+01
0.399576086101D-06 0.000000000000D+00 0.000000000000D+00 0.716770781807D-07 0.000000000000D+00  7 1 -1 23 -11 11 23 21 2 0.14238902D+00 0.18693461D-01 0.60281347D+05 0.60281347D+05 0.60281347D+05 0.11402197D+01  1  2 15  2  7  2       -1 0.237226447854D-04 0.100000000000D+01
0.259922828250D-05 0.000000000000D+00 0.000000000000D+00 0.716770781807D-07 0.000000000000D+00  7 1 -1 23 -11 11 23 21 2 0.14238902D+00 0.28421965D-01 0.10252361D+06 0.10252361D+06 0.10252361D+06 0.11208349D+01  1  2 12  2  7  2       -1 0.749531787737D-04 0.100000000000D+01
-.560110559272D-05 0.000000000000D+00 0.000000000000D+00 0.716770781807D-07 0.000000000000D+00  7 1 -1 23 -11 11 23 21 2 0.14238902D+00 0.18693461D-01 0.60281347D+05 0.60281347D+05 0.60281347D+05 0.11402197D+01  1  2  4  2  7  2       -1 -.332535011487D-03 0.100000000000D+01
-.553480800403D-05 0.000000000000D+00 -.243393153817D-05 0.716770781807D-07 0.000000000000D+00  7 1 -1 23 -11 11 23 21 2 0.14238902D+00 0.30736260D-01 0.60281347D+05 0.60281347D+05 0.60281347D+05 0.11402197D+01  1  2  5  2  7  2       -1 -.146779515651D-03 0.100000000000D+01
0.623143175025D-05 0.000000000000D+00 0.216117559676D-05 0.716770781807D-07 0.000000000000D+00  7 1 -1 23 -11 11 23 21 2 0.14238902D+00 0.18693461D-01 0.60281347D+05 0.60281347D+05 0.60281347D+05 0.11402197D+01  1  2  6  2  7  2       -1 0.369957179765D-03 0.100000000000D+01
0.128029312923D-06 0.000000000000D+00 0.000000000000D+00 0.716770781807D-07 0.000000000000D+00  7 1 21 23 -11 11 23 1 2 0.14238902D+00 0.28421965D-01 0.10252361D+06 0.10252361D+06 0.10252361D+06 0.11208349D+01  1  2 12  4  7  2       -1 0.407909073308D-04 0.100000000000D+01
-.201613831182D-06 0.000000000000D+00 -.136637815473D-06 0.716770781807D-07 0.000000000000D+00  7 1 21 23 -11 11 23 1 2 0.14238902D+00 0.30736260D-01 0.60281347D+05 0.60281347D+05 0.60281347D+05 0.11402197D+01  1  2  5  4  7  2       -1 -.586269801313D-04 0.100000000000D+01
  </mgrwgt>
  </event>
  <event>
  8     66 0.25924217E-05 0.15087303E+03 0.75467711E-02 0.94075264E-01
        1 -1    0    0  501    0 0.00000000E+00 0.00000000E+00 0.60928733E+03 0.60928741E+03 0.32000000E+00 0.0000E+00 0.9000E+01
       -1 -1    0    0    0  501 0.00000000E+00 0.00000000E+00 -.10122644E+04 0.10122645E+04 0.32000000E+00 0.0000E+00 0.9000E+01
       25  2    1    2    0    0 0.33198884E+03 0.21268374E+03 -.87147264E+03 0.10024765E+04 0.30007279E+03 0.0000E+00 0.0000E+00
       23  2    3    3    0    0 0.25065462E+03 0.17209615E+03 -.38231385E+03 0.49665623E+03 0.89770293E+02 0.0000E+00 0.0000E+00
       23  1    1    2    0    0 -.33198884E+03 -.21268374E+03 0.46849555E+03 0.61907535E+03 0.91188000E+02 0.0000E+00 0.9000E+01
      -13  1    4    4    0    0 0.15729512E+03 0.15566033E+03 -.24976537E+03 0.33369843E+03 0.10565837E+00 0.0000E+00 0.9000E+01
       13  1    4    4    0    0 0.93359501E+02 0.16435823E+02 -.13254848E+03 0.16295780E+03 0.10565837E+00 0.0000E+00 0.9000E+01
       23  1    3    3    0    0 0.81334214E+02 0.40587592E+02 -.48915879E+03 0.50582031E+03 0.91188000E+02 0.0000E+00 0.9000E+01
#aMCatNLO 1  0  0  1  2 0.18123611D+03 0.00000000D+00  -5  7  0 0.00000000D+00 0.00000000D+00 0.00000000D+00 0.00000000D+00 0.00000000D+00
  <mgrwgt>
 0.2490708256D-03    9    2    0
 0.785340688823157D+03 0.000000000000000D+00 0.000000000000000D+00 0.785340688823157D+03
 0.785340688823157D+03 0.000000000000000D+00 0.000000000000000D+00 -.785340688823157D+03
 0.759323819022337D+03 -.331988837027690D+03 -.212683741890324D+03 0.642500154719981D+03
 0.280426013572551D+03 0.157295210378021D+03 0.155660520382617D+03 -.172240437396505D+03
 0.134228499200897D+03 0.933594122576131D+02 0.164356299386005D+02 -.950325218499413D+02
 0.396703045850530D+03 0.813342143920559D+02 0.405875915691063D+02 -.375227195473534D+03
 0.000000000000000D+00 0.000000000000000D+00 -.000000000000000D+00 0.000000000000000D+00
 0.103466178013495D+04 0.000000000000000D+00 0.000000000000000D+00 0.103466178013495D+04
 0.824190492217829D+03 0.000000000000000D+00 0.000000000000000D+00 -.824190492217829D+03
 0.791754950797272D+03 -.415622572008267D+03 -.181692266181099D+03 0.642500154719981D+03
 0.271508770945930D+03 0.127535040621878D+03 0.166688505421358D+03 -.172240437396505D+03
 0.125676852299207D+03 0.793453881407583D+02 0.216286933370826D+02 -.950325218499413D+02
 0.392162369129764D+03 0.387988110743519D+02 0.563495914248919D+02 -.375227195473534D+03
 0.277749329180609D+03 0.169943332171279D+03 -.629745240022336D+02 0.210471287917124D+03
0.227050233827D-03 0.000000000000D+00 0.000000000000D+00 0.302879013187D-05 0.000000000000D+00  7 1 -1 23 -13 13 23 21 0 0.93736522D-01 0.15573300D+00 0.18042388D+06 0.18042388D+06 0.18042388D+06 0.11012778D+01  1  2  2  1  7  1        1 0.306418734357D-03 0.100000000000D+01
-.682100819967D-05 0.000000000000D+00 -.871932681593D-06 0.302879013187D-05 0.000000000000D+00  7 1 -1 23 -13 13 23 21 2 0.93736522D-01 0.15573300D+00 0.18042388D+06 0.18042388D+06 0.18042388D+06 0.11012778D+01  1  2  3  1  7  1        1 -.111644088579D-04 0.100000000000D+01
0.128896106454D-04 0.000000000000D+00 0.000000000000D+00 0.302879013187D-05 0.000000000000D+00  7 1 -1 23 -13 13 23 21 2 0.93736522D-01 0.15573300D+00 0.18042388D+06 0.18042388D+06 0.18042388D+06 0.11012778D+01  1  2 15  1  7  1        1 0.210973039546D-04 0.100000000000D+01
0.305764460920D-03 0.000000000000D+00 0.000000000000D+00 0.302879013187D-05 0.000000000000D+00  7 1 -1 23 -13 13 23 21 2 0.12527112D+00 0.15573300D+00 0.27564280D+06 0.27564280D+06 0.27564280D+06 0.10872831D+01  1  2 12  1  7  1        1 0.305619871874D-03 0.100000000000D+01
-.403103789622D-03 0.000000000000D+00 0.000000000000D+00 0.302879013187D-05 0.000000000000D+00  7 1 -1 23 -13 13 23 21 2 0.93736522D-01 0.15573300D+00 0.18042388D+06 0.18042388D+06 0.18042388D+06 0.11012778D+01  1  2  4  1  7  1        1 -.659787437251D-03 0.100000000000D+01
-.432284665057D-03 0.000000000000D+00 -.113693025515D-03 0.302879013187D-05 0.000000000000D+00  7 1 -1 23 -13 13 23 21 2 0.12694704D+00 0.15573300D+00 0.18042388D+06 0.18042388D+06 0.18042388D+06 0.11012778D+01  1  2  5  1  7  1        1 -.445722748124D-03 0.100000000000D+01
0.450904748322D-03 0.000000000000D+00 0.108657447076D-03 0.302879013187D-05 0.000000000000D+00  7 1 -1 23 -13 13 23 21 2 0.93736522D-01 0.15573300D+00 0.18042388D+06 0.18042388D+06 0.18042388D+06 0.11012778D+01  1  2  6  1  7  1        1 0.738026523190D-03 0.100000000000D+01
0.115328282602D-04 0.000000000000D+00 0.000000000000D+00 0.302879013187D-05 0.000000000000D+00  7 21 -1 23 -13 13 23 -1 2 0.12527112D+00 0.15573300D+00 0.27564280D+06 0.27564280D+06 0.27564280D+06 0.10872831D+01  1  2 12  3  7  1        1 0.196997287765D-04 0.100000000000D+01
-.142494396502D-04 0.000000000000D+00 -.442950924748D-05 0.302879013187D-05 0.000000000000D+00  7 21 -1 23 -13 13 23 -1 2 0.12694704D+00 0.15573300D+00 0.18042388D+06 0.18042388D+06 0.18042388D+06 0.11012778D+01  1  2  5  3  7  1        1 -.251167422836D-04 0.100000000000D+01
  </mgrwgt>
  </event>
  <event>
  8     66 0.25924217E-05 0.24048638E+03 0.75467711E-02 0.91086394E-01
        1 -1    0    0  501    0 0.00000000E+00 0.00000000E+00 0.58106884E+03 0.58106893E+03 0.32000000E+00 0.0000E+00 0.9000E+01
       -1 -1    0    0    0  501 0.00000000E+00 0.00000000E+00 -.51904178E+03 0.51904187E+03 0.32000000E+00 0.0000E+00 0.9000E+01
       25  2    1    2    0    0 0.38843002E+02 0.13913102E+03 -.44972787E+03 0.56059752E+03 0.30190762E+03 0.0000E+00 0.0000E+00
       23  2    3    3    0    0 -.10194113E+03 0.71398817E+02 -.18287711E+03 0.23821204E+03 0.88380724E+02 0.0000E+00 0.0000E+00
       23  1    1    2    0    0 -.38843002E+02 -.13913102E+03 0.51175493E+03 0.53951328E+03 0.91188000E+02 0.0000E+00 0.9000E+01
      -11  1    4    4    0    0 -.59369433E+02 0.61628228E+02 -.51755985E+02 0.10000725E+03 0.51099893E-03 0.0000E+00 0.9000E+01
       11  1    4    4    0    0 -.42571698E+02 0.97705885E+01 -.13112112E+03 0.13820479E+03 0.51099893E-03 0.0000E+00 0.9000E+01
       23  1    3    3    0    0 0.14078413E+03 0.67732200E+02 -.26685076E+03 0.32238549E+03 0.91188000E+02 0.0000E+00 0.9000E+01
#aMCatNLO 1  0  0  2  1 0.62943214D+03 0.00000000D+00  -5  7  0 0.00000000D+00 0.00000000D+00 0.00000000D+00 0.00000000D+00 0.00000000D+00
  <mgrwgt>
 0.4903800217D-03    3    2    0
 0.549180393750706D+03 0.000000000000000D+00 0.000000000000000D+00 0.549180393750706D+03
 0.549180393750706D+03 0.000000000000000D+00 0.000000000000000D+00 -.549180393750706D+03
 0.511472857857606D+03 -.388430018985565D+02 -.139131017074528D+03 0.482102700959394D+03
 0.103089375317603D+03 -.593694329101088D+02 0.616282282129361D+02 -.574860959418877D+02
 0.145829711827329D+03 -.425716977376083D+02 0.977058848416081D+01 -.139134794368816D+03
 0.337968842498875D+03 0.140784132546274D+03 0.677322003774313D+02 -.285481810648690D+03
 0.000000000000000D+00 0.000000000000000D+00 -.000000000000000D+00 0.000000000000000D+00
 0.315253476905029D+04 0.000000000000000D+00 0.000000000000000D+00 0.315253476905029D+04
 0.672276255136729D+03 0.000000000000000D+00 0.000000000000000D+00 -.672276255136729D+03
 0.527493758959587D+03 -.159608734572892D+03 0.109710765073501D+03 0.482102700959394D+03
 0.165444637485911D+03 -.905828581340511D+02 0.125944522145550D+03 -.574860959418877D+02
 0.183767072071997D+03 -.808828392607534D+02 0.887119613523498D+02 -.139134794368816D+03
 0.389225506004434D+03 0.562576839846542D+02 0.241901740303446D+03 -.285481810648690D+03
 0.255888004966509D+04 0.274816747983042D+03 -.566268988874846D+03 0.248025851391356D+04
0.618628373693D-04 0.000000000000D+00 0.000000000000D+00 0.374332341088D-07 0.000000000000D+00  7 1 -1 23 -11 11 23 21 0 0.89395220D-01 0.79852595D-01 0.57833697D+05 0.57833697D+05 0.57833697D+05 0.11417765D+01  1  2  2  2  7  2       -1 0.460898967689D-03 0.100000000000D+01
-.587445213992D-06 0.000000000000D+00 -.237569584357D-06 0.374332341088D-07 0.000000000000D+00  7 1 -1 23 -11 11 23 21 2 0.89395220D-01 0.79852595D-01 0.57833697D+05 0.57833697D+05 0.57833697D+05 0.11417765D+01  1  2  3  2  7  2       -1 -.570565494687D-05 0.100000000000D+01
0.362276793098D-05 0.000000000000D+00 0.000000000000D+00 0.374332341088D-07 0.000000000000D+00  7 1 -1 23 -11 11 23 21 2 0.89395220D-01 0.79852595D-01 0.57833697D+05 0.57833697D+05 0.57833697D+05 0.11417765D+01  1  2 15  2  7  2       -1 0.351867089465D-04 0.100000000000D+01
  </mgrwgt>
  </event>
  <event>
  9     66 0.25924217E-05 0.23026206E+03 0.75467711E-02 0.10360741E+00
        1 -1    0    0  502    0 0.00000000E+00 0.00000000E+00 0.30145729E+04 0.30145729E+04 0.32000000E+00 0.0000E+00 0.9000E+01
       -1 -1    0    0    0  501 0.00000000E+00 0.00000000E+00 -.49936423E+02 0.49937448E+02 0.32000000E+00 0.0000E+00 0.9000E+01
       25  2    1    2    0    0 0.49973556E+02 -.13256507E+03 0.56664692E+03 0.65675788E+03 0.30028541E+03 0.0000E+00 0.0000E+00
       23  2    3    3    0    0 0.74857102E+01 -.17099196E+03 0.21648903E+03 0.29041427E+03 0.90435961E+02 0.0000E+00 0.0000E+00
       23  1    1    2    0    0 -.24795495E+02 0.12766505E+03 0.23243346E+04 0.23297553E+04 0.91188000E+02 0.0000E+00 0.9000E+01
      -11  1    4    4    0    0 0.47216894E+02 -.64941607E+02 0.86967993E+02 0.11836503E+03 0.51099893E-03 0.0000E+00 0.9000E+01
       11  1    4    4    0    0 -.39731184E+02 -.10605035E+03 0.12952103E+03 0.17204924E+03 0.51099893E-03 0.0000E+00 0.9000E+01
       23  1    3    3    0    0 0.42487846E+02 0.38426888E+02 0.35015789E+03 0.36634361E+03 0.91188000E+02 0.0000E+00 0.9000E+01
       21  1    1    2  502  501 -.25178062E+02 0.49000175E+01 0.73654946E+02 0.77997170E+02 0.75000000E+00 0.0000E+00 0.9000E+01
#aMCatNLO 2  0  0  1  2 0.25650438D+02 0.00000000D+00  -5  7  0 0.00000000D+00 0.00000000D+00 0.00000000D+00 0.00000000D+00 0.00000000D+00
  <mgrwgt>
 0.2399965339D-03    2    2    0
 0.374442552306423D+03 0.000000000000000D+00 0.000000000000000D+00 0.374442552306423D+03
 0.374442552306423D+03 0.000000000000000D+00 0.000000000000000D+00 -.374442552306423D+03
 0.319790591572797D+03 -.355127544729630D+02 0.129750785708603D+03 0.275416682487142D+03
 0.134291364605408D+03 0.426707673843053D+02 -.640568648055726D+02 -.110045873569606D+03
 0.186764454830768D+03 -.459958793448649D+02 -.104831147755601D+03 -.147566158490929D+03
 0.108038693603872D+03 0.388378664335226D+02 0.391372268525708D+02 -.178046504266065D+02
 0.000000000000000D+00 -.000000000000000D+00 0.000000000000000D+00 -.000000000000000D+00
 0.384323993101824D+03 0.000000000000000D+00 0.000000000000000D+00 0.384323993101824D+03
 0.391686406171218D+03 0.000000000000000D+00 0.000000000000000D+00 -.391686406171218D+03
 0.317935185388094D+03 -.247954946616815D+02 0.127665050879328D+03 0.275416682487142D+03
 0.136223866112232D+03 0.472168938155214D+02 -.649416072120126D+02 -.110045873569606D+03
 0.186013479503523D+03 -.397311835798410D+02 -.106050348781051D+03 -.147566158490929D+03
 0.109151727829634D+03 0.424878461883277D+02 0.384268876394883D+02 -.178046504266065D+02
 0.266861404395585D+02 -.251780617623266D+02 0.490001747424716D+01 -.736241306939377D+01
-.592355899662D-05 0.000000000000D+00 0.000000000000D+00 0.712865567869D-06 0.000000000000D+00  7 1 -1 23 -11 11 23 21 2 0.45185000D+00 0.73442828D-02 0.53020615D+05 0.53020615D+05 0.53020615D+05 0.11450614D+01  1  2  8  1  7  1        1 -.650736401284D-04 0.100000000000D+01
0.342337111371D-04 0.000000000000D+00 0.000000000000D+00 0.712865567869D-06 0.752935713604D-08  7 1 -1 23 -11 11 23 21 2 0.46377421D+00 0.76825022D-02 0.58979937D+05 0.58979937D+05 0.58979937D+05 0.11410386D+01  1  2  1  1  7  1        1 0.305070174051D-03 0.100000000000D+01
  </mgrwgt>
  </event>
  <event>
  9     66 0.25924217E-05 0.21081736E+03 0.75467711E-02 0.99847358E-01
       21 -1    0    0  501  502 0.00000000E+00 0.00000000E+00 0.49094601E+03 0.49094658E+03 0.75000000E+00 0.0000E+00 0.9000E+01
       -1 -1    0    0    0  501 0.00000000E+00 0.00000000E+00 -.30987495E+03 0.30987512E+03 0.32000000E+00 0.0000E+00 0.9000E+01
       25  2    1    2    0    0 0.84830164E+02 0.19274724E+03 -.86241175E+01 0.36648677E+03 0.29981748E+03 0.0000E+00 0.0000E+00
       23  2    3    3    0    0 0.91289166E+02 -.24323010E+02 0.16826586E+02 0.12958130E+03 0.87079616E+02 0.0000E+00 0.0000E+00
       23  1    1    2    0    0 0.14225399E+02 -.32754985E+02 -.65093221E+02 0.11759094E+03 0.91188000E+02 0.0000E+00 0.9000E+01
      -13  1    4    4    0    0 -.77855736E+01 0.16203448E+02 -.80317718E+01 0.19689779E+02 0.10565837E+00 0.0000E+00 0.9000E+01
       13  1    4    4    0    0 0.99074740E+02 -.40526458E+02 0.24858357E+02 0.10989152E+03 0.10565837E+00 0.0000E+00 0.9000E+01
       23  1    3    3    0    0 -.64590022E+01 0.21707025E+03 -.25450703E+02 0.23690547E+03 0.91188000E+02 0.0000E+00 0.9000E+01
       -1  1    1    2    0  502 -.99055564E+02 -.15999225E+03 0.25478839E+03 0.31674399E+03 0.32000000E+00 0.0000E+00 0.9000E+01
#aMCatNLO 2  0  0  1  2 0.18817419D+03 0.00000000D+00  -5  7  0 0.00000000D+00 0.00000000D+00 0.00000000D+00 0.00000000D+00 0.00000000D+00
  <mgrwgt>
 0.6828233323D-04    2    2    0
 0.219936048842484D+03 0.000000000000000D+00 0.000000000000000D+00 0.219936048842484D+03
 0.219936048842484D+03 0.000000000000000D+00 0.000000000000000D+00 -.219936048842484D+03
 0.127209928523590D+03 -.112485795197118D+02 -.738999728668682D+02 -.477428323420556D+02
 0.161820085036976D+02 -.115467026355464D+02 0.101288931158686D+02 -.509279704163824D+01
 0.117531000112785D+03 0.739902341945505D+02 -.810426969595950D+02 0.420839934044095D+02
 0.178949160544895D+03 -.511949520392923D+02 0.144813776710595D+03 0.107516359792844D+02
 0.000000000000000D+00 -.000000000000000D+00 -.000000000000000D+00 0.000000000000000D+00
 0.572385434019808D+03 0.000000000000000D+00 0.000000000000000D+00 0.572385434019808D+03
 0.265786101292261D+03 0.000000000000000D+00 0.000000000000000D+00 -.265786101292261D+03
 0.108948982894036D+03 0.142253993467933D+02 -.327549920321709D+02 -.477428323420556D+02
 0.186844466924494D+02 -.778572940999690D+01 0.162035299873198D+02 -.509279704163824D+01
 0.115018681539528D+03 0.990748928265829D+02 -.405265371532060D+02 0.420839934044095D+02
 0.235779689711496D+03 -.645899901790339D+01 0.217070252203993D+03 0.107516359792844D+02
 0.359739734474560D+03 -.990555637454759D+02 -.159992253005936D+03 0.306599332727548D+03
-.802460576763D-08 0.000000000000D+00 0.000000000000D+00 0.191599198216D-07 0.000000000000D+00  7 21 -1 23 -13 13 23 -1 2 0.73739282D-01 0.39449153D-01 0.10454224D+06 0.10454224D+06 0.10454224D+06 0.11201424D+01  1  2 13  3  7  1        1 -.111227442116D-05 0.100000000000D+01
0.738635691613D-06 0.000000000000D+00 0.000000000000D+00 0.191599198216D-07 0.775134904266D-12  7 21 -1 23 -13 13 23 -1 2 0.75530193D-01 0.47673115D-01 0.10454224D+06 0.10454224D+06 0.10454224D+06 0.11201424D+01  1  2  1  3  7  1        1 0.693946076504D-04 0.100000000000D+01
  </mgrwgt>
  </event>
  <event>
  8     66 0.25924217E-05 0.24775799E+03 0.75467711E-02 0.90316924E-01
        1 -1    0    0  501    0 0.00000000E+00 0.00000000E+00 0.23608860E+04 0.23608860E+04 0.32000000E+00 0.0000E+00 0.9000E+01
       -1 -1    0    0    0  501 0.00000000E+00 0.00000000E+00 -.15646584E+03 0.15646617E+03 0.32000000E+00 0.0000E+00 0.9000E+01
       25  2    1    2    0    0 0.13859960E+03 -.27045361E+01 0.36123631E+02 0.34271607E+03 0.31133940E+03 0.0000E+00 0.0000E+00
       23  2    3    3    0    0 0.35364917E+02 0.11919930E+03 -.12914879E+02 0.15235333E+03 0.87095308E+02 0.0000E+00 0.0000E+00
       23  1    1    2    0    0 -.13859960E+03 0.27045361E+01 0.21682965E+04 0.21746361E+04 0.91188000E+02 0.0000E+00 0.9000E+01
      -13  1    4    4    0    0 -.22937125E+02 0.51032952E+02 0.15855483E+02 0.58153946E+02 0.10565837E+00 0.0000E+00 0.9000E+01
       13  1    4    4    0    0 0.58302042E+02 0.68166349E+02 -.28770362E+02 0.94199385E+02 0.10565837E+00 0.0000E+00 0.9000E+01
       23  1    3    3    0    0 0.10323468E+03 -.12190384E+03 0.49038510E+02 0.19036274E+03 0.91188000E+02 0.0000E+00 0.9000E+01
#aMCatNLO 1  0  0  1  2 0.66289242D+03 0.00000000D+00  -5  7  0 0.00000000D+00 0.00000000D+00 0.00000000D+00 0.00000000D+00 0.00000000D+00
  <mgrwgt>
 0.3747896839D-03    5    2    0
 0.607781576173855D+03 0.000000000000000D+00 0.000000000000000D+00 0.607781576173855D+03
 0.607781576173855D+03 0.000000000000000D+00 0.000000000000000D+00 -.607781576173855D+03
 0.571330588305173D+03 -.138599599294588D+03 0.270453609614376D+01 0.546704880487654D+03
 0.916789296506334D+02 -.229372433025747D+02 0.510329206351177D+02 -.726260973962808D+02
 0.247255991238984D+03 0.583021656980006D+02 0.681663650455453D+02 -.230412085956819D+03
 0.305297643152921D+03 0.103234676899162D+03 -.121903821776807D+03 -.243666697134553D+03
 0.000000000000000D+00 0.000000000000000D+00 -.000000000000000D+00 0.000000000000000D+00
 0.162829097847386D+04 0.000000000000000D+00 0.000000000000000D+00 0.162829097847386D+04
 0.809649567132290D+03 0.000000000000000D+00 0.000000000000000D+00 -.809649567132290D+03
 0.724034273360304D+03 -.457033458640774D+03 0.902472658323527D+02 0.546704880487654D+03
 0.123863538516912D+03 -.759231023626602D+02 0.655996088292118D+02 -.726260973962808D+02
 0.260829518254760D+03 -.665982654113839D+02 0.102503557412572D+03 -.230412085956819D+03
 0.275837632508261D+03 -.396232576545613D+02 -.826298149830960D+02 -.243666697134553D+03
 0.105337558296591D+04 0.639178084069380D+03 -.175720617091041D+03 0.818641411341572D+03
0.105698696663D-03 0.000000000000D+00 0.000000000000D+00 0.833016591154D-09 0.000000000000D+00  7 1 -1 23 -13 13 23 21 0 0.36321325D+00 0.24071694D-01 0.61384020D+05 0.61384020D+05 0.61384020D+05 0.11395410D+01  1  2  2  1  7  1        1 0.348813675644D-03 0.100000000000D+01
-.122848129666D-06 0.000000000000D+00 -.405910826291D-06 0.833016591154D-09 0.000000000000D+00  7 1 -1 23 -13 13 23 21 2 0.36321325D+00 0.24071694D-01 0.61384020D+05 0.61384020D+05 0.61384020D+05 0.11395410D+01  1  2  3  1  7  1        1 -.526444146695D-06 0.100000000000D+01
0.618445003212D-05 0.000000000000D+00 0.000000000000D+00 0.833016591154D-09 0.000000000000D+00  7 1 -1 23 -13 13 23 21 2 0.36321325D+00 0.24071694D-01 0.61384020D+05 0.61384020D+05 0.61384020D+05 0.11395410D+01  1  2 15  1  7  1        1 0.265023776005D-04 0.100000000000D+01
0.925456319336D-05 0.000000000000D+00 -.226525657310D-04 0.833016591154D-09 0.000000000000D+00  7 1 -1 23 -13 13 23 21 2 0.97585147D+00 0.24071694D-01 0.61384020D+05 0.61384020D+05 0.61384020D+05 0.11395410D+01  1  2  5  1  7  1        1 0.745731903780D-10 0.100000000000D+01
0.234464260739D-05 0.000000000000D+00 -.249503835431D-05 0.833016591154D-09 0.000000000000D+00  7 21 -1 23 -13 13 23 -1 2 0.97585147D+00 0.24071694D-01 0.61384020D+05 0.61384020D+05 0.61384020D+05 0.11395410D+01  1  2  5  3  7  1        1 0.205726201782D-12 0.100000000000D+01
  </mgrwgt>
  </event>
  <event>
  9     66 0.25924217E-05 0.17410825E+03 0.75467711E-02 0.10629460E+00
        1 -1    0    0  501    0 0.00000000E+00 0.00000000E+00 0.26780538E+04 0.26780539E+04 0.32000000E+00 0.0000E+00 0.9000E+01
       -1 -1    0    0    0  502 0.00000000E+00 0.00000000E+00 -.22498466E+02 0.22500742E+02 0.32000000E+00 0.0000E+00 0.9000E+01
       25  2    1    2    0    0 -.30183094E+02 -.55801749E+01 0.19869671E+04 0.20097076E+04 0.29990686E+03 0.0000E+00 0.0000E+00
       23  2    3    3    0    0 0.79661815E+02 0.36460064E+02 0.13331863E+04 0.13392019E+04 0.91655086E+02 0.0000E+00 0.0000E+00
       23  1    1    2    0    0 0.52128739E+02 0.46379812E+02 0.33668629E+03 0.35572658E+03 0.91188000E+02 0.0000E+00 0.9000E+01
      -13  1    4    4    0    0 0.34635335E+02 0.28555046E+01 0.10456775E+04 0.10462548E+04 0.10565837E+00 0.0000E+00 0.9000E+01
       13  1    4    4    0    0 0.45026480E+02 0.33604559E+02 0.28750889E+03 0.29294713E+03 0.10565837E+00 0.0000E+00 0.9000E+01
       23  1    3    3    0    0 -.10984491E+03 -.42040239E+02 0.65378080E+03 0.67050568E+03 0.91188000E+02 0.0000E+00 0.9000E+01
       21  1    1    2  501  502 -.21945644E+02 -.40799637E+02 0.33190194E+03 0.33512040E+03 0.75000000E+00 0.0000E+00 0.9000E+01
#aMCatNLO 2  0  0  2  2 0.46327332D+02 0.00000000D+00  -5  7  0 0.00000000D+00 0.00000000D+00 0.00000000D+00 0.00000000D+00 0.00000000D+00
  <mgrwgt>
 0.1070296943D-03    1    2    0
 0.220095126347736D+03 0.000000000000000D+00 0.000000000000000D+00 0.220095126347736D+03
 0.220095126347736D+03 0.000000000000000D+00 0.000000000000000D+00 -.220095126347736D+03
 0.127375142460692D+03 0.456428224175936D+02 0.343216941294316D+02 -.681757262280592D+02
 0.100361863001041D+03 0.296100380785214D+02 -.648714925467963D+01 0.956747933605070D+02
 0.511527235673583D+02 0.423577836844161D+02 0.286431463825468D+02 -.141048041843164D+01
 0.161300523666382D+03 -.117610644180531D+03 -.564776912572988D+02 -.260885867140162D+02
 0.000000000000000D+00 -.000000000000000D+00 -.000000000000000D+00 0.000000000000000D+00
 0.252789104753038D+03 0.000000000000000D+00 0.000000000000000D+00 0.252789104753038D+03
 0.238355870672640D+03 0.000000000000000D+00 0.000000000000000D+00 -.238355870672640D+03
 0.133535292879693D+03 0.521287446946003D+02 0.463798170577163D+02 -.681757262280592D+02
 0.101791085554965D+03 0.346353193045922D+02 0.285546328139408D+01 0.956747933605070D+02
 0.562018069335465D+02 0.450264892883336D+02 0.336045965598822D+02 -.141048041843164D+01
 0.151093188118459D+03 -.109844909046868D+03 -.420402396704719D+02 -.260885867140162D+02
 0.485236019390151D+02 -.219456442406580D+02 -.407996372285207D+02 0.144332340803981D+02
0.205635453833D-05 0.000000000000D+00 0.000000000000D+00 0.161399917261D-06 0.543043377418D-09  7 1 -1 23 -13 13 23 21 2 0.41200355D+00 0.34614378D-02 0.40181926D+05 0.40181926D+05 0.40181926D+05 0.11557410D+01  1  2  1  2  7  2       -1 0.107029694324D-03 0.100000000000D+01
  </mgrwgt>
  </event>
  <event>
  8     66 0.25924217E-05 0.99543952E+02 0.75467711E-02 0.10377124E+00
        1 -1    0    0  501    0 0.00000000E+00 0.00000000E+00 0.25673812E+03 0.25673832E+03 0.32000000E+00 0.0000E+00 0.9000E+01
       -1 -1    0    0    0  501 0.00000000E+00 0.00000000E+00 -.35257490E+03 0.35257504E+03 0.32000000E+00 0.0000E+00 0.9000E+01
       25  2    1    2    0    0 0.95445734E+01 -.10562070E+03 -.24859651E+03 0.40219596E+03 0.29784985E+03 0.0000E+00 0.0000E+00
       23  2    3    3    0    0 0.67333512E+02 -.10443978E+03 -.27688936E+02 0.15631720E+03 0.90702369E+02 0.0000E+00 0.0000E+00
       23  1    1    2    0    0 -.95445734E+01 0.10562070E+03 0.15275973E+03 0.20711741E+03 0.91188000E+02 0.0000E+00 0.9000E+01
      -13  1    4    4    0    0 0.26032835E+02 0.13165522E+02 -.41272832E+01 0.29463284E+02 0.10565837E+00 0.0000E+00 0.9000E+01
       13  1    4    4    0    0 0.41300677E+02 -.11760530E+03 -.23561653E+02 0.12685391E+03 0.10565837E+00 0.0000E+00 0.9000E+01
       23  1    3    3    0    0 -.57788938E+02 -.11809240E+01 -.22090758E+03 0.24587876E+03 0.91188000E+02 0.0000E+00 0.9000E+01
#aMCatNLO 1  0  0  2  1 0.74535445D+02 0.00000000D+00  -5  7  0 0.00000000D+00 0.00000000D+00 0.00000000D+00 0.00000000D+00 0.00000000D+00
  <mgrwgt>
 0.5274788304D-03    9    2    0
 0.300864623676406D+03 0.000000000000000D+00 0.000000000000000D+00 0.300864623676406D+03
 0.300864623676406D+03 0.000000000000000D+00 0.000000000000000D+00 -.300864623676406D+03
 0.234057767663407D+03 -.954457346312880D+01 0.105620704055134D+03 0.187672468017774D+03
 0.291771573693394D+02 0.260328141229224D+02 0.131656992201088D+02 0.513288459053174D+00
 0.124700253853433D+03 0.413006974028317D+02 -.117605478563748D+03 -.365473897045966D+01
 0.213794068466633D+03 -.577889380626253D+02 -.118092471149505D+01 -.184531017506367D+03
 0.000000000000000D+00 0.000000000000000D+00 0.000000000000000D+00 -.000000000000000D+00
 0.321958988606814D+03 0.000000000000000D+00 0.000000000000000D+00 0.321958988606814D+03
 0.377060412307494D+03 0.000000000000000D+00 0.000000000000000D+00 -.377060412307494D+03
 0.225707304047357D+03 -.255368597152504D+02 0.821915403209312D+02 0.187672468017774D+03
 0.262352450729276D+02 0.241053710518837D+02 0.103419391530497D+02 0.513288459053174D+00
 0.134801040662871D+03 0.322743071003696D+02 -.130829402460005D+03 -.365473897045966D+01
 0.219584390507376D+03 -.728634028226968D+02 -.232654533086702D+02 -.184531017506367D+03
 0.926914206237770D+02 0.420205843856939D+02 0.615613762946941D+02 -.551014237006796D+02
0.973544769209D-05 0.000000000000D+00 0.000000000000D+00 0.360307020923D-07 0.000000000000D+00  7 1 -1 23 -13 13 23 21 0 0.39498199D-01 0.54242319D-01 0.40330231D+05 0.40330231D+05 0.40330231D+05 0.11555971D+01  1  2  2  2  7  2       -1 0.450182588787D-03 0.100000000000D+01
-.433403233149D-06 0.000000000000D+00 -.373866825399D-07 0.360307020923D-07 0.000000000000D+00  7 1 -1 23 -13 13 23 21 2 0.39498199D-01 0.54242319D-01 0.40330231D+05 0.40330231D+05 0.40330231D+05 0.11555971D+01  1  2  3  2  7  2       -1 -.267631852594D-04 0.100000000000D+01
0.585606082635D-06 0.000000000000D+00 0.000000000000D+00 0.360307020923D-07 0.000000000000D+00  7 1 -1 23 -13 13 23 21 2 0.39498199D-01 0.54242319D-01 0.40330231D+05 0.40330231D+05 0.40330231D+05 0.11555971D+01  1  2 15  2  7  2       -1 0.361618993120D-04 0.100000000000D+01
0.103488251016D-04 0.000000000000D+00 0.000000000000D+00 0.360307020923D-07 0.000000000000D+00  7 1 -1 23 -13 13 23 21 2 0.39498199D-01 0.69524331D-01 0.57582537D+05 0.57582537D+05 0.57582537D+05 0.11419404D+01  1  2 12  2  7  2       -1 0.391973156906D-03 0.100000000000D+01
-.121860275061D-04 0.000000000000D+00 0.000000000000D+00 0.360307020923D-07 0.000000000000D+00  7 1 -1 23 -13 13 23 21 2 0.39498199D-01 0.54242319D-01 0.40330231D+05 0.40330231D+05 0.40330231D+05 0.11555971D+01  1  2  4  2  7  2       -1 -.752502258356D-03 0.100000000000D+01
-.166138923578D-04 0.000000000000D+00 -.520567364621D-05 0.360307020923D-07 0.000000000000D+00  7 1 -1 23 -13 13 23 21 2 0.39498199D-01 0.71644032D-01 0.40330231D+05 0.40330231D+05 0.40330231D+05 0.11555971D+01  1  2  5  2  7  2       -1 -.611625895819D-03 0.100000000000D+01
0.175729109639D-04 0.000000000000D+00 0.501045863144D-05 0.360307020923D-07 0.000000000000D+00  7 1 -1 23 -13 13 23 21 2 0.39498199D-01 0.54242319D-01 0.40330231D+05 0.40330231D+05 0.40330231D+05 0.11555971D+01  1  2  6  2  7  2       -1 0.108514896914D-02 0.100000000000D+01
0.348390596947D-06 0.000000000000D+00 0.000000000000D+00 0.360307020923D-07 0.000000000000D+00  7 1 21 23 -13 13 23 1 2 0.39498199D-01 0.69524331D-01 0.57582537D+05 0.57582537D+05 0.57582537D+05 0.11419404D+01  1  2 12  4  7  2       -1 0.110582219190D-03 0.100000000000D+01
-.504414628711D-06 0.000000000000D+00 -.190543306320D-06 0.360307020923D-07 0.000000000000D+00  7 1 21 23 -13 13 23 1 2 0.39498199D-01 0.71644032D-01 0.40330231D+05 0.40330231D+05 0.40330231D+05 0.11555971D+01  1  2  5  4  7  2       -1 -.155678663476D-03 0.100000000000D+01
  </mgrwgt>
  </event>
  <event>
  8     66 0.25924217E-05 0.13301451E+03 0.75467711E-02 0.97940932E-01
        1 -1    0    0  501    0 0.00000000E+00 0.00000000E+00 0.19103757E+03 0.19103783E+03 0.32000000E+00 0.0000E+00 0.9000E+01
       -1 -1    0    0    0  501 0.00000000E+00 0.00000000E+00 -.20723710E+04 0.20723710E+04 0.32000000E+00 0.0000E+00 0.9000E+01
       25  2    1    2    0    0 -.14531196E+03 0.23674264E+03 -.53589742E+02 0.41242941E+03 0.30010584E+03 0.0000E+00 0.0000E+00
       23  2    3    3    0    0 -.19052944E+03 0.14122410E+03 0.22667989E+02 0.25337311E+03 0.86246075E+02 0.0000E+00 0.0000E+00
       23  1    1    2    0    0 0.14531196E+03 -.23674264E+03 -.18277437E+04 0.18509794E+04 0.91188000E+02 0.0000E+00 0.9000E+01
      -11  1    4    4    0    0 -.18356711E+03 0.15055374E+03 0.12208504E+02 0.23772329E+03 0.51099893E-03 0.0000E+00 0.9000E+01
       11  1    4    4    0    0 -.69623230E+01 -.93296445E+01 0.10459486E+02 0.15649826E+02 0.51099893E-03 0.0000E+00 0.9000E+01
       23  1    3    3    0    0 0.45217479E+02 0.95518548E+02 -.76257731E+02 0.15905630E+03 0.91188000E+02 0.0000E+00 0.9000E+01
#aMCatNLO 1  0  0  2  1 0.65158394D+02 0.00000000D+00  -5  7  0 0.00000000D+00 0.00000000D+00 0.00000000D+00 0.00000000D+00 0.00000000D+00
  <mgrwgt>
 0.1527135775D-02    9    2    0
 0.629206674612428D+03 0.000000000000000D+00 0.000000000000000D+00 0.629206674612428D+03
 0.629206674612428D+03 0.000000000000000D+00 0.000000000000000D+00 -.629206674612428D+03
 0.596725985905622D+03 0.145311959002016D+03 -.236742644673762D+03 -.520196122318214D+03
 0.445825898221835D+03 -.183567114632697D+03 0.150553741531944D+03 0.377355822615028D+03
 0.437850836634360D+02 -.696232302604610D+01 -.932964455072947D+01 0.422092092090354D+02
 0.172076381433963D+03 0.452174786567269D+02 0.955185476925475D+02 0.100631090494150D+03
 0.000000000000000D+00 0.000000000000000D+00 0.000000000000000D+00 -.000000000000000D+00
 0.662236484364271D+03 0.000000000000000D+00 0.000000000000000D+00 0.662236484364271D+03
 0.663025802487968D+03 0.000000000000000D+00 0.000000000000000D+00 -.663025802487968D+03
 0.600960440533330D+03 0.123539033463253D+03 -.258790071830573D+03 -.520196122318214D+03
 0.447555180395042D+03 -.199808026505013D+03 0.134108072766503D+03 0.377355822615028D+03
 0.444407624785024D+02 -.856619423660513D+01 -.109537365277471D+02 0.422092092090354D+02
 0.167142729263881D+03 0.390507623313950D+02 0.892740846442804D+02 0.100631090494150D+03
 0.651631741814835D+02 0.457844249469702D+02 0.463616509475366D+02 -.789318123696201D+00
0.174858698554D-02 0.000000000000D+00 0.000000000000D+00 0.299619236061D-06 0.000000000000D+00  7 1 -1 23 -11 11 23 21 0 0.29390417D-01 0.31882633D+00 0.11594048D+06 0.11594048D+06 0.11594048D+06 0.11164886D+01  1  2  2  2  7  2       -1 0.504071474869D-03 0.100000000000D+01
-.526094078009D-04 0.000000000000D+00 -.671503443801D-05 0.299619236061D-06 0.000000000000D+00  7 1 -1 23 -11 11 23 21 2 0.29390417D-01 0.31882633D+00 0.11594048D+06 0.11594048D+06 0.11594048D+06 0.11164886D+01  1  2  3  2  7  2       -1 -.189050093022D-04 0.100000000000D+01
0.102761666127D-03 0.000000000000D+00 0.000000000000D+00 0.299619236061D-06 0.000000000000D+00  7 1 -1 23 -11 11 23 21 2 0.29390417D-01 0.31882633D+00 0.11594048D+06 0.11594048D+06 0.11594048D+06 0.11164886D+01  1  2 15  2  7  2       -1 0.369270504125D-04 0.100000000000D+01
0.271070717818D-02 0.000000000000D+00 0.000000000000D+00 0.299619236061D-06 0.000000000000D+00  7 1 -1 23 -11 11 23 21 2 0.29390417D-01 0.34389699D+00 0.14215688D+06 0.14215688D+06 0.14215688D+06 0.11093972D+01  1  2 12  2  7  2       -1 0.547783365733D-03 0.100000000000D+01
-.214290059033D-02 0.000000000000D+00 0.000000000000D+00 0.299619236061D-06 0.000000000000D+00  7 1 -1 23 -11 11 23 21 2 0.29390417D-01 0.31882633D+00 0.11594048D+06 0.11594048D+06 0.11594048D+06 0.11164886D+01  1  2  4  2  7  2       -1 -.770043938669D-03 0.100000000000D+01
-.887034374695D-02 0.000000000000D+00 -.211318860941D-02 0.299619236061D-06 0.000000000000D+00  7 1 -1 23 -11 11 23 21 2 0.29390417D-01 0.34457487D+00 0.11594048D+06 0.11594048D+06 0.11594048D+06 0.11164886D+01  1  2  5  2  7  2       -1 -.181690305365D-02 0.100000000000D+01
0.901362346483D-02 0.000000000000D+00 0.210683139080D-02 0.299619236061D-06 0.000000000000D+00  7 1 -1 23 -11 11 23 21 2 0.29390417D-01 0.31882633D+00 0.11594048D+06 0.11594048D+06 0.11594048D+06 0.11164886D+01  1  2  6  2  7  2       -1 0.323901451418D-02 0.100000000000D+01
0.344750613411D-04 0.000000000000D+00 0.000000000000D+00 0.299619236061D-06 0.000000000000D+00  7 1 21 23 -11 11 23 1 2 0.29390417D-01 0.34389699D+00 0.14215688D+06 0.14215688D+06 0.14215688D+06 0.11093972D+01  1  2 12  4  7  2       -1 0.846309920806D-04 0.100000000000D+01
-.111068513236D-03 0.000000000000D+00 -.274912180011D-04 0.299619236061D-06 0.000000000000D+00  7 1 21 23 -11 11 23 1 2 0.29390417D-01 0.34457487D+00 0.11594048D+06 0.11594048D+06 0.11594048D+06 0.11164886D+01  1  2  5  4  7  2       -1 -.279439620987D-03 0.100000000000D+01
  </mgrwgt>
  </event>
  <event>
  8     66 0.25924217E-05 0.22160115E+03 0.75467711E-02 0.91467671E-01
        1 -1    0    0  501    0 0.00000000E+00 0.00000000E+00 0.68283795E+03 0.68283803E+03 0.32000000E+00 0.0000E+00 0.9000E+01
       -1 -1    0    0    0  501 0.00000000E+00 0.00000000E+00 -.11326919E+03 0.11326964E+03 0.32000000E+00 0.0000E+00 0.9000E+01
       25  2    1    2    0    0 -.74157032E+02 -.60901540E+02 0.58297209E+03 0.66305444E+03 0.30095925E+03 0.0000E+00 0.0000E+00
       23  2    3    3    0    0 0.78295280E+02 0.92784845E+01 0.27439358E+03 0.30014551E+03 0.92624232E+02 0.0000E+00 0.0000E+00
       23  1    1    2    0    0 0.74157032E+02 0.60901540E+02 -.13403328E+02 0.13305324E+03 0.91188000E+02 0.0000E+00 0.9000E+01
      -11  1    4    4    0    0 0.49364322E+01 -.34195267E+02 0.10430681E+03 0.10987991E+03 0.51099893E-03 0.0000E+00 0.9000E+01
       11  1    4    4    0    0 0.73358848E+02 0.43473751E+02 0.17008677E+03 0.19026560E+03 0.51099893E-03 0.0000E+00 0.9000E+01
       23  1    3    3    0    0 -.15245231E+03 -.70180024E+02 0.30857851E+03 0.36290893E+03 0.91188000E+02 0.0000E+00 0.9000E+01
#aMCatNLO 1  0  0  1  2 0.60256380D+03 0.00000000D+00  -5  7  0 0.00000000D+00 0.00000000D+00 0.00000000D+00 0.00000000D+00 0.00000000D+00
  <mgrwgt>
 0.3552537392D-03    5    2    0
 0.278109175178988D+03 0.000000000000000D+00 0.000000000000000D+00 0.278109175178988D+03
 0.278109175178988D+03 0.000000000000000D+00 0.000000000000000D+00 -.278109175178988D+03
 0.204162301570077D+03 0.741570317648439D+02 0.609015395424788D+02 -.155430792186023D+03
 0.504592133623272D+02 0.493643218064304D+01 -.341952667715713D+02 0.367756384158297D+02
 0.981553201783329D+02 0.733588479350994D+02 0.434737512613117D+02 0.486104850851708D+02
 0.203441515247240D+03 -.152452311880586D+03 -.701800240322193D+02 0.700446686850228D+02
 0.000000000000000D+00 0.000000000000000D+00 0.000000000000000D+00 0.000000000000000D+00
 0.126470047072139D+04 0.000000000000000D+00 0.000000000000000D+00 0.126470047072139D+04
 0.516223110245305D+03 0.000000000000000D+00 0.000000000000000D+00 -.516223110245305D+03
 0.226974478523272D+03 0.543952481336659D+02 -.126825030565001D+03 -.155430792186023D+03
 0.110673554396278D+03 -.244932342955789D+01 -.104356067751480D+03 0.367756384158297D+02
 0.895541077613537D+02 0.647549123124574D+02 -.382591203260410D+02 0.486104850851708D+02
 0.392835655041777D+03 -.179783546346157D+03 -.329812403314530D+03 0.700446686850228D+02
 0.960885785244019D+03 0.630827093295920D+02 0.599252621957051D+03 0.748477360476089D+03
0.427689019858D-05 0.000000000000D+00 0.000000000000D+00 0.827664494616D-07 0.000000000000D+00  7 1 -1 23 -11 11 23 21 0 0.10505203D+00 0.17426070D-01 0.49107069D+05 0.49107069D+05 0.49107069D+05 0.11479844D+01  1  2  2  1  7  1        1 0.350992582485D-03 0.100000000000D+01
-.222700980119D-06 0.000000000000D+00 -.164243844936D-07 0.827664494616D-07 0.000000000000D+00  7 1 -1 23 -11 11 23 21 2 0.10505203D+00 0.17426070D-01 0.49107069D+05 0.49107069D+05 0.49107069D+05 0.11479844D+01  1  2  3  1  7  1        1 -.240859585900D-04 0.100000000000D+01
0.250268991079D-06 0.000000000000D+00 0.000000000000D+00 0.827664494616D-07 0.000000000000D+00  7 1 -1 23 -11 11 23 21 2 0.10505203D+00 0.17426070D-01 0.49107069D+05 0.49107069D+05 0.49107069D+05 0.11479844D+01  1  2 15  1  7  1        1 0.270675438979D-04 0.100000000000D+01
0.169943883778D-05 0.000000000000D+00 -.181958783254D-05 0.827664494616D-07 0.000000000000D+00  7 1 -1 23 -11 11 23 21 2 0.57054368D+00 0.17426070D-01 0.49107069D+05 0.49107069D+05 0.49107069D+05 0.11479844D+01  1  2  5  1  7  1        1 0.125663563807D-05 0.100000000000D+01
0.271067953463D-06 0.000000000000D+00 -.376676084693D-06 0.827664494616D-07 0.000000000000D+00  7 21 -1 23 -11 11 23 -1 2 0.57054368D+00 0.17426070D-01 0.49107069D+05 0.49107069D+05 0.49107069D+05 0.11479844D+01  1  2  5  3  7  1        1 0.229357419023D-07 0.100000000000D+01
  </mgrwgt>
  </event>
  <event>
  8     66 0.25924217E-05 0.17198750E+03 0.75467711E-02 0.99208657E-01
        1 -1    0    0  501    0 0.00000000E+00 0.00000000E+00 0.57290966E+03 0.57290975E+03 0.32000000E+00 0.0000E+00 0.9000E+01
       -1 -1    0    0    0  501 0.00000000E+00 0.00000000E+00 -.15675253E+03 0.15675286E+03 0.32000000E+00 0.0000E+00 0.9000E+01
       25  2    1    2    0    0 0.30701492E+02 0.80872811E+02 0.49185327E+03 0.58293787E+03 0.30068908E+03 0.0000E+00 0.0000E+00
       23  2    3    3    0    0 0.15651526E+02 0.11317286E+03 0.45585205E+03 0.47862519E+03 0.90707891E+02 0.0000E+00 0.0000E+00
       23  1    1    2    0    0 -.30701492E+02 -.80872811E+02 -.75696144E+02 0.14672474E+03 0.91188000E+02 0.0000E+00 0.9000E+01
      -13  1    4    4    0    0 0.58314850E+01 0.10986312E+03 0.45512811E+03 0.46823660E+03 0.10565837E+00 0.0000E+00 0.9000E+01
       13  1    4    4    0    0 0.98200414E+01 0.33097384E+01 0.72394029E+00 0.10388592E+02 0.10565837E+00 0.0000E+00 0.9000E+01
       23  1    3    3    0    0 0.15049966E+02 -.32300045E+02 0.36001226E+02 0.10431267E+03 0.91188000E+02 0.0000E+00 0.9000E+01
#aMCatNLO 1  0  0  1  2 0.30320248D+03 0.00000000D+00  -5  7  0 0.00000000D+00 0.00000000D+00 0.00000000D+00 0.00000000D+00 0.00000000D+00
  <mgrwgt>
 0.4266802448D-03    5    2    0
 0.299675145187850D+03 0.000000000000000D+00 0.000000000000000D+00 0.299675145187850D+03
 0.299675145187850D+03 0.000000000000000D+00 0.000000000000000D+00 -.299675145187850D+03
 0.231185423556711D+03 -.307014921699966D+02 -.808728114079068D+02 -.194032099083149D+03
 0.254025290742599D+03 0.583147981331722D+01 0.109863261849000D+03 0.228964857294623D+03
 0.121443123850765D+02 0.982004676076315D+01 0.330959379266688D+01 -.633226609124158D+01
 0.101995263691314D+03 0.150499655959162D+02 -.323000442337601D+02 -.286004921202325D+02
 0.000000000000000D+00 -.000000000000000D+00 0.000000000000000D+00 0.000000000000000D+00
 0.732825545755545D+03 0.000000000000000D+00 0.000000000000000D+00 0.732825545755545D+03
 0.393732990055433D+03 0.000000000000000D+00 0.000000000000000D+00 -.393732990055433D+03
 0.299460444205322D+03 -.265122597972382D+02 -.207388405909008D+03 -.194032099083149D+03
 0.229230504970146D+03 0.964658692469646D+01 -.535368038132862D+01 0.228964857294623D+03
 0.121009161268420D+02 0.100114529364023D+02 -.247090820565640D+01 -.633226609124158D+01
 0.130887011446578D+03 0.168884760325730D+02 -.878234003508987D+02 -.286004921202325D+02
 0.454879659062091D+03 -.100342560964335D+02 0.303036394846892D+03 0.339092555700112D+03
0.651068620596D-05 0.000000000000D+00 0.000000000000D+00 0.332313539873D-06 0.000000000000D+00  7 1 -1 23 -13 13 23 21 0 0.88139980D-01 0.24115806D-01 0.29579698D+05 0.29579698D+05 0.29579698D+05 0.11679049D+01  1  2  2  1  7  1        1 0.410816813745D-03 0.100000000000D+01
-.226106082286D-06 0.000000000000D+00 -.250027493339D-07 0.332313539873D-06 0.000000000000D+00  7 1 -1 23 -13 13 23 21 2 0.88139980D-01 0.24115806D-01 0.29579698D+05 0.29579698D+05 0.29579698D+05 0.11679049D+01  1  2  3  1  7  1        1 -.194602594329D-04 0.100000000000D+01
0.399804962325D-06 0.000000000000D+00 0.000000000000D+00 0.332313539873D-06 0.000000000000D+00  7 1 -1 23 -13 13 23 21 2 0.88139980D-01 0.24115806D-01 0.29579698D+05 0.29579698D+05 0.29579698D+05 0.11679049D+01  1  2 15  1  7  1        1 0.344099911454D-04 0.100000000000D+01
-.207888065821D-07 0.000000000000D+00 -.201660798091D-05 0.332313539873D-06 0.000000000000D+00  7 1 -1 23 -13 13 23 21 2 0.24828276D+00 0.24115806D-01 0.29579698D+05 0.29579698D+05 0.29579698D+05 0.11679049D+01  1  2  5  1  7  1        1 -.295008230049D-06 0.100000000000D+01
0.109200596624D-06 0.000000000000D+00 -.234804307667D-06 0.332313539873D-06 0.000000000000D+00  7 21 -1 23 -13 13 23 -1 2 0.24828276D+00 0.24115806D-01 0.29579698D+05 0.29579698D+05 0.29579698D+05 0.11679049D+01  1  2  5  3  7  1        1 0.120870759458D-05 0.100000000000D+01
  </mgrwgt>
  </event>
  <event>
  9     66 -.25924217E-05 0.21047447E+03 0.75467711E-02 0.10523852E+00
        1 -1    0    0  502    0 0.00000000E+00 0.00000000E+00 0.67678075E+03 0.67678082E+03 0.32000000E+00 0.0000E+00 0.9000E+01
       -1 -1    0    0    0  501 0.00000000E+00 0.00000000E+00 -.36302188E+03 0.36302202E+03 0.32000000E+00 0.0000E+00 0.9000E+01
       25  2    1    2    0    0 0.12639606E+03 -.64695547E+02 -.27005728E+03 0.42751983E+03 0.29946752E+03 0.0000E+00 0.0000E+00
       23  2    3    3    0    0 0.83729902E+01 0.12494510E+02 -.24192191E+03 0.25724182E+03 0.86144801E+02 0.0000E+00 0.0000E+00
       23  1    1    2    0    0 -.12666961E+03 0.51952623E+02 0.57087920E+03 0.59410654E+03 0.91188000E+02 0.0000E+00 0.9000E+01
      -11  1    4    4    0    0 -.26153322E+02 -.24624371E+02 -.83270919E+02 0.90688487E+02 0.51099893E-03 0.0000E+00 0.9000E+01
       11  1    4    4    0    0 0.34526312E+02 0.37118881E+02 -.15865099E+03 0.16655333E+03 0.51099893E-03 0.0000E+00 0.9000E+01
       23  1    3    3    0    0 0.11802307E+03 -.77190058E+02 -.28135378E+02 0.17027801E+03 0.91188000E+02 0.0000E+00 0.9000E+01
       21  1    1    2  502  501 0.27355401E+00 0.12742924E+02 0.12936945E+02 0.18176468E+02 0.75000000E+00 0.0000E+00 0.9000E+01
#aMCatNLO 2  0  0  1  2 0.12745860D+02 0.00000000D+00  -5  7  0 0.00000000D+00 0.00000000D+00 0.00000000D+00 0.00000000D+00 0.00000000D+00
  <mgrwgt>
 -.1907808084D-03    3    2    0
 0.488125026093919D+03 0.000000000000000D+00 0.000000000000000D+00 0.488125026093919D+03
 0.488125026093919D+03 0.000000000000000D+00 0.000000000000000D+00 -.488125026093919D+03
 0.446452535694907D+03 -.126544615031658D+03 0.577754467364722D+02 0.414310358843829D+03
 0.120234080624686D+03 -.261195877255849D+02 -.230529521732748D+02 -.115076334130027D+03
 0.223675708484298D+03 0.345889131002038D+02 0.400350310376518D+02 -.217328382744439D+03
 0.185887727383948D+03 0.118075289657039D+03 -.747575256008492D+02 -.819056419693630D+02
 0.000000000000000D+00 0.000000000000000D+00 0.000000000000000D+00 0.000000000000000D+00
 0.499642311559465D+03 0.000000000000000D+00 0.000000000000000D+00 0.499642311559465D+03
 0.491705782584677D+03 0.000000000000000D+00 0.000000000000000D+00 -.491705782584677D+03
 0.445771904690945D+03 -.126669614344315D+03 0.519526228823266D+02 0.414310358843829D+03
 0.120552555123683D+03 -.261533215739342D+02 -.246243708689885D+02 -.115076334130027D+03
 0.223162504658929D+03 0.345263117333463D+02 0.371188811445723D+02 -.217328382744439D+03
 0.186846288751192D+03 0.118023070177599D+03 -.771900576210039D+02 -.819056419693630D+02
 0.150148409193922D+02 0.273554007304246D+00 0.127429244630934D+02 0.793652897478722D+01
-.400963015899D-04 0.000000000000D+00 0.000000000000D+00 0.656477184165D-07 0.000000000000D+00  7 1 -1 23 -11 11 23 21 2 0.10448538D+00 0.55441771D-01 0.46612078D+05 0.46612078D+05 0.46612078D+05 0.11499853D+01  1  2 13  1  7  1        1 -.635080631954D-03 0.100000000000D+01
-.212260665228D-03 0.000000000000D+00 0.000000000000D+00 0.656477184165D-07 0.000000000000D+00  7 1 -1 23 -11 11 23 21 2 0.10171812D+00 0.55441771D-01 0.44299505D+05 0.44299505D+05 0.44299505D+05 0.11519484D+01  1  2  8  1  7  1        1 -.351376472780D-02 0.100000000000D+01
0.251928153047D-03 0.000000000000D+00 0.000000000000D+00 0.656477184165D-07 0.285083603466D-08  7 1 -1 23 -11 11 23 21 2 0.10411816D+00 0.55848478D-01 0.46612078D+05 0.46612078D+05 0.46612078D+05 0.11499853D+01  1  2  1  1  7  1        1 0.395806455138D-02 0.100000000000D+01
  </mgrwgt>
  </event>
  <event>
  8     66 0.25924217E-05 0.17003372E+03 0.75467711E-02 0.91293546E-01
        1 -1    0    0  501    0 0.00000000E+00 0.00000000E+00 0.15286705E+04 0.15286705E+04 0.32000000E+00 0.0000E+00 0.9000E+01
       -1 -1    0    0    0  501 0.00000000E+00 0.00000000E+00 -.32718417E+03 0.32718433E+03 0.32000000E+00 0.0000E+00 0.9000E+01
       25  2    1    2    0    0 -.25135299E+03 0.58493373E+03 0.34240186E+03 0.78269730E+03 0.30008371E+03 0.0000E+00 0.0000E+00
       23  2    3    3    0    0 -.19926905E+03 0.50190607E+03 0.34534882E+03 0.64879336E+03 0.10024547E+03 0.0000E+00 0.0000E+00
       23  1    1    2    0    0 0.25135299E+03 -.58493373E+03 0.85908448E+03 0.10731576E+04 0.91188000E+02 0.0000E+00 0.9000E+01
      -11  1    4    4    0    0 -.58888780E+02 0.64924846E+02 0.33204627E+02 0.93731912E+02 0.51099893E-03 0.0000E+00 0.9000E+01
       11  1    4    4    0    0 -.14038027E+03 0.43698122E+03 0.31214420E+03 0.55506144E+03 0.51099893E-03 0.0000E+00 0.9000E+01
       23  1    3    3    0    0 -.52083939E+02 0.83027661E+02 -.29469636E+01 0.13390394E+03 0.91188000E+02 0.0000E+00 0.9000E+01
#aMCatNLO 1  0  0  1  2 0.32501793D+02 0.00000000D+00  -5  7  0 0.00000000D+00 0.00000000D+00 0.00000000D+00 0.00000000D+00 0.00000000D+00
  <mgrwgt>
 0.4388332777D-03    9    2    0
 0.707217769265272D+03 0.000000000000000D+00 0.000000000000000D+00 0.707217769265272D+03
 0.707217769265272D+03 0.000000000000000D+00 0.000000000000000D+00 -.707217769265272D+03
 0.678324624782416D+03 0.251352991098952D+03 -.584933728485998D+03 0.215599750434188D+03
 0.947783869431793D+02 -.588887798699050D+02 0.649248455828002D+02 -.360529979756810D+02
 0.463136341961838D+03 -.140380272179285D+03 0.436981221456506D+03 -.619359550103371D+02
 0.178196184843111D+03 -.520839390497616D+02 0.830276614466914D+02 -.117610797448170D+03
 0.000000000000000D+00 -.000000000000000D+00 0.000000000000000D+00 0.000000000000000D+00
 0.782821139744799D+03 0.000000000000000D+00 0.000000000000000D+00 0.782821139744799D+03
 0.710906223088380D+03 0.000000000000000D+00 0.000000000000000D+00 -.710906223088380D+03
 0.691151021501050D+03 0.263987436745693D+03 -.594307886563100D+03 0.215599750434188D+03
 0.928277280634662D+02 -.571579719731159D+02 0.636406683993095D+02 -.360529979756810D+02
 0.454684903643555D+03 -.131912679000468D+03 0.430698669834521D+03 -.619359550103371D+02
 0.176145259403747D+03 -.488148719948824D+02 0.806021690908008D+02 -.117610797448170D+03
 0.789184502213618D+02 -.261019137772262D+02 0.193663792384693D+02 0.719149166564183D+02
0.814935696332D-04 0.000000000000D+00 0.000000000000D+00 0.841181002030D-07 0.000000000000D+00  7 1 -1 23 -11 11 23 21 0 0.23518009D+00 0.50336041D-01 0.43801267D+06 0.43801267D+06 0.43801267D+06 0.10725969D+01  1  2  2  1  7  1        1 0.245054857662D-03 0.100000000000D+01
-.450319658406D-05 0.000000000000D+00 -.312956765141D-06 0.841181002030D-07 0.000000000000D+00  7 1 -1 23 -11 11 23 21 2 0.23518009D+00 0.50336041D-01 0.43801267D+06 0.43801267D+06 0.43801267D+06 0.10725969D+01  1  2  3  1  7  1        1 -.155787976246D-04 0.100000000000D+01
0.491141843341D-05 0.000000000000D+00 0.000000000000D+00 0.841181002030D-07 0.000000000000D+00  7 1 -1 23 -11 11 23 21 2 0.23518009D+00 0.50336041D-01 0.43801267D+06 0.43801267D+06 0.43801267D+06 0.10725969D+01  1  2 15  1  7  1        1 0.169910401191D-04 0.100000000000D+01
0.925251593001D-03 0.000000000000D+00 0.000000000000D+00 0.841181002030D-07 0.000000000000D+00  7 1 -1 23 -11 11 23 21 2 0.26089564D+00 0.50336041D-01 0.45987475D+06 0.45987475D+06 0.45987475D+06 0.10710875D+01  1  2 12  1  7  1        1 0.245868863873D-02 0.100000000000D+01
-.935401427992D-03 0.000000000000D+00 0.000000000000D+00 0.841181002030D-07 0.000000000000D+00  7 1 -1 23 -11 11 23 21 2 0.23518009D+00 0.50336041D-01 0.43801267D+06 0.43801267D+06 0.43801267D+06 0.10725969D+01  1  2  4  1  7  1        1 -.323601896396D-02 0.100000000000D+01
-.123116639829D-02 0.000000000000D+00 -.880439893172D-04 0.841181002030D-07 0.000000000000D+00  7 1 -1 23 -11 11 23 21 2 0.26082427D+00 0.50336041D-01 0.43801267D+06 0.43801267D+06 0.43801267D+06 0.10725969D+01  1  2  5  1  7  1        1 -.329140107064D-02 0.100000000000D+01
0.123413250431D-02 0.000000000000D+00 0.875745528568D-04 0.841181002030D-07 0.000000000000D+00  7 1 -1 23 -11 11 23 21 2 0.23518009D+00 0.50336041D-01 0.43801267D+06 0.43801267D+06 0.43801267D+06 0.10725969D+01  1  2  6  1  7  1        1 0.426947839557D-02 0.100000000000D+01
0.155149868916D-04 0.000000000000D+00 0.000000000000D+00 0.841181002030D-07 0.000000000000D+00  7 21 -1 23 -11 11 23 -1 2 0.26089564D+00 0.50336041D-01 0.45987475D+06 0.45987475D+06 0.45987475D+06 0.10710875D+01  1  2 12  3  7  1        1 0.262877113032D-04 0.100000000000D+01
-.202882841643D-04 0.000000000000D+00 -.147301009993D-05 0.841181002030D-07 0.000000000000D+00  7 21 -1 23 -11 11 23 -1 2 0.26082427D+00 0.50336041D-01 0.43801267D+06 0.43801267D+06 0.43801267D+06 0.10725969D+01  1  2  5  3  7  1        1 -.346685335013D-04 0.100000000000D+01
  </mgrwgt>
  </event>
  <event>
  7     66 0.25924217E-05 0.48630038E+03 0.75467711E-02 0.90431192E-01
        1 -1    0    0  501    0 0.00000000E+00 0.00000000E+00 0.84814310E+03 0.84814316E+03 0.32000000E+00 0.0000E+00 0.9000E+01
       -1 -1    0    0    0  501 0.00000000E+00 0.00000000E+00 -.85455495E+03 0.85455501E+03 0.32000000E+00 0.0000E+00 0.9000E+01
       25  2    1    2    0    0 0.41810090E+03 -.14643497E+03 -.69614007E+03 0.87790011E+03 0.29974330E+03 0.0000E+00 0.0000E+00
       23  1    1    2    0    0 -.41810090E+03 0.14643497E+03 0.68972822E+03 0.82479805E+03 0.91188000E+02 0.0000E+00 0.9000E+01
      -13  1    3    3    0    0 0.13709939E+03 -.16910128E+03 -.30585313E+03 0.37541662E+03 0.10565837E+00 0.0000E+00 0.9000E+01
       13  1    3    3    0    0 0.84843206E+02 -.22020919E+01 -.50030788E+02 0.98520605E+02 0.10565837E+00 0.0000E+00 0.9000E+01
       23  1    3    3    0    0 0.19615830E+03 0.24868401E+02 -.34025615E+03 0.40396289E+03 0.91188000E+02 0.0000E+00 0.9000E+01
#aMCatNLO 1  0  0  2  2 0.42142566D+03 0.00000000D+00  -5  7  0 0.00000000D+00 0.00000000D+00 0.00000000D+00 0.00000000D+00 0.00000000D+00
  <mgrwgt>
 0.5880137677D-03    4    2    0
 0.851343047725175D+03 0.000000000000000D+00 0.000000000000000D+00 0.851343047725175D+03
 0.851343047725175D+03 0.000000000000000D+00 0.000000000000000D+00 -.851343047725175D+03
 0.827401231872311D+03 -.418100898537172D+03 0.146434971715865D+03 0.692839075731732D+03
 0.374267626552999D+03 0.137099407370108D+03 -.169101379948181D+03 -.304441672712527D+03
 0.983327135908966D+02 0.848431487578088D+02 -.220201277900878D+01 -.496599819848004D+02
 0.402684523434143D+03 0.196158342409255D+03 0.248684210113251D+02 -.338737421034405D+03
 0.000000000000000D+00 0.000000000000000D+00 -.000000000000000D+00 0.000000000000000D+00
 0.114034432123265D+04 0.000000000000000D+00 0.000000000000000D+00 0.114034432123265D+04
 0.104565242430640D+04 0.000000000000000D+00 0.000000000000000D+00 -.104565242430640D+04
 0.900592060133069D+03 -.443008637888511D+03 0.355623634375010D+03 0.692839075731732D+03
 0.339988843371623D+03 0.126803931070982D+03 -.826344032356884D+02 -.304441672712527D+03
 0.982758562866081D+02 0.820091823093250D+02 0.215991697778239D+02 -.496599819848004D+02
 0.415206957698984D+03 0.184369044427605D+03 0.123881319921359D+03 -.338737421034405D+03
 0.431933028048761D+03 0.498264800805998D+02 -.418469720838505D+03 0.946918969262555D+02
0.629674078079D-03 0.000000000000D+00 0.000000000000D+00 0.550607529764D-08 0.000000000000D+00  7 1 -1 23 -13 13 23 21 0 0.13048356D+00 0.13147000D+00 0.23648806D+06 0.23648806D+06 0.23648806D+06 0.10922791D+01  1  2  2  2  7  2       -1 0.804216032940D-03 0.100000000000D+01
-.216441220206D-04 0.000000000000D+00 -.241811425682D-05 0.550607529764D-08 0.000000000000D+00  7 1 -1 23 -13 13 23 21 2 0.13048356D+00 0.13147000D+00 0.23648806D+06 0.23648806D+06 0.23648806D+06 0.10922791D+01  1  2  3  2  7  2       -1 -.329810246651D-04 0.100000000000D+01
0.374096257581D-04 0.000000000000D+00 0.000000000000D+00 0.550607529764D-08 0.000000000000D+00  7 1 -1 23 -13 13 23 21 2 0.13048356D+00 0.13147000D+00 0.23648806D+06 0.23648806D+06 0.23648806D+06 0.10922791D+01  1  2 15  2  7  2       -1 0.570042891398D-04 0.100000000000D+01
-.157650368072D-03 0.000000000000D+00 0.000000000000D+00 0.550607529764D-08 0.000000000000D+00  7 1 -1 23 -13 13 23 21 2 0.13048356D+00 0.13147000D+00 0.23648806D+06 0.23648806D+06 0.23648806D+06 0.10922791D+01  1  2  4  2  7  2       -1 -.240225529725D-03 0.100000000000D+01
  </mgrwgt>
  </event>
  <event>
  8     66 0.25924217E-05 0.87060811E+02 0.75467711E-02 0.10023208E+00
        1 -1    0    0  501    0 0.00000000E+00 0.00000000E+00 0.58612806E+03 0.58612815E+03 0.32000000E+00 0.0000E+00 0.9000E+01
       -1 -1    0    0    0  501 0.00000000E+00 0.00000000E+00 -.51499787E+03 0.51499796E+03 0.32000000E+00 0.0000E+00 0.9000E+01
       25  2    1    2    0    0 0.44226539E+02 0.15248749E+03 0.51797098E+03 0.61822824E+03 0.29783183E+03 0.0000E+00 0.0000E+00
       23  2    3    3    0    0 0.52289624E+02 0.19660896E+03 0.26963841E+03 0.34990748E+03 0.91329526E+02 0.0000E+00 0.0000E+00
       23  1    1    2    0    0 -.44226539E+02 -.15248749E+03 -.44684078E+03 0.48289787E+03 0.91188000E+02 0.0000E+00 0.9000E+01
      -11  1    4    4    0    0 0.77571314E+02 0.16257492E+03 0.22687271E+03 0.28968801E+03 0.51099893E-03 0.0000E+00 0.9000E+01
       11  1    4    4    0    0 -.25281690E+02 0.34034032E+02 0.42765699E+02 0.60219467E+02 0.51099893E-03 0.0000E+00 0.9000E+01
       23  1    3    3    0    0 -.80630843E+01 -.44121463E+02 0.24833256E+03 0.26832076E+03 0.91188000E+02 0.0000E+00 0.9000E+01
#aMCatNLO 1  0  0  1  2 0.10974961D+03 0.00000000D+00  -5  7  0 0.00000000D+00 0.00000000D+00 0.00000000D+00 0.00000000D+00 0.00000000D+00
  <mgrwgt>
 0.5155789272D-03    9    2    0
 0.549413143345908D+03 0.000000000000000D+00 0.000000000000000D+00 0.549413143345908D+03
 0.549413143345908D+03 0.000000000000000D+00 0.000000000000000D+00 -.549413143345908D+03
 0.512833864098298D+03 -.442265394883327D+02 -.152487493195813D+03 -.479035383292023D+03
 0.275608197511716D+03 0.775713142800974D+02 0.162574924893648D+03 0.208595214548034D+03
 0.575771584732312D+02 -.252816904848180D+02 0.340340317697134D+02 0.389570274222711D+02
 0.252807066608570D+03 -.806308430694672D+01 -.441214634675484D+02 0.231483141321719D+03
 0.000000000000000D+00 -.000000000000000D+00 0.000000000000000D+00 0.000000000000000D+00
 0.652243788963971D+03 0.000000000000000D+00 0.000000000000000D+00 0.652243788963971D+03
 0.582230016686990D+03 0.000000000000000D+00 0.000000000000000D+00 -.582230016686990D+03
 0.513389387134835D+03 0.627390139216170D+01 -.160434258169094D+03 -.479035383292023D+03
 0.282108926964835D+03 0.105016571088325D+03 0.158256130806238D+03 0.208595214548034D+03
 0.548408112335552D+02 -.197496027775273D+02 0.331635007395893D+02 0.389570274222711D+02
 0.253954398099269D+03 0.168746447478563D+02 -.480456722132667D+02 0.231483141321719D+03
 0.130180282218467D+03 -.108415514450816D+03 0.170602988365335D+02 0.700137722769810D+02
0.724862911934D-04 0.000000000000D+00 0.000000000000D+00 0.218506313178D-06 0.000000000000D+00  7 1 -1 23 -11 11 23 21 0 0.90173562D-01 0.79230455D-01 0.64324662D+05 0.64324662D+05 0.64324662D+05 0.11377945D+01  1  2  2  1  7  1        1 0.539844100041D-03 0.100000000000D+01
-.110134471216D-05 0.000000000000D+00 -.278366444261D-06 0.218506313178D-06 0.000000000000D+00  7 1 -1 23 -11 11 23 21 2 0.90173562D-01 0.79230455D-01 0.64324662D+05 0.64324662D+05 0.64324662D+05 0.11377945D+01  1  2  3  1  7  1        1 -.106185061378D-04 0.100000000000D+01
0.417617999112D-05 0.000000000000D+00 0.000000000000D+00 0.218506313178D-06 0.000000000000D+00  7 1 -1 23 -11 11 23 21 2 0.90173562D-01 0.79230455D-01 0.64324662D+05 0.64324662D+05 0.64324662D+05 0.11377945D+01  1  2 15  1  7  1        1 0.402642264300D-04 0.100000000000D+01
0.795977351548D-04 0.000000000000D+00 0.000000000000D+00 0.218506313178D-06 0.000000000000D+00  7 1 -1 23 -11 11 23 21 2 0.10937517D+00 0.79230455D-01 0.98397275D+05 0.98397275D+05 0.98397275D+05 0.11222983D+01  1  2 12  1  7  1        1 0.554283227363D-03 0.100000000000D+01
-.105888419846D-03 0.000000000000D+00 0.000000000000D+00 0.218506313178D-06 0.000000000000D+00  7 1 -1 23 -11 11 23 21 2 0.90173562D-01 0.79230455D-01 0.64324662D+05 0.64324662D+05 0.64324662D+05 0.11377945D+01  1  2  4  1  7  1        1 -.102091272935D-02 0.100000000000D+01
-.137699849410D-03 0.000000000000D+00 -.487777147331D-04 0.218506313178D-06 0.000000000000D+00  7 1 -1 23 -11 11 23 21 2 0.11146166D+00 0.79230455D-01 0.64324662D+05 0.64324662D+05 0.64324662D+05 0.11377945D+01  1  2  5  1  7  1        1 -.974129314890D-03 0.100000000000D+01
0.145825872875D-03 0.000000000000D+00 0.477022947138D-04 0.218506313178D-06 0.000000000000D+00  7 1 -1 23 -11 11 23 21 2 0.90173562D-01 0.79230455D-01 0.64324662D+05 0.64324662D+05 0.64324662D+05 0.11377945D+01  1  2  6  1  7  1        1 0.140596573359D-02 0.100000000000D+01
0.221665289659D-05 0.000000000000D+00 0.000000000000D+00 0.218506313178D-06 0.000000000000D+00  7 21 -1 23 -11 11 23 -1 2 0.10937517D+00 0.79230455D-01 0.98397275D+05 0.98397275D+05 0.98397275D+05 0.11222983D+01  1  2 12  3  7  1        1 0.320646466780D-04 0.100000000000D+01
-.349845909119D-05 0.000000000000D+00 -.145901515844D-05 0.218506313178D-06 0.000000000000D+00  7 21 -1 23 -11 11 23 -1 2 0.11146166D+00 0.79230455D-01 0.64324662D+05 0.64324662D+05 0.64324662D+05 0.11377945D+01  1  2  5  3  7  1        1 -.511824565084D-04 0.100000000000D+01
  </mgrwgt>
  </event>
  <event>
  8     66 0.25924217E-05 0.19745697E+03 0.75467711E-02 0.10084926E+00
        1 -1    0    0  501    0 0.00000000E+00 0.00000000E+00 0.10211812E+03 0.10211862E+03 0.32000000E+00 0.0000E+00 0.9000E+01
       -1 -1    0    0    0  501 0.00000000E+00 0.00000000E+00 -.90524754E+03 0.90524759E+03 0.32000000E+00 0.0000E+00 0.9000E+01
       25  2    1    2    0    0 -.47186312E+02 -.81902345E+02 -.81730927E+03 0.87526450E+03 0.29859499E+03 0.0000E+00 0.0000E+00
       23  2    3    3    0    0 0.41247889E+02 0.31307510E+02 -.53963613E+03 0.54960409E+03 0.90421016E+02 0.0000E+00 0.0000E+00
       23  1    1    2    0    0 0.47186312E+02 0.81902345E+02 0.14179845E+02 0.13210171E+03 0.91188000E+02 0.0000E+00 0.9000E+01
      -13  1    4    4    0    0 -.75127267E+01 -.20765525E+02 -.48210569E+02 0.53027523E+02 0.10565837E+00 0.0000E+00 0.9000E+01
       13  1    4    4    0    0 0.48760616E+02 0.52073035E+02 -.49142556E+03 0.49657657E+03 0.10565837E+00 0.0000E+00 0.9000E+01
       23  1    3    3    0    0 -.88434201E+02 -.11320985E+03 -.27767314E+03 0.32566041E+03 0.91188000E+02 0.0000E+00 0.9000E+01
#aMCatNLO 1  0  0  2  1 0.15822553D+03 0.00000000D+00  -5  7  0 0.00000000D+00 0.00000000D+00 0.00000000D+00 0.00000000D+00 0.00000000D+00
  <mgrwgt>
 0.8047755635D-03    3    2    0
 0.304043506486771D+03 0.000000000000000D+00 0.000000000000000D+00 0.304043506486771D+03
 0.304043506486771D+03 0.000000000000000D+00 0.000000000000000D+00 -.304043506486771D+03
 0.237569698709453D+03 0.471863119763622D+02 0.819023449277256D+02 0.197963552853320D+03
 0.241720088924309D+02 -.751280346892773D+01 -.207656244461798D+02 -.983019019618881D+01
 0.173587421013036D+03 0.487606926605272D+02 0.520731342773062D+02 -.158250991376864D+03
 0.172757884358624D+03 -.884342011679617D+02 -.113209854758852D+03 -.298823712802679D+02
 0.000000000000000D+00 -.000000000000000D+00 0.000000000000000D+00 0.000000000000000D+00
 0.709885499409152D+03 0.000000000000000D+00 0.000000000000000D+00 0.709885499409152D+03
 0.329983996276353D+03 0.000000000000000D+00 0.000000000000000D+00 -.329983996276353D+03
 0.250748632731295D+03 0.106758497125165D+03 0.630292035954805D+02 0.197963552853320D+03
 0.247452082855736D+02 -.154516856549403D+01 -.226562386089877D+02 -.983019019618881D+01
 0.187370530894319D+03 0.927956029996796D+02 0.381223771528589D+02 -.158250991376864D+03
 0.165470835893085D+03 -.471721336841763D+02 -.126282143937718D+03 -.298823712802679D+02
 0.411534287881232D+03 -.150836797875175D+03 0.477868017983664D+02 0.379901503132799D+03
0.378208354754D-04 0.000000000000D+00 0.000000000000D+00 0.926629028586D-07 0.000000000000D+00  7 1 -1 23 -13 13 23 21 0 0.15710522D-01 0.13926889D+00 0.38989254D+05 0.38989254D+05 0.38989254D+05 0.11569202D+01  1  2  2  2  7  2       -1 0.785297928449D-03 0.100000000000D+01
-.162516089486D-05 0.000000000000D+00 -.145241966680D-06 0.926629028586D-07 0.000000000000D+00  7 1 -1 23 -13 13 23 21 2 0.15710522D-01 0.13926889D+00 0.38989254D+05 0.38989254D+05 0.38989254D+05 0.11569202D+01  1  2  3  2  7  2       -1 -.451654672780D-04 0.100000000000D+01
0.232601251249D-05 0.000000000000D+00 0.000000000000D+00 0.926629028586D-07 0.000000000000D+00  7 1 -1 23 -13 13 23 21 2 0.15710522D-01 0.13926889D+00 0.38989254D+05 0.38989254D+05 0.38989254D+05 0.11569202D+01  1  2 15  2  7  2       -1 0.646431023252D-04 0.100000000000D+01
  </mgrwgt>
  </event>
  <event>
  8     66 0.25924217E-05 0.29496048E+03 0.75467711E-02 0.96632019E-01
        1 -1    0    0  501    0 0.00000000E+00 0.00000000E+00 0.38290112E+03 0.38290125E+03 0.32000000E+00 0.0000E+00 0.9000E+01
       -1 -1    0    0    0  501 0.00000000E+00 0.00000000E+00 -.61866690E+03 0.61866698E+03 0.32000000E+00 0.0000E+00 0.9000E+01
       25  2    1    2    0    0 -.12219692E+03 -.36100801E+03 0.87823826E+02 0.49335140E+03 0.30070535E+03 0.0000E+00 0.0000E+00
       23  2    3    3    0    0 -.53163893E+02 -.30968663E+03 0.14260238E+03 0.35654722E+03 0.89767864E+02 0.0000E+00 0.0000E+00
       23  1    1    2    0    0 0.12219692E+03 0.36100801E+03 -.32358960E+03 0.50821683E+03 0.91188000E+02 0.0000E+00 0.9000E+01
      -13  1    4    4    0    0 -.34537194E+02 -.89622054E+02 0.46669483E+01 0.96159876E+02 0.10565837E+00 0.0000E+00 0.9000E+01
       13  1    4    4    0    0 -.18626698E+02 -.22006458E+03 0.13793543E+03 0.26038734E+03 0.10565837E+00 0.0000E+00 0.9000E+01
       23  1    3    3    0    0 -.69033027E+02 -.51321371E+02 -.54778552E+02 0.13680418E+03 0.91188000E+02 0.0000E+00 0.9000E+01
#aMCatNLO 1  0  0  1  2 0.67779963D+01 0.00000000D+00  -5  7  0 0.00000000D+00 0.00000000D+00 0.00000000D+00 0.00000000D+00 0.00000000D+00
  <mgrwgt>
 0.1517861722D-03   11    2    0
 0.486711777829189D+03 0.000000000000000D+00 0.000000000000000D+00 0.486711777829189D+03
 0.486711777829189D+03 0.000000000000000D+00 0.000000000000000D+00 -.486711777829189D+03
 0.444536685432861D+03 0.122196920293517D+03 0.361008005863396D+03 -.209854105809129D+03
 0.100070223378350D+03 -.345372164892186D+02 -.896218727957113D+02 0.280918173274534D+02
 0.301324549755352D+03 -.186266764588721D+02 -.220064762092590D+03 0.204990320977587D+03
 0.127492097091815D+03 -.690330273454265D+02 -.513213709750941D+02 -.232280324959110D+02
 0.000000000000000D+00 0.000000000000000D+00 0.000000000000000D+00 0.000000000000000D+00
 0.548208825367944D+03 0.000000000000000D+00 0.000000000000000D+00 0.548208825367944D+03
 0.486910374355468D+03 0.000000000000000D+00 0.000000000000000D+00 -.486910374355468D+03
 0.442886888939825D+03 0.119294347711333D+03 0.359949521363726D+03 -.209854105809129D+03
 0.100512377274395D+03 -.351932792465431D+02 -.898611199600032D+02 0.280918173274534D+02
 0.301978679434573D+03 -.205999522004225D+02 -.220784358838879D+03 0.204990320977587D+03
 0.128069207485163D+03 -.698689136765470D+02 -.516261946099647D+02 -.232280324959110D+02
 0.616720465894568D+02 0.636779741217927D+01 0.232215204512088D+01 0.612984510124760D+02
0.183629199472D-04 0.000000000000D+00 0.000000000000D+00 0.313951210355D-06 0.000000000000D+00  7 1 -1 23 -13 13 23 21 0 0.58907881D-01 0.95179539D-01 0.17394805D+06 0.17394805D+06 0.17394805D+06 0.11025110D+01  1  2  2  1  7  1        1 0.161972810476D-03 0.100000000000D+01
-.990586447394D-06 0.000000000000D+00 -.705184476650D-07 0.313951210355D-06 0.000000000000D+00  7 1 -1 23 -13 13 23 21 2 0.58907881D-01 0.95179539D-01 0.17394805D+06 0.17394805D+06 0.17394805D+06 0.11025110D+01  1  2  3  1  7  1        1 -.106208337011D-04 0.100000000000D+01
0.112174115414D-05 0.000000000000D+00 0.000000000000D+00 0.313951210355D-06 0.000000000000D+00  7 1 -1 23 -13 13 23 21 2 0.58907881D-01 0.95179539D-01 0.17394805D+06 0.17394805D+06 0.17394805D+06 0.11025110D+01  1  2 15  1  7  1        1 0.120270434601D-04 0.100000000000D+01
0.293990722348D-02 0.000000000000D+00 0.000000000000D+00 0.313951210355D-06 0.000000000000D+00  7 1 -1 23 -13 13 23 21 2 0.66362136D-01 0.95179539D-01 0.17681447D+06 0.17681447D+06 0.17681447D+06 0.11019591D+01  1  2 12  1  7  1        1 0.267921940118D-01 0.100000000000D+01
-.312700002531D-02 0.000000000000D+00 0.000000000000D+00 0.313951210355D-06 0.000000000000D+00  7 1 -1 23 -13 13 23 21 2 0.58907881D-01 0.95179539D-01 0.17394805D+06 0.17394805D+06 0.17394805D+06 0.11025110D+01  1  2  4  1  7  1        1 -.335269550068D-01 0.100000000000D+01
-.320855459854D-02 0.000000000000D+00 -.214019279115D-04 0.313951210355D-06 0.000000000000D+00  7 1 -1 23 -13 13 23 21 2 0.66363094D-01 0.95179539D-01 0.17394805D+06 0.17394805D+06 0.17394805D+06 0.11025110D+01  1  2  5  1  7  1        1 -.292855669668D-01 0.100000000000D+01
0.318858932854D-02 0.000000000000D+00 0.212508619247D-04 0.313951210355D-06 0.000000000000D+00  7 1 -1 23 -13 13 23 21 2 0.58907881D-01 0.95179539D-01 0.17394805D+06 0.17394805D+06 0.17394805D+06 0.11025110D+01  1  2  6  1  7  1        1 0.341873009555D-01 0.100000000000D+01
0.204241203861D-03 0.000000000000D+00 0.000000000000D+00 0.313951210355D-06 0.445569901257D-07  7 1 -1 23 -13 13 23 21 2 0.66351015D-01 0.95218376D-01 0.17681447D+06 0.17681447D+06 0.17681447D+06 0.11019591D+01  1  2 11  1  7  1        1 0.186007981003D-02 0.100000000000D+01
0.554492060356D-04 0.000000000000D+00 0.000000000000D+00 0.313951210355D-06 0.000000000000D+00  7 21 -1 23 -13 13 23 -1 2 0.66362136D-01 0.95179539D-01 0.17681447D+06 0.17681447D+06 0.17681447D+06 0.11019591D+01  1  2 12  3  7  1        1 0.172307488255D-02 0.100000000000D+01
-.604245799144D-04 0.000000000000D+00 -.403700140131D-06 0.313951210355D-06 0.000000000000D+00  7 21 -1 23 -13 13 23 -1 2 0.66363094D-01 0.95179539D-01 0.17394805D+06 0.17394805D+06 0.17394805D+06 0.11025110D+01  1  2  5  3  7  1        1 -.188156998416D-02 0.100000000000D+01
0.385873853573D-05 0.000000000000D+00 0.000000000000D+00 0.313951210355D-06 0.841648905653D-09  7 21 -1 23 -13 13 23 -1 2 0.66351015D-01 0.95218376D-01 0.17681447D+06 0.17681447D+06 0.17681447D+06 0.11019591D+01  1  2 11  3  7  1        1 0.119849449889D-03 0.100000000000D+01
  </mgrwgt>
  </event>
  <event>
  8     66 0.25924217E-05 0.31231790E+03 0.75467711E-02 0.95438068E-01
        1 -1    0    0  501    0 0.00000000E+00 0.00000000E+00 0.31303623E+04 0.31303623E+04 0.32000000E+00 0.0000E+00 0.9000E+01
       -1 -1    0    0    0  501 0.00000000E+00 0.00000000E+00 -.70974456E+02 0.70975178E+02 0.32000000E+00 0.0000E+00 0.9000E+01
       25  2    1    2    0    0 -.25105483E+03 -.33225509E+03 0.18208664E+04 0.18915007E+04 0.29799034E+03 0.0000E+00 0.0000E+00
       23  2    3    3    0    0 -.39028086E+02 -.20698692E+03 0.63916325E+03 0.68096974E+03 0.10403537E+03 0.0000E+00 0.0000E+00
       23  1    1    2    0    0 0.25105483E+03 0.33225509E+03 0.12385214E+04 0.13098368E+04 0.91188000E+02 0.0000E+00 0.9000E+01
      -11  1    4    4    0    0 -.70687913E+02 -.11317801E+03 0.31712504E+03 0.34405571E+03 0.51099893E-03 0.0000E+00 0.9000E+01
       11  1    4    4    0    0 0.31659827E+02 -.93808905E+02 0.32203821E+03 0.33691403E+03 0.51099893E-03 0.0000E+00 0.9000E+01
       23  1    3    3    0    0 -.21202675E+03 -.12526817E+03 0.11817032E+04 0.12105309E+04 0.91188000E+02 0.0000E+00 0.9000E+01
#aMCatNLO 1  0  0  1  2 0.98750897D+01 0.00000000D+00  -5  7  0 0.00000000D+00 0.00000000D+00 0.00000000D+00 0.00000000D+00 0.00000000D+00
  <mgrwgt>
 0.1171758801D-02   11    2    0
 0.471356492840440D+03 0.000000000000000D+00 0.000000000000000D+00 0.471356492840440D+03
 0.471356492840440D+03 0.000000000000000D+00 0.000000000000000D+00 -.471356492840440D+03
 0.428669591018979D+03 0.251054830929472D+03 0.332255087924614D+03 -.449488079436985D+02
 0.139204582039201D+03 -.706879128214780D+02 -.113178013204209D+03 -.396468405903892D+02
 0.990075823906333D+02 0.316598271363062D+02 -.938089050302171D+02 0.214600952803895D+00
 0.275831230232068D+03 -.212026745244300D+03 -.125268169690189D+03 0.843810475812838D+02
 0.000000000000000D+00 0.000000000000000D+00 0.000000000000000D+00 0.000000000000000D+00
 0.477952672724016D+03 0.000000000000000D+00 0.000000000000000D+00 0.477952672724016D+03
 0.475092879983592D+03 0.000000000000000D+00 0.000000000000000D+00 -.475092879983592D+03
 0.424797696760820D+03 0.247043221578774D+03 0.330283337705248D+03 -.449488079436985D+02
 0.140399716349929D+03 -.720021555979422D+02 -.113823978016895D+03 -.396468405903892D+02
 0.991488424589850D+02 0.307284192449792D+02 -.942667022765328D+02 0.214600952803895D+00
 0.278418450370773D+03 -.214631922072004D+03 -.126548642820161D+03 0.843810475812838D+02
 0.102808467671016D+02 0.886243684619342D+01 0.435598540834030D+01 0.285979274042417D+01
0.740655058899D-04 0.000000000000D+00 0.000000000000D+00 0.781759089389D-09 0.000000000000D+00  7 1 -1 23 -11 11 23 21 0 0.48159426D+00 0.10919204D-01 0.21222636D+06 0.21222636D+06 0.21222636D+06 0.10958517D+01  1  2  2  1  7  1        1 0.227548373569D-03 0.100000000000D+01
-.411212436807D-05 0.000000000000D+00 -.284431044513D-06 0.781759089389D-09 0.000000000000D+00  7 1 -1 23 -11 11 23 21 2 0.48159426D+00 0.10919204D-01 0.21222636D+06 0.21222636D+06 0.21222636D+06 0.10958517D+01  1  2  3  1  7  1        1 -.151714662216D-04 0.100000000000D+01
0.483049122054D-05 0.000000000000D+00 0.000000000000D+00 0.781759089389D-09 0.000000000000D+00  7 1 -1 23 -11 11 23 21 2 0.48159426D+00 0.10919204D-01 0.21222636D+06 0.21222636D+06 0.21222636D+06 0.10958517D+01  1  2 15  1  7  1        1 0.178218428789D-04 0.100000000000D+01
0.385486912605D-04 0.000000000000D+00 0.000000000000D+00 0.781759089389D-09 0.000000000000D+00  7 1 -1 23 -11 11 23 21 2 0.49022149D+00 0.10919204D-01 0.21689788D+06 0.21689788D+06 0.21689788D+06 0.10951302D+01  1  2 12  1  7  1        1 0.128557971945D-03 0.100000000000D+01
-.348186135155D-04 0.000000000000D+00 0.000000000000D+00 0.781759089389D-09 0.000000000000D+00  7 1 -1 23 -11 11 23 21 2 0.48159426D+00 0.10919204D-01 0.21222636D+06 0.21222636D+06 0.21222636D+06 0.10958517D+01  1  2  4  1  7  1        1 -.128461440256D-03 0.100000000000D+01
-.290280813716D-02 0.000000000000D+00 -.327295493900D-03 0.781759089389D-09 0.000000000000D+00  7 1 -1 23 -11 11 23 21 2 0.48952873D+00 0.10919204D-01 0.21222636D+06 0.21222636D+06 0.21222636D+06 0.10958517D+01  1  2  5  1  7  1        1 -.978237145683D-02 0.100000000000D+01
0.290781197605D-02 0.000000000000D+00 0.327251799207D-03 0.781759089389D-09 0.000000000000D+00  7 1 -1 23 -11 11 23 21 2 0.48159426D+00 0.10919204D-01 0.21222636D+06 0.21222636D+06 0.21222636D+06 0.10958517D+01  1  2  6  1  7  1        1 0.107282190967D-01 0.100000000000D+01
0.156294057393D-10 0.000000000000D+00 0.000000000000D+00 0.781759089389D-09 0.512867682364D-10  7 1 -1 23 -11 11 23 21 2 0.48833370D+00 0.11005759D-01 0.21689788D+06 0.21689788D+06 0.21689788D+06 0.10951302D+01  1  2 11  1  7  1        1 0.526145610048D-10 0.100000000000D+01
0.177993916879D-05 0.000000000000D+00 0.000000000000D+00 0.781759089389D-09 0.000000000000D+00  7 21 -1 23 -11 11 23 -1 2 0.49022149D+00 0.10919204D-01 0.21689788D+06 0.21689788D+06 0.21689788D+06 0.10951302D+01  1  2 12  3  7  1        1 0.111355105742D-05 0.100000000000D+01
-.864794597411D-05 0.000000000000D+00 -.978687812020D-06 0.781759089389D-09 0.000000000000D+00  7 21 -1 23 -11 11 23 -1 2 0.48952873D+00 0.10919204D-01 0.21222636D+06 0.21222636D+06 0.21222636D+06 0.10958517D+01  1  2  5  3  7  1        1 -.549772496156D-05 0.100000000000D+01
0.573389736876D-13 0.000000000000D+00 0.000000000000D+00 0.781759089389D-09 0.131738526171D-12  7 21 -1 23 -11 11 23 -1 2 0.48833370D+00 0.11005759D-01 0.21689788D+06 0.21689788D+06 0.21689788D+06 0.10951302D+01  1  2 11  3  7  1        1 0.366560821151D-13 0.100000000000D+01
  </mgrwgt>
  </event>
  <event>
  8     66 0.25924217E-05 0.28935278E+03 0.75467711E-02 0.96184334E-01
        3 -1    0    0  501    0 0.00000000E+00 0.00000000E+00 0.10004763E+03 0.10004888E+03 0.50000000E+00 0.0000E+00 0.9000E+01
       -3 -1    0    0    0  501 0.00000000E+00 0.00000000E+00 -.95733937E+03 0.95733950E+03 0.50000000E+00 0.0000E+00 0.9000E+01
       25  2    1    2    0    0 -.68694914E+02 0.20475204E+03 -.63149348E+03 0.73190030E+03 0.30041911E+03 0.0000E+00 0.0000E+00
       23  2    3    3    0    0 0.58993788E+02 0.79046782E+01 -.11504895E+03 0.15737137E+03 0.89368537E+02 0.0000E+00 0.0000E+00
       23  1    1    2    0    0 0.68694914E+02 -.20475204E+03 -.22579826E+03 0.32548809E+03 0.91188000E+02 0.0000E+00 0.9000E+01
      -11  1    4    4    0    0 -.16356209E+02 -.22596322E+01 -.63253296E+02 0.65372862E+02 0.51099893E-03 0.0000E+00 0.9000E+01
       11  1    4    4    0    0 0.75349997E+02 0.10164310E+02 -.51795652E+02 0.91998504E+02 0.51099893E-03 0.0000E+00 0.9000E+01
       23  1    3    3    0    0 -.12768870E+03 0.19684736E+03 -.51644453E+03 0.57452893E+03 0.91188000E+02 0.0000E+00 0.9000E+01
#aMCatNLO 1  0  0  1  1 0.24641673D+03 0.00000000D+00  -5  7  0 0.00000000D+00 0.00000000D+00 0.00000000D+00 0.00000000D+00 0.00000000D+00
  <mgrwgt>
 0.1337112056D-03    3    2    0
 0.309483868424191D+03 0.000000000000000D+00 0.000000000000000D+00 0.309483868424191D+03
 0.309483868424191D+03 0.000000000000000D+00 0.000000000000000D+00 -.309483868424191D+03
 0.243295935257717D+03 0.686949135188467D+02 -.204752035607334D+03 0.650789792499719D+02
 0.240690664816373D+02 -.163562093319222D+02 -.225963219284031D+01 -.175125223751719D+02
 0.854231358787410D+02 0.753499969199369D+02 0.101643103656676D+02 0.389381163169681D+02
 0.266179599230286D+03 -.127688701106861D+03 0.196847357434507D+03 -.865045731917682D+02
 0.000000000000000D+00 0.000000000000000D+00 -.000000000000000D+00 -.000000000000000D+00
 0.371564491484422D+03 0.000000000000000D+00 0.000000000000000D+00 0.371564491484422D+03
 0.727841327915675D+03 0.000000000000000D+00 0.000000000000000D+00 -.727841327915675D+03
 0.204075224506494D+03 -.985581557196087D+01 -.170291031098437D+03 0.650789792499719D+02
 0.315078626168506D+02 -.261145681488278D+02 0.202145916151309D+01 -.175125223751719D+02
 0.660991160866316D+02 0.487452793256374D+02 0.218360708138130D+02 0.389381163169681D+02
 0.364532676210924D+03 -.238430996404889D+03 0.245431129752891D+03 -.865045731917682D+02
 0.433190939979197D+03 0.225656100800040D+03 -.989976286297797D+02 -.356276836431254D+03
0.330837682472D-04 0.000000000000D+00 0.000000000000D+00 0.125770169814D-06 0.000000000000D+00  7 3 -3 23 -11 11 23 21 0 0.15392049D-01 0.14728309D+00 0.83725030D+05 0.83725030D+05 0.83725030D+05 0.11281082D+01  1  2  2  1  7  1        3 0.132101934938D-03 0.100000000000D+01
-.182787763709D-05 0.000000000000D+00 -.127050381225D-06 0.125770169814D-06 0.000000000000D+00  7 3 -3 23 -11 11 23 21 2 0.15392049D-01 0.14728309D+00 0.83725030D+05 0.83725030D+05 0.83725030D+05 0.11281082D+01  1  2  3  1  7  1        3 -.928844080126D-05 0.100000000000D+01
0.214456694387D-05 0.000000000000D+00 0.000000000000D+00 0.125770169814D-06 0.000000000000D+00  7 3 -3 23 -11 11 23 21 2 0.15392049D-01 0.14728309D+00 0.83725030D+05 0.83725030D+05 0.83725030D+05 0.11281082D+01  1  2 15  1  7  1        3 0.108977114760D-04 0.100000000000D+01
  </mgrwgt>
  </event>
  <event>
  8     66 0.25924217E-05 0.19278387E+03 0.75467711E-02 0.10396526E+00
        1 -1    0    0  501    0 0.00000000E+00 0.00000000E+00 0.18444807E+04 0.18444808E+04 0.32000000E+00 0.0000E+00 0.9000E+01
       -1 -1    0    0    0  501 0.00000000E+00 0.00000000E+00 -.42635050E+02 0.42636251E+02 0.32000000E+00 0.0000E+00 0.9000E+01
       25  2    1    2    0    0 0.23357824E+02 -.65171450E+02 0.56096317E+03 0.64096390E+03 0.30226171E+03 0.0000E+00 0.0000E+00
       23  2    3    3    0    0 0.94741332E+02 0.39484048E+02 0.37098788E+03 0.39508946E+03 0.89043625E+02 0.0000E+00 0.0000E+00
       23  1    1    2    0    0 -.23357824E+02 0.65171450E+02 0.12408825E+04 0.12461531E+04 0.91188000E+02 0.0000E+00 0.9000E+01
      -13  1    4    4    0    0 0.11012331E+02 -.12323723E+02 0.68776475E+01 0.17901363E+02 0.10565837E+00 0.0000E+00 0.9000E+01
       13  1    4    4    0    0 0.83729001E+02 0.51807771E+02 0.36411023E+03 0.37718810E+03 0.10565837E+00 0.0000E+00 0.9000E+01
       23  1    3    3    0    0 -.71383508E+02 -.10465550E+03 0.18997529E+03 0.24587444E+03 0.91188000E+02 0.0000E+00 0.9000E+01
#aMCatNLO 1  0  0  1  1 0.81867865D+02 0.00000000D+00  -5  7  0 0.00000000D+00 0.00000000D+00 0.00000000D+00 0.00000000D+00 0.00000000D+00
  <mgrwgt>
 0.2159469061D-03    4    2    0
 0.280429470034441D+03 0.000000000000000D+00 0.000000000000000D+00 0.280429470034441D+03
 0.280429470034441D+03 0.000000000000000D+00 0.000000000000000D+00 -.280429470034441D+03
 0.206394036427266D+03 -.233578266260833D+02 0.651714572569995D+02 0.171727516790538D+03
 0.381369737054215D+02 0.110122287785822D+02 -.123238166030017D+02 -.343697996076752D+02
 0.993612914290996D+02 0.837290896278559D+02 0.518078497915389D+02 0.133436308599373D+02
 0.216966638507096D+03 -.713834917803548D+02 -.104655490445537D+03 -.150701348042800D+03
 0.000000000000000D+00 -.000000000000000D+00 -.000000000000000D+00 -.000000000000000D+00
 0.316033930886848D+03 0.000000000000000D+00 0.000000000000000D+00 0.316033930886848D+03
 0.334748172440694D+03 0.000000000000000D+00 0.000000000000000D+00 -.334748172440694D+03
 0.217274883173328D+03 -.175239077569956D+02 0.953713591591477D+02 0.171727516790538D+03
 0.370797675611789D+02 0.120479629234427D+02 -.696222857385846D+01 -.343697996076752D+02
 0.110157421081568D+03 0.866141612339942D+02 0.667427300052011D+02 0.133436308599373D+02
 0.202290449379235D+03 -.656103238115440D+02 -.747700720441021D+02 -.150701348042800D+03
 0.839795821322320D+02 -.155278925888973D+02 -.803817885463882D+02 -.187142415538462D+02
0.768909354916D-05 0.000000000000D+00 0.000000000000D+00 0.973641907240D-08 0.000000000000D+00  7 1 -1 23 -13 13 23 21 0 0.28376636D+00 0.65593330D-02 0.37165619D+05 0.37165619D+05 0.37165619D+05 0.11588025D+01  1  2  2  1  7  1        1 0.418690381811D-03 0.100000000000D+01
-.354230591109D-06 0.000000000000D+00 -.295281438136D-07 0.973641907240D-08 0.000000000000D+00  7 1 -1 23 -13 13 23 21 2 0.28376636D+00 0.65593330D-02 0.37165619D+05 0.37165619D+05 0.37165619D+05 0.11588025D+01  1  2  3  1  7  1        1 -.259013707557D-04 0.100000000000D+01
0.470165463941D-06 0.000000000000D+00 0.000000000000D+00 0.973641907240D-08 0.000000000000D+00  7 1 -1 23 -13 13 23 21 2 0.28376636D+00 0.65593330D-02 0.37165619D+05 0.37165619D+05 0.37165619D+05 0.11588025D+01  1  2 15  1  7  1        1 0.343785384541D-04 0.100000000000D+01
-.288868160978D-05 0.000000000000D+00 0.000000000000D+00 0.973641907240D-08 0.000000000000D+00  7 1 -1 23 -13 13 23 21 2 0.28376636D+00 0.65593330D-02 0.37165619D+05 0.37165619D+05 0.37165619D+05 0.11588025D+01  1  2  4  1  7  1        1 -.211220643412D-03 0.100000000000D+01
  </mgrwgt>
  </event>
  <event>
  8     66 0.25924217E-05 0.17016700E+03 0.75467711E-02 0.93727492E-01
        1 -1    0    0  501    0 0.00000000E+00 0.00000000E+00 0.28002645E+03 0.28002664E+03 0.32000000E+00 0.0000E+00 0.9000E+01
       -1 -1    0    0    0  501 0.00000000E+00 0.00000000E+00 -.29965979E+03 0.29965996E+03 0.32000000E+00 0.0000E+00 0.9000E+01
       25  2    1    2    0    0 -.44473672E+02 0.52146088E+02 -.19845496E+03 0.36757921E+03 0.30171672E+03 0.0000E+00 0.0000E+00
       23  2    3    3    0    0 0.13624648E+02 0.70133819E+02 -.22619478E+03 0.25451409E+03 0.92244025E+02 0.0000E+00 0.0000E+00
       23  1    1    2    0    0 0.44473672E+02 -.52146088E+02 0.17882162E+03 0.21210739E+03 0.91188000E+02 0.0000E+00 0.9000E+01
      -13  1    4    4    0    0 -.39016414E+02 0.19522684E+02 -.87077009E+02 0.97395238E+02 0.10565837E+00 0.0000E+00 0.9000E+01
       13  1    4    4    0    0 0.52641062E+02 0.50611135E+02 -.13911777E+03 0.15711885E+03 0.10565837E+00 0.0000E+00 0.9000E+01
       23  1    3    3    0    0 -.58098320E+02 -.17987731E+02 0.27739814E+02 0.11306512E+03 0.91188000E+02 0.0000E+00 0.9000E+01
#aMCatNLO 1  0  0  2  1 0.48196666D+03 0.00000000D+00  -5  7  0 0.00000000D+00 0.00000000D+00 0.00000000D+00 0.00000000D+00 0.00000000D+00
  <mgrwgt>
 0.2511261120D-03    5    2    0
 0.289677013136239D+03 0.000000000000000D+00 0.000000000000000D+00 0.289677013136239D+03
 0.289677013136239D+03 0.000000000000000D+00 0.000000000000000D+00 -.289677013136239D+03
 0.218289126011353D+03 0.444736740401500D+02 -.521460905599818D+02 0.186112247709497D+03
 0.945001772940031D+02 -.390165346931180D+02 0.195226432936239D+02 -.838263677369398D+02
 0.152494645356700D+03 0.526411779828784D+02 0.506111747361618D+02 -.133873194609176D+03
 0.114070077610422D+03 -.580983173299104D+02 -.179877274698040D+02 0.315873146366189D+02
 0.000000000000000D+00 -.000000000000000D+00 -.000000000000000D+00 -.000000000000000D+00
 0.523472057890581D+03 0.000000000000000D+00 0.000000000000000D+00 0.523472057890581D+03
 0.772774299042250D+03 0.000000000000000D+00 0.000000000000000D+00 -.772774299042250D+03
 0.265821899004826D+03 0.134631904979482D+03 0.978903062649528D+02 0.186112247709497D+03
 0.120128033906170D+03 0.954667844221895D+00 0.860405323757387D+02 -.838263677369398D+02
 0.257009180419473D+03 0.128904965806414D+03 0.177525199268922D+03 -.133873194609176D+03
 0.110660786053272D+03 -.162456511884821D+02 0.516611904376728D+02 0.315873146366189D+02
 0.542626457549090D+03 -.248245887441635D+03 -.413117228347286D+03 -.249302241151670D+03
0.410839341487D-05 0.000000000000D+00 0.000000000000D+00 0.325976795227D-07 0.000000000000D+00  7 1 -1 23 -13 13 23 21 0 0.43081020D-01 0.46101534D-01 0.28956808D+05 0.28956808D+05 0.28956808D+05 0.11687647D+01  1  2  2  2  7  2       -1 0.227147344841D-03 0.100000000000D+01
-.149705718111D-06 0.000000000000D+00 -.157773124779D-07 0.325976795227D-07 0.000000000000D+00  7 1 -1 23 -13 13 23 21 2 0.43081020D-01 0.46101534D-01 0.28956808D+05 0.28956808D+05 0.28956808D+05 0.11687647D+01  1  2  3  2  7  2       -1 -.113065006509D-04 0.100000000000D+01
0.237489801566D-06 0.000000000000D+00 0.000000000000D+00 0.325976795227D-07 0.000000000000D+00  7 1 -1 23 -13 13 23 21 2 0.43081020D-01 0.46101534D-01 0.28956808D+05 0.28956808D+05 0.28956808D+05 0.11687647D+01  1  2 15  2  7  2       -1 0.179363796513D-04 0.100000000000D+01
0.263394882747D-05 0.000000000000D+00 -.149802429747D-05 0.325976795227D-07 0.000000000000D+00  7 1 -1 23 -13 13 23 21 2 0.43081020D-01 0.19126262D+00 0.28956808D+05 0.28956808D+05 0.28956808D+05 0.11687647D+01  1  2  5  2  7  2       -1 0.796043472185D-05 0.100000000000D+01
0.457594673686D-06 0.000000000000D+00 -.255515453340D-06 0.325976795227D-07 0.000000000000D+00  7 1 21 23 -13 13 23 1 2 0.43081020D-01 0.19126262D+00 0.28956808D+05 0.28956808D+05 0.28956808D+05 0.11687647D+01  1  2  5  4  7  2       -1 0.938845339044D-05 0.100000000000D+01
  </mgrwgt>
  </event>
  <event>
  8     66 0.25924217E-05 0.15335416E+03 0.75467711E-02 0.10814221E+00
        1 -1    0    0  501    0 0.00000000E+00 0.00000000E+00 0.28338420E+04 0.28338420E+04 0.32000000E+00 0.0000E+00 0.9000E+01
       -1 -1    0    0    0  501 0.00000000E+00 0.00000000E+00 -.32079690E+02 0.32081286E+02 0.32000000E+00 0.0000E+00 0.9000E+01
       25  2    1    2    0    0 0.18269418E+02 -.76342375E+01 0.69686595E+03 0.75895961E+03 0.30000915E+03 0.0000E+00 0.0000E+00
       23  2    3    3    0    0 0.62053531E+02 -.14842924E+02 0.90154940E+02 0.14383157E+03 0.92133886E+02 0.0000E+00 0.0000E+00
       23  1    1    2    0    0 -.18269418E+02 0.76342375E+01 0.21048964E+04 0.21069637E+04 0.91188000E+02 0.0000E+00 0.9000E+01
      -13  1    4    4    0    0 0.54585087E+02 -.51216785E+02 0.62883971E+02 0.97760400E+02 0.10565837E+00 0.0000E+00 0.9000E+01
       13  1    4    4    0    0 0.74684440E+01 0.36373861E+02 0.27270969E+02 0.46071166E+02 0.10565837E+00 0.0000E+00 0.9000E+01
       23  1    3    3    0    0 -.43784114E+02 0.72086862E+01 0.60671101E+03 0.61512804E+03 0.91188000E+02 0.0000E+00 0.9000E+01
#aMCatNLO 1  0  0  1  1 0.46155280D+02 0.00000000D+00  -5  7  0 0.00000000D+00 0.00000000D+00 0.00000000D+00 0.00000000D+00 0.00000000D+00
  <mgrwgt>
 0.2992549948D-03    4    2    0
 0.301514651514242D+03 0.000000000000000D+00 0.000000000000000D+00 0.301514651514242D+03
 0.301514651514242D+03 0.000000000000000D+00 0.000000000000000D+00 -.301514651514242D+03
 0.233781428312553D+03 -.182694176996478D+02 0.763423747483019D+01 0.214351234367686D+03
 0.172442585163218D+03 0.545851489739548D+02 -.512168989191228D+02 -.155350365156871D+03
 0.922502297820632D+02 0.746838241255330D+01 0.363739751983352D+02 -.844468003375747D+02
 0.104555059770651D+03 -.437841136868603D+02 0.720868624595742D+01 0.254459311267596D+02
 0.000000000000000D+00 0.000000000000000D+00 -.000000000000000D+00 -.000000000000000D+00
 0.309568223957463D+03 0.000000000000000D+00 0.000000000000000D+00 0.309568223957463D+03
 0.376657594112739D+03 0.000000000000000D+00 0.000000000000000D+00 -.376657594112739D+03
 0.235664129042267D+03 -.271333338288369D+02 0.232306025240919D+02 0.214351234367686D+03
 0.167474489623514D+03 0.481669469171152D+02 -.399238518302906D+02 -.155350365156871D+03
 0.946580387682992D+02 0.393924215267400D+01 0.425836187690669D+02 -.844468003375747D+02
 0.106996406490244D+03 -.477785586753475D+02 0.142370494774742D+02 0.254459311267596D+02
 0.814327541458778D+02 0.228057034343952D+02 -.401274189403424D+02 -.670893701552761D+02
0.185414112236D-04 0.000000000000D+00 0.000000000000D+00 0.478791895456D-06 0.000000000000D+00  7 1 -1 23 -13 13 23 21 0 0.43597582D+00 0.49354610D-02 0.23517499D+05 0.23517499D+05 0.23517499D+05 0.11772747D+01  1  2  2  1  7  1        1 0.342074998459D-03 0.100000000000D+01
-.457634036884D-06 0.000000000000D+00 -.712039011643D-07 0.478791895456D-06 0.000000000000D+00  7 1 -1 23 -13 13 23 21 2 0.43597582D+00 0.49354610D-02 0.23517499D+05 0.23517499D+05 0.23517499D+05 0.11772747D+01  1  2  3  1  7  1        1 -.117017950357D-04 0.100000000000D+01
0.110931721854D-05 0.000000000000D+00 0.000000000000D+00 0.478791895456D-06 0.000000000000D+00  7 1 -1 23 -13 13 23 21 2 0.43597582D+00 0.49354610D-02 0.23517499D+05 0.23517499D+05 0.23517499D+05 0.11772747D+01  1  2 15  1  7  1        1 0.283654660159D-04 0.100000000000D+01
-.232628874903D-05 0.000000000000D+00 0.000000000000D+00 0.478791895456D-06 0.000000000000D+00  7 1 -1 23 -13 13 23 21 2 0.43597582D+00 0.49354610D-02 0.23517499D+05 0.23517499D+05 0.23517499D+05 0.11772747D+01  1  2  4  1  7  1        1 -.594836745980D-04 0.100000000000D+01
  </mgrwgt>
  </event>
  <event>
  8     66 0.25924217E-05 0.10272277E+03 0.75467711E-02 0.10687292E+00
        1 -1    0    0  501    0 0.00000000E+00 0.00000000E+00 0.57447604E+03 0.57447613E+03 0.32000000E+00 0.0000E+00 0.9000E+01
       -1 -1    0    0    0  501 0.00000000E+00 0.00000000E+00 -.75374503E+02 0.75375183E+02 0.32000000E+00 0.0000E+00 0.9000E+01
       25  2    1    2    0    0 0.97657134E+01 -.47694285E+02 0.41390351E+03 0.51589584E+03 0.30407612E+03 0.0000E+00 0.0000E+00
       23  2    3    3    0    0 -.40899829E+02 -.67559464E+02 0.37611676E+02 0.12490681E+03 0.89162756E+02 0.0000E+00 0.0000E+00
       23  1    1    2    0    0 -.97657134E+01 0.47694285E+02 0.85198033E+02 0.13395548E+03 0.91188000E+02 0.0000E+00 0.9000E+01
      -11  1    4    4    0    0 0.13417870E+02 0.10336671E+02 0.23397288E+02 0.28884583E+02 0.51099893E-03 0.0000E+00 0.9000E+01
       11  1    4    4    0    0 -.54317698E+02 -.77896135E+02 0.14214388E+02 0.96022232E+02 0.51099893E-03 0.0000E+00 0.9000E+01
       23  1    3    3    0    0 0.50665542E+02 0.19865179E+02 0.37629183E+03 0.39098902E+03 0.91188000E+02 0.0000E+00 0.9000E+01
#aMCatNLO 1  0  0  2  1 0.59276631D+02 0.00000000D+00  -5  7  0 0.00000000D+00 0.00000000D+00 0.00000000D+00 0.00000000D+00 0.00000000D+00
  <mgrwgt>
 0.8160154862D-03    9    2    0
 0.208089154392170D+03 0.000000000000000D+00 0.000000000000000D+00 0.208089154392170D+03
 0.208089154392170D+03 0.000000000000000D+00 0.000000000000000D+00 -.208089154392170D+03
 0.106994241102632D+03 -.976571990769755D+01 0.476943164613014D+02 -.276115768673543D+02
 0.170433228098945D+02 0.134178715471328D+02 0.103366681134645D+02 0.189443074800782D+01
 0.132889544303400D+03 -.543176907489983D+02 -.778961415425643D+02 -.929591877634598D+02
 0.159251200568414D+03 0.506655391095630D+02 0.198651569677984D+02 0.118676333882806D+03
 0.000000000000000D+00 -.000000000000000D+00 -.000000000000000D+00 -.000000000000000D+00
 0.225331298713347D+03 0.000000000000000D+00 0.000000000000000D+00 0.225331298713347D+03
 0.268201917463393D+03 0.000000000000000D+00 0.000000000000000D+00 -.268201917463393D+03
 0.108405536585785D+03 0.502337184490746D+01 0.514672281812223D+02 -.276115768673543D+02
 0.194310761293653D+02 0.159221602623892D+02 0.109755484721716D+02 0.189443074800782D+01
 0.123991692075161D+03 -.366805315323319D+02 -.733966465209752D+02 -.929591877634598D+02
 0.168550219511225D+03 0.731719935275644D+02 0.256068797908098D+02 0.118676333882806D+03
 0.731546918752037D+02 -.574369941025291D+02 -.146530099232285D+02 -.428706187500461D+02
0.360987076008D-05 0.000000000000D+00 0.000000000000D+00 0.867196942721D-09 0.000000000000D+00  7 1 -1 23 -11 11 23 21 0 0.88380989D-01 0.11596137D-01 0.25834888D+05 0.25834888D+05 0.25834888D+05 0.11734071D+01  1  2  2  2  7  2       -1 0.710404564867D-03 0.100000000000D+01
-.184289114361D-06 0.000000000000D+00 -.138628542195D-07 0.867196942721D-09 0.000000000000D+00  7 1 -1 23 -11 11 23 21 2 0.88380989D-01 0.11596137D-01 0.25834888D+05 0.25834888D+05 0.25834888D+05 0.11734071D+01  1  2  3  2  7  2       -1 -.499357097822D-04 0.100000000000D+01
0.224484090085D-06 0.000000000000D+00 0.000000000000D+00 0.867196942721D-09 0.000000000000D+00  7 1 -1 23 -11 11 23 21 2 0.88380989D-01 0.11596137D-01 0.25834888D+05 0.25834888D+05 0.25834888D+05 0.11734071D+01  1  2 15  2  7  2       -1 0.608270999189D-04 0.100000000000D+01
0.339104249820D-05 0.000000000000D+00 0.000000000000D+00 0.867196942721D-09 0.000000000000D+00  7 1 -1 23 -11 11 23 21 2 0.88380989D-01 0.15321844D-01 0.37091834D+05 0.37091834D+05 0.37091834D+05 0.11588808D+01  1  2 12  2  7  2       -1 0.585581718468D-03 0.100000000000D+01
-.395663324154D-05 0.000000000000D+00 0.000000000000D+00 0.867196942721D-09 0.000000000000D+00  7 1 -1 23 -11 11 23 21 2 0.88380989D-01 0.11596137D-01 0.25834888D+05 0.25834888D+05 0.25834888D+05 0.11734071D+01  1  2  4  2  7  2       -1 -.107210504510D-02 0.100000000000D+01
-.541501266877D-05 0.000000000000D+00 -.177102261525D-05 0.867196942721D-09 0.000000000000D+00  7 1 -1 23 -11 11 23 21 2 0.88380989D-01 0.16125906D-01 0.25834888D+05 0.25834888D+05 0.25834888D+05 0.11734071D+01  1  2  5  2  7  2       -1 -.884144706752D-03 0.100000000000D+01
0.577432686448D-05 0.000000000000D+00 0.167891139897D-05 0.867196942721D-09 0.000000000000D+00  7 1 -1 23 -11 11 23 21 2 0.88380989D-01 0.11596137D-01 0.25834888D+05 0.25834888D+05 0.25834888D+05 0.11734071D+01  1  2  6  2  7  2       -1 0.156463452273D-02 0.100000000000D+01
0.124238842594D-06 0.000000000000D+00 0.000000000000D+00 0.867196942721D-09 0.000000000000D+00  7 1 21 23 -11 11 23 1 2 0.88380989D-01 0.15321844D-01 0.37091834D+05 0.37091834D+05 0.37091834D+05 0.11588808D+01  1  2 12  4  7  2       -1 0.282259162393D-03 0.100000000000D+01
-.178222866746D-06 0.000000000000D+00 -.732900457556D-07 0.867196942721D-09 0.000000000000D+00  7 1 21 23 -11 11 23 1 2 0.88380989D-01 0.16125906D-01 0.25834888D+05 0.25834888D+05 0.25834888D+05 0.11734071D+01  1  2  5  4  7  2       -1 -.381506120514D-03 0.100000000000D+01
  </mgrwgt>
  </event>
  <event>
  9     66 -.25924217E-05 0.29660004E+03 0.75467711E-02 0.10086288E+00
        1 -1    0    0  502    0 0.00000000E+00 0.00000000E+00 0.24634529E+04 0.24634529E+04 0.32000000E+00 0.0000E+00 0.9000E+01
       -1 -1    0    0    0  501 0.00000000E+00 0.00000000E+00 -.39942168E+02 0.39943450E+02 0.32000000E+00 0.0000E+00 0.9000E+01
       25  2    1    2    0    0 0.15334954E+03 -.15191959E+03 0.16625401E+04 0.17033192E+04 0.30109988E+03 0.0000E+00 0.0000E+00
       23  2    3    3    0    0 0.51003104E+02 -.20000687E+03 0.10518037E+04 0.10755443E+04 0.88884198E+02 0.0000E+00 0.0000E+00
       23  1    1    2    0    0 -.14985493E+03 0.15410880E+03 0.67951361E+03 0.71851236E+03 0.91188000E+02 0.0000E+00 0.9000E+01
      -11  1    4    4    0    0 -.42679695E+01 -.10026012E+03 0.65633157E+03 0.66395891E+03 0.51099893E-03 0.0000E+00 0.9000E+01
       11  1    4    4    0    0 0.55271073E+02 -.99746749E+02 0.39547212E+03 0.41158535E+03 0.51099893E-03 0.0000E+00 0.9000E+01
       23  1    3    3    0    0 0.10234643E+03 0.48087283E+02 0.61073640E+03 0.62777494E+03 0.91188000E+02 0.0000E+00 0.9000E+01
       21  1    1    2  502  501 -.34946021E+01 -.21892147E+01 0.81457048E+02 0.81564809E+02 0.75000000E+00 0.0000E+00 0.9000E+01
#aMCatNLO 2  0  0  1  2 0.41237004D+01 0.00000000D+00  -5  7  0 0.00000000D+00 0.00000000D+00 0.00000000D+00 0.00000000D+00 0.00000000D+00
  <mgrwgt>
 -.1046080766D-03    5    2    0
 0.308235158422910D+03 0.000000000000000D+00 0.000000000000000D+00 0.308235158422910D+03
 0.308235158422910D+03 0.000000000000000D+00 0.000000000000000D+00 -.308235158422910D+03
 0.241446956405896D+03 -.151222742891486D+03 0.153251931281772D+03 -.602238242264063D+02
 0.115280951352547D+03 -.492037341127717D+01 -.100668825079308D+03 0.559577995224404D+02
 0.114520811209484D+03 0.546220162763769D+02 -.100153354967978D+03 -.100377799656935D+02
 0.145221597877892D+03 0.101521100026387D+03 0.475702487655135D+02 0.143038046696593D+02
 0.000000000000000D+00 -.000000000000000D+00 -.000000000000000D+00 0.000000000000000D+00
 0.318776961763023D+03 0.000000000000000D+00 0.000000000000000D+00 0.318776961763023D+03
 0.308645591544112D+03 0.000000000000000D+00 0.000000000000000D+00 -.308645591544112D+03
 0.241139347290610D+03 -.149854933132583D+03 0.154108804028575D+03 -.602238242264063D+02
 0.114898142219772D+03 -.426796946182359D+01 -.100260122655192D+03 0.559577995224404D+02
 0.114477345177966D+03 0.552710730578861D+02 -.997467493975890D+02 -.100377799656935D+02
 0.145969274155305D+03 0.102346431606292D+03 0.480872827560177D+02 0.143038046696593D+02
 0.109384444634817D+02 -.349460206977207D+01 -.218921473181110D+01 0.101313702189111D+02
-.788554198739D-05 0.000000000000D+00 0.000000000000D+00 0.182653640854D-07 0.000000000000D+00  7 1 -1 23 -11 11 23 21 2 0.37921654D+00 0.61366225D-02 0.89184570D+05 0.89184570D+05 0.89184570D+05 0.11258243D+01  1  2 13  1  7  1        1 -.229941676882D-03 0.100000000000D+01
-.291326255513D-04 0.000000000000D+00 0.000000000000D+00 0.182653640854D-07 0.000000000000D+00  7 1 -1 23 -11 11 23 21 2 0.36644451D+00 0.61366225D-02 0.87971583D+05 0.87971583D+05 0.87971583D+05 0.11263182D+01  1  2  8  1  7  1        1 -.968028335277D-03 0.100000000000D+01
-.253390673771D-05 0.000000000000D+00 0.000000000000D+00 0.182653640854D-07 0.000000000000D+00  7 1 -1 23 -11 11 23 21 2 0.37913481D+00 0.61366225D-02 0.87971583D+05 0.87971583D+05 0.87971583D+05 0.11263182D+01  1  2  9  1  7  1        1 -.740461913098D-04 0.100000000000D+01
0.253243899168D-05 0.000000000000D+00 0.000000000000D+00 0.182653640854D-07 0.000000000000D+00  7 1 -1 23 -11 11 23 21 2 0.36644451D+00 0.61366225D-02 0.87971583D+05 0.87971583D+05 0.87971583D+05 0.11263182D+01  1  2 10  1  7  1        1 0.841487045854D-04 0.100000000000D+01
0.371325205094D-04 0.000000000000D+00 0.000000000000D+00 0.182653640854D-07 0.726497425691D-08  7 1 -1 23 -11 11 23 21 2 0.37897711D+00 0.61447938D-02 0.89184570D+05 0.89184570D+05 0.89184570D+05 0.11258243D+01  1  2  1  1  7  1        1 0.108325942224D-02 0.100000000000D+01
  </mgrwgt>
  </event>
  <event>
  8     66 0.25924217E-05 0.33912607E+03 0.75467711E-02 0.95650610E-01
        1 -1    0    0  501    0 0.00000000E+00 0.00000000E+00 0.14157557E+04 0.14157557E+04 0.32000000E+00 0.0000E+00 0.9000E+01
       -1 -1    0    0    0  501 0.00000000E+00 0.00000000E+00 -.23070952E+03 0.23070974E+03 0.32000000E+00 0.0000E+00 0.9000E+01
       25  2    1    2    0    0 -.61165810E+02 -.28252846E+03 0.12658450E+04 0.13327661E+04 0.30056331E+03 0.0000E+00 0.0000E+00
       23  2    3    3    0    0 -.89848209E+02 -.23940476E+03 0.59741287E+03 0.65615757E+03 0.90847536E+02 0.0000E+00 0.0000E+00
       23  1    1    2    0    0 0.61165810E+02 0.28252846E+03 -.80798834E+02 0.31369936E+03 0.91188000E+02 0.0000E+00 0.9000E+01
      -11  1    4    4    0    0 -.26053543E+02 -.18381099E+03 0.43685727E+03 0.47466782E+03 0.51099893E-03 0.0000E+00 0.9000E+01
       11  1    4    4    0    0 -.63794666E+02 -.55593772E+02 0.16055560E+03 0.18148975E+03 0.51099893E-03 0.0000E+00 0.9000E+01
       23  1    3    3    0    0 0.28682399E+02 -.43123703E+02 0.66843213E+03 0.67660852E+03 0.91188000E+02 0.0000E+00 0.9000E+01
#aMCatNLO 1  0  0  2  1 0.20007576D+03 0.00000000D+00  -5  7  0 0.00000000D+00 0.00000000D+00 0.00000000D+00 0.00000000D+00 0.00000000D+00
  <mgrwgt>
 0.2083285707D-03    4    2    0
 0.571514233508326D+03 0.000000000000000D+00 0.000000000000000D+00 0.571514233508326D+03
 0.571514233508326D+03 0.000000000000000D+00 0.000000000000000D+00 -.571514233508326D+03
 0.535634526941886D+03 0.611658102088379D+02 0.282528461003060D+03 -.441616923920492D+03
 0.230815016821745D+03 -.260535434976337D+02 -.183810985883089D+03 0.137150670178188D+03
 0.949677122416170D+02 -.637946658046402D+02 -.555937720222360D+02 0.431096218450183D+02
 0.281611211011405D+03 0.286823990934361D+02 -.431237030977350D+02 0.261356631897286D+03
 0.000000000000000D+00 0.000000000000000D+00 -.000000000000000D+00 0.000000000000000D+00
 0.712620422287841D+03 0.000000000000000D+00 0.000000000000000D+00 0.712620422287841D+03
 0.655779767008426D+03 0.000000000000000D+00 0.000000000000000D+00 -.655779767008426D+03
 0.591916786678321D+03 0.513922457842530D+02 0.379978368578847D+03 -.441616923920492D+03
 0.202765728872231D+03 -.298118020355037D+02 -.146338275697634D+03 0.137150670178188D+03
 0.878433792237793D+02 -.653792641802380D+02 -.397941150559081D+02 0.431096218450183D+02
 0.277881096990681D+03 0.238327447572965D+02 0.523105738683476D+01 0.261356631897286D+03
 0.207993197531256D+03 0.199660756741922D+02 -.199077035212140D+03 0.568406552794147D+02
0.440225225114D-04 0.000000000000D+00 0.000000000000D+00 0.138863812147D-05 0.000000000000D+00  7 1 -1 23 -11 11 23 21 0 0.21780859D+00 0.35493791D-01 0.11500649D+06 0.11500649D+06 0.11500649D+06 0.11167729D+01  1  2  2  2  7  2       -1 0.309873800867D-03 0.100000000000D+01
-.163569089146D-05 0.000000000000D+00 -.169058077840D-06 0.138863812147D-05 0.000000000000D+00  7 1 -1 23 -11 11 23 21 2 0.21780859D+00 0.35493791D-01 0.11500649D+06 0.11500649D+06 0.11500649D+06 0.11167729D+01  1  2  3  2  7  2       -1 -.143595517724D-04 0.100000000000D+01
0.252967898679D-05 0.000000000000D+00 0.000000000000D+00 0.138863812147D-05 0.000000000000D+00  7 1 -1 23 -11 11 23 21 2 0.21780859D+00 0.35493791D-01 0.11500649D+06 0.11500649D+06 0.11500649D+06 0.11167729D+01  1  2 15  2  7  2       -1 0.222077756672D-04 0.100000000000D+01
-.124609653001D-04 0.000000000000D+00 0.000000000000D+00 0.138863812147D-05 0.000000000000D+00  7 1 -1 23 -11 11 23 21 2 0.21780859D+00 0.35493791D-01 0.11500649D+06 0.11500649D+06 0.11500649D+06 0.11167729D+01  1  2  4  2  7  2       -1 -.109393454042D-03 0.100000000000D+01
  </mgrwgt>
  </event>
  <event>
  9     66 0.25924217E-05 0.33784001E+03 0.75467711E-02 0.92357657E-01
       21 -1    0    0  501  502 0.00000000E+00 0.00000000E+00 0.13011546E+04 0.13011548E+04 0.75000000E+00 0.0000E+00 0.9000E+01
       -3 -1    0    0    0  501 0.00000000E+00 0.00000000E+00 -.75107581E+03 0.75107598E+03 0.50000000E+00 0.0000E+00 0.9000E+01
       25  2    1    2    0    0 -.43729042E+03 0.65173193E+02 0.32446796E+03 0.62509934E+03 0.29999880E+03 0.0000E+00 0.0000E+00
       23  2    3    3    0    0 -.26803466E+03 -.50618543E+00 0.31191807E+03 0.42154581E+03 0.92548078E+02 0.0000E+00 0.0000E+00
       23  1    1    2    0    0 0.77304578E+02 -.29201519E+03 -.49691115E+03 0.58862960E+03 0.91188000E+02 0.0000E+00 0.9000E+01
      -11  1    4    4    0    0 -.25271032E+03 0.24597208E+02 0.27394566E+03 0.37351540E+03 0.51099893E-03 0.0000E+00 0.9000E+01
       11  1    4    4    0    0 -.15324339E+02 -.25103394E+02 0.37972414E+02 0.48030407E+02 0.51099893E-03 0.0000E+00 0.9000E+01
       23  1    3    3    0    0 -.16925575E+03 0.65679379E+02 0.12549889E+02 0.20355354E+03 0.91188000E+02 0.0000E+00 0.9000E+01
       -3  1    1    2    0  502 0.35998584E+03 0.22684200E+03 0.72252197E+03 0.83850184E+03 0.50000000E+00 0.0000E+00 0.9000E+01
#aMCatNLO 2  0  0  1  1 0.42549629D+03 0.00000000D+00  -5  7  0 0.00000000D+00 0.00000000D+00 0.00000000D+00 0.00000000D+00 0.00000000D+00
  <mgrwgt>
 0.4182185633D-05    1    2    0
 0.561772687057129D+03 0.000000000000000D+00 0.000000000000000D+00 0.561772687057129D+03
 0.561772687057129D+03 0.000000000000000D+00 0.000000000000000D+00 -.561772687057129D+03
 0.525421673691568D+03 0.239689585444697D+03 -.189689667769942D+03 -.417515767859761D+03
 0.369539198398943D+03 -.130978476223922D+03 0.101305490528433D+03 0.330365033725100D+03
 0.477354375806451D+02 0.423695603335130D+00 -.151799043865809D+02 0.452555298926622D+02
 0.180849064443102D+03 -.109134804824110D+03 0.103564081628091D+03 0.418952042419992D+02
 0.000000000000000D+00 0.000000000000000D+00 0.000000000000000D+00 0.000000000000000D+00
 0.150124833694871D+04 0.000000000000000D+00 0.000000000000000D+00 0.150124833694871D+04
 0.650968882361545D+03 0.000000000000000D+00 0.000000000000000D+00 -.650968882361545D+03
 0.523338836766738D+03 0.773045776502071D+02 -.292015192391012D+03 -.417515767859761D+03
 0.416663635682573D+03 -.252710322596158D+03 0.245972080809875D+02 0.330365033725100D+03
 0.539729441911004D+02 -.153243385780363D+02 -.251033935143378D+02 0.452555298926622D+02
 0.207440957482227D+03 -.169255754848548D+03 0.656793788742912D+02 0.418952042419992D+02
 0.950800845187621D+03 0.359985838372535D+03 0.226841998950071D+03 0.850279454587170D+03
0.108890305415D-04 0.000000000000D+00 0.000000000000D+00 0.158329392802D-05 0.941815756462D-11  7 21 -3 23 -11 11 23 -3 2 0.20017764D+00 0.11555014D+00 0.37669897D+06 0.37669897D+06 0.37669897D+06 0.10773117D+01  1  2  1  3  7  1        3 0.418218563341D-05 0.100000000000D+01
  </mgrwgt>
  </event>
  <event>
  8     66 0.25924217E-05 0.14024762E+03 0.75467711E-02 0.10126700E+00
        1 -1    0    0  501    0 0.00000000E+00 0.00000000E+00 0.21955927E+04 0.21955927E+04 0.32000000E+00 0.0000E+00 0.9000E+01
       -1 -1    0    0    0  501 0.00000000E+00 0.00000000E+00 -.24150624E+02 0.24152744E+02 0.32000000E+00 0.0000E+00 0.9000E+01
       25  2    1    2    0    0 -.47978154E+02 -.95704044E+02 0.15732355E+04 0.16052314E+04 0.30039437E+03 0.0000E+00 0.0000E+00
       23  2    3    3    0    0 -.11097189E+03 -.11346279E+03 0.12571626E+04 0.12698198E+04 0.82438449E+02 0.0000E+00 0.0000E+00
       23  1    1    2    0    0 0.47978154E+02 0.95704044E+02 0.59820656E+03 0.61451404E+03 0.91188000E+02 0.0000E+00 0.9000E+01
      -13  1    4    4    0    0 -.10311811E+03 -.69104076E+02 0.70687783E+03 0.71769423E+03 0.10565837E+00 0.0000E+00 0.9000E+01
       13  1    4    4    0    0 -.78537837E+01 -.44358717E+02 0.55028472E+03 0.55212558E+03 0.10565837E+00 0.0000E+00 0.9000E+01
       23  1    3    3    0    0 0.62993739E+02 0.17758749E+02 0.31607298E+03 0.33541163E+03 0.91188000E+02 0.0000E+00 0.9000E+01
#aMCatNLO 1  0  0  1  2 0.13288010D+03 0.00000000D+00  -5  7  0 0.00000000D+00 0.00000000D+00 0.00000000D+00 0.00000000D+00 0.00000000D+00
  <mgrwgt>
 0.7911892227D-03    7    2    0
 0.230276602894489D+03 0.000000000000000D+00 0.000000000000000D+00 0.230276602894489D+03
 0.230276602894489D+03 0.000000000000000D+00 0.000000000000000D+00 -.230276602894489D+03
 0.141338432205260D+03 0.479781586858065D+02 0.957040538675994D+02 -.141467818484657D+02
 0.126270486598887D+03 -.103118260840433D+03 -.691041193909711D+02 0.231404570041879D+02
 0.665869310991190D+02 -.785363169392173D+01 -.443586764319176D+02 0.490351678657622D+02
 0.126357355885711D+03 0.629937338485480D+02 0.177587419552894D+02 -.580288430214844D+02
 0.000000000000000D+00 0.000000000000000D+00 0.000000000000000D+00 0.000000000000000D+00
 0.632572787776354D+03 0.000000000000000D+00 0.000000000000000D+00 0.632572787776354D+03
 0.250904798776578D+03 0.000000000000000D+00 0.000000000000000D+00 -.250904798776578D+03
 0.117592211500966D+03 0.419652128380515D+02 0.595941803910144D+02 -.141467818484657D+02
 0.155975414531649D+03 -.109672638858255D+03 -.108465485173044D+03 0.231404570041879D+02
 0.822999163163968D+02 -.113111156677699D+02 -.651220945640784D+02 0.490351678657622D+02
 0.123471979314122D+03 0.571921406410573D+02 -.170818839191847D+02 -.580288430214844D+02
 0.404138064889798D+03 0.218264010469164D+02 0.131075283265293D+03 0.381667988999776D+03
0.105342331943D-04 0.000000000000D+00 0.000000000000D+00 0.220752800020D-08 0.000000000000D+00  7 1 -1 23 -13 13 23 21 0 0.33778366D+00 0.37156456D-02 0.44532342D+05 0.44532342D+05 0.44532342D+05 0.11517457D+01  1  2  2  1  7  1        1 0.779670495843D-03 0.100000000000D+01
-.579812699848D-06 0.000000000000D+00 -.404542291933D-07 0.220752800020D-08 0.000000000000D+00  7 1 -1 23 -13 13 23 21 2 0.33778366D+00 0.37156456D-02 0.44532342D+05 0.44532342D+05 0.44532342D+05 0.11517457D+01  1  2  3  1  7  1        1 -.569257952624D-04 0.100000000000D+01
0.697246741823D-06 0.000000000000D+00 0.000000000000D+00 0.220752800020D-08 0.000000000000D+00  7 1 -1 23 -13 13 23 21 2 0.33778366D+00 0.37156456D-02 0.44532342D+05 0.44532342D+05 0.44532342D+05 0.11517457D+01  1  2 15  1  7  1        1 0.684554258346D-04 0.100000000000D+01
0.571803049799D-05 0.000000000000D+00 0.000000000000D+00 0.220752800020D-08 0.000000000000D+00  7 1 -1 23 -13 13 23 21 2 0.91361832D+00 0.37156456D-02 0.83796019D+05 0.83796019D+05 0.83796019D+05 0.11280774D+01  1  2 12  1  7  1        1 0.261088490746D-07 0.100000000000D+01
-.143846490034D-04 0.000000000000D+00 -.235796388340D-05 0.220752800020D-08 0.000000000000D+00  7 1 -1 23 -13 13 23 21 2 0.92962370D+00 0.37156456D-02 0.44532342D+05 0.44532342D+05 0.44532342D+05 0.11517457D+01  1  2  5  1  7  1        1 -.370088345839D-07 0.100000000000D+01
0.634839879315D-06 0.000000000000D+00 0.000000000000D+00 0.220752800020D-08 0.000000000000D+00  7 21 -1 23 -13 13 23 -1 2 0.91361832D+00 0.37156456D-02 0.83796019D+05 0.83796019D+05 0.83796019D+05 0.11280774D+01  1  2 12  3  7  1        1 0.375291315098D-10 0.100000000000D+01
-.149573372324D-05 0.000000000000D+00 -.267214997081D-06 0.220752800020D-08 0.000000000000D+00  7 21 -1 23 -13 13 23 -1 2 0.92962370D+00 0.37156456D-02 0.44532342D+05 0.44532342D+05 0.44532342D+05 0.11517457D+01  1  2  5  3  7  1        1 -.412126547862D-10 0.100000000000D+01
  </mgrwgt>
  </event>
  <event>
  8     66 0.25924217E-05 0.43333806E+03 0.75467711E-02 0.92738946E-01
        1 -1    0    0  501    0 0.00000000E+00 0.00000000E+00 0.19570109E+04 0.19570110E+04 0.32000000E+00 0.0000E+00 0.9000E+01
       -1 -1    0    0    0  501 0.00000000E+00 0.00000000E+00 -.20309645E+03 0.20309671E+03 0.32000000E+00 0.0000E+00 0.9000E+01
       25  2    1    2    0    0 -.14475181E+03 -.35044235E+03 0.16985994E+04 0.17662321E+04 0.30095380E+03 0.0000E+00 0.0000E+00
       23  2    3    3    0    0 -.83798259E+02 -.10696331E+02 0.37590357E+03 0.39620216E+03 0.92390997E+02 0.0000E+00 0.0000E+00
       23  1    1    2    0    0 0.14475181E+03 0.35044235E+03 0.55315117E+02 0.39387554E+03 0.91188000E+02 0.0000E+00 0.9000E+01
      -13  1    4    4    0    0 -.47011567E+01 0.30257669E+02 0.15540376E+03 0.15839181E+03 0.10565837E+00 0.0000E+00 0.9000E+01
       13  1    4    4    0    0 -.79097102E+02 -.40954000E+02 0.22049981E+03 0.23781034E+03 0.10565837E+00 0.0000E+00 0.9000E+01
       23  1    3    3    0    0 -.60953552E+02 -.33974602E+03 0.13226958E+04 0.13700300E+04 0.91188000E+02 0.0000E+00 0.9000E+01
#aMCatNLO 1  0  0  1  2 0.28740855D+03 0.00000000D+00  -5  7  0 0.00000000D+00 0.00000000D+00 0.00000000D+00 0.00000000D+00 0.00000000D+00
  <mgrwgt>
 0.2042537265D-03    4    2    0
 0.630446098273962D+03 0.000000000000000D+00 0.000000000000000D+00 0.630446098273962D+03
 0.630446098273962D+03 0.000000000000000D+00 0.000000000000000D+00 -.630446098273962D+03
 0.597827156732693D+03 0.144751810977165D+03 0.350442353793108D+03 -.453121537636287D+03
 0.551818737502094D+02 -.470105943516979D+01 0.302577618928847D+02 0.459065036351555D+02
 0.100689187149263D+03 -.790971993919340D+02 -.409540929547625D+02 0.469543153222864D+02
 0.507193978915757D+03 -.609535521500611D+02 -.339746022731230D+03 0.360260718678845D+03
 0.000000000000000D+00 -.000000000000000D+00 0.000000000000000D+00 -.000000000000000D+00
 0.779345462322937D+03 0.000000000000000D+00 0.000000000000000D+00 0.779345462322937D+03
 0.802204144068955D+03 0.000000000000000D+00 0.000000000000000D+00 -.802204144068955D+03
 0.564216137876425D+03 0.216089359157474D+03 0.240854437130038D+03 -.453121537636287D+03
 0.502324845460024D+02 0.177030174279902D+01 0.203165316774114D+02 0.459065036351555D+02
 0.101259269462935D+03 -.666996339824990D+02 -.599990895879538D+02 0.469543153222864D+02
 0.577525577659384D+03 0.563711102770991D+01 -.442041829539998D+03 0.360260718678845D+03
 0.288316136847146D+03 -.156797137945484D+03 0.240869950320503D+03 -.228586817460177D+02
0.864646500414D-04 0.000000000000D+00 0.000000000000D+00 0.451921242274D-06 0.000000000000D+00  7 1 -1 23 -13 13 23 21 0 0.30107863D+00 0.31245630D-01 0.18778187D+06 0.18778187D+06 0.18778187D+06 0.10999342D+01  1  2  2  1  7  1        1 0.324464891836D-03 0.100000000000D+01
-.398267236174D-05 0.000000000000D+00 -.332047022824D-06 0.451921242274D-06 0.000000000000D+00  7 1 -1 23 -13 13 23 21 2 0.30107863D+00 0.31245630D-01 0.18778187D+06 0.18778187D+06 0.18778187D+06 0.10999342D+01  1  2  3  1  7  1        1 -.180816095876D-04 0.100000000000D+01
0.482179520949D-05 0.000000000000D+00 0.000000000000D+00 0.451921242274D-06 0.000000000000D+00  7 1 -1 23 -13 13 23 21 2 0.30107863D+00 0.31245630D-01 0.18778187D+06 0.18778187D+06 0.18778187D+06 0.10999342D+01  1  2 15  1  7  1        1 0.218912856923D-04 0.100000000000D+01
-.273169473770D-04 0.000000000000D+00 0.000000000000D+00 0.451921242274D-06 0.000000000000D+00  7 1 -1 23 -13 13 23 21 2 0.30107863D+00 0.31245630D-01 0.18778187D+06 0.18778187D+06 0.18778187D+06 0.10999342D+01  1  2  4  1  7  1        1 -.124020841469D-03 0.100000000000D+01
  </mgrwgt>
  </event>
  <event>
  8     66 0.25924217E-05 0.12405001E+03 0.75467711E-02 0.10518368E+00
        1 -1    0    0  501    0 0.00000000E+00 0.00000000E+00 0.32873120E+03 0.32873136E+03 0.32000000E+00 0.0000E+00 0.9000E+01
       -1 -1    0    0    0  501 0.00000000E+00 0.00000000E+00 -.19534552E+03 0.19534578E+03 0.32000000E+00 0.0000E+00 0.9000E+01
       25  2    1    2    0    0 0.11197797E+03 -.24132149E+02 -.12057722E+02 0.31770258E+03 0.29608802E+03 0.0000E+00 0.0000E+00
       23  2    3    3    0    0 -.13907311E+02 0.40296043E+02 -.86910761E+02 0.13353873E+03 0.91988731E+02 0.0000E+00 0.0000E+00
       23  1    1    2    0    0 -.11197797E+03 0.24132149E+02 0.14544340E+03 0.20637456E+03 0.91188000E+02 0.0000E+00 0.9000E+01
      -11  1    4    4    0    0 0.20205986E+02 0.57415794E+02 -.66889715E+02 0.90438317E+02 0.51099893E-03 0.0000E+00 0.9000E+01
       11  1    4    4    0    0 -.34113297E+02 -.17119751E+02 -.20021046E+02 0.43100408E+02 0.51099893E-03 0.0000E+00 0.9000E+01
       23  1    3    3    0    0 0.12588528E+03 -.64428192E+02 0.74853039E+02 0.18416385E+03 0.91188000E+02 0.0000E+00 0.9000E+01
#aMCatNLO 1  0  0  2  1 0.17918432D+02 0.00000000D+00  -5  7  0 0.00000000D+00 0.00000000D+00 0.00000000D+00 0.00000000D+00 0.00000000D+00
  <mgrwgt>
 0.3505731430D-03    9    2    0
 0.253409308583747D+03 0.000000000000000D+00 0.000000000000000D+00 0.253409308583747D+03
 0.253409308583747D+03 0.000000000000000D+00 0.000000000000000D+00 -.253409308583747D+03
 0.175124041608797D+03 -.111977968968975D+03 0.241321492462463D+02 0.960820089493338D+02
 0.111122170806176D+03 0.202059863240422D+02 0.574157936542276D+02 -.929692508327609D+02
 0.498372764701567D+02 -.341132972672961D+02 -.171197510106503D+02 -.320460793366250D+02
 0.170735128282363D+03 0.125885279912229D+03 -.644281918898236D+02 0.289333212200521D+02
 0.000000000000000D+00 -.000000000000000D+00 -.000000000000000D+00 -.000000000000000D+00
 0.260772422789621D+03 0.000000000000000D+00 0.000000000000000D+00 0.260772422789621D+03
 0.264708496634064D+03 0.000000000000000D+00 0.000000000000000D+00 -.264708496634064D+03
 0.175492130476414D+03 -.111062183096989D+03 0.302601314792531D+02 0.960820089493338D+02
 0.113304809273497D+03 0.207921745093366D+02 0.613382725814158D+02 -.929692508327609D+02
 0.490915385665319D+02 -.338549018527203D+02 -.153906977919360D+02 -.320460793366250D+02
 0.169246790546565D+03 0.126773289829577D+03 -.584860724897495D+02 0.289333212200521D+02
 0.183456505606771D+02 -.264837938920471D+01 -.177216337789834D+02 -.393607384444254D+01
0.239464282156D-05 0.000000000000D+00 0.000000000000D+00 0.758433303546D-08 0.000000000000D+00  7 1 -1 23 -11 11 23 21 0 0.50574063D-01 0.30053189D-01 0.42789820D+05 0.42789820D+05 0.42789820D+05 0.11532920D+01  1  2  2  2  7  2       -1 0.221817692621D-03 0.100000000000D+01
-.126371501403D-06 0.000000000000D+00 -.919605895872D-08 0.758433303546D-08 0.000000000000D+00  7 1 -1 23 -11 11 23 21 2 0.50574063D-01 0.30053189D-01 0.42789820D+05 0.42789820D+05 0.42789820D+05 0.11532920D+01  1  2  3  2  7  2       -1 -.155698036060D-04 0.100000000000D+01
0.152595748874D-06 0.000000000000D+00 0.000000000000D+00 0.758433303546D-08 0.000000000000D+00  7 1 -1 23 -11 11 23 21 2 0.50574063D-01 0.30053189D-01 0.42789820D+05 0.42789820D+05 0.42789820D+05 0.11532920D+01  1  2 15  2  7  2       -1 0.188008040951D-04 0.100000000000D+01
0.590461757520D-05 0.000000000000D+00 0.000000000000D+00 0.758433303546D-08 0.000000000000D+00  7 1 -1 23 -11 11 23 21 2 0.50574063D-01 0.31813723D-01 0.46976683D+05 0.46976683D+05 0.46976683D+05 0.11496857D+01  1  2 12  2  7  2       -1 0.657924053861D-03 0.100000000000D+01
-.520186979779D-05 0.000000000000D+00 0.000000000000D+00 0.758433303546D-08 0.000000000000D+00  7 1 -1 23 -11 11 23 21 2 0.50574063D-01 0.30053189D-01 0.42789820D+05 0.42789820D+05 0.42789820D+05 0.11532920D+01  1  2  4  2  7  2       -1 -.640904715353D-03 0.100000000000D+01
-.248728642823D-04 0.000000000000D+00 -.454358689314D-05 0.758433303546D-08 0.000000000000D+00  7 1 -1 23 -11 11 23 21 2 0.50574063D-01 0.32236733D-01 0.42789820D+05 0.42789820D+05 0.42789820D+05 0.11532920D+01  1  2  5  2  7  2       -1 -.272834119591D-02 0.100000000000D+01
0.251408310785D-04 0.000000000000D+00 0.453243410122D-05 0.758433303546D-08 0.000000000000D+00  7 1 -1 23 -11 11 23 21 2 0.50574063D-01 0.30053189D-01 0.42789820D+05 0.42789820D+05 0.42789820D+05 0.11532920D+01  1  2  6  2  7  2       -1 0.309751643399D-02 0.100000000000D+01
0.689214680547D-07 0.000000000000D+00 0.000000000000D+00 0.758433303546D-08 0.000000000000D+00  7 1 21 23 -11 11 23 1 2 0.50574063D-01 0.31813723D-01 0.46976683D+05 0.46976683D+05 0.46976683D+05 0.11496857D+01  1  2 12  4  7  2       -1 0.839718281464D-04 0.100000000000D+01
-.287656986900D-06 0.000000000000D+00 -.539472987123D-07 0.758433303546D-08 0.000000000000D+00  7 1 21 23 -11 11 23 1 2 0.50574063D-01 0.32236733D-01 0.42789820D+05 0.42789820D+05 0.42789820D+05 0.11532920D+01  1  2  5  4  7  2       -1 -.344641954792D-03 0.100000000000D+01
  </mgrwgt>
  </event>
  <event>
  8     66 0.25924217E-05 0.15344974E+03 0.75467711E-02 0.97809977E-01
        1 -1    0    0  501    0 0.00000000E+00 0.00000000E+00 0.97622934E+02 0.97623458E+02 0.32000000E+00 0.0000E+00 0.9000E+01
       -1 -1    0    0    0  501 0.00000000E+00 0.00000000E+00 -.11204009E+04 0.11204010E+04 0.32000000E+00 0.0000E+00 0.9000E+01
       25  2    1    2    0    0 0.20143728E+03 0.14875335E+03 -.67166748E+03 0.77723153E+03 0.30041158E+03 0.0000E+00 0.0000E+00
       23  2    3    3    0    0 0.11582866E+03 0.82495209E+02 -.11688653E+03 0.20467924E+03 0.89495210E+02 0.0000E+00 0.0000E+00
       23  1    1    2    0    0 -.20143728E+03 -.14875335E+03 -.35111052E+03 0.44079291E+03 0.91188000E+02 0.0000E+00 0.9000E+01
      -11  1    4    4    0    0 0.46102024E+01 0.45946953E+02 -.12525194E+02 0.47846179E+02 0.51099893E-03 0.0000E+00 0.9000E+01
       11  1    4    4    0    0 0.11121846E+03 0.36548256E+02 -.10436134E+03 0.15683306E+03 0.51099893E-03 0.0000E+00 0.9000E+01
       23  1    3    3    0    0 0.85608617E+02 0.66258138E+02 -.55478094E+03 0.57255229E+03 0.91188000E+02 0.0000E+00 0.9000E+01
#aMCatNLO 1  0  0  2  1 0.16363464D+03 0.00000000D+00  -5  7  0 0.00000000D+00 0.00000000D+00 0.00000000D+00 0.00000000D+00 0.00000000D+00
  <mgrwgt>
 0.4856152383D-03    9    2    0
 0.330722199580410D+03 0.000000000000000D+00 0.000000000000000D+00 0.330722199580410D+03
 0.330722199580410D+03 0.000000000000000D+00 0.000000000000000D+00 -.330722199580410D+03
 0.268788145170978D+03 -.201437278513832D+03 -.148753347229949D+03 0.350325584746817D+02
 0.687394484959172D+02 0.461020240771982D+01 0.459469525311307D+02 0.509189097132365D+02
 0.127430245284699D+03 0.111218459342161D+03 0.365482563900895D+02 0.503303752193325D+02
 0.196486560209227D+03 0.856086167639510D+02 0.662581383087287D+02 -.136281843407251D+03
 0.000000000000000D+00 0.000000000000000D+00 -.000000000000000D+00 -.000000000000000D+00
 0.404557372826449D+03 0.000000000000000D+00 0.000000000000000D+00 0.404557372826449D+03
 0.445508199860373D+03 0.000000000000000D+00 0.000000000000000D+00 -.445508199860373D+03
 0.270661302002634D+03 -.234971524035878D+03 -.922138373387409D+02 0.350325584746817D+02
 0.800064290669388D+02 -.463641153306653D+01 0.615369564875809D+02 0.509189097132365D+02
 0.125012559592123D+03 0.955256468953837D+02 0.630066994158061D+02 0.503303752193325D+02
 0.205704321323185D+03 0.606068898390267D+02 0.108411625431012D+03 -.136281843407251D+03
 0.168680960701941D+03 0.834753988345343D+02 -.140741443995658D+03 -.409508270339244D+02
0.311537592887D-04 0.000000000000D+00 0.000000000000D+00 0.108744456606D-06 0.000000000000D+00  7 1 -1 23 -11 11 23 21 0 0.15018957D-01 0.17236942D+00 0.81591662D+05 0.81591662D+05 0.81591662D+05 0.11290455D+01  1  2  2  2  7  2       -1 0.363547010134D-03 0.100000000000D+01
-.168557699577D-05 0.000000000000D+00 -.119638638642D-06 0.108744456606D-06 0.000000000000D+00  7 1 -1 23 -11 11 23 21 2 0.15018957D-01 0.17236942D+00 0.81591662D+05 0.81591662D+05 0.81591662D+05 0.11290455D+01  1  2  3  2  7  2       -1 -.250738812239D-04 0.100000000000D+01
0.200280411694D-05 0.000000000000D+00 0.000000000000D+00 0.108744456606D-06 0.000000000000D+00  7 1 -1 23 -11 11 23 21 2 0.15018957D-01 0.17236942D+00 0.81591662D+05 0.81591662D+05 0.81591662D+05 0.11290455D+01  1  2 15  2  7  2       -1 0.297928084382D-04 0.100000000000D+01
0.663270696424D-05 0.000000000000D+00 0.000000000000D+00 0.108744456606D-06 0.000000000000D+00  7 1 -1 23 -11 11 23 21 2 0.15018957D-01 0.24594625D+00 0.14525503D+06 0.14525503D+06 0.14525503D+06 0.11086552D+01  1  2 12  2  7  2       -1 0.238067612112D-04 0.100000000000D+01
-.134613837659D-04 0.000000000000D+00 0.000000000000D+00 0.108744456606D-06 0.000000000000D+00  7 1 -1 23 -11 11 23 21 2 0.15018957D-01 0.17236942D+00 0.81591662D+05 0.81591662D+05 0.81591662D+05 0.11290455D+01  1  2  4  2  7  2       -1 -.200245458086D-03 0.100000000000D+01
-.209462779380D-04 0.000000000000D+00 -.109032268551D-04 0.108744456606D-06 0.000000000000D+00  7 1 -1 23 -11 11 23 21 2 0.15018957D-01 0.26113712D+00 0.81591662D+05 0.81591662D+05 0.81591662D+05 0.11290455D+01  1  2  5  2  7  2       -1 -.600439975006D-04 0.100000000000D+01
0.242320723285D-04 0.000000000000D+00 0.100256898591D-04 0.108744456606D-06 0.000000000000D+00  7 1 -1 23 -11 11 23 21 2 0.15018957D-01 0.17236942D+00 0.81591662D+05 0.81591662D+05 0.81591662D+05 0.11290455D+01  1  2  6  2  7  2       -1 0.360465350973D-03 0.100000000000D+01
0.289751786567D-06 0.000000000000D+00 0.000000000000D+00 0.108744456606D-06 0.000000000000D+00  7 1 21 23 -11 11 23 1 2 0.15018957D-01 0.24594625D+00 0.14525503D+06 0.14525503D+06 0.14525503D+06 0.11086552D+01  1  2 12  4  7  2       -1 0.758503032673D-05 0.100000000000D+01
-.633720137818D-06 0.000000000000D+00 -.533649447182D-06 0.108744456606D-06 0.000000000000D+00  7 1 21 23 -11 11 23 1 2 0.15018957D-01 0.26113712D+00 0.81591662D+05 0.81591662D+05 0.81591662D+05 0.11290455D+01  1  2  5  4  7  2       -1 -.142183859964D-04 0.100000000000D+01
  </mgrwgt>
  </event>
  <event>
  9     66 0.25924217E-05 0.53221642E+03 0.75467711E-02 0.92225038E-01
       21 -1    0    0  501  502 0.00000000E+00 0.00000000E+00 0.76148313E+03 0.76148350E+03 0.75000000E+00 0.0000E+00 0.9000E+01
       -1 -1    0    0    0  501 0.00000000E+00 0.00000000E+00 -.59019067E+03 0.59019076E+03 0.32000000E+00 0.0000E+00 0.9000E+01
       25  2    1    2    0    0 -.14371142E+02 0.42725662E+03 -.10485297E+03 0.53317580E+03 0.30087794E+03 0.0000E+00 0.0000E+00
       23  2    3    3    0    0 -.33152783E+02 0.33580573E+03 0.22839361E+02 0.35059267E+03 0.92352529E+02 0.0000E+00 0.0000E+00
       23  1    1    2    0    0 0.73878045E+02 -.58612888E+03 0.18401581E+03 0.62544552E+03 0.91188000E+02 0.0000E+00 0.9000E+01
      -13  1    4    4    0    0 -.55220115E+02 0.21416702E+03 -.13948758E+02 0.22161082E+03 0.10565837E+00 0.0000E+00 0.9000E+01
       13  1    4    4    0    0 0.22067332E+02 0.12163871E+03 0.36788119E+02 0.12898185E+03 0.10565837E+00 0.0000E+00 0.9000E+01
       23  1    3    3    0    0 0.18781641E+02 0.91450895E+02 -.12769233E+03 0.18258313E+03 0.91188000E+02 0.0000E+00 0.9000E+01
       -1  1    1    2    0  502 -.59506903E+02 0.15887226E+03 0.92129629E+02 0.19305294E+03 0.32000000E+00 0.0000E+00 0.9000E+01
#aMCatNLO 2  0  0  1  2 0.16965101D+03 0.00000000D+00  -5  7  0 0.00000000D+00 0.00000000D+00 0.00000000D+00 0.00000000D+00 0.00000000D+00
  <mgrwgt>
 0.4595897440D-05    2    2    0
 0.571698159198265D+03 0.000000000000000D+00 0.000000000000000D+00 0.571698159198265D+03
 0.571698159198265D+03 0.000000000000000D+00 0.000000000000000D+00 -.571698159198265D+03
 0.535747245946144D+03 0.441142304657590D+02 -.506665085476883D+03 0.141613156253203D+03
 0.258159468313816D+03 -.676749892712453D+02 0.247419050561782D+03 -.291585377945362D+02
 0.143905098813089D+03 0.150624168654361D+02 0.140340662437988D+03 0.280410329525043D+02
 0.205584505323482D+03 0.849834194005019D+01 0.118905372477114D+03 -.140495651411172D+03
 0.000000000000000D+00 -.000000000000000D+00 0.000000000000000D+00 0.000000000000000D+00
 0.711116638129002D+03 0.000000000000000D+00 0.000000000000000D+00 0.711116638129002D+03
 0.631992469258073D+03 0.000000000000000D+00 0.000000000000000D+00 -.631992469258073D+03
 0.614308203553729D+03 0.738780445665538D+02 -.586128881830983D+03 0.141613156253203D+03
 0.223085314854843D+03 -.552202156606005D+02 0.214167143044786D+03 -.291585377945362D+02
 0.126764412625848D+03 0.220674330363736D+02 0.121638584250714D+03 0.280410329525043D+02
 0.191755823139267D+03 0.187816406073075D+02 0.914508954273633D+02 -.140495651411172D+03
 0.187195353213387D+03 -.595069025496344D+02 0.158872259108120D+03 0.791241688709298D+02
-.125450700065D-05 0.000000000000D+00 0.000000000000D+00 0.287914741177D-06 0.000000000000D+00  7 21 -1 23 -13 13 23 -1 2 0.12117716D+00 0.82136076D-01 0.38608405D+06 0.38608405D+06 0.38608405D+06 0.10765380D+01  1  2 13  3  7  1        1 -.105818351570D-04 0.100000000000D+01
0.202685279400D-05 0.000000000000D+00 0.000000000000D+00 0.287914741177D-06 0.245036452810D-11  7 21 -1 23 -13 13 23 -1 2 0.11715126D+00 0.90798581D-01 0.38608405D+06 0.38608405D+06 0.38608405D+06 0.10765380D+01  1  2  1  3  7  1        1 0.151777325969D-04 0.100000000000D+01
  </mgrwgt>
  </event>
  <event>
  8     66 0.25924217E-05 0.11050714E+03 0.75467711E-02 0.10600203E+00
        1 -1    0    0  501    0 0.00000000E+00 0.00000000E+00 0.16567778E+03 0.16567809E+03 0.32000000E+00 0.0000E+00 0.9000E+01
       -1 -1    0    0    0  501 0.00000000E+00 0.00000000E+00 -.22967095E+03 0.22967117E+03 0.32000000E+00 0.0000E+00 0.9000E+01
       25  2    1    2    0    0 -.26962005E+01 0.21435790E+02 -.32408315E+02 0.29645732E+03 0.29388753E+03 0.0000E+00 0.0000E+00
       23  2    3    3    0    0 -.11470667E+03 0.25696521E+02 -.63485827E+00 0.14850698E+03 0.90752354E+02 0.0000E+00 0.0000E+00
       23  1    1    2    0    0 0.26962005E+01 -.21435790E+02 -.31584853E+02 0.98891945E+02 0.91188000E+02 0.0000E+00 0.9000E+01
      -11  1    4    4    0    0 -.60597171E+02 0.55683819E+02 0.17302386E+02 0.84095644E+02 0.51099893E-03 0.0000E+00 0.9000E+01
       11  1    4    4    0    0 -.54109497E+02 -.29987298E+02 -.17937244E+02 0.64411338E+02 0.51099893E-03 0.0000E+00 0.9000E+01
       23  1    3    3    0    0 0.11201047E+03 -.42607307E+01 -.31773457E+02 0.14795034E+03 0.91188000E+02 0.0000E+00 0.9000E+01
#aMCatNLO 1  0  0  2  1 0.25616494D+02 0.00000000D+00  -5  7  0 0.00000000D+00 0.00000000D+00 0.00000000D+00 0.00000000D+00 0.00000000D+00
  <mgrwgt>
 0.9267200539D-04    9    2    0
 0.195067883309146D+03 0.000000000000000D+00 0.000000000000000D+00 0.195067883309146D+03
 0.195067883309146D+03 0.000000000000000D+00 0.000000000000000D+00 -.195067883309146D+03
 0.950363199148855D+02 0.269750678572122D+01 -.214461755215722D+02 -.157935357536989D+02
 0.880603132768678D+02 -.605973045362605D+02 0.556868505324078D+02 0.313298601200369D+02
 0.623266576444292D+02 -.541069986515186D+02 -.299854347501365D+02 -.761043053287730D+01
 0.144712475782109D+03 0.112006796402058D+03 -.425524026069916D+01 -.792589383346064D+01
 0.000000000000000D+00 0.000000000000000D+00 -.000000000000000D+00 -.000000000000000D+00
 0.198602288447420D+03 0.000000000000000D+00 0.000000000000000D+00 0.198602288447420D+03
 0.248163664441492D+03 0.000000000000000D+00 0.000000000000000D+00 -.248163664441492D+03
 0.945000664075422D+02 -.296764227905024D+01 -.188883174139498D+02 -.157935357536989D+02
 0.933809276744588D+02 -.660204937002545D+02 0.581354618952673D+02 0.313298601200369D+02
 0.648886142053223D+02 -.579094003556340D+02 -.282686213148485D+02 -.761043053287730D+01
 0.138206249212744D+03 0.103550495311752D+03 -.437155677746177D+00 -.792589383346064D+01
 0.557900953888450D+02 0.233470410231865D+02 -.105413674887228D+02 -.495613759940720D+02
0.424395015808D-06 0.000000000000D+00 0.000000000000D+00 0.714968689404D-09 0.000000000000D+00  7 1 -1 23 -11 11 23 21 0 0.25488931D-01 0.35334033D-01 0.36551503D+05 0.36551503D+05 0.36551503D+05 0.11594594D+01  1  2  2  2  7  2       -1 0.724128635720D-04 0.100000000000D+01
-.235659090251D-07 0.000000000000D+00 -.162978860648D-08 0.714968689404D-09 0.000000000000D+00  7 1 -1 23 -11 11 23 21 2 0.25488931D-01 0.35334033D-01 0.36551503D+05 0.36551503D+05 0.36551503D+05 0.11594594D+01  1  2  3  2  7  2       -1 -.540556087024D-05 0.100000000000D+01
0.258374430099D-07 0.000000000000D+00 0.000000000000D+00 0.714968689404D-09 0.000000000000D+00  7 1 -1 23 -11 11 23 21 2 0.25488931D-01 0.35334033D-01 0.36551503D+05 0.36551503D+05 0.36551503D+05 0.11594594D+01  1  2 15  2  7  2       -1 0.592660655579D-05 0.100000000000D+01
0.186337963673D-05 0.000000000000D+00 0.000000000000D+00 0.714968689404D-09 0.000000000000D+00  7 1 -1 23 -11 11 23 21 2 0.25488931D-01 0.45211075D-01 0.41856128D+05 0.41856128D+05 0.41856128D+05 0.11541494D+01  1  2 12  2  7  2       -1 0.278079749202D-03 0.100000000000D+01
-.185619035120D-05 0.000000000000D+00 0.000000000000D+00 0.714968689404D-09 0.000000000000D+00  7 1 -1 23 -11 11 23 21 2 0.25488931D-01 0.35334033D-01 0.36551503D+05 0.36551503D+05 0.36551503D+05 0.11594594D+01  1  2  4  2  7  2       -1 -.425773939782D-03 0.100000000000D+01
-.231636055697D-05 0.000000000000D+00 -.250366942458D-06 0.714968689404D-09 0.000000000000D+00  7 1 -1 23 -11 11 23 21 2 0.25488931D-01 0.45478150D-01 0.36551503D+05 0.36551503D+05 0.36551503D+05 0.11594594D+01  1  2  5  2  7  2       -1 -.345075743620D-03 0.100000000000D+01
0.231325015111D-05 0.000000000000D+00 0.242599252279D-06 0.714968689404D-09 0.000000000000D+00  7 1 -1 23 -11 11 23 21 2 0.25488931D-01 0.35334033D-01 0.36551503D+05 0.36551503D+05 0.36551503D+05 0.11594594D+01  1  2  6  2  7  2       -1 0.530614562187D-03 0.100000000000D+01
0.624087343646D-07 0.000000000000D+00 0.000000000000D+00 0.714968689404D-09 0.000000000000D+00  7 1 21 23 -11 11 23 1 2 0.25488931D-01 0.45211075D-01 0.41856128D+05 0.41856128D+05 0.41856128D+05 0.11541494D+01  1  2 12  4  7  2       -1 0.917793367228D-04 0.100000000000D+01
-.746822753691D-07 0.000000000000D+00 -.853275180215D-08 0.714968689404D-09 0.000000000000D+00  7 1 21 23 -11 11 23 1 2 0.25488931D-01 0.45478150D-01 0.36551503D+05 0.36551503D+05 0.36551503D+05 0.11594594D+01  1  2  5  4  7  2       -1 -.109885868574D-03 0.100000000000D+01
  </mgrwgt>
  </event>
  <event>
  7     66 0.25924217E-05 0.47669169E+03 0.75467711E-02 0.89690220E-01
        1 -1    0    0  501    0 0.00000000E+00 0.00000000E+00 0.41965560E+03 0.41965572E+03 0.32000000E+00 0.0000E+00 0.9000E+01
       -1 -1    0    0    0  501 0.00000000E+00 0.00000000E+00 -.61198827E+03 0.61198835E+03 0.32000000E+00 0.0000E+00 0.9000E+01
       23  2    1    2    0    0 0.25785235E+03 0.12922305E+03 -.52196667E+02 0.30688854E+03 0.90937610E+02 0.0000E+00 0.0000E+00
       23  1    1    2    0    0 -.33476274E+03 -.29818699E+03 0.27797001E+02 0.45833339E+03 0.91188000E+02 0.0000E+00 0.9000E+01
      -11  1    3    3    0    0 0.24173206E+02 0.60994857E+01 -.33959558E+02 0.42128366E+02 0.51099893E-03 0.0000E+00 0.9000E+01
       11  1    3    3    0    0 0.23367914E+03 0.12312357E+03 -.18237109E+02 0.26476017E+03 0.51099893E-03 0.0000E+00 0.9000E+01
       23  1    1    2    0    0 0.76910389E+02 0.16896393E+03 -.16793300E+03 0.26642215E+03 0.91188000E+02 0.0000E+00 0.9000E+01
#aMCatNLO 1  0  0  1  1 0.50311900D+03 0.00000000D+00  -5  7  0 0.00000000D+00 0.00000000D+00 0.00000000D+00 0.00000000D+00 0.00000000D+00
  <mgrwgt>
 0.7700808607D-03    5    2    0
 0.506778464407371D+03 0.000000000000000D+00 0.000000000000000D+00 0.506778464407371D+03
 0.506778464407371D+03 0.000000000000000D+00 0.000000000000000D+00 -.506778464407371D+03
 0.471787212897203D+03 -.334762738607971D+03 -.298186989197469D+03 0.115266435801367D+03
 0.364359866103035D+02 0.241732063488744D+02 0.609948565522945D+01 -.265712907067497D+02
 0.266024197920558D+03 0.233679143270460D+03 0.123123568935685D+03 0.316783625239632D+02
 0.239309531386679D+03 0.769103889886367D+02 0.168963934606554D+03 -.120373507618580D+03
 0.000000000000000D+00 -.000000000000000D+00 -.000000000000000D+00 0.000000000000000D+00
 0.861745651420291D+03 0.000000000000000D+00 0.000000000000000D+00 0.861745651420291D+03
 0.779595342102549D+03 0.000000000000000D+00 0.000000000000000D+00 -.779595342102549D+03
 0.322694045824507D+03 -.256692716635275D+03 -.128991061204413D+03 0.115266435801367D+03
 0.484545151069166D+02 0.325150058080582D+02 0.241781087292978D+02 -.265712907067497D+02
 0.401088864545512D+03 0.299233277963071D+03 0.265194652980945D+03 0.316783625239632D+02
 0.359321844139950D+03 0.135735143037717D+03 0.296450882846155D+03 -.120373507618580D+03
 0.509781723905955D+03 -.210790710173571D+03 -.456832583351985D+03 0.821503093177415D+02
0.982057509919D-04 0.000000000000D+00 0.000000000000D+00 0.137231676820D-08 0.000000000000D+00  7 1 -1 23 -11 11 23 21 0 0.64562416D-01 0.94152057D-01 0.22723497D+06 0.22723497D+06 0.22723497D+06 0.10935923D+01  1  2  2  1  7  1        1 0.776765145108D-03 0.100000000000D+01
-.543102622785D-05 0.000000000000D+00 -.377135941977D-06 0.137231676820D-08 0.000000000000D+00  7 1 -1 23 -11 11 23 21 2 0.64562416D-01 0.94152057D-01 0.22723497D+06 0.22723497D+06 0.22723497D+06 0.10935923D+01  1  2  3  1  7  1        1 -.513742592818D-04 0.100000000000D+01
0.619034700532D-05 0.000000000000D+00 0.000000000000D+00 0.137231676820D-08 0.000000000000D+00  7 1 -1 23 -11 11 23 21 2 0.64562416D-01 0.94152057D-01 0.22723497D+06 0.22723497D+06 0.22723497D+06 0.10935923D+01  1  2 15  1  7  1        1 0.585569796118D-04 0.100000000000D+01
-.713192768112D-05 0.000000000000D+00 -.306404399565D-04 0.137231676820D-08 0.000000000000D+00  7 1 -1 23 -11 11 23 21 2 0.15444303D+00 0.94152057D-01 0.22723497D+06 0.22723497D+06 0.22723497D+06 0.10935923D+01  1  2  5  1  7  1        1 -.180880730311D-04 0.100000000000D+01
0.124675068527D-05 0.000000000000D+00 -.292256880371D-05 0.137231676820D-08 0.000000000000D+00  7 21 -1 23 -11 11 23 -1 2 0.15444303D+00 0.94152057D-01 0.22723497D+06 0.22723497D+06 0.22723497D+06 0.10935923D+01  1  2  5  3  7  1        1 0.422106827264D-05 0.100000000000D+01
  </mgrwgt>
  </event>
  <event>
  8     66 0.25924217E-05 0.38280204E+03 0.75467711E-02 0.89742565E-01
        1 -1    0    0  501    0 0.00000000E+00 0.00000000E+00 0.40733623E+03 0.40733635E+03 0.32000000E+00 0.0000E+00 0.9000E+01
       -1 -1    0    0    0  501 0.00000000E+00 0.00000000E+00 -.58424078E+03 0.58424087E+03 0.32000000E+00 0.0000E+00 0.9000E+01
       25  2    1    2    0    0 0.28189854E+03 -.19575062E+03 0.17827119E+03 0.48933211E+03 0.29980029E+03 0.0000E+00 0.0000E+00
       23  2    3    3    0    0 0.24575073E+03 -.15501523E+03 0.28852415E+02 0.30600929E+03 0.91575559E+02 0.0000E+00 0.0000E+00
       23  1    1    2    0    0 -.28189854E+03 0.19575062E+03 -.35517574E+03 0.50224511E+03 0.91188000E+02 0.0000E+00 0.9000E+01
      -11  1    4    4    0    0 0.25310067E+03 -.15526649E+03 0.25807920E+02 0.29804979E+03 0.51099893E-03 0.0000E+00 0.9000E+01
       11  1    4    4    0    0 -.73499360E+01 0.25126163E+00 0.30444950E+01 0.79595001E+01 0.51099893E-03 0.0000E+00 0.9000E+01
       23  1    3    3    0    0 0.36147809E+02 -.40735384E+02 0.14941877E+03 0.18332282E+03 0.91188000E+02 0.0000E+00 0.9000E+01
#aMCatNLO 1  0  0  1  1 0.60251114D+03 0.00000000D+00  -5  7  0 0.00000000D+00 0.00000000D+00 0.00000000D+00 0.00000000D+00 0.00000000D+00
  <mgrwgt>
 0.5642020067D-03    3    2    0
 0.487834542559939D+03 0.000000000000000D+00 0.000000000000000D+00 0.487834542559939D+03
 0.487834542559939D+03 0.000000000000000D+00 0.000000000000000D+00 -.487834542559939D+03
 0.446035042346851D+03 -.281898539702380D+03 0.195750615737110D+03 -.269901681005445D+03
 0.307588843651814D+03 0.253100666401903D+03 -.155266493617447D+03 0.802699530691037D+02
 0.864129459050171D+01 -.734993598046245D+01 0.251261637675579D+00 0.453732089149205D+01
 0.213403904530712D+03 0.361478092809397D+02 -.407353837573391D+02 0.185094407044849D+03
 0.000000000000000D+00 0.000000000000000D+00 -.000000000000000D+00 -.000000000000000D+00
 0.835720101345112D+03 0.000000000000000D+00 0.000000000000000D+00 0.835720101345112D+03
 0.919268824608288D+03 0.000000000000000D+00 0.000000000000000D+00 -.919268824608288D+03
 0.723218590058057D+03 -.472727090630428D+03 0.467345758551514D+03 -.269901681005445D+03
 0.193202121235608D+03 0.171368857751655D+03 -.389423789349775D+02 0.802699530691037D+02
 0.128925399131484D+02 -.108643748672624D+02 0.525315745845785D+01 0.453732089149205D+01
 0.217399370507387D+03 -.341616278097022D+02 0.593319359124169D+02 0.185094407044849D+03
 0.608276304239199D+03 0.346384235555738D+03 -.492988472987412D+03 -.835487232631758D+02
0.603059857879D-04 0.000000000000D+00 0.000000000000D+00 0.226296538332D-05 0.000000000000D+00  7 1 -1 23 -11 11 23 21 0 0.62667128D-01 0.89883213D-01 0.14653740D+06 0.14653740D+06 0.14653740D+06 0.11083532D+01  1  2  2  1  7  1        1 0.556508128410D-03 0.100000000000D+01
-.311086670954D-05 0.000000000000D+00 -.231590864356D-06 0.226296538332D-05 0.000000000000D+00  7 1 -1 23 -11 11 23 21 2 0.62667128D-01 0.89883213D-01 0.14653740D+06 0.14653740D+06 0.14653740D+06 0.11083532D+01  1  2  3  1  7  1        1 -.352654029291D-04 0.100000000000D+01
0.378956673282D-05 0.000000000000D+00 0.000000000000D+00 0.226296538332D-05 0.000000000000D+00  7 1 -1 23 -11 11 23 21 2 0.62667128D-01 0.89883213D-01 0.14653740D+06 0.14653740D+06 0.14653740D+06 0.11083532D+01  1  2 15  1  7  1        1 0.429592812029D-04 0.100000000000D+01
  </mgrwgt>
  </event>
  <event>
  8     66 0.25924217E-05 0.21409482E+03 0.75467711E-02 0.98539792E-01
        1 -1    0    0  501    0 0.00000000E+00 0.00000000E+00 0.83730982E+03 0.83730988E+03 0.32000000E+00 0.0000E+00 0.9000E+01
       -1 -1    0    0    0  501 0.00000000E+00 0.00000000E+00 -.14250588E+03 0.14250624E+03 0.32000000E+00 0.0000E+00 0.9000E+01
       25  2    1    2    0    0 0.16453337E+03 -.81735322E+02 0.69052113E+03 0.77466864E+03 0.29923266E+03 0.0000E+00 0.0000E+00
       23  2    3    3    0    0 0.68157724E+02 -.47969352E+01 0.56573284E+03 0.57694371E+03 0.90232541E+02 0.0000E+00 0.0000E+00
       23  1    1    2    0    0 -.16453337E+03 0.81735322E+02 0.42828116E+01 0.20514747E+03 0.91188000E+02 0.0000E+00 0.9000E+01
      -11  1    4    4    0    0 0.18219966E+02 0.48482715E+01 0.45157503E+03 0.45196845E+03 0.51099893E-03 0.0000E+00 0.9000E+01
       11  1    4    4    0    0 0.49937758E+02 -.96452067E+01 0.11415781E+03 0.12497526E+03 0.51099893E-03 0.0000E+00 0.9000E+01
       23  1    3    3    0    0 0.96375645E+02 -.76938386E+02 0.12478829E+03 0.19772493E+03 0.91188000E+02 0.0000E+00 0.9000E+01
#aMCatNLO 1  0  0  1  1 0.22289277D+03 0.00000000D+00  -5  7  0 0.00000000D+00 0.00000000D+00 0.00000000D+00 0.00000000D+00 0.00000000D+00
  <mgrwgt>
 0.6045573542D-03    3    2    0
 0.345429842835448D+03 0.000000000000000D+00 0.000000000000000D+00 0.345429842835448D+03
 0.345429842835448D+03 0.000000000000000D+00 0.000000000000000D+00 -.345429842835448D+03
 0.286644439108975D+03 -.164533369274926D+03 0.817353215439136D+02 -.200244577293001D+03
 0.186853950643033D+03 0.182199662188624D+02 0.484827147035614D+01 0.185900311903026D+03
 0.624373913402836D+02 0.499377577540764D+02 -.964520665999709D+01 0.362162694981255D+02
 0.154923904578605D+03 0.963756453019871D+02 -.769383863542726D+02 -.218720041081498D+02
 0.000000000000000D+00 0.000000000000000D+00 0.000000000000000D+00 -.000000000000000D+00
 0.385770019373276D+03 0.000000000000000D+00 0.000000000000000D+00 0.385770019373276D+03
 0.907542946554262D+03 0.000000000000000D+00 0.000000000000000D+00 -.907542946554262D+03
 0.344336492706296D+03 -.259526578685757D+03 0.529191183381345D+02 -.200244577293001D+03
 0.190258870704311D+03 -.385537893789460D+02 -.123740551381303D+02 0.185900311903026D+03
 0.510921699234373D+02 0.328460568108825D+02 -.148299765037173D+02 0.362162694981255D+02
 0.140238284720332D+03 0.519394313936372D+02 -.904181179858315D+02 -.218720041081498D+02
 0.567387147873161D+03 0.213294879860183D+03 0.647030312895447D+02 -.521772927180986D+03
0.140340698992D-04 0.000000000000D+00 0.000000000000D+00 0.221162374005D-06 0.000000000000D+00  7 1 -1 23 -11 11 23 21 0 0.12881693D+00 0.21924013D-01 0.45836592D+05 0.45836592D+05 0.45836592D+05 0.11506314D+01  1  2  2  1  7  1        1 0.586635753375D-03 0.100000000000D+01
-.562739600685D-06 0.000000000000D+00 -.538945236683D-07 0.221162374005D-06 0.000000000000D+00  7 1 -1 23 -11 11 23 21 2 0.12881693D+00 0.21924013D-01 0.45836592D+05 0.45836592D+05 0.45836592D+05 0.11506314D+01  1  2  3  1  7  1        1 -.311433141831D-04 0.100000000000D+01
0.886571368931D-06 0.000000000000D+00 0.000000000000D+00 0.221162374005D-06 0.000000000000D+00  7 1 -1 23 -11 11 23 21 2 0.12881693D+00 0.21924013D-01 0.45836592D+05 0.45836592D+05 0.45836592D+05 0.11506314D+01  1  2 15  1  7  1        1 0.490649150242D-04 0.100000000000D+01
  </mgrwgt>
  </event>
  <event>
  8     66 0.25924217E-05 0.20195494E+03 0.75467711E-02 0.10573088E+00
        1 -1    0    0  501    0 0.00000000E+00 0.00000000E+00 0.17924322E+04 0.17924322E+04 0.32000000E+00 0.0000E+00 0.9000E+01
       -1 -1    0    0    0  501 0.00000000E+00 0.00000000E+00 -.58129994E+02 0.58130874E+02 0.32000000E+00 0.0000E+00 0.9000E+01
       25  2    1    2    0    0 -.52642766E+02 -.20047985E+02 0.17150094E+04 0.17416565E+04 0.29822310E+03 0.0000E+00 0.0000E+00
       23  2    3    3    0    0 0.29727337E+02 0.91698118E+02 0.92675216E+03 0.93609042E+03 0.90019107E+02 0.0000E+00 0.0000E+00
       23  1    1    2    0    0 0.52642766E+02 0.20047985E+02 0.19292823E+02 0.10890660E+03 0.91188000E+02 0.0000E+00 0.9000E+01
      -13  1    4    4    0    0 -.21295614E+02 0.73399605E+02 0.47705213E+03 0.48313534E+03 0.10565837E+00 0.0000E+00 0.9000E+01
       13  1    4    4    0    0 0.51022952E+02 0.18298513E+02 0.44970003E+03 0.45295508E+03 0.10565837E+00 0.0000E+00 0.9000E+01
       23  1    3    3    0    0 -.82370103E+02 -.11174610E+03 0.78825723E+03 0.80556609E+03 0.91188000E+02 0.0000E+00 0.9000E+01
#aMCatNLO 1  0  0  2  1 0.12403089D+02 0.00000000D+00  -5  7  0 0.00000000D+00 0.00000000D+00 0.00000000D+00 0.00000000D+00 0.00000000D+00
  <mgrwgt>
 0.1779774896D-03    4    2    0
 0.322792369928192D+03 0.000000000000000D+00 0.000000000000000D+00 0.322792369928192D+03
 0.322792369928192D+03 0.000000000000000D+00 0.000000000000000D+00 -.322792369928192D+03
 0.260351484327074D+03 0.526427660782428D+02 0.200479851946859D+02 -.237264539104721D+03
 0.103347971477862D+03 -.212957138132832D+02 0.733996807062650D+02 0.695685464415504D+02
 0.903153226466012D+02 0.510230508615078D+02 0.182984370728001D+02 0.722403833477954D+02
 0.191569961404847D+03 -.823701031264674D+02 -.111746102973751D+03 0.954556093153749D+02
 0.000000000000000D+00 -.000000000000000D+00 0.000000000000000D+00 0.000000000000000D+00
 0.340661661621051D+03 0.000000000000000D+00 0.000000000000000D+00 0.340661661621051D+03
 0.325011383940187D+03 0.000000000000000D+00 0.000000000000000D+00 -.325011383940187D+03
 0.260836586216231D+03 0.561619999793387D+02 0.164876198004030D+02 -.237264539104721D+03
 0.102076509580305D+03 -.199086199047421D+02 0.719963749614970D+02 0.695685464415504D+02
 0.907710762753771D+02 0.522458060052495D+02 0.170613908230173D+02 0.722403833477954D+02
 0.192019701971788D+03 -.797799790930110D+02 -.114366499410813D+03 0.954556093153749D+02
 0.199691715175368D+02 -.871920698683504D+01 0.882111382589558D+01 0.156502776808631D+02
0.700305047162D-05 0.000000000000D+00 0.000000000000D+00 0.352871151290D-07 0.000000000000D+00  7 1 -1 23 -13 13 23 21 0 0.27575887D+00 0.89431459D-02 0.40785799D+05 0.40785799D+05 0.40785799D+05 0.11551586D+01  1  2  2  2  7  2       -1 0.258229362051D-03 0.100000000000D+01
-.285024064695D-06 0.000000000000D+00 -.268935577566D-07 0.352871151290D-07 0.000000000000D+00  7 1 -1 23 -13 13 23 21 2 0.27575887D+00 0.89431459D-02 0.40785799D+05 0.40785799D+05 0.40785799D+05 0.11551586D+01  1  2  3  2  7  2       -1 -.140243631259D-04 0.100000000000D+01
0.432864111949D-06 0.000000000000D+00 0.000000000000D+00 0.352871151290D-07 0.000000000000D+00  7 1 -1 23 -13 13 23 21 2 0.27575887D+00 0.89431459D-02 0.40785799D+05 0.40785799D+05 0.40785799D+05 0.11551586D+01  1  2 15  2  7  2       -1 0.212987050643D-04 0.100000000000D+01
-.177883852407D-05 0.000000000000D+00 0.000000000000D+00 0.352871151290D-07 0.000000000000D+00  7 1 -1 23 -13 13 23 21 2 0.27575887D+00 0.89431459D-02 0.40785799D+05 0.40785799D+05 0.40785799D+05 0.11551586D+01  1  2  4  2  7  2       -1 -.875262144291D-04 0.100000000000D+01
  </mgrwgt>
  </event>
  <event>
  9     66 -.25924217E-05 0.67183334E+03 0.75467711E-02 0.91014432E-01
        3 -1    0    0  501    0 0.00000000E+00 0.00000000E+00 0.96775590E+03 0.96775603E+03 0.50000000E+00 0.0000E+00 0.9000E+01
       -3 -1    0    0    0  502 0.00000000E+00 0.00000000E+00 -.51093300E+03 0.51093324E+03 0.50000000E+00 0.0000E+00 0.9000E+01
       25  2    1    2    0    0 0.36964723E+03 -.51309178E+03 0.18295284E+03 0.72404326E+03 0.30143764E+03 0.0000E+00 0.0000E+00
       23  2    3    3    0    0 0.65390993E+01 -.12699500E+03 0.83916649E+02 0.17719624E+03 0.90476599E+02 0.0000E+00 0.0000E+00
       23  1    1    2    0    0 -.41539822E+03 0.49717826E+03 0.26198012E+03 0.70476289E+03 0.91188000E+02 0.0000E+00 0.9000E+01
      -11  1    4    4    0    0 0.12731446E+01 -.13908598E+03 0.63524850E+02 0.15291153E+03 0.51099893E-03 0.0000E+00 0.9000E+01
       11  1    4    4    0    0 0.52659547E+01 0.12090974E+02 0.20391799E+02 0.24284715E+02 0.51099893E-03 0.0000E+00 0.9000E+01
       23  1    3    3    0    0 0.36310813E+03 -.38609678E+03 0.99036192E+02 0.54684701E+03 0.91188000E+02 0.0000E+00 0.9000E+01
       21  1    1    2  501  502 0.45750986E+02 0.15913527E+02 0.11889948E+02 0.49883128E+02 0.75000000E+00 0.0000E+00 0.9000E+01
#aMCatNLO 2  0  0  2  1 0.48439582D+02 0.00000000D+00  -5  7  0 0.00000000D+00 0.00000000D+00 0.00000000D+00 0.00000000D+00 0.00000000D+00
  <mgrwgt>
 -.5544929688D-05    3    2    0
 0.678449569973800D+03 0.000000000000000D+00 0.000000000000000D+00 0.678449569973800D+03
 0.678449569973800D+03 0.000000000000000D+00 0.000000000000000D+00 -.678449569973800D+03
 0.648031171864713D+03 -.393424565723789D+03 0.504821331516651D+03 0.447401686983518D+02
 0.138596545714805D+03 0.597002238639950D+01 -.137452264240597D+03 0.167402620025772D+02
 0.192044482701963D+02 0.590768604923363D+01 0.123141866344517D+02 0.135007735496239D+02
 0.551066974097886D+03 0.381546857288156D+03 -.379683253910505D+03 -.749812042505529D+02
 0.000000000000000D+00 0.000000000000000D+00 0.000000000000000D+00 -.000000000000000D+00
 0.701260098015359D+03 0.000000000000000D+00 0.000000000000000D+00 0.701260098015359D+03
 0.705094488815245D+03 0.000000000000000D+00 0.000000000000000D+00 -.705094488815245D+03
 0.655788707509030D+03 -.415398215229127D+03 0.497178255399070D+03 0.447401686983518D+02
 0.140095559522445D+03 0.127314459118618D+01 -.139085975313265D+03 0.167402620025772D+02
 0.188730710827658D+02 0.526595471998237D+01 0.120909737632665D+02 0.135007735496239D+02
 0.543006142411601D+03 0.363108129994827D+03 -.386096780993477D+03 -.749812042505529D+02
 0.485911063047604D+02 0.457509859231315D+02 0.159135271444046D+02 -.383439079988604D+01
-.930641614225D-04 0.000000000000D+00 0.000000000000D+00 0.253046923843D-06 0.000000000000D+00  7 3 -3 23 -11 11 23 21 2 0.14404202D+00 0.79830399D-01 0.48496211D+06 0.48496211D+06 0.48496211D+06 0.10694490D+01  1  2 13  2  7  2       -3 -.208123261293D-04 0.100000000000D+01
-.151270809852D-04 0.000000000000D+00 0.000000000000D+00 0.253046923843D-06 0.000000000000D+00  7 3 -3 23 -11 11 23 21 2 0.14404202D+00 0.75634374D-01 0.45136003D+06 0.45136003D+06 0.45136003D+06 0.10716659D+01  1  2  8  2  7  2       -3 -.387343894739D-05 0.100000000000D+01
0.908198108707D-04 0.000000000000D+00 0.000000000000D+00 0.253046923843D-06 0.658790434914D-09  7 3 -3 23 -11 11 23 21 2 0.14888494D+00 0.78604782D-01 0.48496211D+06 0.48496211D+06 0.48496211D+06 0.10694490D+01  1  2  1  2  7  2       -3 0.191408353884D-04 0.100000000000D+01
  </mgrwgt>
  </event>
  <event>
  8     66 0.25924217E-05 0.18710049E+03 0.75467711E-02 0.96639460E-01
        1 -1    0    0  501    0 0.00000000E+00 0.00000000E+00 0.17860808E+04 0.17860809E+04 0.32000000E+00 0.0000E+00 0.9000E+01
       -1 -1    0    0    0  501 0.00000000E+00 0.00000000E+00 -.71350511E+02 0.71351228E+02 0.32000000E+00 0.0000E+00 0.9000E+01
       25  2    1    2    0    0 0.40720522E+01 -.40679676E+02 0.17301098E+04 0.17563223E+04 0.29952728E+03 0.0000E+00 0.0000E+00
       23  2    3    3    0    0 0.10451004E+03 -.56317739E+02 0.11760656E+04 0.11856975E+04 0.93028854E+02 0.0000E+00 0.0000E+00
       23  1    1    2    0    0 -.40720522E+01 0.40679676E+02 -.15379468E+02 0.10110983E+03 0.91188000E+02 0.0000E+00 0.9000E+01
      -11  1    4    4    0    0 0.16627089E+01 -.31980693E+02 0.11481580E+03 0.11919815E+03 0.51099893E-03 0.0000E+00 0.9000E+01
       11  1    4    4    0    0 0.10284733E+03 -.24337047E+02 0.10612498E+04 0.10664994E+04 0.51099893E-03 0.0000E+00 0.9000E+01
       23  1    3    3    0    0 -.10043799E+03 0.15638064E+02 0.55404423E+03 0.57062475E+03 0.91188000E+02 0.0000E+00 0.9000E+01
#aMCatNLO 1  0  0  1  1 0.32104886D+03 0.00000000D+00  -5  7  0 0.00000000D+00 0.00000000D+00 0.00000000D+00 0.00000000D+00 0.00000000D+00
  <mgrwgt>
 0.4474183383D-03    5    2    0
 0.356985257290920D+03 0.000000000000000D+00 0.000000000000000D+00 0.356985257290920D+03
 0.356985257290920D+03 0.000000000000000D+00 0.000000000000000D+00 -.356985257290920D+03
 0.299979165146868D+03 -.407205221610485D+01 0.406796757441490D+02 -.282844180690203D+03
 0.343492083450758D+02 0.166270888581336D+01 -.319806927145094D+02 0.124233170528078D+02
 0.225769860707280D+03 0.102847333352575D+03 -.243370466979590D+02 0.199504797396128D+03
 0.153872280382616D+03 -.100437990022283D+03 0.156380636683193D+02 0.709160662412665D+02
 0.000000000000000D+00 -.000000000000000D+00 -.000000000000000D+00 0.000000000000000D+00
 0.103630088471525D+04 0.000000000000000D+00 0.000000000000000D+00 0.103630088471525D+04
 0.431373771493046D+03 0.000000000000000D+00 0.000000000000000D+00 -.431373771493046D+03
 0.344995679419280D+03 0.505392657391918D+02 0.167784741684700D+03 -.282844180690203D+03
 0.247445809230084D+02 0.666629893601672D+01 -.203350912699300D+02 0.124233170528078D+02
 0.255746836408613D+03 0.143618321040736D+03 0.705553542290281D+02 0.199504797396128D+03
 0.157345110011320D+03 -.740865873230764D+02 0.769696136677249D+02 0.709160662412665D+02
 0.684842449446075D+03 -.126737298392868D+03 -.294974618311523D+03 0.604927113222202D+03
0.156423924563D-04 0.000000000000D+00 0.000000000000D+00 0.265716220742D-06 0.000000000000D+00  7 1 -1 23 -11 11 23 21 0 0.27478173D+00 0.10977059D-01 0.35006592D+05 0.35006592D+05 0.35006592D+05 0.11611675D+01  1  2  2  1  7  1        1 0.428188623869D-03 0.100000000000D+01
-.428017715064D-06 0.000000000000D+00 -.600709057687D-07 0.265716220742D-06 0.000000000000D+00  7 1 -1 23 -11 11 23 21 2 0.27478173D+00 0.10977059D-01 0.35006592D+05 0.35006592D+05 0.35006592D+05 0.11611675D+01  1  2  3  1  7  1        1 -.157973211330D-04 0.100000000000D+01
0.952808777583D-06 0.000000000000D+00 0.000000000000D+00 0.265716220742D-06 0.000000000000D+00  7 1 -1 23 -11 11 23 21 2 0.27478173D+00 0.10977059D-01 0.35006592D+05 0.35006592D+05 0.35006592D+05 0.11611675D+01  1  2 15  1  7  1        1 0.351663627650D-04 0.100000000000D+01
-.481264325979D-05 0.000000000000D+00 -.389558180006D-05 0.265716220742D-06 0.000000000000D+00  7 1 -1 23 -11 11 23 21 2 0.80823937D+00 0.10977059D-01 0.35006592D+05 0.35006592D+05 0.35006592D+05 0.11611675D+01  1  2  5  1  7  1        1 -.138976118649D-06 0.100000000000D+01
-.386720753750D-06 0.000000000000D+00 -.476412279174D-06 0.265716220742D-06 0.000000000000D+00  7 21 -1 23 -11 11 23 -1 2 0.80823937D+00 0.10977059D-01 0.35006592D+05 0.35006592D+05 0.35006592D+05 0.11611675D+01  1  2  5  3  7  1        1 -.351089616945D-09 0.100000000000D+01
  </mgrwgt>
  </event>
  <event>
  8     66 0.25924217E-05 0.94080456E+02 0.75467711E-02 0.10321111E+00
        1 -1    0    0  501    0 0.00000000E+00 0.00000000E+00 0.16664131E+04 0.16664131E+04 0.32000000E+00 0.0000E+00 0.9000E+01
       -1 -1    0    0    0  501 0.00000000E+00 0.00000000E+00 -.24672215E+02 0.24674290E+02 0.32000000E+00 0.0000E+00 0.9000E+01
       25  2    1    2    0    0 -.34422979E+01 0.36717680E+02 0.13378227E+04 0.13716480E+04 0.30048059E+03 0.0000E+00 0.0000E+00
       23  2    3    3    0    0 -.67920078E+02 -.32030064E+02 0.26831402E+03 0.29412875E+03 0.94235057E+02 0.0000E+00 0.0000E+00
       23  1    1    2    0    0 0.34422979E+01 -.36717680E+02 0.30391818E+03 0.31943943E+03 0.91188000E+02 0.0000E+00 0.9000E+01
      -13  1    4    4    0    0 -.59321685E+02 0.81481337E+01 0.23097059E+03 0.23860611E+03 0.10565837E+00 0.0000E+00 0.9000E+01
       13  1    4    4    0    0 -.85983931E+01 -.40178198E+02 0.37343434E+02 0.55522637E+02 0.10565837E+00 0.0000E+00 0.9000E+01
       23  1    3    3    0    0 0.64477781E+02 0.68747745E+02 0.10695087E+04 0.10775192E+04 0.91188000E+02 0.0000E+00 0.9000E+01
#aMCatNLO 1  0  0  1  2 0.14297251D+03 0.00000000D+00  -5  7  0 0.00000000D+00 0.00000000D+00 0.00000000D+00 0.00000000D+00 0.00000000D+00
  <mgrwgt>
 0.1192749882D-02    8    2    0
 0.202770515497428D+03 0.000000000000000D+00 0.000000000000000D+00 0.202770515497428D+03
 0.202770515497428D+03 0.000000000000000D+00 0.000000000000000D+00 -.202770515497428D+03
 0.101704168309659D+03 0.344234688477016D+01 -.367182029880022D+02 -.258536327199160D+02
 0.599444221393404D+02 -.593217162743186D+02 0.814830166307990D+01 -.280586954367642D+01
 0.803501177896141D+02 -.859826892416950D+01 -.401780419016527D+02 -.690502436582345D+02
 0.163542322756242D+03 0.644776383137179D+02 0.687479432265750D+02 0.977097459218270D+02
 0.000000000000000D+00 0.000000000000000D+00 -.000000000000000D+00 0.000000000000000D+00
 0.356405812821466D+03 0.000000000000000D+00 0.000000000000000D+00 0.356405812821466D+03
 0.251142544944080D+03 0.000000000000000D+00 0.000000000000000D+00 -.251142544944080D+03
 0.104110962093028D+03 -.310914128479704D+02 -.298119909807552D+02 -.258536327199160D+02
 0.846315804744151D+02 -.835801511503889D+02 0.129996093548776D+02 -.280586954367642D+01
 0.853919948665553D+02 -.364081694152864D+02 -.346164966144187D+02 -.690502436582345D+02
 0.155870887320511D+03 0.108832352653501D+02 0.794659858815993D+02 0.977097459218270D+02
 0.177542933011036D+03 0.140196498148296D+03 -.280371076413030D+02 0.105263267877386D+03
0.455006137014D-05 0.000000000000D+00 0.000000000000D+00 0.985535245539D-08 0.000000000000D+00  7 1 -1 23 -13 13 23 21 0 0.25637141D+00 0.37958873D-02 0.27303316D+05 0.27303316D+05 0.27303316D+05 0.11711504D+01  1  2  2  1  7  1        1 0.720044278164D-03 0.100000000000D+01
-.239903647466D-06 0.000000000000D+00 -.174734337200D-07 0.985535245539D-08 0.000000000000D+00  7 1 -1 23 -13 13 23 21 2 0.25637141D+00 0.37958873D-02 0.27303316D+05 0.27303316D+05 0.27303316D+05 0.11711504D+01  1  2  3  1  7  1        1 -.520719822929D-04 0.100000000000D+01
0.294494665619D-06 0.000000000000D+00 0.000000000000D+00 0.985535245539D-08 0.000000000000D+00  7 1 -1 23 -13 13 23 21 2 0.25637141D+00 0.37958873D-02 0.27303316D+05 0.27303316D+05 0.27303316D+05 0.11711504D+01  1  2 15  1  7  1        1 0.639211665824D-04 0.100000000000D+01
0.690566252765D-07 0.000000000000D+00 0.000000000000D+00 0.985535245539D-08 0.000000000000D+00  7 1 -1 23 -13 13 23 21 2 0.46192708D+00 0.37958873D-02 0.62522233D+05 0.62522233D+05 0.62522233D+05 0.11388543D+01  1  2 12  1  7  1        1 0.177349543889D-05 0.100000000000D+01
-.181521133593D-05 0.000000000000D+00 -.120655666292D-05 0.985535245539D-08 0.000000000000D+00  7 1 -1 23 -13 13 23 21 2 0.48039759D+00 0.37958873D-02 0.27303316D+05 0.27303316D+05 0.27303316D+05 0.11711504D+01  1  2  5  1  7  1        1 -.414124322625D-04 0.100000000000D+01
0.230707245293D-05 0.000000000000D+00 0.100233177373D-05 0.985535245539D-08 0.000000000000D+00  7 1 -1 23 -13 13 23 21 2 0.25637141D+00 0.37958873D-02 0.27303316D+05 0.27303316D+05 0.27303316D+05 0.11711504D+01  1  2  6  1  7  1        1 0.500758688691D-03 0.100000000000D+01
0.445830031905D-08 0.000000000000D+00 0.000000000000D+00 0.985535245539D-08 0.000000000000D+00  7 21 -1 23 -13 13 23 -1 2 0.46192708D+00 0.37958873D-02 0.62522233D+05 0.62522233D+05 0.62522233D+05 0.11388543D+01  1  2 12  3  7  1        1 0.276124652782D-07 0.100000000000D+01
-.563163377418D-07 0.000000000000D+00 -.824852572073D-07 0.985535245539D-08 0.000000000000D+00  7 21 -1 23 -13 13 23 -1 2 0.48039759D+00 0.37958873D-02 0.27303316D+05 0.27303316D+05 0.27303316D+05 0.11711504D+01  1  2  5  3  7  1        1 -.290944390645D-06 0.100000000000D+01
  </mgrwgt>
  </event>
  <event>
  9     66 -.25924217E-05 0.21895286E+03 0.75467711E-02 0.10333144E+00
        1 -1    0    0  501    0 0.00000000E+00 0.00000000E+00 0.23824733E+04 0.23824733E+04 0.32000000E+00 0.0000E+00 0.9000E+01
       -1 -1    0    0    0  502 0.00000000E+00 0.00000000E+00 -.38846522E+02 0.38847840E+02 0.32000000E+00 0.0000E+00 0.9000E+01
       25  2    1    2    0    0 0.14737523E+03 0.13610045E+02 0.19645470E+04 0.19922602E+04 0.29622827E+03 0.0000E+00 0.0000E+00
       23  2    3    3    0    0 0.18868523E+03 0.76162951E+01 0.16193221E+04 0.16327634E+04 0.89734768E+02 0.0000E+00 0.0000E+00
       23  1    1    2    0    0 -.11307074E+03 0.27067483E+02 0.27816394E+03 0.31497312E+03 0.91188000E+02 0.0000E+00 0.9000E+01
      -11  1    4    4    0    0 0.99701555E+01 -.10858764E+02 0.31163675E+02 0.34474504E+02 0.51099893E-03 0.0000E+00 0.9000E+01
       11  1    4    4    0    0 0.17871507E+03 0.18475059E+02 0.15881584E+04 0.15982889E+04 0.51099893E-03 0.0000E+00 0.9000E+01
       23  1    3    3    0    0 -.41309994E+02 0.59937495E+01 0.34522494E+03 0.35949681E+03 0.91188000E+02 0.0000E+00 0.9000E+01
       21  1    1    2  501  502 -.34304492E+02 -.40677527E+02 0.10091581E+03 0.11408779E+03 0.75000000E+00 0.0000E+00 0.9000E+01
#aMCatNLO 2  0  0  2  1 0.53211460D+02 0.00000000D+00  -5  7  0 0.00000000D+00 0.00000000D+00 0.00000000D+00 0.00000000D+00 0.00000000D+00
  <mgrwgt>
 -.1282505910D-03    2    2    0
 0.269602441739083D+03 0.000000000000000D+00 0.000000000000000D+00 0.269602441739083D+03
 0.269602441739083D+03 0.000000000000000D+00 0.000000000000000D+00 -.269602441739083D+03
 0.195942189731985D+03 -.125313735467057D+03 0.125500050799545D+02 -.119235294475884D+03
 0.180808745049843D+02 0.883124004636480D+01 -.122092651975982D+02 -.999305085763064D+01
 0.220626813473836D+03 0.164343459541489D+03 0.143350982319005D+01 0.147191586645231D+03
 0.104555005767360D+03 -.478609641207963D+02 -.177424970554634D+01 -.179632413117169D+02
 0.000000000000000D+00 -.000000000000000D+00 -.000000000000000D+00 -.000000000000000D+00
 0.283711756444926D+03 0.000000000000000D+00 0.000000000000000D+00 0.283711756444926D+03
 0.326215285826289D+03 0.000000000000000D+00 0.000000000000000D+00 -.326215285826289D+03
 0.189868238835153D+03 -.113070742030610D+03 0.270674827470034D+02 -.119235294475884D+03
 0.178094867299455D+02 0.997015549419981D+01 -.108587638137307D+02 -.999305085763064D+01
 0.232262283196630D+03 0.178715072715782D+03 0.184750588839079D+02 0.147191586645231D+03
 0.101884100880421D+03 -.413099939018175D+02 0.599374954604252D+01 -.179632413117169D+02
 0.681029326290642D+02 -.343044922775535D+02 -.406775273632231D+02 -.425035293813627D+02
-.333951298693D-04 0.000000000000D+00 0.000000000000D+00 0.451225418458D-08 0.000000000000D+00  7 1 -1 23 -11 11 23 21 2 0.34830380D+00 0.60861959D-02 0.61421749D+05 0.61421749D+05 0.61421749D+05 0.11395180D+01  1  2 13  2  7  2       -1 -.139225132078D-02 0.100000000000D+01
0.353889177619D-04 0.000000000000D+00 0.000000000000D+00 0.451225418458D-08 0.112800108470D-10  7 1 -1 23 -11 11 23 21 2 0.36653186D+00 0.59764487D-02 0.61421749D+05 0.61421749D+05 0.61421749D+05 0.11395180D+01  1  2  1  2  7  2       -1 0.126400072973D-02 0.100000000000D+01
  </mgrwgt>
  </event>
  <event>
  8     66 0.25924217E-05 0.27903799E+03 0.75467711E-02 0.94995635E-01
        1 -1    0    0  501    0 0.00000000E+00 0.00000000E+00 0.23184526E+03 0.23184548E+03 0.32000000E+00 0.0000E+00 0.9000E+01
       -1 -1    0    0    0  501 0.00000000E+00 0.00000000E+00 -.36783591E+03 0.36783604E+03 0.32000000E+00 0.0000E+00 0.9000E+01
       25  2    1    2    0    0 -.18414894E+03 0.35551355E+02 -.59427329E+01 0.35391244E+03 0.30007327E+03 0.0000E+00 0.0000E+00
       23  2    3    3    0    0 -.17268950E+03 -.72476697E+02 -.25346274E+02 0.21075823E+03 0.93284845E+02 0.0000E+00 0.0000E+00
       23  1    1    2    0    0 0.18414894E+03 -.35551355E+02 -.13004792E+03 0.24576908E+03 0.91188000E+02 0.0000E+00 0.9000E+01
      -13  1    4    4    0    0 -.50845549E+01 -.35761264E+02 0.51609736E+01 0.36487910E+02 0.10565837E+00 0.0000E+00 0.9000E+01
       13  1    4    4    0    0 -.16760495E+03 -.36715432E+02 -.30507248E+02 0.17427032E+03 0.10565837E+00 0.0000E+00 0.9000E+01
       23  1    3    3    0    0 -.11459432E+02 0.10802805E+03 0.19403541E+02 0.14315421E+03 0.91188000E+02 0.0000E+00 0.9000E+01
#aMCatNLO 1  0  0  1  1 0.32200463D+03 0.00000000D+00  -5  7  0 0.00000000D+00 0.00000000D+00 0.00000000D+00 0.00000000D+00 0.00000000D+00
  <mgrwgt>
 0.2993608429D-03    5    2    0
 0.292029309272961D+03 0.000000000000000D+00 0.000000000000000D+00 0.292029309272961D+03
 0.292029309272961D+03 0.000000000000000D+00 0.000000000000000D+00 -.292029309272961D+03
 0.222063114775245D+03 0.184148935874766D+03 -.355513552967202D+02 -.763023338597279D+02
 0.386654151127693D+02 -.508434849091685D+01 -.357612622155996D+02 0.137947762219184D+02
 0.171828797995708D+03 -.167605155313922D+03 -.367154363169414D+02 0.925334906412917D+01
 0.151501290662199D+03 -.114594320699268D+02 0.108028053829261D+03 0.532542085736802D+02
 0.000000000000000D+00 -.000000000000000D+00 0.000000000000000D+00 0.000000000000000D+00
 0.524416326030160D+03 0.000000000000000D+00 0.000000000000000D+00 0.524416326030160D+03
 0.469225685788742D+03 0.000000000000000D+00 0.000000000000000D+00 -.469225685788742D+03
 0.354257118006662D+03 0.319566946948495D+03 -.961133423618326D+02 -.763023338597279D+02
 0.496426681213066D+02 0.156654088715272D+02 -.450410214368775D+02 0.137947762219184D+02
 0.120123703070039D+03 -.990050528474771D+02 -.673949484829874D+02 0.925334906412917D+01
 0.142918374679518D+03 0.577203801832652D+02 0.770892823791058D+02 0.532542085736802D+02
 0.326700147941375D+03 -.293947683155810D+03 0.131460029902592D+03 0.551906402414179D+02
0.593435152465D-05 0.000000000000D+00 0.000000000000D+00 0.119925905746D-06 0.000000000000D+00  7 1 -1 23 -13 13 23 21 0 0.35668529D-01 0.56590167D-01 0.77862197D+05 0.77862197D+05 0.77862197D+05 0.11307506D+01  1  2  2  1  7  1        1 0.288233811852D-03 0.100000000000D+01
-.328856107353D-06 0.000000000000D+00 -.227894724053D-07 0.119925905746D-06 0.000000000000D+00  7 1 -1 23 -13 13 23 21 2 0.35668529D-01 0.56590167D-01 0.77862197D+05 0.77862197D+05 0.77862197D+05 0.11307506D+01  1  2  3  1  7  1        1 -.204226074670D-04 0.100000000000D+01
0.382585679814D-06 0.000000000000D+00 0.000000000000D+00 0.119925905746D-06 0.000000000000D+00  7 1 -1 23 -13 13 23 21 2 0.35668529D-01 0.56590167D-01 0.77862197D+05 0.77862197D+05 0.77862197D+05 0.11307506D+01  1  2 15  1  7  1        1 0.237593190050D-04 0.100000000000D+01
0.167230750763D-06 0.000000000000D+00 -.192948714949D-05 0.119925905746D-06 0.000000000000D+00  7 1 -1 23 -13 13 23 21 2 0.96854154D-01 0.56590167D-01 0.77862197D+05 0.77862197D+05 0.77862197D+05 0.11307506D+01  1  2  5  1  7  1        1 0.271597599080D-05 0.100000000000D+01
0.130303121281D-06 0.000000000000D+00 -.215220961896D-06 0.119925905746D-06 0.000000000000D+00  7 21 -1 23 -13 13 23 -1 2 0.96854154D-01 0.56590167D-01 0.77862197D+05 0.77862197D+05 0.77862197D+05 0.11307506D+01  1  2  5  3  7  1        1 0.507434355546D-05 0.100000000000D+01
  </mgrwgt>
  </event>
  <event>
  8     66 0.25924217E-05 0.12199881E+03 0.75467711E-02 0.10266390E+00
        1 -1    0    0  501    0 0.00000000E+00 0.00000000E+00 0.90135406E+03 0.90135412E+03 0.32000000E+00 0.0000E+00 0.9000E+01
       -1 -1    0    0    0  501 0.00000000E+00 0.00000000E+00 -.65389632E+02 0.65390415E+02 0.32000000E+00 0.0000E+00 0.9000E+01
       25  2    1    2    0    0 0.94574556E+02 0.62682162E+02 0.68936074E+03 0.76015002E+03 0.29956038E+03 0.0000E+00 0.0000E+00
       23  2    3    3    0    0 0.16413242E+03 0.84521397E+02 0.46568406E+03 0.50783720E+03 0.83388632E+02 0.0000E+00 0.0000E+00
       23  1    1    2    0    0 -.94574556E+02 -.62682162E+02 0.14660369E+03 0.20659451E+03 0.91188000E+02 0.0000E+00 0.9000E+01
      -13  1    4    4    0    0 0.12277035E+03 0.96868836E+02 0.39728718E+03 0.42695813E+03 0.10565837E+00 0.0000E+00 0.9000E+01
       13  1    4    4    0    0 0.41362074E+02 -.12347439E+02 0.68396879E+02 0.80879074E+02 0.10565837E+00 0.0000E+00 0.9000E+01
       23  1    3    3    0    0 -.69557863E+02 -.21839236E+02 0.22367668E+03 0.25231282E+03 0.91188000E+02 0.0000E+00 0.9000E+01
#aMCatNLO 1  0  0  2  1 0.55703979D+02 0.00000000D+00  -5  7  0 0.00000000D+00 0.00000000D+00 0.00000000D+00 0.00000000D+00 0.00000000D+00
  <mgrwgt>
 0.8193773075D-03    6    2    0
 0.242774826586055D+03 0.000000000000000D+00 0.000000000000000D+00 0.242774826586055D+03
 0.242774826586055D+03 0.000000000000000D+00 0.000000000000000D+00 -.242774826586055D+03
 0.158930498193040D+03 -.945745580990129D+02 -.626821627909368D+02 -.637985214571212D+02
 0.166083079819704D+03 0.122770478611321D+03 0.968690090402731D+02 0.559231085643583D+02
 0.432745614019784D+02 0.413619425787833D+02 -.123476109317066D+02 -.306820385930105D+01
 0.117261513757387D+03 -.695578630910914D+02 -.218392353176297D+02 0.109436167520640D+02
 0.000000000000000D+00 0.000000000000000D+00 0.000000000000000D+00 0.000000000000000D+00
 0.275434486952530D+03 0.000000000000000D+00 0.000000000000000D+00 0.275434486952530D+03
 0.269336736927740D+03 0.000000000000000D+00 0.000000000000000D+00 -.269336736927740D+03
 0.172386600855555D+03 -.112781053167367D+03 -.679122339264220D+02 -.637985214571212D+02
 0.150566951036143D+03 0.105369966407978D+03 0.918704677902582D+02 0.559231085643583D+02
 0.393887781696037D+02 0.368194372611724D+02 -.136525093130387D+02 -.306820385930105D+01
 0.126392157156429D+03 -.829470886113478D+02 -.256854781917847D+02 0.109436167520640D+02
 0.560367366625392D+02 0.535387381095640D+02 0.153797536409873D+02 0.609775002479009D+01
0.524999174967D-05 0.000000000000D+00 0.000000000000D+00 0.387713649251D-08 0.000000000000D+00  7 1 -1 23 -13 13 23 21 0 0.13866992D+00 0.10060008D-01 0.53329445D+05 0.53329445D+05 0.53329445D+05 0.11448409D+01  1  2  2  2  7  2       -1 0.655755479428D-03 0.100000000000D+01
-.290779208563D-06 0.000000000000D+00 -.201613506733D-07 0.387713649251D-08 0.000000000000D+00  7 1 -1 23 -13 13 23 21 2 0.13866992D+00 0.10060008D-01 0.53329445D+05 0.53329445D+05 0.53329445D+05 0.11448409D+01  1  2  3  2  7  2       -1 -.476032852027D-04 0.100000000000D+01
0.318881500819D-06 0.000000000000D+00 0.000000000000D+00 0.387713649251D-08 0.000000000000D+00  7 1 -1 23 -13 13 23 21 2 0.13866992D+00 0.10060008D-01 0.53329445D+05 0.53329445D+05 0.53329445D+05 0.11448409D+01  1  2 15  2  7  2       -1 0.522038941656D-04 0.100000000000D+01
0.372431874703D-05 0.000000000000D+00 0.000000000000D+00 0.387713649251D-08 0.000000000000D+00  7 1 -1 23 -13 13 23 21 2 0.13866992D+00 0.11761166D-01 0.67816846D+05 0.67816846D+05 0.67816846D+05 0.11358313D+01  1  2 12  2  7  2       -1 0.472187084574D-03 0.100000000000D+01
-.284393887462D-05 0.000000000000D+00 0.000000000000D+00 0.387713649251D-08 0.000000000000D+00  7 1 -1 23 -13 13 23 21 2 0.13866992D+00 0.10060008D-01 0.53329445D+05 0.53329445D+05 0.53329445D+05 0.11448409D+01  1  2  4  2  7  2       -1 -.465579482168D-03 0.100000000000D+01
0.877921759805D-07 0.000000000000D+00 0.000000000000D+00 0.387713649251D-08 0.000000000000D+00  7 1 21 23 -13 13 23 1 2 0.13866992D+00 0.11761166D-01 0.67816846D+05 0.67816846D+05 0.67816846D+05 0.11358313D+01  1  2 12  4  7  2       -1 0.152413616697D-03 0.100000000000D+01
  </mgrwgt>
  </event>
  <event>
  8     66 0.25924217E-05 0.19162950E+03 0.75467711E-02 0.91016193E-01
        1 -1    0    0  501    0 0.00000000E+00 0.00000000E+00 0.11038895E+04 0.11038895E+04 0.32000000E+00 0.0000E+00 0.9000E+01
       -1 -1    0    0    0  501 0.00000000E+00 0.00000000E+00 -.50121389E+02 0.50122410E+02 0.32000000E+00 0.0000E+00 0.9000E+01
       25  2    1    2    0    0 -.14416208E+02 -.10135508E+03 0.58339828E+03 0.66406940E+03 0.30025645E+03 0.0000E+00 0.0000E+00
       23  2    3    3    0    0 0.11330793E+01 0.22426977E+02 0.44738900E+03 0.45821131E+03 0.96417996E+02 0.0000E+00 0.0000E+00
       23  1    1    2    0    0 0.14416208E+02 0.10135508E+03 0.47036980E+03 0.48994253E+03 0.91188000E+02 0.0000E+00 0.9000E+01
      -13  1    4    4    0    0 -.33211592E+02 0.40858831E+02 0.33818581E+03 0.34226030E+03 0.10565837E+00 0.0000E+00 0.9000E+01
       13  1    4    4    0    0 0.34344672E+02 -.18431854E+02 0.10920319E+03 0.11595101E+03 0.10565837E+00 0.0000E+00 0.9000E+01
       23  1    3    3    0    0 -.15549287E+02 -.12378206E+03 0.13600928E+03 0.20585809E+03 0.91188000E+02 0.0000E+00 0.9000E+01
#aMCatNLO 1  0  0  1  1 0.64092694D+03 0.00000000D+00  -5  7  0 0.00000000D+00 0.00000000D+00 0.00000000D+00 0.00000000D+00 0.00000000D+00
  <mgrwgt>
 0.5383307455D-03    3    2    0
 0.235221362898917D+03 0.000000000000000D+00 0.000000000000000D+00 0.235221362898917D+03
 0.235221362898917D+03 0.000000000000000D+00 0.000000000000000D+00 -.235221362898917D+03
 0.148240873197358D+03 0.144162085227199D+02 0.101355087462028D+03 0.563863841694895D+02
 0.820568863489655D+02 -.332116332963359D+02 0.408588957686931D+02 0.629354482596240D+02
 0.398220037808083D+02 0.343447167685359D+02 -.184318843633187D+02 0.815463389889489D+01
 0.200322962470703D+03 -.155492919949199D+02 -.123782098867402D+03 -.127476466328008D+03
 0.000000000000000D+00 0.000000000000000D+00 0.000000000000000D+00 -.000000000000000D+00
 0.524494129958130D+03 0.000000000000000D+00 0.000000000000000D+00 0.524494129958130D+03
 0.120635627130835D+04 0.000000000000000D+00 0.000000000000000D+00 -.120635627130835D+04
 0.165262106844494D+03 -.123653401159309D+03 0.229504831475651D+02 0.563863841694895D+02
 0.150534500925755D+03 -.135647029770510D+03 -.173103620922431D+02 0.629354482596240D+02
 0.390110578826683D+02 -.374092132299715D+00 -.381474067031619D+02 0.815463389889489D+01
 0.440241833714531D+03 -.297659948083537D+03 -.283982264671163D+03 -.127476466328008D+03
 0.935800901899030D+03 0.557334471145656D+03 0.316489550319003D+03 -.681862141350219D+03
0.402300781779D-05 0.000000000000D+00 0.000000000000D+00 0.114855111975D-07 0.000000000000D+00  7 1 -1 23 -13 13 23 21 0 0.16982923D+00 0.77110650D-02 0.36721864D+05 0.36721864D+05 0.36721864D+05 0.11592760D+01  1  2  2  1  7  1        1 0.530865018292D-03 0.100000000000D+01
-.212084491154D-06 0.000000000000D+00 -.154494093026D-07 0.114855111975D-07 0.000000000000D+00  7 1 -1 23 -13 13 23 21 2 0.16982923D+00 0.77110650D-02 0.36721864D+05 0.36721864D+05 0.36721864D+05 0.11592760D+01  1  2  3  1  7  1        1 -.376110811463D-04 0.100000000000D+01
0.254182854185D-06 0.000000000000D+00 0.000000000000D+00 0.114855111975D-07 0.000000000000D+00  7 1 -1 23 -13 13 23 21 2 0.16982923D+00 0.77110650D-02 0.36721864D+05 0.36721864D+05 0.36721864D+05 0.11592760D+01  1  2 15  1  7  1        1 0.450768083170D-04 0.100000000000D+01
  </mgrwgt>
  </event>
  <event>
  8     66 0.25924217E-05 0.17663395E+03 0.75467711E-02 0.10125727E+00
        1 -1    0    0  501    0 0.00000000E+00 0.00000000E+00 0.22203873E+04 0.22203874E+04 0.32000000E+00 0.0000E+00 0.9000E+01
       -1 -1    0    0    0  501 0.00000000E+00 0.00000000E+00 -.70596865E+02 0.70597590E+02 0.32000000E+00 0.0000E+00 0.9000E+01
       25  2    1    2    0    0 0.18931578E+03 -.67744721E+02 0.44935139E+03 0.57627269E+03 0.29957258E+03 0.0000E+00 0.0000E+00
       23  2    3    3    0    0 0.67580433E+02 0.39954247E+02 0.43046545E+02 0.12926325E+03 0.93233714E+02 0.0000E+00 0.0000E+00
       23  1    1    2    0    0 -.18931578E+03 0.67744721E+02 0.17004391E+04 0.17147123E+04 0.91188000E+02 0.0000E+00 0.9000E+01
      -11  1    4    4    0    0 0.44709672E+02 0.69340115E+02 0.40580851E+02 0.91944612E+02 0.51099893E-03 0.0000E+00 0.9000E+01
       11  1    4    4    0    0 0.22870761E+02 -.29385867E+02 0.24656942E+01 0.37318636E+02 0.51099893E-03 0.0000E+00 0.9000E+01
       23  1    3    3    0    0 0.12173535E+03 -.10769897E+03 0.40630485E+03 0.44700945E+03 0.91188000E+02 0.0000E+00 0.9000E+01
#aMCatNLO 1  0  0  1  2 0.48439543D+02 0.00000000D+00  -5  7  0 0.00000000D+00 0.00000000D+00 0.00000000D+00 0.00000000D+00 0.00000000D+00
  <mgrwgt>
 0.3678346423D-03    9    2    0
 0.395920753086294D+03 0.000000000000000D+00 0.000000000000000D+00 0.395920753086294D+03
 0.395920753086294D+03 0.000000000000000D+00 0.000000000000000D+00 -.395920753086294D+03
 0.344503596320119D+03 -.189315784874776D+03 0.677447211383014D+02 0.264457298800084D+03
 0.155843555328010D+03 0.447096715625199D+02 0.693401145450187D+02 -.132212735849955D+03
 0.101277472965870D+03 0.228707612697999D+02 -.293858673191433D+02 -.941834678231482D+02
 0.190216881558588D+03 0.121735352042457D+03 -.107698968364177D+03 -.380610951269812D+02
 0.000000000000000D+00 -.000000000000000D+00 -.000000000000000D+00 0.000000000000000D+00
 0.521185687400213D+03 0.000000000000000D+00 0.000000000000000D+00 0.521185687400213D+03
 0.401371548749298D+03 0.000000000000000D+00 0.000000000000000D+00 -.401371548749298D+03
 0.344597823092236D+03 -.181342021241793D+03 0.872342637913103D+02 0.264457298800084D+03
 0.161096436081137D+03 0.483770629016519D+02 0.783039844587978D+02 -.132212735849955D+03
 0.100332808102076D+03 0.252036438933564D+02 -.236838152532665D+02 -.941834678231482D+02
 0.187294658300186D+03 0.126103631809061D+03 -.970219808398225D+02 -.380610951269812D+02
 0.129235510573877D+03 -.183423173622771D+02 -.448324521570191D+02 0.119814138650915D+03
0.203734373092D-04 0.000000000000D+00 0.000000000000D+00 0.231244966822D-06 0.000000000000D+00  7 1 -1 23 -11 11 23 21 0 0.34159811D+00 0.10861114D-01 0.69404486D+05 0.69404486D+05 0.69404486D+05 0.11349752D+01  1  2  2  1  7  1        1 0.289900098760D-03 0.100000000000D+01
-.903491586780D-06 0.000000000000D+00 -.782393637166D-07 0.231244966822D-06 0.000000000000D+00  7 1 -1 23 -11 11 23 21 2 0.34159811D+00 0.10861114D-01 0.69404486D+05 0.69404486D+05 0.69404486D+05 0.11349752D+01  1  2  3  1  7  1        1 -.165607843229D-04 0.100000000000D+01
0.122675117504D-05 0.000000000000D+00 0.000000000000D+00 0.231244966822D-06 0.000000000000D+00  7 1 -1 23 -11 11 23 21 2 0.34159811D+00 0.10861114D-01 0.69404486D+05 0.69404486D+05 0.69404486D+05 0.11349752D+01  1  2 15  1  7  1        1 0.224860551276D-04 0.100000000000D+01
0.852547568318D-04 0.000000000000D+00 0.000000000000D+00 0.231244966822D-06 0.000000000000D+00  7 1 -1 23 -11 11 23 21 2 0.45149631D+00 0.10861114D-01 0.83921458D+05 0.83921458D+05 0.83921458D+05 0.11280232D+01  1  2 12  1  7  1        1 0.492631673496D-03 0.100000000000D+01
-.845448475857D-04 0.000000000000D+00 0.000000000000D+00 0.231244966822D-06 0.000000000000D+00  7 1 -1 23 -11 11 23 21 2 0.34159811D+00 0.10861114D-01 0.69404486D+05 0.69404486D+05 0.69404486D+05 0.11349752D+01  1  2  4  1  7  1        1 -.154968680059D-02 0.100000000000D+01
-.926152490536D-04 0.000000000000D+00 -.792583091103D-05 0.231244966822D-06 0.000000000000D+00  7 1 -1 23 -11 11 23 21 2 0.45120015D+00 0.10861114D-01 0.69404486D+05 0.69404486D+05 0.69404486D+05 0.11349752D+01  1  2  5  1  7  1        1 -.548695465582D-03 0.100000000000D+01
0.915504410928D-04 0.000000000000D+00 0.762855158686D-05 0.231244966822D-06 0.000000000000D+00  7 1 -1 23 -11 11 23 21 2 0.34159811D+00 0.10861114D-01 0.69404486D+05 0.69404486D+05 0.69404486D+05 0.11349752D+01  1  2  6  1  7  1        1 0.167809765115D-02 0.100000000000D+01
0.312615620228D-05 0.000000000000D+00 0.000000000000D+00 0.231244966822D-06 0.000000000000D+00  7 21 -1 23 -11 11 23 -1 2 0.45149631D+00 0.10861114D-01 0.83921458D+05 0.83921458D+05 0.83921458D+05 0.11280232D+01  1  2 12  3  7  1        1 0.455686480045D-05 0.100000000000D+01
-.323232384001D-05 0.000000000000D+00 -.290130213328D-06 0.231244966822D-06 0.000000000000D+00  7 21 -1 23 -11 11 23 -1 2 0.45120015D+00 0.10861114D-01 0.69404486D+05 0.69404486D+05 0.69404486D+05 0.11349752D+01  1  2  5  3  7  1        1 -.489465049827D-05 0.100000000000D+01
  </mgrwgt>
  </event>
  <event>
  8     66 0.25924217E-05 0.19502731E+03 0.75467711E-02 0.87710673E-01
        1 -1    0    0  501    0 0.00000000E+00 0.00000000E+00 0.11655894E+04 0.11655894E+04 0.32000000E+00 0.0000E+00 0.9000E+01
       -1 -1    0    0    0  501 0.00000000E+00 0.00000000E+00 -.42416400E+02 0.42417607E+02 0.32000000E+00 0.0000E+00 0.9000E+01
       25  2    1    2    0    0 0.27530639E+02 0.62460010E+02 0.96458236E+03 0.10127497E+04 0.30097115E+03 0.0000E+00 0.0000E+00
       23  2    3    3    0    0 0.43628458E+01 0.14254780E+03 0.70562531E+03 0.72582671E+03 0.92619718E+02 0.0000E+00 0.0000E+00
       23  1    1    2    0    0 -.27530639E+02 -.62460010E+02 0.15859062E+03 0.19525733E+03 0.91188000E+02 0.0000E+00 0.9000E+01
      -11  1    4    4    0    0 -.23742395E+02 0.42603891E+02 0.40187240E+03 0.40482121E+03 0.51099893E-03 0.0000E+00 0.9000E+01
       11  1    4    4    0    0 0.28105241E+02 0.99943914E+02 0.30375292E+03 0.32100549E+03 0.51099893E-03 0.0000E+00 0.9000E+01
       23  1    3    3    0    0 0.23167793E+02 -.80087794E+02 0.25895705E+03 0.28692299E+03 0.91188000E+02 0.0000E+00 0.9000E+01
#aMCatNLO 1  0  0  2  2 0.92781866D+03 0.00000000D+00  -5  7  0 0.00000000D+00 0.00000000D+00 0.00000000D+00 0.00000000D+00 0.00000000D+00
  <mgrwgt>
 0.3349226153D-03    5    2    0
 0.222353008898709D+03 0.000000000000000D+00 0.000000000000000D+00 0.222353008898709D+03
 0.222353008898709D+03 0.000000000000000D+00 0.000000000000000D+00 -.222353008898709D+03
 0.129855514979266D+03 -.275306392128184D+02 -.624600105298934D+02 -.623539446680777D+02
 0.846731430263159D+02 -.237423950788695D+02 0.426038906949425D+02 0.692152318751242D+02
 0.104810410967370D+03 0.281052409364614D+02 0.999439134880438D+02 0.143712155278100D+02
 0.125366948824467D+03 0.231677933552265D+02 -.800877936530928D+02 -.212325027348565D+02
 0.000000000000000D+00 -.000000000000000D+00 -.000000000000000D+00 -.000000000000000D+00
 0.609596250070836D+03 0.000000000000000D+00 0.000000000000000D+00 0.609596250070836D+03
 0.277620959912497D+04 0.000000000000000D+00 0.000000000000000D+00 -.277620959912497D+04
 0.171678595459320D+03 0.115926091361400D+03 0.618984306819131D+02 -.623539446680777D+02
 0.216696191894116D+03 0.119635942516595D+03 0.166894375327781D+03 0.692152318751242D+02
 0.423384739264259D+03 0.279397372520428D+03 0.317781707835425D+03 0.143712155278100D+02
 0.217128660823568D+03 0.186112212229316D+03 0.611639542031146D+02 -.212325027348565D+02
 0.235691766175454D+04 -.701071618627739D+03 -.607738468048233D+03 -.216661334905413D+04
0.212913049341D-05 0.000000000000D+00 0.000000000000D+00 0.209303849636D-07 0.000000000000D+00  7 1 -1 23 -11 11 23 21 0 0.17932154D+00 0.65256962D-02 0.38035650D+05 0.38035650D+05 0.38035650D+05 0.11578920D+01  1  2  2  2  7  2       -1 0.326337462851D-03 0.100000000000D+01
-.115812202610D-06 0.000000000000D+00 -.817642170762D-08 0.209303849636D-07 0.000000000000D+00  7 1 -1 23 -11 11 23 21 2 0.17932154D+00 0.65256962D-02 0.38035650D+05 0.38035650D+05 0.38035650D+05 0.11578920D+01  1  2  3  2  7  2       -1 -.237988032072D-04 0.100000000000D+01
0.129618471577D-06 0.000000000000D+00 0.000000000000D+00 0.209303849636D-07 0.000000000000D+00  7 1 -1 23 -11 11 23 21 2 0.17932154D+00 0.65256962D-02 0.38035650D+05 0.38035650D+05 0.38035650D+05 0.11578920D+01  1  2 15  2  7  2       -1 0.266359194244D-04 0.100000000000D+01
0.110637567154D-04 0.000000000000D+00 -.490660857444D-05 0.209303849636D-07 0.000000000000D+00  7 1 -1 23 -11 11 23 21 2 0.17932154D+00 0.22212684D+00 0.38035650D+05 0.38035650D+05 0.38035650D+05 0.11578920D+01  1  2  5  2  7  2       -1 0.231143535541D-05 0.100000000000D+01
0.231200875513D-05 0.000000000000D+00 -.168261889289D-05 0.209303849636D-07 0.000000000000D+00  7 1 21 23 -11 11 23 1 2 0.17932154D+00 0.22212684D+00 0.38035650D+05 0.38035650D+05 0.38035650D+05 0.11578920D+01  1  2  5  4  7  2       -1 0.343660087439D-05 0.100000000000D+01
  </mgrwgt>
  </event>
  <event>
  8     66 0.25924217E-05 0.32361325E+03 0.75467711E-02 0.97803418E-01
        1 -1    0    0  501    0 0.00000000E+00 0.00000000E+00 0.60712952E+03 0.60712960E+03 0.32000000E+00 0.0000E+00 0.9000E+01
       -1 -1    0    0    0  501 0.00000000E+00 0.00000000E+00 -.28532177E+03 0.28532195E+03 0.32000000E+00 0.0000E+00 0.9000E+01
       25  2    1    2    0    0 0.33333571E+03 -.36721864E+02 0.50560766E+02 0.45159855E+03 0.29820071E+03 0.0000E+00 0.0000E+00
       23  2    3    3    0    0 0.10022977E+03 0.63909492E+02 -.60361997E+02 0.15990665E+03 0.88295738E+02 0.0000E+00 0.0000E+00
       23  1    1    2    0    0 -.33333571E+03 0.36721864E+02 0.27124699E+03 0.44085300E+03 0.91188000E+02 0.0000E+00 0.9000E+01
      -13  1    4    4    0    0 0.31269781E+02 -.18169761E+02 0.13857656E+01 0.36192139E+02 0.10565837E+00 0.0000E+00 0.9000E+01
       13  1    4    4    0    0 0.68959987E+02 0.82079253E+02 -.61747763E+02 0.12371451E+03 0.10565837E+00 0.0000E+00 0.9000E+01
       23  1    3    3    0    0 0.23310594E+03 -.10063136E+03 0.11092276E+03 0.29169189E+03 0.91188000E+02 0.0000E+00 0.9000E+01
#aMCatNLO 1  0  0  1  1 0.19497109D+01 0.00000000D+00  -5  7  0 0.00000000D+00 0.00000000D+00 0.00000000D+00 0.00000000D+00 0.00000000D+00
  <mgrwgt>
 0.7031546570D-03   10    2    0
 0.416205939505136D+03 0.000000000000000D+00 0.000000000000000D+00 0.416205939505136D+03
 0.416205939505136D+03 0.000000000000000D+00 0.000000000000000D+00 -.416205939505136D+03
 0.367787352629333D+03 -.333335709628770D+03 0.367218640863281D+02 0.120378963255226D+03
 0.382666803952984D+02 0.312697268874422D+02 -.181699044358385D+02 -.125059018728434D+02
 0.156509370068207D+03 0.689600405930571D+02 0.820793961165758D+02 -.114029243853010D+03
 0.269848475917434D+03 0.233105942148270D+03 -.100631355767065D+03 0.615618247062690D+01
 0.000000000000000D+00 -.000000000000000D+00 0.000000000000000D+00 0.000000000000000D+00
 0.418543016917258D+03 0.000000000000000D+00 0.000000000000000D+00 0.418543016917258D+03
 0.416613917338481D+03 0.000000000000000D+00 0.000000000000000D+00 -.416613917338481D+03
 0.367005860217343D+03 -.332475399503050D+03 0.367023707784162D+02 0.120378963255226D+03
 0.383409719259002D+02 0.313594206105840D+02 -.181719367580333D+02 -.125059018728434D+02
 0.156666924134870D+03 0.693267134641830D+02 0.820710878717160D+02 -.114029243853010D+03
 0.270400406077337D+03 0.233738476003324D+03 -.100645688014046D+03 0.615618247062690D+01
 0.274277190028901D+01 -.194921057504093D+01 0.441661219466491D-01 0.192909957877654D+01
0.139338875761D-04 0.000000000000D+00 0.000000000000D+00 0.182733582698D-07 0.000000000000D+00  7 1 -1 23 -13 13 23 21 0 0.93404562D-01 0.43895677D-01 0.14465696D+06 0.14465696D+06 0.14465696D+06 0.11087971D+01  1  2  2  1  7  1        1 0.290125809216D-03 0.100000000000D+01
-.766460818206D-06 0.000000000000D+00 -.535097971689D-07 0.182733582698D-07 0.000000000000D+00  7 1 -1 23 -13 13 23 21 2 0.93404562D-01 0.43895677D-01 0.14465696D+06 0.14465696D+06 0.14465696D+06 0.11087971D+01  1  2  3  1  7  1        1 -.196204146146D-04 0.100000000000D+01
0.909164270911D-06 0.000000000000D+00 0.000000000000D+00 0.182733582698D-07 0.000000000000D+00  7 1 -1 23 -13 13 23 21 2 0.93404562D-01 0.43895677D-01 0.14465696D+06 0.14465696D+06 0.14465696D+06 0.11087971D+01  1  2 15  1  7  1        1 0.232734401086D-04 0.100000000000D+01
-.103401235483D-02 0.000000000000D+00 0.000000000000D+00 0.182733582698D-07 0.000000000000D+00  7 1 -1 23 -13 13 23 21 2 0.93404562D-01 0.43895677D-01 0.14465696D+06 0.14465696D+06 0.14465696D+06 0.11087971D+01  1  2  4  1  7  1        1 -.264693910458D-01 0.100000000000D+01
-.356068349468D-02 0.000000000000D+00 -.281583983705D-03 0.182733582698D-07 0.000000000000D+00  7 1 -1 23 -13 13 23 21 2 0.93987054D-01 0.43895677D-01 0.14465696D+06 0.14465696D+06 0.14465696D+06 0.11087971D+01  1  2  5  1  7  1        1 -.903314211285D-01 0.100000000000D+01
0.356237066466D-02 0.000000000000D+00 0.281578542259D-03 0.182733582698D-07 0.000000000000D+00  7 1 -1 23 -13 13 23 21 2 0.93404562D-01 0.43895677D-01 0.14465696D+06 0.14465696D+06 0.14465696D+06 0.11087971D+01  1  2  6  1  7  1        1 0.911921233171D-01 0.100000000000D+01
0.103403842113D-02 0.000000000000D+00 0.000000000000D+00 0.182733582698D-07 0.315102255387D-07  7 1 -1 23 -13 13 23 21 2 0.93929046D-01 0.43938704D-01 0.14541220D+06 0.14541220D+06 0.14541220D+06 0.11086181D+01  1  2 11  1  7  1        1 0.261993542446D-01 0.100000000000D+01
0.121269931491D-08 0.000000000000D+00 0.000000000000D+00 0.182733582698D-07 0.000000000000D+00  7 21 -1 23 -13 13 23 -1 2 0.93974674D-01 0.43895677D-01 0.14541220D+06 0.14541220D+06 0.14541220D+06 0.11086181D+01  1  2 12  3  7  1        1 0.744223857297D-07 0.100000000000D+01
-.410806870906D-05 0.000000000000D+00 -.325192236433D-06 0.182733582698D-07 0.000000000000D+00  7 21 -1 23 -13 13 23 -1 2 0.93987054D-01 0.43895677D-01 0.14465696D+06 0.14465696D+06 0.14465696D+06 0.11087971D+01  1  2  5  3  7  1        1 -.252183885398D-03 0.100000000000D+01
0.115458032074D-05 0.000000000000D+00 0.000000000000D+00 0.182733582698D-07 0.327840543395D-10  7 21 -1 23 -13 13 23 -1 2 0.93929046D-01 0.43938704D-01 0.14541220D+06 0.14541220D+06 0.14541220D+06 0.11086181D+01  1  2 11  3  7  1        1 0.708198980010D-04 0.100000000000D+01
  </mgrwgt>
  </event>
  <event>
  9     66 -.25924217E-05 0.19634554E+03 0.75467711E-02 0.10548080E+00
        1 -1    0    0  501    0 0.00000000E+00 0.00000000E+00 0.88041718E+03 0.88041723E+03 0.32000000E+00 0.0000E+00 0.9000E+01
       -1 -1    0    0    0  502 0.00000000E+00 0.00000000E+00 -.29992629E+03 0.29992647E+03 0.32000000E+00 0.0000E+00 0.9000E+01
       25  2    1    2    0    0 -.74720766E+02 0.11272225E+02 0.80685785E+03 0.86404996E+03 0.29975403E+03 0.0000E+00 0.0000E+00
       23  2    3    3    0    0 0.42569971E+02 0.94361125E+02 0.41013726E+03 0.43235173E+03 0.89438357E+02 0.0000E+00 0.0000E+00
       23  1    1    2    0    0 0.71356639E+02 0.17862621E+02 -.25163644E+03 0.27757340E+03 0.91188000E+02 0.0000E+00 0.9000E+01
      -13  1    4    4    0    0 0.10674360E+02 0.59654734E+02 0.88390841E+02 0.10717080E+03 0.10565837E+00 0.0000E+00 0.9000E+01
       13  1    4    4    0    0 0.31895611E+02 0.34706391E+02 0.32174642E+03 0.32518093E+03 0.10565837E+00 0.0000E+00 0.9000E+01
       23  1    3    3    0    0 -.11729074E+03 -.83088900E+02 0.39672059E+03 0.43169822E+03 0.91188000E+02 0.0000E+00 0.9000E+01
       21  1    1    2  501  502 0.33641265E+01 -.29134846E+02 0.25269469E+02 0.38720346E+02 0.75000000E+00 0.0000E+00 0.9000E+01
#aMCatNLO 2  0  0  2  1 0.29328427D+02 0.00000000D+00  -5  7  0 0.00000000D+00 0.00000000D+00 0.00000000D+00 0.00000000D+00 0.00000000D+00
  <mgrwgt>
 -.1887449861D-03    3    2    0
 0.498541099122627D+03 0.000000000000000D+00 0.000000000000000D+00 0.498541099122627D+03
 0.498541099122627D+03 0.000000000000000D+00 0.000000000000000D+00 -.498541099122627D+03
 0.457653182193018D+03 0.729005545313129D+02 0.449162259633978D+01 -.442489003595428D+03
 0.717793533665589D+02 0.109192849840339D+02 0.575333504354304D+02 0.415085337350373D+02
 0.192250891018381D+03 0.325455376237820D+02 0.290779585996410D+02 0.187231582276650D+03
 0.275398771667296D+03 -.116365377139129D+03 -.911029316314112D+02 0.213748887583740D+03
 0.000000000000000D+00 0.000000000000000D+00 -.000000000000000D+00 0.000000000000000D+00
 0.517560674506064D+03 0.000000000000000D+00 0.000000000000000D+00 0.517560674506064D+03
 0.510192568731738D+03 0.000000000000000D+00 0.000000000000000D+00 -.510192568731738D+03
 0.457736401060539D+03 0.713566394139879D+02 0.178626207629779D+02 -.442489003595428D+03
 0.734546875018089D+02 0.106743302288685D+02 0.596547686050388D+02 0.415085337350373D+02
 0.193073893887483D+03 0.318956408242339D+02 0.347063567011621D+02 0.187231582276650D+03
 0.273248459395999D+03 -.117290736974563D+03 -.830888999503817D+02 0.213748887583740D+03
 0.302398013919723D+02 0.336412650747224D+01 -.291348461187972D+02 0.736810577432626D+01
-.279424020107D-04 0.000000000000D+00 0.000000000000D+00 0.691809299785D-06 0.000000000000D+00  7 1 -1 23 -13 13 23 21 2 0.13047009D+00 0.46976525D-01 0.45039347D+05 0.45039347D+05 0.45039347D+05 0.11513083D+01  1  2 13  2  7  2       -1 -.425396800929D-03 0.100000000000D+01
-.838501581379D-05 0.000000000000D+00 0.000000000000D+00 0.691809299785D-06 0.000000000000D+00  7 1 -1 23 -13 13 23 21 2 0.13047009D+00 0.45088341D-01 0.38551572D+05 0.38551572D+05 0.38551572D+05 0.11573630D+01  1  2  8  2  7  2       -1 -.139244742773D-03 0.100000000000D+01
0.254030273162D-04 0.000000000000D+00 0.000000000000D+00 0.691809299785D-06 0.568892385812D-08  7 1 -1 23 -13 13 23 21 2 0.13544759D+00 0.46142106D-01 0.45039347D+05 0.45039347D+05 0.45039347D+05 0.11513083D+01  1  2  1  2  7  2       -1 0.375896557613D-03 0.100000000000D+01
  </mgrwgt>
  </event>
  <event>
  8     66 0.25924217E-05 0.17687652E+03 0.75467711E-02 0.10744656E+00
        3 -1    0    0  501    0 0.00000000E+00 0.00000000E+00 0.12206230E+03 0.12206332E+03 0.50000000E+00 0.0000E+00 0.9000E+01
       -3 -1    0    0    0  501 0.00000000E+00 0.00000000E+00 -.62122884E+03 0.62122904E+03 0.50000000E+00 0.0000E+00 0.9000E+01
       25  2    1    2    0    0 -.79480784E+02 0.51343827E+02 -.11096744E+03 0.33345437E+03 0.29987441E+03 0.0000E+00 0.0000E+00
       23  2    3    3    0    0 -.83870188E+02 0.70731712E+02 -.17270629E+03 0.22155221E+03 0.84974906E+02 0.0000E+00 0.0000E+00
       23  1    1    2    0    0 0.79480784E+02 -.51343827E+02 -.38819910E+03 0.40983799E+03 0.91188000E+02 0.0000E+00 0.9000E+01
      -11  1    4    4    0    0 -.37941899E+02 0.73800552E+02 -.68394504E+02 0.10753566E+03 0.51099893E-03 0.0000E+00 0.9000E+01
       11  1    4    4    0    0 -.45928290E+02 -.30688394E+01 -.10431178E+03 0.11401655E+03 0.51099893E-03 0.0000E+00 0.9000E+01
       23  1    3    3    0    0 0.43894041E+01 -.19387886E+02 0.61738849E+02 0.11190216E+03 0.91188000E+02 0.0000E+00 0.9000E+01
#aMCatNLO 1  0  0  2  1 0.16734568D+02 0.00000000D+00  -5  7  0 0.00000000D+00 0.00000000D+00 0.00000000D+00 0.00000000D+00 0.00000000D+00
  <mgrwgt>
 0.9129295502D-04    4    2    0
 0.275370792117766D+03 0.000000000000000D+00 0.000000000000000D+00 0.275370792117766D+03
 0.275370792117766D+03 0.000000000000000D+00 0.000000000000000D+00 -.275370792117766D+03
 0.201280319795953D+03 0.794807841419298D+02 -.513438265591871D+02 -.152463543903470D+03
 0.831427738983193D+02 -.379418985062192D+02 0.738005515253192D+02 0.515866104813204D+01
 0.593357745241130D+02 -.459282896917644D+02 -.306883935220474D+01 -.374420695127301D+02
 0.206982716017147D+03 0.438940405605378D+01 -.193878856139274D+02 0.184746952368068D+03
 0.000000000000000D+00 -.000000000000000D+00 -.000000000000000D+00 0.000000000000000D+00
 0.318714655775675D+03 0.000000000000000D+00 0.000000000000000D+00 0.318714655775675D+03
 0.277117891290549D+03 0.000000000000000D+00 0.000000000000000D+00 -.277117891290549D+03
 0.201706630321368D+03 0.833760188037674D+02 -.466221046332067D+02 -.152463543903470D+03
 0.841773053368827D+02 -.363245980649304D+02 0.757610092685578D+02 0.515866104813204D+01
 0.584031472360219D+02 -.447902361420056D+02 -.168931465976925D+01 -.374420695127301D+02
 0.206708686946645D+03 0.838810697102321D+01 -.145407416371931D+02 0.184746952368068D+03
 0.448367772253065D+02 -.106492915678545D+02 -.129088483383888D+02 0.415967644851262D+02
0.109233420555D-04 0.000000000000D+00 0.000000000000D+00 0.160476333178D-07 0.000000000000D+00  7 3 -3 23 -11 11 23 21 0 0.18778909D-01 0.95573761D-01 0.31285302D+05 0.31285302D+05 0.31285302D+05 0.11656493D+01  1  2  2  2  7  2       -3 0.103418649671D-03 0.100000000000D+01
-.462269011860D-06 0.000000000000D+00 -.419485096752D-07 0.160476333178D-07 0.000000000000D+00  7 3 -3 23 -11 11 23 21 2 0.18778909D-01 0.95573761D-01 0.31285302D+05 0.31285302D+05 0.31285302D+05 0.11656493D+01  1  2  3  2  7  2       -3 -.594667105527D-05 0.100000000000D+01
0.654483148826D-06 0.000000000000D+00 0.000000000000D+00 0.160476333178D-07 0.000000000000D+00  7 3 -3 23 -11 11 23 21 2 0.18778909D-01 0.95573761D-01 0.31285302D+05 0.31285302D+05 0.31285302D+05 0.11656493D+01  1  2 15  2  7  2       -3 0.841933137942D-05 0.100000000000D+01
-.113481426278D-05 0.000000000000D+00 0.000000000000D+00 0.160476333178D-07 0.000000000000D+00  7 3 -3 23 -11 11 23 21 2 0.18778909D-01 0.95573761D-01 0.31285302D+05 0.31285302D+05 0.31285302D+05 0.11656493D+01  1  2  4  2  7  2       -3 -.145983549761D-04 0.100000000000D+01
  </mgrwgt>
  </event>
  <event>
  8     66 0.25924217E-05 0.22524579E+03 0.75467711E-02 0.97965367E-01
        1 -1    0    0  501    0 0.00000000E+00 0.00000000E+00 0.81598751E+03 0.81598758E+03 0.32000000E+00 0.0000E+00 0.9000E+01
       -1 -1    0    0    0  501 0.00000000E+00 0.00000000E+00 -.21410100E+03 0.21410124E+03 0.32000000E+00 0.0000E+00 0.9000E+01
       25  2    1    2    0    0 -.24562406E+03 0.10193405E+03 0.63077208E+03 0.74747360E+03 0.30020267E+03 0.0000E+00 0.0000E+00
       23  2    3    3    0    0 -.69382799E+02 0.82573563E+02 0.88592108E+02 0.16979707E+03 0.96695998E+02 0.0000E+00 0.0000E+00
       23  1    1    2    0    0 0.24562406E+03 -.10193405E+03 -.28885559E+02 0.28261521E+03 0.91188000E+02 0.0000E+00 0.9000E+01
      -11  1    4    4    0    0 -.85510094E+02 0.57181241E+02 0.35582987E+02 0.10884769E+03 0.51099893E-03 0.0000E+00 0.9000E+01
       11  1    4    4    0    0 0.16127295E+02 0.25392322E+02 0.53009121E+02 0.60949377E+02 0.51099893E-03 0.0000E+00 0.9000E+01
       23  1    3    3    0    0 -.17624126E+03 0.19360487E+02 0.54217997E+03 0.57767654E+03 0.91188000E+02 0.0000E+00 0.9000E+01
#aMCatNLO 1  0  0  1  2 0.12945973D+03 0.00000000D+00  -5  7  0 0.00000000D+00 0.00000000D+00 0.00000000D+00 0.00000000D+00 0.00000000D+00
  <mgrwgt>
 0.3839504949D-03    9    2    0
 0.417975951299795D+03 0.000000000000000D+00 0.000000000000000D+00 0.417975951299795D+03
 0.417975951299795D+03 0.000000000000000D+00 0.000000000000000D+00 -.417975951299795D+03
 0.369045867591576D+03 0.245624062016860D+03 -.101934049973556D+03 -.239077122821791D+03
 0.108506083573253D+03 -.855100941006233D+02 0.571812408548513D+02 -.345239000347273D+02
 0.369372880195467D+02 0.161272954028484D+02 0.253923217978227D+02 0.214360346833091D+02
 0.321462663415215D+03 -.176241263319085D+03 0.193604873208817D+02 0.252164988173209D+03
 0.000000000000000D+00 -.000000000000000D+00 -.000000000000000D+00 0.000000000000000D+00
 0.551987255074657D+03 0.000000000000000D+00 0.000000000000000D+00 0.551987255074657D+03
 0.455431473497159D+03 0.000000000000000D+00 0.000000000000000D+00 -.455431473497159D+03
 0.376815321941469D+03 0.271895719756691D+03 -.508859747582578D+02 -.239077122821791D+03
 0.111613568449463D+03 -.777567638014935D+02 0.722466239455786D+02 -.345239000347273D+02
 0.420169922380172D+02 0.189083220296930D+02 0.307960940998528D+02 0.214360346833091D+02
 0.315471019073553D+03 -.153806386770821D+03 0.629533689282479D+02 0.252164988173209D+03
 0.161501826869313D+03 -.592408912140697D+02 -.115110112215421D+03 0.965557815774982D+02
0.152516070033D-04 0.000000000000D+00 0.000000000000D+00 0.643480344998D-07 0.000000000000D+00  7 1 -1 23 -11 11 23 21 0 0.12553656D+00 0.32938638D-01 0.94083288D+05 0.94083288D+05 0.94083288D+05 0.11239022D+01  1  2  2  1  7  1        1 0.336387006686D-03 0.100000000000D+01
-.748655720009D-06 0.000000000000D+00 -.585701867329D-07 0.643480344998D-07 0.000000000000D+00  7 1 -1 23 -11 11 23 21 2 0.12553656D+00 0.32938638D-01 0.94083288D+05 0.94083288D+05 0.94083288D+05 0.11239022D+01  1  2  3  1  7  1        1 -.208575243428D-04 0.100000000000D+01
0.961536499656D-06 0.000000000000D+00 0.000000000000D+00 0.643480344998D-07 0.000000000000D+00  7 1 -1 23 -11 11 23 21 2 0.12553656D+00 0.32938638D-01 0.94083288D+05 0.94083288D+05 0.94083288D+05 0.11239022D+01  1  2 15  1  7  1        1 0.267883760346D-04 0.100000000000D+01
0.121995320701D-04 0.000000000000D+00 0.000000000000D+00 0.643480344998D-07 0.000000000000D+00  7 1 -1 23 -11 11 23 21 2 0.17003812D+00 0.32938638D-01 0.14158707D+06 0.14158707D+06 0.14158707D+06 0.11095355D+01  1  2 12  1  7  1        1 0.195621217931D-03 0.100000000000D+01
-.157495587951D-04 0.000000000000D+00 0.000000000000D+00 0.643480344998D-07 0.000000000000D+00  7 1 -1 23 -11 11 23 21 2 0.12553656D+00 0.32938638D-01 0.94083288D+05 0.94083288D+05 0.94083288D+05 0.11239022D+01  1  2  4  1  7  1        1 -.438782202789D-03 0.100000000000D+01
-.208301024823D-04 0.000000000000D+00 -.694933944264D-05 0.643480344998D-07 0.000000000000D+00  7 1 -1 23 -11 11 23 21 2 0.17423467D+00 0.32938638D-01 0.94083288D+05 0.94083288D+05 0.94083288D+05 0.11239022D+01  1  2  5  1  7  1        1 -.331659080796D-03 0.100000000000D+01
0.222588189623D-04 0.000000000000D+00 0.659198001583D-05 0.643480344998D-07 0.000000000000D+00  7 1 -1 23 -11 11 23 21 2 0.12553656D+00 0.32938638D-01 0.94083288D+05 0.94083288D+05 0.94083288D+05 0.11239022D+01  1  2  6  1  7  1        1 0.620129982233D-03 0.100000000000D+01
0.475459211322D-06 0.000000000000D+00 0.000000000000D+00 0.643480344998D-07 0.000000000000D+00  7 21 -1 23 -11 11 23 -1 2 0.17003812D+00 0.32938638D-01 0.14158707D+06 0.14158707D+06 0.14158707D+06 0.11095355D+01  1  2 12  3  7  1        1 0.918264361507D-05 0.100000000000D+01
-.679953872089D-06 0.000000000000D+00 -.286358469369D-06 0.643480344998D-07 0.000000000000D+00  7 21 -1 23 -11 11 23 -1 2 0.17423467D+00 0.32938638D-01 0.94083288D+05 0.94083288D+05 0.94083288D+05 0.11239022D+01  1  2  5  3  7  1        1 -.128599236298D-04 0.100000000000D+01
  </mgrwgt>
  </event>
  <event>
  8     66 0.25924217E-05 0.92106303E+02 0.75467711E-02 0.10152684E+00
        1 -1    0    0  501    0 0.00000000E+00 0.00000000E+00 0.17739775E+04 0.17739775E+04 0.32000000E+00 0.0000E+00 0.9000E+01
       -1 -1    0    0    0  501 0.00000000E+00 0.00000000E+00 -.73135599E+02 0.73136300E+02 0.32000000E+00 0.0000E+00 0.9000E+01
       25  2    1    2    0    0 0.88782247E+02 0.11331085E+03 0.16275612E+04 0.16616227E+04 0.30218046E+03 0.0000E+00 0.0000E+00
       23  2    3    3    0    0 0.10980138E+03 -.35000051E+02 0.96000373E+03 0.97141541E+03 0.93591626E+02 0.0000E+00 0.0000E+00
       23  1    1    2    0    0 -.88782247E+02 -.11331085E+03 0.73280727E+02 0.18549111E+03 0.91188000E+02 0.0000E+00 0.9000E+01
      -13  1    4    4    0    0 0.10566737E+03 -.16597184E+02 0.92890981E+03 0.93504786E+03 0.10565837E+00 0.0000E+00 0.9000E+01
       13  1    4    4    0    0 0.41340159E+01 -.18402867E+02 0.31093922E+02 0.36367551E+02 0.10565837E+00 0.0000E+00 0.9000E+01
       23  1    3    3    0    0 -.21019135E+02 0.14831091E+03 0.66755743E+03 0.69020729E+03 0.91188000E+02 0.0000E+00 0.9000E+01
#aMCatNLO 1  0  0  2  1 0.95508356D+02 0.00000000D+00  -5  7  0 0.00000000D+00 0.00000000D+00 0.00000000D+00 0.00000000D+00 0.00000000D+00
  <mgrwgt>
 0.4104281284D-03    9    2    0
 0.360196585701943D+03 0.000000000000000D+00 0.000000000000000D+00 0.360196585701943D+03
 0.360196585701943D+03 0.000000000000000D+00 0.000000000000000D+00 -.360196585701943D+03
 0.302590697897405D+03 -.887822485555670D+02 -.113310856155341D+03 -.250048477957374D+03
 0.204348519647311D+03 0.105667494886998D+03 -.165971792329164D+02 0.174118441435318D+03
 0.198349882536907D+02 0.413388618667567D+01 -.184028680074464D+02 -.613776776362280D+01
 0.193618965605480D+03 -.210191325181065D+02 0.148310903395704D+03 0.820678042856787D+02
 0.000000000000000D+00 0.000000000000000D+00 -.000000000000000D+00 -.000000000000000D+00
 0.398596812663043D+03 0.000000000000000D+00 0.000000000000000D+00 0.398596812663043D+03
 0.428045186973471D+03 0.000000000000000D+00 0.000000000000000D+00 -.428045186973471D+03
 0.311907809255680D+03 -.127435483567681D+03 -.101030620753065D+03 -.250048477957374D+03
 0.192118774400429D+03 0.807288769521193D+02 -.867411409356220D+01 0.174118441435318D+03
 0.187474631518085D+02 0.170696969434856D+01 -.176318301934548D+02 -.613776776362280D+01
 0.203922703869622D+03 -.460253309033876D+02 0.156255439023603D+03 0.820678042856787D+02
 0.999452489589743D+02 0.910249678246002D+02 -.289188739835209D+02 -.294483743104281D+02
0.128669639777D-04 0.000000000000D+00 0.000000000000D+00 0.159448404092D-07 0.000000000000D+00  7 1 -1 23 -13 13 23 21 0 0.27291967D+00 0.11251687D-01 0.55599860D+05 0.55599860D+05 0.55599860D+05 0.11432621D+01  1  2  2  2  7  2       -1 0.341379268126D-03 0.100000000000D+01
-.558816802365D-06 0.000000000000D+00 -.494125296239D-07 0.159448404092D-07 0.000000000000D+00  7 1 -1 23 -13 13 23 21 2 0.27291967D+00 0.11251687D-01 0.55599860D+05 0.55599860D+05 0.55599860D+05 0.11432621D+01  1  2  3  2  7  2       -1 -.193785870583D-04 0.100000000000D+01
0.766793495674D-06 0.000000000000D+00 0.000000000000D+00 0.159448404092D-07 0.000000000000D+00  7 1 -1 23 -13 13 23 21 2 0.27291967D+00 0.11251687D-01 0.55599860D+05 0.55599860D+05 0.55599860D+05 0.11432621D+01  1  2 15  2  7  2       -1 0.265907797489D-04 0.100000000000D+01
0.858672423148D-05 0.000000000000D+00 0.000000000000D+00 0.159448404092D-07 0.000000000000D+00  7 1 -1 23 -13 13 23 21 2 0.27291967D+00 0.13879922D-01 0.80526067D+05 0.80526067D+05 0.80526067D+05 0.11295238D+01  1  2 12  2  7  2       -1 0.207996061848D-03 0.100000000000D+01
-.100478611847D-04 0.000000000000D+00 0.000000000000D+00 0.159448404092D-07 0.000000000000D+00  7 1 -1 23 -13 13 23 21 2 0.27291967D+00 0.11251687D-01 0.55599860D+05 0.55599860D+05 0.55599860D+05 0.11432621D+01  1  2  4  2  7  2       -1 -.348438615111D-03 0.100000000000D+01
-.160499916674D-04 0.000000000000D+00 -.705159666368D-05 0.159448404092D-07 0.000000000000D+00  7 1 -1 23 -13 13 23 21 2 0.27291967D+00 0.14967140D-01 0.55599860D+05 0.55599860D+05 0.55599860D+05 0.11432621D+01  1  2  5  2  7  2       -1 -.358058833482D-03 0.100000000000D+01
0.176176467242D-04 0.000000000000D+00 0.677395816961D-05 0.159448404092D-07 0.000000000000D+00  7 1 -1 23 -13 13 23 21 2 0.27291967D+00 0.11251687D-01 0.55599860D+05 0.55599860D+05 0.55599860D+05 0.11432621D+01  1  2  6  2  7  2       -1 0.610942798003D-03 0.100000000000D+01
0.254981695589D-06 0.000000000000D+00 0.000000000000D+00 0.159448404092D-07 0.000000000000D+00  7 1 21 23 -13 13 23 1 2 0.27291967D+00 0.13879922D-01 0.80526067D+05 0.80526067D+05 0.80526067D+05 0.11295238D+01  1  2 12  4  7  2       -1 0.815236734049D-04 0.100000000000D+01
-.452127568251D-06 0.000000000000D+00 -.262871217503D-06 0.159448404092D-07 0.000000000000D+00  7 1 21 23 -13 13 23 1 2 0.27291967D+00 0.14967140D-01 0.55599860D+05 0.55599860D+05 0.55599860D+05 0.11432621D+01  1  2  5  4  7  2       -1 -.132128417072D-03 0.100000000000D+01
  </mgrwgt>
  </event>
  <event>
  8     66 0.25924217E-05 0.16735638E+03 0.75467711E-02 0.90047825E-01
        1 -1    0    0  501    0 0.00000000E+00 0.00000000E+00 0.76241564E+03 0.76241571E+03 0.32000000E+00 0.0000E+00 0.9000E+01
       -1 -1    0    0    0  501 0.00000000E+00 0.00000000E+00 -.84887897E+02 0.84888500E+02 0.32000000E+00 0.0000E+00 0.9000E+01
       25  2    1    2    0    0 0.85254697E+02 0.16018712E+02 0.24684048E+03 0.39860416E+03 0.30071596E+03 0.0000E+00 0.0000E+00
       23  2    3    3    0    0 0.10161403E+03 0.41703482E+01 -.10600553E+01 0.13369297E+03 0.86774904E+02 0.0000E+00 0.0000E+00
       23  1    1    2    0    0 -.85254697E+02 -.16018712E+02 0.43068726E+03 0.44870005E+03 0.91188000E+02 0.0000E+00 0.9000E+01
      -13  1    4    4    0    0 0.10094147E+02 0.20163971E+02 0.28366386E+02 0.36237282E+02 0.10565837E+00 0.0000E+00 0.9000E+01
       13  1    4    4    0    0 0.91519882E+02 -.15993623E+02 -.29426442E+02 0.97455689E+02 0.10565837E+00 0.0000E+00 0.9000E+01
       23  1    3    3    0    0 -.16359332E+02 0.11848364E+02 0.24790054E+03 0.26491119E+03 0.91188000E+02 0.0000E+00 0.9000E+01
#aMCatNLO 1  0  0  2  1 0.72761910D+03 0.00000000D+00  -5  7  0 0.00000000D+00 0.00000000D+00 0.00000000D+00 0.00000000D+00 0.00000000D+00
  <mgrwgt>
 0.6773728973D-03    5    2    0
 0.254401541878814D+03 0.000000000000000D+00 0.000000000000000D+00 0.254401541878814D+03
 0.254401541878814D+03 0.000000000000000D+00 0.000000000000000D+00 -.254401541878814D+03
 0.173707421507497D+03 -.852547010822482D+02 -.160187125159584D+02 0.119724908584182D+03
 0.225722929792691D+02 0.100940269726838D+02 0.201640239411464D+02 -.101546458213451D+01
 0.201476728385586D+03 0.915200025494138D+02 -.159936751121669D+02 -.178776854124691D+03
 0.111046640885277D+03 -.163593284398493D+02 0.118483636869788D+02 0.600674101226432D+02
 0.000000000000000D+00 -.000000000000000D+00 -.000000000000000D+00 -.000000000000000D+00
 0.656455437229649D+03 0.000000000000000D+00 0.000000000000000D+00 0.656455437229649D+03
 0.106673007452144D+04 0.000000000000000D+00 0.000000000000000D+00 -.106673007452144D+04
 0.238989997029612D+03 -.100018120413919D+02 0.185383055742999D+03 0.119724908584182D+03
 0.714531713654555D+02 0.272390041824511D+02 0.660496872135818D+02 -.101546458213451D+01
 0.375963582909440D+03 0.196812766016736D+03 0.265804791597564D+03 -.178776854124691D+03
 0.201461556280017D+03 0.406246594149796D+02 0.164356474175316D+03 0.600674101226432D+02
 0.835317204166564D+03 -.254674617572774D+03 -.681594008729461D+03 -.410274637291790D+03
0.543715708415D-05 0.000000000000D+00 0.000000000000D+00 0.126317365854D-07 0.000000000000D+00  7 1 -1 23 -13 13 23 21 0 0.11729477D+00 0.13059728D-01 0.28008156D+05 0.28008156D+05 0.28008156D+05 0.11701144D+01  1  2  2  2  7  2       -1 0.592645431424D-03 0.100000000000D+01
-.237651790961D-06 0.000000000000D+00 -.208801148395D-07 0.126317365854D-07 0.000000000000D+00  7 1 -1 23 -13 13 23 21 2 0.11729477D+00 0.13059728D-01 0.28008156D+05 0.28008156D+05 0.28008156D+05 0.11701144D+01  1  2  3  2  7  2       -1 -.354667001857D-04 0.100000000000D+01
0.335274814242D-06 0.000000000000D+00 0.000000000000D+00 0.126317365854D-07 0.000000000000D+00  7 1 -1 23 -13 13 23 21 2 0.11729477D+00 0.13059728D-01 0.28008156D+05 0.28008156D+05 0.28008156D+05 0.11701144D+01  1  2 15  2  7  2       -1 0.500357740561D-04 0.100000000000D+01
0.124742512354D-04 0.000000000000D+00 -.407503992818D-05 0.126317365854D-07 0.000000000000D+00  7 1 -1 23 -13 13 23 21 2 0.11729477D+00 0.13418923D+00 0.28008156D+05 0.28008156D+05 0.28008156D+05 0.11701144D+01  1  2  5  2  7  2       -1 0.277485769504D-04 0.100000000000D+01
0.277890480562D-05 0.000000000000D+00 -.112638024660D-05 0.126317365854D-07 0.000000000000D+00  7 1 21 23 -13 13 23 1 2 0.11729477D+00 0.13418923D+00 0.28008156D+05 0.28008156D+05 0.28008156D+05 0.11701144D+01  1  2  5  4  7  2       -1 0.424098150751D-04 0.100000000000D+01
  </mgrwgt>
  </event>
  <event>
  8     66 0.25924217E-05 0.90725945E+02 0.75467711E-02 0.10190473E+00
        1 -1    0    0  501    0 0.00000000E+00 0.00000000E+00 0.98514938E+03 0.98514943E+03 0.32000000E+00 0.0000E+00 0.9000E+01
       -1 -1    0    0    0  501 0.00000000E+00 0.00000000E+00 -.13150138E+03 0.13150177E+03 0.32000000E+00 0.0000E+00 0.9000E+01
       25  2    1    2    0    0 0.10030803E+03 -.14818284E+03 0.14165432E+03 0.37687414E+03 0.29991384E+03 0.0000E+00 0.0000E+00
       23  2    3    3    0    0 0.90710805E+02 0.23726391E+02 0.12583015E+03 0.18139895E+03 0.90999791E+02 0.0000E+00 0.0000E+00
       23  1    1    2    0    0 -.10030803E+03 0.14818284E+03 0.71199368E+03 0.73977707E+03 0.91188000E+02 0.0000E+00 0.9000E+01
      -11  1    4    4    0    0 0.30658500E+02 0.80394144E+01 -.90174802E+01 0.32952856E+02 0.51099893E-03 0.0000E+00 0.9000E+01
       11  1    4    4    0    0 0.60052305E+02 0.15686976E+02 0.13484763E+03 0.14844610E+03 0.51099893E-03 0.0000E+00 0.9000E+01
       23  1    3    3    0    0 0.95972226E+01 -.17190924E+03 0.15824170E+02 0.19547518E+03 0.91188000E+02 0.0000E+00 0.9000E+01
#aMCatNLO 1  0  0  1  2 0.58735741D+02 0.00000000D+00  -5  7  0 0.00000000D+00 0.00000000D+00 0.00000000D+00 0.00000000D+00 0.00000000D+00
  <mgrwgt>
 0.3427936167D-03    7    2    0
 0.359928813402847D+03 0.000000000000000D+00 0.000000000000000D+00 0.359928813402847D+03
 0.359928813402847D+03 0.000000000000000D+00 0.000000000000000D+00 -.359928813402847D+03
 0.303227975299146D+03 -.100308027382868D+03 0.148182844670671D+03 0.227182961174215D+03
 0.618102783962369D+02 0.306584995496168D+02 0.803941439622516D+01 -.530653817187083D+02
 0.703612795459306D+02 0.600523052283691D+02 0.156869761805259D+02 0.331413499183574D+02
 0.284458093564380D+03 0.959722260488217D+01 -.171909235247422D+03 -.207258929373864D+03
 0.000000000000000D+00 0.000000000000000D+00 0.000000000000000D+00 0.000000000000000D+00
 0.782438654484528D+03 0.000000000000000D+00 0.000000000000000D+00 0.782438654484528D+03
 0.363172041585840D+03 0.000000000000000D+00 0.000000000000000D+00 -.363172041585840D+03
 0.302282071629502D+03 -.118697350171839D+03 0.131749917263436D+03 0.227182961174215D+03
 0.597133103864016D+02 0.269678316376087D+02 0.474138767831828D+01 -.530653817187083D+02
 0.660885999710098D+02 0.559083262941123D+02 0.119838650988827D+02 0.331413499183574D+02
 0.294165898712513D+03 -.797557147408454D+01 -.187612502450668D+03 -.207258929373864D+03
 0.423360815370942D+03 0.437967637142021D+02 0.391373324100305D+02 0.419266612898687D+03
0.100097690839D-04 0.000000000000D+00 0.000000000000D+00 0.113248877279D-05 0.000000000000D+00  7 1 -1 23 -11 11 23 21 0 0.15156148D+00 0.20231016D-01 0.59885940D+05 0.59885940D+05 0.59885940D+05 0.11404665D+01  1  2  2  1  7  1        1 0.362948460401D-03 0.100000000000D+01
-.455457280364D-06 0.000000000000D+00 -.384401489148D-07 0.113248877279D-05 0.000000000000D+00  7 1 -1 23 -11 11 23 21 2 0.15156148D+00 0.20231016D-01 0.59885940D+05 0.59885940D+05 0.59885940D+05 0.11404665D+01  1  2  3  1  7  1        1 -.214799653326D-04 0.100000000000D+01
0.595453008554D-06 0.000000000000D+00 0.000000000000D+00 0.113248877279D-05 0.000000000000D+00  7 1 -1 23 -11 11 23 21 2 0.15156148D+00 0.20231016D-01 0.59885940D+05 0.59885940D+05 0.59885940D+05 0.11404665D+01  1  2 15  1  7  1        1 0.280823482956D-04 0.100000000000D+01
0.133606618845D-03 0.000000000000D+00 0.000000000000D+00 0.113248877279D-05 0.000000000000D+00  7 1 -1 23 -11 11 23 21 2 0.32931803D+00 0.20231016D-01 0.76024900D+05 0.76024900D+05 0.76024900D+05 0.11316239D+01  1  2 12  1  7  1        1 0.103466556197D-02 0.100000000000D+01
-.134450161070D-03 0.000000000000D+00 -.286015851910D-05 0.113248877279D-05 0.000000000000D+00  7 1 -1 23 -11 11 23 21 2 0.33012294D+00 0.20231016D-01 0.59885940D+05 0.59885940D+05 0.59885940D+05 0.11404665D+01  1  2  5  1  7  1        1 -.106051821281D-02 0.100000000000D+01
0.112290749611D-04 0.000000000000D+00 0.000000000000D+00 0.113248877279D-05 0.000000000000D+00  7 21 -1 23 -11 11 23 -1 2 0.32931803D+00 0.20231016D-01 0.76024900D+05 0.76024900D+05 0.76024900D+05 0.11316239D+01  1  2 12  3  7  1        1 0.420832219738D-04 0.100000000000D+01
-.111574938274D-04 0.000000000000D+00 -.241176025614D-06 0.113248877279D-05 0.000000000000D+00  7 21 -1 23 -11 11 23 -1 2 0.33012294D+00 0.20231016D-01 0.59885940D+05 0.59885940D+05 0.59885940D+05 0.11404665D+01  1  2  5  3  7  1        1 -.429877977679D-04 0.100000000000D+01
  </mgrwgt>
  </event>
  <event>
  8     66 0.25924217E-05 0.17403596E+03 0.75467711E-02 0.10257006E+00
        1 -1    0    0  501    0 0.00000000E+00 0.00000000E+00 0.70954222E+03 0.70954230E+03 0.32000000E+00 0.0000E+00 0.9000E+01
       -1 -1    0    0    0  501 0.00000000E+00 0.00000000E+00 -.59497298E+02 0.59498159E+02 0.32000000E+00 0.0000E+00 0.9000E+01
       25  2    1    2    0    0 -.11497957E+02 0.64452610E+01 0.38622788E+03 0.48959738E+03 0.30059920E+03 0.0000E+00 0.0000E+00
       23  2    3    3    0    0 0.61707364E+02 -.84403735E+02 0.11155186E+03 0.17754815E+03 0.90264824E+02 0.0000E+00 0.0000E+00
       23  1    1    2    0    0 0.11497957E+02 -.64452610E+01 0.26381705E+03 0.27944307E+03 0.91188000E+02 0.0000E+00 0.9000E+01
      -13  1    4    4    0    0 0.43663620E+02 -.37341977E+02 0.11338702E+03 0.12711240E+03 0.10565837E+00 0.0000E+00 0.9000E+01
       13  1    4    4    0    0 0.18043744E+02 -.47061758E+02 -.18351580E+01 0.50435749E+02 0.10565837E+00 0.0000E+00 0.9000E+01
       23  1    3    3    0    0 -.73205322E+02 0.90848996E+02 0.27467601E+03 0.31204923E+03 0.91188000E+02 0.0000E+00 0.9000E+01
#aMCatNLO 1  0  0  2  1 0.14233838D+03 0.00000000D+00  -5  7  0 0.00000000D+00 0.00000000D+00 0.00000000D+00 0.00000000D+00 0.00000000D+00
  <mgrwgt>
 0.6383074053D-03    3    2    0
 0.205465822078501D+03 0.000000000000000D+00 0.000000000000000D+00 0.205465822078501D+03
 0.205465822078501D+03 0.000000000000000D+00 0.000000000000000D+00 -.205465822078501D+03
 0.105638430239422D+03 0.114980400960360D+02 -.644530753548900D+01 0.516766841445161D+02
 0.585203123308693D+02 0.436635737509659D+02 -.373418705149370D+02 0.111222294996161D+02
 0.972913841523474D+02 0.180436559512662D+02 -.470617205696004D+02 -.832179930497055D+02
 0.149481517434364D+03 -.732052697982682D+02 0.908488986200264D+02 0.204190794055734D+02
 0.000000000000000D+00 0.000000000000000D+00 0.000000000000000D+00 0.000000000000000D+00
 0.363835624699352D+03 0.000000000000000D+00 0.000000000000000D+00 0.363835624699352D+03
 0.252041536507141D+03 0.000000000000000D+00 0.000000000000000D+00 -.252041536507141D+03
 0.110821525809641D+03 -.126861462552044D+02 -.336859206167251D+02 0.516766841445161D+02
 0.615630007699410D+02 0.302471558845311D+02 -.524538715030121D+02 0.111222294996161D+02
 0.111003437994903D+03 -.522827335498292D+01 -.732747844568168D+02 -.832179930497055D+02
 0.151497114343889D+03 -.106832382413115D+03 0.529719508295865D+02 0.204190794055734D+02
 0.180992082288121D+03 0.944996461387715D+02 0.106442625746967D+03 0.111794088192211D+03
0.303495747077D-05 0.000000000000D+00 0.000000000000D+00 0.392091418927D-07 0.000000000000D+00  7 1 -1 23 -13 13 23 21 0 0.10916041D+00 0.91535023D-02 0.30288516D+05 0.30288516D+05 0.30288516D+05 0.11669504D+01  1  2  2  2  7  2       -1 0.632362668096D-03 0.100000000000D+01
-.162958460050D-06 0.000000000000D+00 -.116550358104D-07 0.392091418927D-07 0.000000000000D+00  7 1 -1 23 -13 13 23 21 2 0.10916041D+00 0.91535023D-02 0.30288516D+05 0.30288516D+05 0.30288516D+05 0.11669504D+01  1  2  3  2  7  2       -1 -.462376074270D-04 0.100000000000D+01
0.183909916401D-06 0.000000000000D+00 0.000000000000D+00 0.392091418927D-07 0.000000000000D+00  7 1 -1 23 -13 13 23 21 2 0.10916041D+00 0.91535023D-02 0.30288516D+05 0.30288516D+05 0.30288516D+05 0.11669504D+01  1  2 15  2  7  2       -1 0.521823445917D-04 0.100000000000D+01
  </mgrwgt>
  </event>
  <event>
  8     66 0.25924217E-05 0.26539061E+03 0.75467711E-02 0.94261116E-01
        1 -1    0    0  501    0 0.00000000E+00 0.00000000E+00 0.24789672E+03 0.24789692E+03 0.32000000E+00 0.0000E+00 0.9000E+01
       -1 -1    0    0    0  501 0.00000000E+00 0.00000000E+00 -.78308299E+03 0.78308305E+03 0.32000000E+00 0.0000E+00 0.9000E+01
       25  2    1    2    0    0 -.34627759E+03 -.29650103E+00 -.48966568E+03 0.67001511E+03 0.29872983E+03 0.0000E+00 0.0000E+00
       23  2    3    3    0    0 -.19479562E+03 -.95976941E+02 -.16342206E+03 0.28680278E+03 0.91608738E+02 0.0000E+00 0.0000E+00
       23  1    1    2    0    0 0.34627759E+03 0.29650103E+00 -.45520591E+02 0.36096487E+03 0.91188000E+02 0.0000E+00 0.9000E+01
      -13  1    4    4    0    0 -.43528238E+02 0.52568125E+01 -.69001820E+02 0.81753311E+02 0.10565837E+00 0.0000E+00 0.9000E+01
       13  1    4    4    0    0 -.15126738E+03 -.10123375E+03 -.94420240E+02 0.20504947E+03 0.10565837E+00 0.0000E+00 0.9000E+01
       23  1    3    3    0    0 -.15148197E+03 0.95680440E+02 -.32624362E+03 0.38321233E+03 0.91188000E+02 0.0000E+00 0.9000E+01
#aMCatNLO 1  0  0  1  2 0.21610260D+03 0.00000000D+00  -5  7  0 0.00000000D+00 0.00000000D+00 0.00000000D+00 0.00000000D+00 0.00000000D+00
  <mgrwgt>
 0.4745797803D-03    9    2    0
 0.440594872073728D+03 0.000000000000000D+00 0.000000000000000D+00 0.440594872073728D+03
 0.440594872073728D+03 0.000000000000000D+00 0.000000000000000D+00 -.440594872073728D+03
 0.394677260035160D+03 0.346277592572152D+03 0.296501034157032D+00 0.165971772342265D+03
 0.537421698719204D+02 -.435280943303953D+02 0.525695408240018D+01 -.310787750769250D+02
 0.182559585884297D+03 -.151267523444159D+03 -.101233895481973D+03 0.140654596391927D+02
 0.250210728356079D+03 -.151481974797598D+03 0.956804403654158D+02 -.148958456904533D+03
 0.000000000000000D+00 -.000000000000000D+00 -.000000000000000D+00 0.000000000000000D+00
 0.586967358909127D+03 0.000000000000000D+00 0.000000000000000D+00 0.586967358909127D+03
 0.541224720346085D+03 0.000000000000000D+00 0.000000000000000D+00 -.541224720346085D+03
 0.454434294850690D+03 0.404271375910192D+03 0.849311627006912D+02 0.165971772342265D+03
 0.503641846574970D+02 -.364176960158842D+02 0.156336896741305D+02 -.310787750769250D+02
 0.146520278091216D+03 -.128791576411647D+03 -.684330664406337D+02 0.140654596391927D+02
 0.255982570581186D+03 -.116909291930643D+03 0.146134939950198D+03 -.148958456904533D+03
 0.220890751074623D+03 -.122152811552018D+03 -.178266725884386D+03 0.457426385630422D+02
0.444925363114D-04 0.000000000000D+00 0.000000000000D+00 0.248543562846D-06 0.000000000000D+00  7 1 -1 23 -13 13 23 21 0 0.38137977D-01 0.12047433D+00 0.15404985D+06 0.15404985D+06 0.15404985D+06 0.11066400D+01  1  2  2  1  7  1        1 0.407018042623D-03 0.100000000000D+01
-.243163893129D-05 0.000000000000D+00 -.170863054590D-06 0.248543562846D-06 0.000000000000D+00  7 1 -1 23 -13 13 23 21 2 0.38137977D-01 0.12047433D+00 0.15404985D+06 0.15404985D+06 0.15404985D+06 0.11066400D+01  1  2  3  1  7  1        1 -.272419584085D-04 0.100000000000D+01
0.287026284076D-05 0.000000000000D+00 0.000000000000D+00 0.248543562846D-06 0.000000000000D+00  7 1 -1 23 -13 13 23 21 2 0.38137977D-01 0.12047433D+00 0.15404985D+06 0.15404985D+06 0.15404985D+06 0.11066400D+01  1  2 15  1  7  1        1 0.321559175268D-04 0.100000000000D+01
0.111083960410D-04 0.000000000000D+00 0.000000000000D+00 0.248543562846D-06 0.000000000000D+00  7 1 -1 23 -13 13 23 21 2 0.53963117D-01 0.12047433D+00 0.26666788D+06 0.26666788D+06 0.26666788D+06 0.10883566D+01  1  2 12  1  7  1        1 0.745960719751D-04 0.100000000000D+01
-.200994011316D-04 0.000000000000D+00 0.000000000000D+00 0.248543562846D-06 0.000000000000D+00  7 1 -1 23 -13 13 23 21 2 0.38137977D-01 0.12047433D+00 0.15404985D+06 0.15404985D+06 0.15404985D+06 0.11066400D+01  1  2  4  1  7  1        1 -.225176132286D-03 0.100000000000D+01
-.286824210549D-04 0.000000000000D+00 -.174353815074D-04 0.248543562846D-06 0.000000000000D+00  7 1 -1 23 -13 13 23 21 2 0.61318898D-01 0.12047433D+00 0.15404985D+06 0.15404985D+06 0.15404985D+06 0.11066400D+01  1  2  5  1  7  1        1 -.171351686087D-03 0.100000000000D+01
0.347647145782D-04 0.000000000000D+00 0.156386669101D-04 0.248543562846D-06 0.000000000000D+00  7 1 -1 23 -13 13 23 21 2 0.38137977D-01 0.12047433D+00 0.15404985D+06 0.15404985D+06 0.15404985D+06 0.11066400D+01  1  2  6  1  7  1        1 0.389473493140D-03 0.100000000000D+01
0.476987025777D-06 0.000000000000D+00 0.000000000000D+00 0.248543562846D-06 0.000000000000D+00  7 21 -1 23 -13 13 23 -1 2 0.53963117D-01 0.12047433D+00 0.26666788D+06 0.26666788D+06 0.26666788D+06 0.10883566D+01  1  2 12  3  7  1        1 0.129867419818D-04 0.100000000000D+01
-.812384513865D-06 0.000000000000D+00 -.944157048989D-06 0.248543562846D-06 0.000000000000D+00  7 21 -1 23 -13 13 23 -1 2 0.61318898D-01 0.12047433D+00 0.15404985D+06 0.15404985D+06 0.15404985D+06 0.11066400D+01  1  2  5  3  7  1        1 -.178807101294D-04 0.100000000000D+01
  </mgrwgt>
  </event>
  <event>
  8     66 0.25924217E-05 0.18625925E+03 0.75467711E-02 0.87631448E-01
        1 -1    0    0  501    0 0.00000000E+00 0.00000000E+00 0.13864468E+04 0.13864468E+04 0.32000000E+00 0.0000E+00 0.9000E+01
       -1 -1    0    0    0  501 0.00000000E+00 0.00000000E+00 -.49763544E+02 0.49764573E+02 0.32000000E+00 0.0000E+00 0.9000E+01
       25  2    1    2    0    0 0.58015578E+02 -.11439941E+03 0.60084401E+03 0.68373039E+03 0.30003449E+03 0.0000E+00 0.0000E+00
       23  2    3    3    0    0 0.92912610E+01 -.47647851E+01 0.48325745E+03 0.49258736E+03 0.94844680E+02 0.0000E+00 0.0000E+00
       23  1    1    2    0    0 -.58015578E+02 0.11439941E+03 0.73583925E+03 0.75248102E+03 0.91188000E+02 0.0000E+00 0.9000E+01
      -13  1    4    4    0    0 0.33902029E+02 -.15882812E+02 0.78928000E+02 0.87357035E+02 0.10565837E+00 0.0000E+00 0.9000E+01
       13  1    4    4    0    0 -.24610768E+02 0.11118027E+02 0.40432945E+03 0.40523032E+03 0.10565837E+00 0.0000E+00 0.9000E+01
       23  1    3    3    0    0 0.48724317E+02 -.10963462E+03 0.11758656E+03 0.19114304E+03 0.91188000E+02 0.0000E+00 0.9000E+01
#aMCatNLO 1  0  0  2  1 0.93929241D+03 0.00000000D+00  -5  7  0 0.00000000D+00 0.00000000D+00 0.00000000D+00 0.00000000D+00 0.00000000D+00
  <mgrwgt>
 0.4211814075D-03    5    2    0
 0.262669511106611D+03 0.000000000000000D+00 0.000000000000000D+00 0.262669511106611D+03
 0.262669511106611D+03 0.000000000000000D+00 0.000000000000000D+00 -.262669511106611D+03
 0.184905019768413D+03 -.580155785439075D+02 0.114399408167602D+03 0.970648394047781D+02
 0.379971777435293D+02 0.339020904550759D+02 -.158828376330157D+02 -.649378533464618D+01
 0.790652015637232D+02 -.246108329707547D+02 0.111180607094301D+02 0.743101724184463D+02
 0.223371623137557D+03 0.487243210595863D+02 -.109634631244016D+03 -.164881226488578D+03
 0.000000000000000D+00 -.000000000000000D+00 -.000000000000000D+00 -.000000000000000D+00
 0.844319639156946D+03 0.000000000000000D+00 0.000000000000000D+00 0.844319639156946D+03
 0.125842696439514D+04 0.000000000000000D+00 0.000000000000000D+00 -.125842696439514D+04
 0.377976040441926D+03 0.236944490755223D+03 0.262652548162452D+03 0.970648394047781D+02
 0.119248388667411D+03 0.116301670835734D+03 0.255329260488877D+02 -.649378533464618D+01
 0.131585328913708D+03 0.857739347176508D+02 0.665997686446555D+02 0.743101724184463D+02
 0.447411095823109D+03 0.400226851976797D+03 0.670379402279054D+02 -.164881226488578D+03
 0.102652574970593D+04 -.839246948285405D+03 -.421823183083900D+03 -.414107325238196D+03
0.449922749244D-05 0.000000000000D+00 0.000000000000D+00 0.479559416622D-07 0.000000000000D+00  7 1 -1 23 -13 13 23 21 0 0.21329959D+00 0.76560118D-02 0.34692507D+05 0.34692507D+05 0.34692507D+05 0.11615250D+01  1  2  2  2  7  2       -1 0.385437776380D-03 0.100000000000D+01
-.214044191021D-06 0.000000000000D+00 -.172782182448D-07 0.479559416622D-07 0.000000000000D+00  7 1 -1 23 -13 13 23 21 2 0.21329959D+00 0.76560118D-02 0.34692507D+05 0.34692507D+05 0.34692507D+05 0.11615250D+01  1  2  3  2  7  2       -1 -.247386995472D-04 0.100000000000D+01
0.282657967895D-06 0.000000000000D+00 0.000000000000D+00 0.479559416622D-07 0.000000000000D+00  7 1 -1 23 -13 13 23 21 2 0.21329959D+00 0.76560118D-02 0.34692507D+05 0.34692507D+05 0.34692507D+05 0.11615250D+01  1  2 15  2  7  2       -1 0.326689106067D-04 0.100000000000D+01
0.285584243079D-04 0.000000000000D+00 -.706302611341D-05 0.479559416622D-07 0.000000000000D+00  7 1 -1 23 -13 13 23 21 2 0.21329959D+00 0.17490385D+00 0.34692507D+05 0.34692507D+05 0.34692507D+05 0.11615250D+01  1  2  5  2  7  2       -1 0.101487839927D-04 0.100000000000D+01
0.746317276509D-05 0.000000000000D+00 -.231623852389D-05 0.479559416622D-07 0.000000000000D+00  7 1 21 23 -13 13 23 1 2 0.21329959D+00 0.17490385D+00 0.34692507D+05 0.34692507D+05 0.34692507D+05 0.11615250D+01  1  2  5  4  7  2       -1 0.176646360402D-04 0.100000000000D+01
  </mgrwgt>
  </event>
  <event>
  9     66 -.25924217E-05 0.25148745E+03 0.75467711E-02 0.10296278E+00
        1 -1    0    0  502    0 0.00000000E+00 0.00000000E+00 0.20243581E+03 0.20243607E+03 0.32000000E+00 0.0000E+00 0.9000E+01
       -1 -1    0    0    0  501 0.00000000E+00 0.00000000E+00 -.40771569E+03 0.40771582E+03 0.32000000E+00 0.0000E+00 0.9000E+01
       25  2    1    2    0    0 -.11103191E+03 -.10800410E+03 -.25166536E+03 0.42092775E+03 0.29975282E+03 0.0000E+00 0.0000E+00
       23  2    3    3    0    0 -.17988093E+03 -.58917400E+02 -.12727404E+03 0.24503533E+03 0.89527778E+02 0.0000E+00 0.0000E+00
       23  1    1    2    0    0 0.10868170E+03 0.10186788E+03 0.50022728E+02 0.18167637E+03 0.91188000E+02 0.0000E+00 0.9000E+01
      -13  1    4    4    0    0 0.67587920E+01 -.77042487E+01 0.41867034E+01 0.11071421E+02 0.10565837E+00 0.0000E+00 0.9000E+01
       13  1    4    4    0    0 -.18663973E+03 -.51213151E+02 -.13146074E+03 0.23396391E+03 0.10565837E+00 0.0000E+00 0.9000E+01
       23  1    3    3    0    0 0.68849023E+02 -.49086698E+02 -.12439132E+03 0.17589242E+03 0.91188000E+02 0.0000E+00 0.9000E+01
       21  1    1    2  502  501 0.23502115E+01 0.61362169E+01 -.36372472E+01 0.75477625E+01 0.75000000E+00 0.0000E+00 0.9000E+01
#aMCatNLO 2  0  0  1  2 0.65708943D+01 0.00000000D+00  -5  7  0 0.00000000D+00 0.00000000D+00 0.00000000D+00 0.00000000D+00 0.00000000D+00
  <mgrwgt>
 -.1369214641D-03    3    2    0
 0.283914070575769D+03 0.000000000000000D+00 0.000000000000000D+00 0.283914070575769D+03
 0.283914070575769D+03 0.000000000000000D+00 0.000000000000000D+00 -.283914070575769D+03
 0.212117259810602D+03 0.109556375153763D+03 0.104151588539583D+03 0.117593910698674D+03
 0.131806842356964D+02 0.681372600611147D+01 -.756146231286695D+01 0.837423802658311D+01
 0.200283799085937D+03 -.185808342908218D+03 -.490418327523114D+02 -.564248041404855D+02
 0.142246398019302D+03 0.694382417483431D+02 -.475482934744045D+02 -.695433445847719D+02
 0.000000000000000D+00 0.000000000000000D+00 0.000000000000000D+00 -.000000000000000D+00
 0.286681271958081D+03 0.000000000000000D+00 0.000000000000000D+00 0.286681271958081D+03
 0.287860811303583D+03 0.000000000000000D+00 0.000000000000000D+00 -.287860811303583D+03
 0.210552502651133D+03 0.108681700209033D+03 0.101867881272370D+03 0.117593910698674D+03
 0.132350777646025D+02 0.675906109459034D+01 -.770418808368553D+01 0.837423802658311D+01
 0.201596228914784D+03 -.186639995471279D+03 -.512132119755323D+02 -.564248041404855D+02
 0.142482349667632D+03 0.688490226374331D+02 -.490866980825081D+02 -.695433445847719D+02
 0.667592426351255D+01 0.235021153022299D+01 0.613621686935649D+01 -.117953934550201D+01
-.333432520863D-05 0.000000000000D+00 0.000000000000D+00 0.193061490542D-06 0.000000000000D+00  7 1 -1 23 -13 13 23 21 2 0.31353579D-01 0.61860993D-01 0.64864641D+05 0.64864641D+05 0.64864641D+05 0.11374834D+01  1  2 13  1  7  1        1 -.210276746914D-03 0.100000000000D+01
-.233228071303D-04 0.000000000000D+00 0.000000000000D+00 0.193061490542D-06 0.000000000000D+00  7 1 -1 23 -13 13 23 21 2 0.30841127D-01 0.61860993D-01 0.63245936D+05 0.63245936D+05 0.63245936D+05 0.11384248D+01  1  2  8  1  7  1        1 -.150522725323D-02 0.100000000000D+01
0.254617269126D-04 0.000000000000D+00 0.000000000000D+00 0.193061490542D-06 0.308596483422D-07  7 1 -1 23 -13 13 23 21 2 0.31141723D-01 0.62720934D-01 0.64864641D+05 0.64864641D+05 0.64864641D+05 0.11374834D+01  1  2  1  1  7  1        1 0.157858253605D-02 0.100000000000D+01
  </mgrwgt>
  </event>
  <event>
  8     66 0.25924217E-05 0.39692159E+03 0.75467711E-02 0.84879628E-01
        1 -1    0    0  501    0 0.00000000E+00 0.00000000E+00 0.11897772E+04 0.11897772E+04 0.32000000E+00 0.0000E+00 0.9000E+01
       -1 -1    0    0    0  501 0.00000000E+00 0.00000000E+00 -.65953346E+03 0.65953354E+03 0.32000000E+00 0.0000E+00 0.9000E+01
       25  2    1    2    0    0 -.22052660E+03 -.25502406E+03 0.10953880E+04 0.11849520E+04 0.30094380E+03 0.0000E+00 0.0000E+00
       23  2    3    3    0    0 -.33178711E+01 -.17958674E+03 0.56939481E+03 0.60369949E+03 0.89332061E+02 0.0000E+00 0.0000E+00
       23  1    1    2    0    0 0.22052660E+03 0.25502406E+03 -.56514427E+03 0.66435875E+03 0.91188000E+02 0.0000E+00 0.9000E+01
      -11  1    4    4    0    0 -.19289989E+02 -.18020927E+03 0.54656269E+03 0.57582832E+03 0.51099893E-03 0.0000E+00 0.9000E+01
       11  1    4    4    0    0 0.15972118E+02 0.62252847E+00 0.22832117E+02 0.27871162E+02 0.51099893E-03 0.0000E+00 0.9000E+01
       23  1    3    3    0    0 -.21720873E+03 -.75437325E+02 0.52599315E+03 0.58125250E+03 0.91188000E+02 0.0000E+00 0.9000E+01
#aMCatNLO 1  0  0  1  2 0.12385575D+04 0.00000000D+00  -5  7  0 0.00000000D+00 0.00000000D+00 0.00000000D+00 0.00000000D+00 0.00000000D+00
  <mgrwgt>
 0.8527117505D-03    3    2    0
 0.885831788866372D+03 0.000000000000000D+00 0.000000000000000D+00 0.885831788866372D+03
 0.885831788866372D+03 0.000000000000000D+00 0.000000000000000D+00 -.885831788866372D+03
 0.862618600247248D+03 0.220526601009185D+03 0.255024062006630D+03 -.788749861612347D+03
 0.437483782361919D+03 -.192899891931657D+02 -.180209265566300D+03 0.398176564793400D+03
 0.222592219536783D+02 0.159721181303144D+02 0.622528471402486D+00 0.154911866142231D+02
 0.449301973169900D+03 -.217208729946334D+03 -.754373249117327D+02 0.375082110204723D+03
 0.000000000000000D+00 -.000000000000000D+00 -.000000000000000D+00 -.000000000000000D+00
 0.124063415854433D+04 0.000000000000000D+00 0.000000000000000D+00 0.124063415854433D+04
 0.348075975349755D+04 0.000000000000000D+00 0.000000000000000D+00 -.348075975349755D+04
 0.128421728605396D+04 0.748931548760569D+03 0.676663858598492D+03 -.788749861612347D+03
 0.444670891304824D+03 0.197836479216406D+03 -.695358284700120D+01 0.398176564793400D+03
 0.361586200894056D+02 0.303506167242183D+02 0.120958260781510D+02 0.154911866142231D+02
 0.396623040362342D+03 -.899953918829414D+01 0.907028318248033D+02 0.375082110204723D+03
 0.255972407423135D+04 -.968119105512899D+03 -.772508933654445D+03 -.224012559495322D+04
0.601582135783D-03 0.000000000000D+00 0.000000000000D+00 0.774409328835D-06 0.000000000000D+00  7 1 -1 23 -11 11 23 21 0 0.18304265D+00 0.10146670D+00 0.15754675D+06 0.15754675D+06 0.15754675D+06 0.11058735D+01  1  2  2  1  7  1        1 0.807137716761D-03 0.100000000000D+01
-.723300691312D-05 0.000000000000D+00 -.231023380162D-05 0.774409328835D-06 0.000000000000D+00  7 1 -1 23 -11 11 23 21 2 0.18304265D+00 0.10146670D+00 0.15754675D+06 0.15754675D+06 0.15754675D+06 0.11058735D+01  1  2  3  1  7  1        1 -.118681356731D-04 0.100000000000D+01
0.350079928459D-04 0.000000000000D+00 0.000000000000D+00 0.774409328835D-06 0.000000000000D+00  7 1 -1 23 -11 11 23 21 2 0.18304265D+00 0.10146670D+00 0.15754675D+06 0.15754675D+06 0.15754675D+06 0.11058735D+01  1  2 15  1  7  1        1 0.574421694505D-04 0.100000000000D+01
  </mgrwgt>
  </event>
  <event>
  8     66 0.25924217E-05 0.14028108E+03 0.75467711E-02 0.10491917E+00
        1 -1    0    0  501    0 0.00000000E+00 0.00000000E+00 0.47981751E+03 0.47981762E+03 0.32000000E+00 0.0000E+00 0.9000E+01
       -1 -1    0    0    0  501 0.00000000E+00 0.00000000E+00 -.10681467E+03 0.10681515E+03 0.32000000E+00 0.0000E+00 0.9000E+01
       25  2    1    2    0    0 0.85454357E+02 -.13503603E+02 0.32996966E+03 0.45377231E+03 0.29923994E+03 0.0000E+00 0.0000E+00
       23  2    3    3    0    0 0.15393692E+03 0.36120009E+02 0.16381222E+03 0.24622494E+03 0.93760592E+02 0.0000E+00 0.0000E+00
       23  1    1    2    0    0 -.85454357E+02 0.13503603E+02 0.43033177E+02 0.13286045E+03 0.91188000E+02 0.0000E+00 0.9000E+01
      -13  1    4    4    0    0 0.52976675E+02 -.16538688E+02 0.10332969E+03 0.11729063E+03 0.10565837E+00 0.0000E+00 0.9000E+01
       13  1    4    4    0    0 0.10096024E+03 0.52658696E+02 0.60482532E+02 0.12893431E+03 0.10565837E+00 0.0000E+00 0.9000E+01
       23  1    3    3    0    0 -.68482561E+02 -.49623612E+02 0.16615745E+03 0.20754737E+03 0.91188000E+02 0.0000E+00 0.9000E+01
#aMCatNLO 1  0  0  1  2 0.21628960D+02 0.00000000D+00  -5  7  0 0.00000000D+00 0.00000000D+00 0.00000000D+00 0.00000000D+00 0.00000000D+00
  <mgrwgt>
 0.2455110508D-03    9    2    0
 0.226388429722742D+03 0.000000000000000D+00 0.000000000000000D+00 0.226388429722742D+03
 0.226388429722742D+03 0.000000000000000D+00 0.000000000000000D+00 -.226388429722742D+03
 0.136687199690900D+03 -.854543640116305D+02 0.135036041134718D+02 -.536967742295040D+02
 0.668413735991413D+02 0.529766179297075D+02 -.165387635943242D+02 0.372520667362340D+02
 0.117225433889980D+03 0.100960309127267D+03 0.526587750492196D+02 -.278544743611576D+02
 0.132022852265463D+03 -.684825630453441D+02 -.496236155683672D+02 0.442991818544275D+02
 0.000000000000000D+00 -.000000000000000D+00 0.000000000000000D+00 0.000000000000000D+00
 0.250763453296881D+03 0.000000000000000D+00 0.000000000000000D+00 0.250763453296881D+03
 0.231496010430776D+03 0.000000000000000D+00 0.000000000000000D+00 -.231496010430776D+03
 0.132783030056075D+03 -.793999936710678D+02 0.113304531794895D+02 -.536967742295040D+02
 0.695663811819346D+02 0.560413834347681D+02 -.176388281171595D+02 0.372520667362340D+02
 0.121048561134954D+03 0.106313772512669D+03 0.507372071071195D+02 -.278544743611576D+02
 0.129895195862825D+03 -.625978726892518D+02 -.517358617020172D+02 0.442991818544275D+02
 0.289662954918680D+02 -.203572895871177D+02 0.730702953256768D+01 0.192674428661052D+02
0.103693329515D-05 0.000000000000D+00 0.000000000000D+00 0.121248339967D-07 0.000000000000D+00  7 1 -1 23 -13 13 23 21 0 0.73818124D-01 0.16433071D-01 0.43981088D+05 0.43981088D+05 0.43981088D+05 0.11522276D+01  1  2  2  1  7  1        1 0.153267981671D-03 0.100000000000D+01
-.571975572136D-07 0.000000000000D+00 -.398209688419D-08 0.121248339967D-07 0.000000000000D+00  7 1 -1 23 -13 13 23 21 2 0.73818124D-01 0.16433071D-01 0.43981088D+05 0.43981088D+05 0.43981088D+05 0.11522276D+01  1  2  3  1  7  1        1 -.112241798326D-04 0.100000000000D+01
0.667944279296D-07 0.000000000000D+00 0.000000000000D+00 0.121248339967D-07 0.000000000000D+00  7 1 -1 23 -13 13 23 21 2 0.73818124D-01 0.16433071D-01 0.43981088D+05 0.43981088D+05 0.43981088D+05 0.11522276D+01  1  2 15  1  7  1        1 0.131074246423D-04 0.100000000000D+01
0.364925781713D-05 0.000000000000D+00 0.000000000000D+00 0.121248339967D-07 0.000000000000D+00  7 1 -1 23 -13 13 23 21 2 0.82539471D-01 0.16433071D-01 0.48781367D+05 0.48781367D+05 0.48781367D+05 0.11482392D+01  1  2 12  1  7  1        1 0.610631021384D-03 0.100000000000D+01
-.369356566507D-05 0.000000000000D+00 0.000000000000D+00 0.121248339967D-07 0.000000000000D+00  7 1 -1 23 -13 13 23 21 2 0.73818124D-01 0.16433071D-01 0.43981088D+05 0.43981088D+05 0.43981088D+05 0.11522276D+01  1  2  4  1  7  1        1 -.724807968523D-03 0.100000000000D+01
-.748728364474D-05 0.000000000000D+00 -.120350535172D-05 0.121248339967D-07 0.000000000000D+00  7 1 -1 23 -13 13 23 21 2 0.83035285D-01 0.16433071D-01 0.43981088D+05 0.43981088D+05 0.43981088D+05 0.11522276D+01  1  2  5  1  7  1        1 -.125066965752D-02 0.100000000000D+01
0.758461070181D-05 0.000000000000D+00 0.119522235620D-05 0.121248339967D-07 0.000000000000D+00  7 1 -1 23 -13 13 23 21 2 0.73818124D-01 0.16433071D-01 0.43981088D+05 0.43981088D+05 0.43981088D+05 0.11522276D+01  1  2  6  1  7  1        1 0.148836836090D-02 0.100000000000D+01
0.651548680182D-07 0.000000000000D+00 0.000000000000D+00 0.121248339967D-07 0.000000000000D+00  7 21 -1 23 -13 13 23 -1 2 0.82539471D-01 0.16433071D-01 0.48781367D+05 0.48781367D+05 0.48781367D+05 0.11482392D+01  1  2 12  3  7  1        1 0.314540505797D-04 0.100000000000D+01
-.134358746803D-06 0.000000000000D+00 -.224596805728D-07 0.121248339967D-07 0.000000000000D+00  7 21 -1 23 -13 13 23 -1 2 0.83035285D-01 0.16433071D-01 0.43981088D+05 0.43981088D+05 0.43981088D+05 0.11522276D+01  1  2  5  3  7  1        1 -.646159824701D-04 0.100000000000D+01
  </mgrwgt>
  </event>
  <event>
  9     66 -.25924217E-05 0.15049303E+03 0.75467711E-02 0.11038420E+00
        3 -1    0    0  501    0 0.00000000E+00 0.00000000E+00 0.11352600E+03 0.11352710E+03 0.50000000E+00 0.0000E+00 0.9000E+01
       -3 -1    0    0    0  502 0.00000000E+00 0.00000000E+00 -.44546970E+03 0.44546998E+03 0.50000000E+00 0.0000E+00 0.9000E+01
       25  2    1    2    0    0 0.15199009E+02 0.59991495E+02 -.14957914E+03 0.34130124E+03 0.30047067E+03 0.0000E+00 0.0000E+00
       23  2    3    3    0    0 0.43597995E+02 -.27942856E+02 -.18005653E+03 0.20794804E+03 0.90224420E+02 0.0000E+00 0.0000E+00
       23  1    1    2    0    0 -.14874452E+02 -.63812662E+02 -.16295062E+03 0.19789255E+03 0.91188000E+02 0.0000E+00 0.9000E+01
      -13  1    4    4    0    0 -.27509655E+01 -.80650688E+01 0.89326481E+01 0.12345708E+02 0.10565837E+00 0.0000E+00 0.9000E+01
       13  1    4    4    0    0 0.46348960E+02 -.19877787E+02 -.18898918E+03 0.19560233E+03 0.10565837E+00 0.0000E+00 0.9000E+01
       23  1    3    3    0    0 -.28398986E+02 0.87934351E+02 0.30477386E+02 0.13335320E+03 0.91188000E+02 0.0000E+00 0.9000E+01
       21  1    1    2  501  502 -.32455668E+00 0.38211676E+01 -.19413948E+02 0.19803296E+02 0.75000000E+00 0.0000E+00 0.9000E+01
#aMCatNLO 2  0  0  2  1 0.38349262D+01 0.00000000D+00  -5  7  0 0.00000000D+00 0.00000000D+00 0.00000000D+00 0.00000000D+00 0.00000000D+00
  <mgrwgt>
 -.1104131903D-04    5    2    0
 0.219681803424138D+03 0.000000000000000D+00 0.000000000000000D+00 0.219681803424138D+03
 0.219681803424138D+03 0.000000000000000D+00 0.000000000000000D+00 -.219681803424138D+03
 0.126402168050489D+03 -.149680279122248D+02 -.627110365244621D+02 -.592076074699060D+02
 0.214366236079821D+02 -.276689154745935D+01 -.787832350482894D+01 0.197434840296274D+02
 0.105406685143232D+03 0.462710858861459D+02 -.189601967652053D+02 -.927904457496892D+02
 0.186118130046574D+03 -.285361664264618D+02 0.895495567944964D+02 0.132254569189968D+03
 0.000000000000000D+00 -.000000000000000D+00 0.000000000000000D+00 -.000000000000000D+00
 0.220054141838073D+03 0.000000000000000D+00 0.000000000000000D+00 0.220054141838073D+03
 0.229791719617042D+03 0.000000000000000D+00 0.000000000000000D+00 -.229791719617042D+03
 0.126941327118579D+03 -.148744576242460D+02 -.638126861580063D+02 -.592076074699060D+02
 0.215039144442830D+02 -.275103182108733D+01 -.806504796751112D+01 0.197434840296274D+02
 0.105609778353990D+03 0.463490230411714D+02 -.198777897333152D+02 -.927904457496892D+02
 0.185325322931387D+03 -.283989769129130D+02 0.879343562795493D+02 0.132254569189968D+03
 0.104655186068759D+02 -.324556682925072D+00 0.382116757928327D+01 -.973757777896888D+01
-.274656550068D-05 0.000000000000D+00 0.000000000000D+00 0.178602527738D-06 0.000000000000D+00  7 3 -3 23 -13 13 23 21 2 0.17435030D-01 0.68583847D-01 0.23240937D+05 0.23240937D+05 0.23240937D+05 0.11777643D+01  1  2 13  2  7  2       -3 -.884793880642D-04 0.100000000000D+01
-.394847969967D-05 0.000000000000D+00 0.000000000000D+00 0.178602527738D-06 0.000000000000D+00  7 3 -3 23 -13 13 23 21 2 0.17435030D-01 0.65514700D-01 0.22648151D+05 0.22648151D+05 0.22648151D+05 0.11788359D+01  1  2  8  2  7  2       -3 -.140807190575D-03 0.100000000000D+01
-.481681766553D-06 0.000000000000D+00 0.000000000000D+00 0.178602527738D-06 0.000000000000D+00  7 3 -3 23 -13 13 23 21 2 0.17435030D-01 0.68590340D-01 0.22648151D+05 0.22648151D+05 0.22648151D+05 0.11788359D+01  1  2  9  2  7  2       -3 -.155297453985D-04 0.100000000000D+01
0.481175309487D-06 0.000000000000D+00 0.000000000000D+00 0.178602527738D-06 0.000000000000D+00  7 3 -3 23 -13 13 23 21 2 0.17435030D-01 0.65514700D-01 0.22648151D+05 0.22648151D+05 0.22648151D+05 0.11788359D+01  1  2 10  2  7  2       -3 0.171592482820D-04 0.100000000000D+01
0.673179929723D-05 0.000000000000D+00 0.000000000000D+00 0.178602527738D-06 0.899231533648D-07  7 3 -3 23 -13 13 23 21 2 0.17464581D-01 0.68529734D-01 0.23240937D+05 0.23240937D+05 0.23240937D+05 0.11777643D+01  1  2  1  2  7  2       -3 0.216615756730D-03 0.100000000000D+01
  </mgrwgt>
  </event>
  <event>
  8     66 0.25924217E-05 0.29613486E+03 0.75467711E-02 0.93007717E-01
        1 -1    0    0  501    0 0.00000000E+00 0.00000000E+00 0.12631579E+04 0.12631580E+04 0.32000000E+00 0.0000E+00 0.9000E+01
       -1 -1    0    0    0  501 0.00000000E+00 0.00000000E+00 -.99812287E+02 0.99812800E+02 0.32000000E+00 0.0000E+00 0.9000E+01
       25  2    1    2    0    0 0.21185580E+02 -.25582339E+03 0.44011936E+03 0.59014094E+03 0.29776979E+03 0.0000E+00 0.0000E+00
       23  2    3    3    0    0 -.40726054E+01 -.21428357E+03 0.13741513E+03 0.27028373E+03 0.90754310E+02 0.0000E+00 0.0000E+00
       23  1    1    2    0    0 -.21185580E+02 0.25582339E+03 0.72322628E+03 0.77282983E+03 0.91188000E+02 0.0000E+00 0.9000E+01
      -11  1    4    4    0    0 0.13468988E+02 -.90649552E+02 0.10865353E+03 0.14214199E+03 0.51099893E-03 0.0000E+00 0.9000E+01
       11  1    4    4    0    0 -.17541594E+02 -.12363402E+03 0.28761600E+02 0.12814175E+03 0.51099893E-03 0.0000E+00 0.9000E+01
       23  1    3    3    0    0 0.25258185E+02 -.41539820E+02 0.30270423E+03 0.31985721E+03 0.91188000E+02 0.0000E+00 0.9000E+01
#aMCatNLO 1  0  0  2  2 0.42487700D+03 0.00000000D+00  -5  7  0 0.00000000D+00 0.00000000D+00 0.00000000D+00 0.00000000D+00 0.00000000D+00
  <mgrwgt>
 0.6456791643D-03    3    2    0
 0.355076130900911D+03 0.000000000000000D+00 0.000000000000000D+00 0.355076130900911D+03
 0.355076130900911D+03 0.000000000000000D+00 0.000000000000000D+00 -.355076130900911D+03
 0.298502632801972D+03 -.211855795730763D+02 0.255823387833558D+03 0.122041533508978D+03
 0.948159521221174D+02 0.134689881760876D+02 -.906495518997656D+02 -.243168639982170D+02
 0.198821828811821D+03 -.175415935903609D+02 -.123634015578353D+03 -.154716005307658D+03
 0.118011848065912D+03 0.252581849873496D+02 -.415398203554396D+02 0.569913357968966D+02
 0.000000000000000D+00 -.000000000000000D+00 0.000000000000000D+00 0.000000000000000D+00
 0.103760494478667D+04 0.000000000000000D+00 0.000000000000000D+00 0.103760494478667D+04
 0.486117845119940D+03 0.000000000000000D+00 0.000000000000000D+00 -.486117845119940D+03
 0.304148524077657D+03 0.141813572177723D+03 0.221778827212130D+03 0.122041533508978D+03
 0.129466634850047D+03 0.741307342154131D+02 -.103319571763396D+03 -.243168639982170D+02
 0.236539170093409D+03 0.100210563220162D+03 -.148228134000323D+03 -.154716005307658D+03
 0.157394281208303D+03 0.997473234320542D+02 -.570978767145045D+02 0.569913357968966D+02
 0.696174179677198D+03 -.415902193045353D+03 0.868667552660934D+02 0.551487099666734D+03
0.180935632967D-04 0.000000000000D+00 0.000000000000D+00 0.327972835262D-07 0.000000000000D+00  7 1 -1 23 -11 11 23 21 0 0.19433203D+00 0.15355779D-01 0.87695854D+05 0.87695854D+05 0.87695854D+05 0.11264315D+01  1  2  2  2  7  2       -1 0.638055705485D-03 0.100000000000D+01
-.964929131735D-06 0.000000000000D+00 -.694840472039D-07 0.327972835262D-07 0.000000000000D+00  7 1 -1 23 -11 11 23 21 2 0.19433203D+00 0.15355779D-01 0.87695854D+05 0.87695854D+05 0.87695854D+05 0.11264315D+01  1  2  3  2  7  2       -1 -.431757112271D-04 0.100000000000D+01
0.113530495819D-05 0.000000000000D+00 0.000000000000D+00 0.327972835262D-07 0.000000000000D+00  7 1 -1 23 -11 11 23 21 2 0.19433203D+00 0.15355779D-01 0.87695854D+05 0.87695854D+05 0.87695854D+05 0.11264315D+01  1  2 15  2  7  2       -1 0.507991700298D-04 0.100000000000D+01
  </mgrwgt>
  </event>
  <event>
  8     66 0.25924217E-05 0.29804177E+03 0.75467711E-02 0.93690671E-01
        1 -1    0    0  501    0 0.00000000E+00 0.00000000E+00 0.19619690E+03 0.19619716E+03 0.32000000E+00 0.0000E+00 0.9000E+01
       -1 -1    0    0    0  501 0.00000000E+00 0.00000000E+00 -.90742625E+03 0.90742630E+03 0.32000000E+00 0.0000E+00 0.9000E+01
       25  2    1    2    0    0 0.17464577E+03 0.17573289E+03 -.74178788E+03 0.83785614E+03 0.30061678E+03 0.0000E+00 0.0000E+00
       23  2    3    3    0    0 0.17190265E+03 0.16196729E+03 -.32929875E+03 0.41517475E+03 0.90268955E+02 0.0000E+00 0.0000E+00
       23  1    1    2    0    0 -.17464577E+03 -.17573289E+03 0.30558535E+02 0.26576732E+03 0.91188000E+02 0.0000E+00 0.9000E+01
      -11  1    4    4    0    0 0.65123352E+02 0.35051092E+02 -.16917268E+03 0.18463213E+03 0.51099893E-03 0.0000E+00 0.9000E+01
       11  1    4    4    0    0 0.10677930E+03 0.12691620E+03 -.16012607E+03 0.23054262E+03 0.51099893E-03 0.0000E+00 0.9000E+01
       23  1    3    3    0    0 0.27431220E+01 0.13765598E+02 -.41248913E+03 0.42268138E+03 0.91188000E+02 0.0000E+00 0.9000E+01
#aMCatNLO 1  0  0  2  2 0.40049937D+03 0.00000000D+00  -5  7  0 0.00000000D+00 0.00000000D+00 0.00000000D+00 0.00000000D+00 0.00000000D+00
  <mgrwgt>
 0.2930556463D-03    5    2    0
 0.421941214724594D+03 0.000000000000000D+00 0.000000000000000D+00 0.421941214724594D+03
 0.421941214724594D+03 0.000000000000000D+00 0.000000000000000D+00 -.421941214724594D+03
 0.373323542725180D+03 -.174645773451980D+03 -.175732888049330D+03 0.263954583370096D+03
 0.988808136213651D+02 0.651233522190474D+02 0.350510916605325D+02 -.656337205374035D+02
 0.166546755854434D+03 0.106779299190761D+03 0.126916198759346D+03 -.151089921055176D+02
 0.205131317248209D+03 0.274312204217097D+01 0.137655976294514D+02 -.183211870727175D+03
 0.000000000000000D+00 -.000000000000000D+00 -.000000000000000D+00 -.000000000000000D+00
 0.483688289566693D+03 0.000000000000000D+00 0.000000000000000D+00 0.483688289566693D+03
 0.287693481560047D+04 0.000000000000000D+00 0.000000000000000D+00 -.287693481560047D+04
 0.317516027927740D+03 -.149457903408546D+03 -.221695663838973D+02 0.263954583370096D+03
 0.130869788976094D+03 0.735000123966860D+02 0.861212202233129D+02 -.656337205374035D+02
 0.251992899885837D+03 0.122039169795518D+03 0.219951315035964D+03 -.151089921055176D+02
 0.233718335880479D+03 0.187434910151934D+02 0.111315323077969D+03 -.183211870727175D+03
 0.242652605249701D+04 -.648247697988510D+02 -.395218291953349D+03 -.239324652603378D+04
0.331611116415D-04 0.000000000000D+00 0.000000000000D+00 0.464162506519D-06 0.000000000000D+00  7 1 -1 23 -11 11 23 21 0 0.30184162D-01 0.13960406D+00 0.88828894D+05 0.88828894D+05 0.88828894D+05 0.11259684D+01  1  2  2  2  7  2       -1 0.287300282732D-03 0.100000000000D+01
-.157159006245D-05 0.000000000000D+00 -.127347400225D-06 0.464162506519D-06 0.000000000000D+00  7 1 -1 23 -11 11 23 21 2 0.30184162D-01 0.13960406D+00 0.88828894D+05 0.88828894D+05 0.88828894D+05 0.11259684D+01  1  2  3  2  7  2       -1 -.172622986731D-04 0.100000000000D+01
0.209794098042D-05 0.000000000000D+00 0.000000000000D+00 0.464162506519D-06 0.000000000000D+00  7 1 -1 23 -11 11 23 21 2 0.30184162D-01 0.13960406D+00 0.88828894D+05 0.88828894D+05 0.88828894D+05 0.11259684D+01  1  2 15  2  7  2       -1 0.230437215580D-04 0.100000000000D+01
-.138170881797D-03 0.000000000000D+00 -.154055211845D-04 0.464162506519D-06 0.000000000000D+00  7 1 -1 23 -11 11 23 21 2 0.30184162D-01 0.95305190D+00 0.88828894D+05 0.88828894D+05 0.88828894D+05 0.11259684D+01  1  2  5  2  7  2       -1 -.260461972628D-07 0.100000000000D+01
-.338442372229D-04 0.000000000000D+00 -.362021115060D-05 0.464162506519D-06 0.000000000000D+00  7 1 21 23 -11 11 23 1 2 0.30184162D-01 0.95305190D+00 0.88828894D+05 0.88828894D+05 0.88828894D+05 0.11259684D+01  1  2  5  4  7  2       -1 -.131555849699D-10 0.100000000000D+01
  </mgrwgt>
  </event>
  <event>
  8     66 0.25924217E-05 0.20354968E+03 0.75467711E-02 0.92965074E-01
        1 -1    0    0  501    0 0.00000000E+00 0.00000000E+00 0.13686279E+03 0.13686316E+03 0.32000000E+00 0.0000E+00 0.9000E+01
       -1 -1    0    0    0  501 0.00000000E+00 0.00000000E+00 -.39140685E+03 0.39140698E+03 0.32000000E+00 0.0000E+00 0.9000E+01
       25  2    1    2    0    0 0.51407981E+02 0.52900115E+02 -.78713540E+02 0.31691067E+03 0.29798548E+03 0.0000E+00 0.0000E+00
       23  2    3    3    0    0 0.12091672E+03 0.96921815E+02 -.73365827E+02 0.19397481E+03 0.90713790E+02 0.0000E+00 0.0000E+00
       23  1    1    2    0    0 -.51407981E+02 -.52900115E+02 -.17583053E+03 0.21135948E+03 0.91188000E+02 0.0000E+00 0.9000E+01
      -13  1    4    4    0    0 0.62540261E+02 0.87966794E+02 -.11660372E+02 0.10856066E+03 0.10565837E+00 0.0000E+00 0.9000E+01
       13  1    4    4    0    0 0.58376462E+02 0.89550214E+01 -.61705455E+02 0.85414156E+02 0.10565837E+00 0.0000E+00 0.9000E+01
       23  1    3    3    0    0 -.69508742E+02 -.44021700E+02 -.53477130E+01 0.12293586E+03 0.91188000E+02 0.0000E+00 0.9000E+01
#aMCatNLO 1  0  0  2  1 0.51289977D+03 0.00000000D+00  -5  7  0 0.00000000D+00 0.00000000D+00 0.00000000D+00 0.00000000D+00 0.00000000D+00
  <mgrwgt>
 0.3468744886D-03    5    2    0
 0.231450138061629D+03 0.000000000000000D+00 0.000000000000000D+00 0.231450138061629D+03
 0.231450138061629D+03 0.000000000000000D+00 0.000000000000000D+00 -.231450138061629D+03
 0.144519871257286D+03 -.514079864687530D+02 -.529001209308965D+02 -.844365914574209D+02
 0.117479537068558D+03 0.625402660701116D+02 0.879669000822101D+02 0.463894518144885D+02
 0.635449086195068D+02 0.583764539364436D+02 0.895491358186492D+01 -.234511099952448D+02
 0.137355959177908D+03 -.695087335378022D+02 -.440216927331786D+02 0.614982496381773D+02
 0.000000000000000D+00 0.000000000000000D+00 0.000000000000000D+00 -.000000000000000D+00
 0.468633063509480D+03 0.000000000000000D+00 0.000000000000000D+00 0.468633063509480D+03
 0.879342814393152D+03 0.000000000000000D+00 0.000000000000000D+00 -.879342814393152D+03
 0.277079786172356D+03 -.238246123527782D+03 -.675810861732497D+02 -.844365914574209D+02
 0.986259668209838D+02 -.332300910527779D+02 0.804416629635983D+02 0.463894518144885D+02
 0.295833188082420D+02 0.171052996231508D+02 0.571199759307072D+01 -.234511099952448D+02
 0.285610952488755D+03 -.256952789577146D+03 -.587502685738267D+02 0.614982496381773D+02
 0.657075853612296D+03 0.511323704534555D+03 0.401776941904073D+02 -.410709750883672D+03
0.398274687772D-05 0.000000000000D+00 0.000000000000D+00 0.120654071419D-07 0.000000000000D+00  7 1 -1 23 -13 13 23 21 0 0.21055852D-01 0.60216478D-01 0.41432473D+05 0.41432473D+05 0.41432473D+05 0.11545454D+01  1  2  2  2  7  2       -1 0.341319054747D-03 0.100000000000D+01
-.216824672179D-06 0.000000000000D+00 -.152947966918D-07 0.120654071419D-07 0.000000000000D+00  7 1 -1 23 -13 13 23 21 2 0.21055852D-01 0.60216478D-01 0.41432473D+05 0.41432473D+05 0.41432473D+05 0.11545454D+01  1  2  3  2  7  2       -1 -.247690057112D-04 0.100000000000D+01
0.241369422823D-06 0.000000000000D+00 0.000000000000D+00 0.120654071419D-07 0.000000000000D+00  7 1 -1 23 -13 13 23 21 2 0.21055852D-01 0.60216478D-01 0.41432473D+05 0.41432473D+05 0.41432473D+05 0.11545454D+01  1  2 15  2  7  2       -1 0.275728797482D-04 0.100000000000D+01
0.230403898486D-05 0.000000000000D+00 -.176153737047D-05 0.120654071419D-07 0.000000000000D+00  7 1 -1 23 -13 13 23 21 2 0.21055852D-01 0.34295194D+00 0.41432473D+05 0.41432473D+05 0.41432473D+05 0.11545454D+01  1  2  5  2  7  2       -1 0.870587069201D-06 0.100000000000D+01
0.396416017739D-06 0.000000000000D+00 -.375355835507D-06 0.120654071419D-07 0.000000000000D+00  7 1 21 23 -13 13 23 1 2 0.21055852D-01 0.34295194D+00 0.41432473D+05 0.41432473D+05 0.41432473D+05 0.11545454D+01  1  2  5  4  7  2       -1 0.188097273662D-05 0.100000000000D+01
  </mgrwgt>
  </event>
  <event>
  8     66 0.25924217E-05 0.21725047E+03 0.75467711E-02 0.10356356E+00
        1 -1    0    0  501    0 0.00000000E+00 0.00000000E+00 0.22753424E+03 0.22753447E+03 0.32000000E+00 0.0000E+00 0.9000E+01
       -1 -1    0    0    0  501 0.00000000E+00 0.00000000E+00 -.54685744E+03 0.54685754E+03 0.32000000E+00 0.0000E+00 0.9000E+01
       25  2    1    2    0    0 -.49995894E+02 0.71050010E+02 -.47815542E+03 0.57168380E+03 0.30106821E+03 0.0000E+00 0.0000E+00
       23  2    3    3    0    0 -.11405279E+03 -.42504507E+02 -.26668699E+03 0.30704808E+03 0.91334010E+02 0.0000E+00 0.0000E+00
       23  1    1    2    0    0 0.49995894E+02 -.71050010E+02 0.15883222E+03 0.20270821E+03 0.91188000E+02 0.0000E+00 0.9000E+01
      -13  1    4    4    0    0 -.48895186E+02 0.25605418E+02 -.12766078E+03 0.13908150E+03 0.10565837E+00 0.0000E+00 0.9000E+01
       13  1    4    4    0    0 -.65157608E+02 -.68109925E+02 -.13902621E+03 0.16796658E+03 0.10565837E+00 0.0000E+00 0.9000E+01
       23  1    3    3    0    0 0.64056900E+02 0.11355452E+03 -.21146843E+03 0.26463571E+03 0.91188000E+02 0.0000E+00 0.9000E+01
#aMCatNLO 1  0  0  1  1 0.45971089D+02 0.00000000D+00  -5  7  0 0.00000000D+00 0.00000000D+00 0.00000000D+00 0.00000000D+00 0.00000000D+00
  <mgrwgt>
 0.8808574564D-04    4    2    0
 0.352744833910872D+03 0.000000000000000D+00 0.000000000000000D+00 0.352744833910872D+03
 0.352744833910872D+03 0.000000000000000D+00 0.000000000000000D+00 -.352744833910872D+03
 0.294397547006814D+03 0.499958941342184D+02 -.710500105964460D+02 0.266095792720581D+03
 0.948823628781169D+02 -.488951642724079D+02 0.256055432971680D+02 -.771769515371381D+02
 0.121444316036227D+03 -.651576290078005D+02 -.681100498113077D+02 -.765782370800614D+02
 0.194765441900586D+03 0.640568991459899D+02 0.113554517110586D+03 -.112340604103381D+03
 0.000000000000000D+00 -.000000000000000D+00 0.000000000000000D+00 -.000000000000000D+00
 0.368392737333758D+03 0.000000000000000D+00 0.000000000000000D+00 0.368392737333758D+03
 0.388952137929430D+03 0.000000000000000D+00 0.000000000000000D+00 -.388952137929430D+03
 0.300470924556191D+03 0.564268755138297D+02 -.893116004548378D+02 0.266095792720581D+03
 0.924515072797034D+02 -.468699424152299D+02 0.198546681593099D+02 -.771769515371381D+02
 0.124477764652214D+03 -.624990239592135D+02 -.756594971082115D+02 -.765782370800614D+02
 0.189585667888181D+03 0.682120274616494D+02 0.101755501590166D+03 -.112340604103381D+03
 0.503590108868997D+02 -.152699366010357D+02 0.433609278135734D+02 -.205594005956719D+02
0.127817731001D-04 0.000000000000D+00 0.000000000000D+00 0.241451137478D-06 0.000000000000D+00  7 1 -1 23 -13 13 23 21 0 0.35005293D-01 0.84131939D-01 0.47197765D+05 0.47197765D+05 0.47197765D+05 0.11495052D+01  1  2  2  1  7  1        1 0.298820661817D-03 0.100000000000D+01
-.507266985502D-06 0.000000000000D+00 -.490853742227D-07 0.241451137478D-06 0.000000000000D+00  7 1 -1 23 -13 13 23 21 2 0.35005293D-01 0.84131939D-01 0.47197765D+05 0.47197765D+05 0.47197765D+05 0.11495052D+01  1  2  3  1  7  1        1 -.156703244119D-04 0.100000000000D+01
0.761936541473D-06 0.000000000000D+00 0.000000000000D+00 0.241451137478D-06 0.000000000000D+00  7 1 -1 23 -13 13 23 21 2 0.35005293D-01 0.84131939D-01 0.47197765D+05 0.47197765D+05 0.47197765D+05 0.11495052D+01  1  2 15  1  7  1        1 0.235374923412D-04 0.100000000000D+01
-.707640871471D-05 0.000000000000D+00 0.000000000000D+00 0.241451137478D-06 0.000000000000D+00  7 1 -1 23 -13 13 23 21 2 0.35005293D-01 0.84131939D-01 0.47197765D+05 0.47197765D+05 0.47197765D+05 0.11495052D+01  1  2  4  1  7  1        1 -.218602084110D-03 0.100000000000D+01
  </mgrwgt>
  </event>
  <event>
  9     66 -.25924217E-05 0.18393597E+03 0.75467711E-02 0.10583871E+00
        1 -1    0    0  501    0 0.00000000E+00 0.00000000E+00 0.31481882E+03 0.31481898E+03 0.32000000E+00 0.0000E+00 0.9000E+01
       -1 -1    0    0    0  502 0.00000000E+00 0.00000000E+00 -.16736150E+03 0.16736181E+03 0.32000000E+00 0.0000E+00 0.9000E+01
       25  2    1    2    0    0 -.10981691E+02 -.74665228E+02 0.13319833E+03 0.33725329E+03 0.30050373E+03 0.0000E+00 0.0000E+00
       23  2    3    3    0    0 0.10518904E+03 -.54345489E+02 0.20324748E+02 0.15026605E+03 0.90269722E+02 0.0000E+00 0.0000E+00
       23  1    1    2    0    0 0.21784386E+02 0.34273980E+02 -.25576779E+01 0.99855186E+02 0.91188000E+02 0.0000E+00 0.9000E+01
      -13  1    4    4    0    0 0.23083746E+01 -.11500034E+02 0.35871877E+02 0.37740987E+02 0.10565837E+00 0.0000E+00 0.9000E+01
       13  1    4    4    0    0 0.10288067E+03 -.42845455E+02 -.15547129E+02 0.11252506E+03 0.10565837E+00 0.0000E+00 0.9000E+01
       23  1    3    3    0    0 -.11617073E+03 -.20319740E+02 0.11287359E+03 0.18698724E+03 0.91188000E+02 0.0000E+00 0.9000E+01
       21  1    1    2  501  502 -.10802695E+02 0.40391248E+02 0.16816663E+02 0.45072318E+02 0.75000000E+00 0.0000E+00 0.9000E+01
#aMCatNLO 2  0  0  2  1 0.41810898D+02 0.00000000D+00  -5  7  0 0.00000000D+00 0.00000000D+00 0.00000000D+00 0.00000000D+00 0.00000000D+00
  <mgrwgt>
 -.2848442197D-03    2    2    0
 0.207514267818773D+03 0.000000000000000D+00 0.000000000000000D+00 0.207514267818773D+03
 0.207514267818773D+03 0.000000000000000D+00 0.000000000000000D+00 -.207514267818773D+03
 0.108741360522147D+03 0.190040581873974D+02 0.446699998806032D+02 -.339539250644825D+02
 0.272778877976888D+02 0.158655934265602D+01 -.880170930906242D+01 0.257700583118140D+02
 0.116557720568127D+03 0.997736763256472D+02 -.312283613781762D+02 -.515335345395278D+02
 0.162451566749583D+03 -.120364293855701D+03 -.463992919336468D+01 0.597174012921963D+02
 0.000000000000000D+00 -.000000000000000D+00 0.000000000000000D+00 0.000000000000000D+00
 0.231296395894554D+03 0.000000000000000D+00 0.000000000000000D+00 0.231296395894554D+03
 0.227790510767873D+03 0.000000000000000D+00 0.000000000000000D+00 -.227790510767873D+03
 0.105439071491997D+03 0.217844512906296D+02 0.342741171699022D+02 -.339539250644825D+02
 0.283138527670149D+02 0.230822607294148D+01 -.115000193701618D+02 0.257700583118140D+02
 0.122783883070105D+03 0.102880700332529D+03 -.428455162032717D+02 -.515335345395278D+02
 0.160592473068138D+03 -.116170682833896D+03 -.203198300916609D+02 0.597174012921963D+02
 0.419576262651708D+02 -.108026948622044D+02 0.403912484951922D+02 0.350588512668086D+01
-.577893937679D-05 0.000000000000D+00 0.000000000000D+00 0.656544889335D-07 0.000000000000D+00  7 1 -1 23 -13 13 23 21 2 0.43453064D-01 0.26958043D-01 0.42825201D+05 0.42825201D+05 0.42825201D+05 0.11532599D+01  1  2 13  2  7  2       -1 -.103599732889D-02 0.100000000000D+01
0.447510005179D-05 0.000000000000D+00 0.000000000000D+00 0.656544889335D-07 0.269128913101D-09  7 1 -1 23 -13 13 23 21 2 0.48432993D-01 0.25747583D-01 0.42825201D+05 0.42825201D+05 0.42825201D+05 0.11532599D+01  1  2  1  2  7  2       -1 0.751153109190D-03 0.100000000000D+01
  </mgrwgt>
  </event>
  <event>
  8     66 0.25924217E-05 0.21051565E+03 0.75467711E-02 0.96261548E-01
        1 -1    0    0  501    0 0.00000000E+00 0.00000000E+00 0.72993142E+02 0.72993843E+02 0.32000000E+00 0.0000E+00 0.9000E+01
       -1 -1    0    0    0  501 0.00000000E+00 0.00000000E+00 -.84747665E+03 0.84747671E+03 0.32000000E+00 0.0000E+00 0.9000E+01
       25  2    1    2    0    0 -.19003129E+02 -.13797896E+03 -.46761604E+03 0.57135423E+03 0.29729040E+03 0.0000E+00 0.0000E+00
       23  2    3    3    0    0 -.61322587E+02 -.77668805E+01 -.35699595E+03 0.37311655E+03 0.89157548E+02 0.0000E+00 0.0000E+00
       23  1    1    2    0    0 0.19003129E+02 0.13797896E+03 -.30686746E+03 0.34911632E+03 0.91188000E+02 0.0000E+00 0.9000E+01
      -11  1    4    4    0    0 -.74133925E+02 0.16479595E+01 -.34582520E+03 0.35368577E+03 0.51099893E-03 0.0000E+00 0.9000E+01
       11  1    4    4    0    0 0.12811338E+02 -.94148400E+01 -.11170748E+02 0.19430779E+02 0.51099893E-03 0.0000E+00 0.9000E+01
       23  1    3    3    0    0 0.42319458E+02 -.13021208E+03 -.11062009E+03 0.19823768E+03 0.91188000E+02 0.0000E+00 0.9000E+01
#aMCatNLO 1  0  0  1  1 0.35457743D+03 0.00000000D+00  -5  7  0 0.00000000D+00 0.00000000D+00 0.00000000D+00 0.00000000D+00 0.00000000D+00
  <mgrwgt>
 0.1044858257D-02    3    2    0
 0.248717377095381D+03 0.000000000000000D+00 0.000000000000000D+00 0.248717377095381D+03
 0.248717377095381D+03 0.000000000000000D+00 0.000000000000000D+00 -.248717377095381D+03
 0.168238147116250D+03 0.190031294506247D+02 0.137978960658760D+03 -.242798329425882D+02
 0.116038176847713D+03 -.741339248898884D+02 0.164795952647898D+01 -.892541533821283D+02
 0.185630384534075D+02 0.128113377285223D+02 -.941484004078203D+01 0.958210880938600D+01
 0.194595391773392D+03 0.423194577107414D+02 -.130212080144457D+03 0.103951877515330D+03
 0.000000000000000D+00 -.000000000000000D+00 0.000000000000000D+00 -.000000000000000D+00
 0.340684572897156D+03 0.000000000000000D+00 0.000000000000000D+00 0.340684572897156D+03
 0.119716024179704D+04 0.000000000000000D+00 0.000000000000000D+00 -.119716024179704D+04
 0.199565426533596D+03 0.134141339448089D+03 0.113700039080419D+03 -.242798329425882D+02
 0.905515483743245D+02 -.946252724713943D+01 -.119891448871176D+02 -.892541533821283D+02
 0.331165534168086D+02 0.289892547680151D+02 -.128262390812171D+02 0.958210880938600D+01
 0.287640019964589D+03 0.193279714985894D+03 -.162044711969378D+03 0.103951877515330D+03
 0.926971266404881D+03 -.346947781954858D+03 0.731600568572934D+02 -.856475668899888D+03
0.270558562326D-04 0.000000000000D+00 0.000000000000D+00 0.345431348575D-08 0.000000000000D+00  7 1 -1 23 -11 11 23 21 0 0.11229773D-01 0.13038108D+00 0.44316839D+05 0.44316839D+05 0.44316839D+05 0.11519333D+01  1  2  2  1  7  1        1 0.103092293298D-02 0.100000000000D+01
-.145228254857D-05 0.000000000000D+00 -.103901611904D-06 0.345431348575D-08 0.000000000000D+00  7 1 -1 23 -11 11 23 21 2 0.11229773D-01 0.13038108D+00 0.44316839D+05 0.44316839D+05 0.44316839D+05 0.11519333D+01  1  2  3  1  7  1        1 -.734295217344D-04 0.100000000000D+01
0.172789414811D-05 0.000000000000D+00 0.000000000000D+00 0.345431348575D-08 0.000000000000D+00  7 1 -1 23 -11 11 23 21 2 0.11229773D-01 0.13038108D+00 0.44316839D+05 0.44316839D+05 0.44316839D+05 0.11519333D+01  1  2 15  1  7  1        1 0.873648457926D-04 0.100000000000D+01
  </mgrwgt>
  </event>
  <event>
  8     66 0.25924217E-05 0.52480618E+03 0.75467711E-02 0.85823000E-01
        1 -1    0    0  501    0 0.00000000E+00 0.00000000E+00 0.71190696E+03 0.71190704E+03 0.32000000E+00 0.0000E+00 0.9000E+01
       -1 -1    0    0    0  501 0.00000000E+00 0.00000000E+00 -.42394467E+03 0.42394479E+03 0.32000000E+00 0.0000E+00 0.9000E+01
       25  2    1    2    0    0 -.23851436E+03 0.44255307E+03 0.81200412E+02 0.58466397E+03 0.28722140E+03 0.0000E+00 0.0000E+00
       23  2    3    3    0    0 -.11557177E+03 0.28128626E+03 -.56982913E+02 0.32287828E+03 0.92328431E+02 0.0000E+00 0.0000E+00
       23  1    1    2    0    0 0.23851436E+03 -.44255307E+03 0.20676188E+03 0.55118785E+03 0.91188000E+02 0.0000E+00 0.9000E+01
      -11  1    4    4    0    0 -.94253031E+02 0.11503279E+03 -.11268598E+02 0.14914140E+03 0.51099893E-03 0.0000E+00 0.9000E+01
       11  1    4    4    0    0 -.21318739E+02 0.16625347E+03 -.45714315E+02 0.17373688E+03 0.51099893E-03 0.0000E+00 0.9000E+01
       23  1    3    3    0    0 -.12294259E+03 0.16126681E+03 0.13818332E+03 0.26178569E+03 0.91188000E+02 0.0000E+00 0.9000E+01
#aMCatNLO 1  0  0  1  2 0.94499558D+03 0.00000000D+00  -5  7  0 0.00000000D+00 0.00000000D+00 0.00000000D+00 0.00000000D+00 0.00000000D+00
  <mgrwgt>
 0.9604361510D-03    3    2    0
 0.549371706011255D+03 0.000000000000000D+00 0.000000000000000D+00 0.549371706011255D+03
 0.549371706011255D+03 0.000000000000000D+00 0.000000000000000D+00 -.549371706011255D+03
 0.515614560303729D+03 0.238514363756449D+03 -.442553068811435D+03 0.692878273627187D+02
 0.157131740467144D+03 -.942530311063787D+02 0.115032789082689D+03 -.507366477543748D+02
 0.191585543945051D+03 -.213187393708500D+02 0.166253472358261D+03 -.927917826597799D+02
 0.234411567306586D+03 -.122942593279221D+03 0.161266807370485D+03 0.742406030514360D+02
 0.000000000000000D+00 0.000000000000000D+00 0.000000000000000D+00 -.000000000000000D+00
 0.101290372626902D+04 0.000000000000000D+00 0.000000000000000D+00 0.101290372626902D+04
 0.149901788564852D+04 0.000000000000000D+00 0.000000000000000D+00 -.149901788564852D+04
 0.619957626708740D+03 -.156416611584206D+03 -.588867767983784D+03 0.692878273627187D+02
 0.248898294247682D+03 -.235462757323251D+03 0.627171696410638D+02 -.507366477543748D+02
 0.220216426060156D+03 -.164535837782907D+03 0.113194158253000D+03 -.927917826597799D+02
 0.360152871515252D+03 -.329721093503442D+03 0.846591570601499D+02 0.742406030514360D+02
 0.106269639338571D+04 0.886136300193805D+03 0.328297283029571D+03 -.486114159379497D+03
0.122844091150D-03 0.000000000000D+00 0.000000000000D+00 0.147373601933D-08 0.000000000000D+00  7 1 -1 23 -11 11 23 21 0 0.10952416D+00 0.65222272D-01 0.27542153D+06 0.27542153D+06 0.27542153D+06 0.10873091D+01  1  2  2  1  7  1        1 0.956854706275D-03 0.100000000000D+01
-.680730674448D-05 0.000000000000D+00 -.471753655607D-06 0.147373601933D-08 0.000000000000D+00  7 1 -1 23 -11 11 23 21 2 0.10952416D+00 0.65222272D-01 0.27542153D+06 0.27542153D+06 0.27542153D+06 0.10873091D+01  1  2  3  1  7  1        1 -.626863710988D-04 0.100000000000D+01
0.719622689601D-05 0.000000000000D+00 0.000000000000D+00 0.147373601933D-08 0.000000000000D+00  7 1 -1 23 -11 11 23 21 2 0.10952416D+00 0.65222272D-01 0.27542153D+06 0.27542153D+06 0.27542153D+06 0.10873091D+01  1  2 15  1  7  1        1 0.662678158407D-04 0.100000000000D+01
  </mgrwgt>
  </event>
  <event>
  8     66 0.25924217E-05 0.13490740E+03 0.75467711E-02 0.10291733E+00
        1 -1    0    0  501    0 0.00000000E+00 0.00000000E+00 0.17345959E+03 0.17345989E+03 0.32000000E+00 0.0000E+00 0.9000E+01
       -1 -1    0    0    0  501 0.00000000E+00 0.00000000E+00 -.58049585E+03 0.58049594E+03 0.32000000E+00 0.0000E+00 0.9000E+01
       25  2    1    2    0    0 -.15668483E+03 0.59905468E+01 -.36084397E+02 0.34103143E+03 0.30068976E+03 0.0000E+00 0.0000E+00
       23  2    3    3    0    0 -.80841587E+02 -.11324866E+03 0.11150800E+02 0.16634142E+03 0.90468256E+02 0.0000E+00 0.0000E+00
       23  1    1    2    0    0 0.15668483E+03 -.59905468E+01 -.37095186E+03 0.41292439E+03 0.91188000E+02 0.0000E+00 0.9000E+01
      -13  1    4    4    0    0 -.84217883E+02 -.59035945E+02 0.32674647E+02 0.10791450E+03 0.10565837E+00 0.0000E+00 0.9000E+01
       13  1    4    4    0    0 0.33762956E+01 -.54212718E+02 -.21523847E+02 0.58426923E+02 0.10565837E+00 0.0000E+00 0.9000E+01
       23  1    3    3    0    0 -.75843240E+02 0.11923921E+03 -.47235197E+02 0.17469002E+03 0.91188000E+02 0.0000E+00 0.9000E+01
#aMCatNLO 1  0  0  1  2 0.42850570D+01 0.00000000D+00  -5  7  0 0.00000000D+00 0.00000000D+00 0.00000000D+00 0.00000000D+00 0.00000000D+00
  <mgrwgt>
 0.1471418919D-03   11    2    0
 0.317321160339251D+03 0.000000000000000D+00 0.000000000000000D+00 0.317321160339251D+03
 0.317321160339251D+03 0.000000000000000D+00 0.000000000000000D+00 -.317321160339251D+03
 0.252639781026256D+03 0.156684827800407D+03 -.599054679157832D+01 -.175856719232701D+03
 0.149158993427470D+03 -.842180025391514D+02 -.590359514834418D+02 0.108030041197142D+03
 0.556065211107657D+02 0.337641488042480D+01 -.542127110781280D+02 0.119023934633626D+02
 0.177237025114011D+03 -.758432401416806D+02 0.119239209353148D+03 0.559242845721966D+02
 0.000000000000000D+00 -.000000000000000D+00 -.000000000000000D+00 0.000000000000000D+00
 0.321733391906089D+03 0.000000000000000D+00 0.000000000000000D+00 0.321733391906089D+03
 0.318370488648637D+03 0.000000000000000D+00 0.000000000000000D+00 -.318370488648637D+03
 0.253600503693682D+03 0.158253464384402D+03 -.531219735467544D+01 -.175856719232701D+03
 0.148482256228249D+03 -.832957311055885D+02 -.586371195844460D+02 0.108030041197142D+03
 0.554834241326463D+02 0.372063828081896D+01 -.540638533043079D+02 0.119023934633626D+02
 0.177090602649304D+03 -.747453202478950D+02 0.119713999594121D+03 0.559242845721966D+02
 0.544709385084504D+01 -.393305131173741D+01 -.170082935069164D+01 0.336290325745186D+01
0.436847808627D-05 0.000000000000D+00 0.000000000000D+00 0.184647000380D-06 0.000000000000D+00  7 1 -1 23 -13 13 23 21 0 0.26686121D-01 0.89307083D-01 0.64195490D+05 0.64195490D+05 0.64195490D+05 0.11378694D+01  1  2  2  1  7  1        1 0.127413322269D-03 0.100000000000D+01
-.227745491226D-06 0.000000000000D+00 -.167761060980D-07 0.184647000380D-06 0.000000000000D+00  7 1 -1 23 -13 13 23 21 2 0.26686121D-01 0.89307083D-01 0.64195490D+05 0.64195490D+05 0.64195490D+05 0.11378694D+01  1  2  3  1  7  1        1 -.860041245022D-05 0.100000000000D+01
0.276123841406D-06 0.000000000000D+00 0.000000000000D+00 0.184647000380D-06 0.000000000000D+00  7 1 -1 23 -13 13 23 21 2 0.26686121D-01 0.89307083D-01 0.64195490D+05 0.64195490D+05 0.64195490D+05 0.11378694D+01  1  2 15  1  7  1        1 0.104273367198D-04 0.100000000000D+01
0.656631394717D-06 0.000000000000D+00 0.000000000000D+00 0.184647000380D-06 0.000000000000D+00  7 1 -1 23 -13 13 23 21 2 0.27100920D-01 0.89307083D-01 0.65304041D+05 0.65304041D+05 0.65304041D+05 0.11372323D+01  1  2 12  1  7  1        1 0.242739608039D-04 0.100000000000D+01
-.861733283776D-04 0.000000000000D+00 0.000000000000D+00 0.184647000380D-06 0.000000000000D+00  7 1 -1 23 -13 13 23 21 2 0.26686121D-01 0.89307083D-01 0.64195490D+05 0.64195490D+05 0.64195490D+05 0.11378694D+01  1  2  4  1  7  1        1 -.325418589964D-02 0.100000000000D+01
-.341704876055D-03 0.000000000000D+00 -.354732228362D-04 0.184647000380D-06 0.000000000000D+00  7 1 -1 23 -13 13 23 21 2 0.27135504D-01 0.89307083D-01 0.64195490D+05 0.64195490D+05 0.64195490D+05 0.11378694D+01  1  2  5  1  7  1        1 -.126286882363D-01 0.100000000000D+01
0.342254479194D-03 0.000000000000D+00 0.354682772159D-04 0.184647000380D-06 0.000000000000D+00  7 1 -1 23 -13 13 23 21 2 0.26686121D-01 0.89307083D-01 0.64195490D+05 0.64195490D+05 0.64195490D+05 0.11378694D+01  1  2  6  1  7  1        1 0.129246452615D-01 0.100000000000D+01
0.855252975059D-04 0.000000000000D+00 0.000000000000D+00 0.184647000380D-06 0.693718699552D-07  7 1 -1 23 -13 13 23 21 2 0.27057181D-01 0.89602407D-01 0.65304041D+05 0.65304041D+05 0.65304041D+05 0.11372323D+01  1  2 11  1  7  1        1 0.314644906722D-02 0.100000000000D+01
0.463155136759D-07 0.000000000000D+00 0.000000000000D+00 0.184647000380D-06 0.000000000000D+00  7 21 -1 23 -13 13 23 -1 2 0.27100920D-01 0.89307083D-01 0.65304041D+05 0.65304041D+05 0.65304041D+05 0.11372323D+01  1  2 12  3  7  1        1 0.119836827222D-04 0.100000000000D+01
-.103998563761D-05 0.000000000000D+00 -.108340582318D-06 0.184647000380D-06 0.000000000000D+00  7 21 -1 23 -13 13 23 -1 2 0.27135504D-01 0.89307083D-01 0.64195490D+05 0.64195490D+05 0.64195490D+05 0.11378694D+01  1  2  5  3  7  1        1 -.268923522057D-03 0.100000000000D+01
0.241887693534D-06 0.000000000000D+00 0.000000000000D+00 0.184647000380D-06 0.175667377298D-09  7 21 -1 23 -13 13 23 -1 2 0.27057181D-01 0.89602407D-01 0.65304041D+05 0.65304041D+05 0.65304041D+05 0.11372323D+01  1  2 11  3  7  1        1 0.623473311410D-04 0.100000000000D+01
  </mgrwgt>
  </event>
  <event>
  8     66 0.25924217E-05 0.24358944E+03 0.75467711E-02 0.91520624E-01
        1 -1    0    0  501    0 0.00000000E+00 0.00000000E+00 0.15540635E+03 0.15540668E+03 0.32000000E+00 0.0000E+00 0.9000E+01
       -1 -1    0    0    0  501 0.00000000E+00 0.00000000E+00 -.72176818E+03 0.72176825E+03 0.32000000E+00 0.0000E+00 0.9000E+01
       25  2    1    2    0    0 -.16377390E+03 -.64399890E+02 -.58225656E+03 0.67833548E+03 0.30024504E+03 0.0000E+00 0.0000E+00
       23  2    3    3    0    0 -.16243030E+03 -.21854854E+01 -.17181783E+03 0.25330885E+03 0.90860469E+02 0.0000E+00 0.0000E+00
       23  1    1    2    0    0 0.16377390E+03 0.64399890E+02 0.15894726E+02 0.19883946E+03 0.91188000E+02 0.0000E+00 0.9000E+01
      -13  1    4    4    0    0 -.82445382E+02 -.38192218E+02 -.12300646E+03 0.15292641E+03 0.10565837E+00 0.0000E+00 0.9000E+01
       13  1    4    4    0    0 -.79984922E+02 0.36006732E+02 -.48811370E+02 0.10038244E+03 0.10565837E+00 0.0000E+00 0.9000E+01
       23  1    3    3    0    0 -.13436007E+01 -.62214405E+02 -.41043872E+03 0.42502663E+03 0.91188000E+02 0.0000E+00 0.9000E+01
#aMCatNLO 1  0  0  2  2 0.56361713D+03 0.00000000D+00  -5  7  0 0.00000000D+00 0.00000000D+00 0.00000000D+00 0.00000000D+00 0.00000000D+00
  <mgrwgt>
 0.4106759268D-03    3    2    0
 0.334914222668957D+03 0.000000000000000D+00 0.000000000000000D+00 0.334914222668957D+03
 0.334914222668957D+03 0.000000000000000D+00 0.000000000000000D+00 -.334914222668957D+03
 0.273830050814070D+03 0.163773904158573D+03 0.643998903359906D+02 0.188940222891281D+03
 0.962590583048660D+02 -.824453849946676D+02 -.381923177472745D+02 -.317791073491978D+02
 0.901843669637185D+02 -.799849181586982D+02 0.360068323562344D+02 0.209556898111954D+02
 0.209554969255261D+03 -.134360100520706D+01 -.622144049449505D+02 -.178116805353279D+03
 0.000000000000000D+00 -.000000000000000D+00 0.000000000000000D+00 0.000000000000000D+00
 0.801581791809691D+03 0.000000000000000D+00 0.000000000000000D+00 0.801581791809691D+03
 0.655951108042331D+03 0.000000000000000D+00 0.000000000000000D+00 -.655951108042331D+03
 0.435920155595784D+03 0.371267948279819D+03 -.904037248377495D+02 0.188940222891281D+03
 0.894158950396006D+02 -.281636861469191D+02 -.786898812074263D+02 -.317791073491978D+02
 0.458021619805674D+02 -.402295301618585D+02 0.634681097774445D+01 0.209556898111954D+02
 0.304267071388060D+03 0.148871238256351D+03 -.174284128531057D+03 -.178116805353279D+03
 0.582127615848009D+03 -.451745970227393D+03 0.337030923598488D+03 0.145630683767360D+03
0.192739307684D-04 0.000000000000D+00 0.000000000000D+00 0.630716349068D-06 0.000000000000D+00  7 1 -1 23 -13 13 23 21 0 0.23908700D-01 0.11104129D+00 0.59335813D+05 0.59335813D+05 0.59335813D+05 0.11408127D+01  1  2  2  2  7  2       -1 0.402410316987D-03 0.100000000000D+01
-.938796735244D-06 0.000000000000D+00 -.740169690930D-07 0.630716349068D-06 0.000000000000D+00  7 1 -1 23 -13 13 23 21 2 0.23908700D-01 0.11104129D+00 0.59335813D+05 0.59335813D+05 0.59335813D+05 0.11408127D+01  1  2  3  2  7  2       -1 -.255093327333D-04 0.100000000000D+01
0.124298844382D-05 0.000000000000D+00 0.000000000000D+00 0.630716349068D-06 0.000000000000D+00  7 1 -1 23 -13 13 23 21 2 0.23908700D-01 0.11104129D+00 0.59335813D+05 0.59335813D+05 0.59335813D+05 0.11408127D+01  1  2 15  2  7  2       -1 0.337749425480D-04 0.100000000000D+01
  </mgrwgt>
  </event>
  <event>
  8     66 0.25924217E-05 0.28776451E+03 0.75467711E-02 0.90733943E-01
        1 -1    0    0  501    0 0.00000000E+00 0.00000000E+00 0.11651112E+04 0.11651112E+04 0.32000000E+00 0.0000E+00 0.9000E+01
       -1 -1    0    0    0  501 0.00000000E+00 0.00000000E+00 -.11255587E+03 0.11255632E+03 0.32000000E+00 0.0000E+00 0.9000E+01
       25  2    1    2    0    0 -.89061265E+02 0.24706630E+03 0.83265080E+03 0.92320047E+03 0.30003014E+03 0.0000E+00 0.0000E+00
       23  2    3    3    0    0 -.38641799E+02 0.78148808E+02 0.61834770E+03 0.63111091E+03 0.91360140E+02 0.0000E+00 0.0000E+00
       23  1    1    2    0    0 0.89061265E+02 -.24706630E+03 0.21990451E+03 0.35446708E+03 0.91188000E+02 0.0000E+00 0.9000E+01
      -13  1    4    4    0    0 -.25632728E+02 0.67927474E+01 0.38525771E+02 0.46769909E+02 0.10565837E+00 0.0000E+00 0.9000E+01
       13  1    4    4    0    0 -.13009072E+02 0.71356061E+02 0.57982193E+03 0.58434100E+03 0.10565837E+00 0.0000E+00 0.9000E+01
       23  1    3    3    0    0 -.50419466E+02 0.16891749E+03 0.21430310E+03 0.29208956E+03 0.91188000E+02 0.0000E+00 0.9000E+01
#aMCatNLO 1  0  0  2  1 0.59404209D+03 0.00000000D+00  -5  7  0 0.00000000D+00 0.00000000D+00 0.00000000D+00 0.00000000D+00 0.00000000D+00
  <mgrwgt>
 0.5926543817D-03    3    2    0
 0.362133149586363D+03 0.000000000000000D+00 0.000000000000000D+00 0.362133149586363D+03
 0.362133149586363D+03 0.000000000000000D+00 0.000000000000000D+00 -.362133149586363D+03
 0.305729287916255D+03 0.890612650307352D+02 -.247066296122488D+03 -.127206456350378D+03
 0.265175012400981D+02 -.256327443076446D+02 0.679266107272632D+01 -.684314146676002D-02
 0.188189118436399D+03 -.130090549824633D+02 0.713561468101846D+02 0.173649673477192D+03
 0.203830391579973D+03 -.504194657406273D+02 0.168917488239578D+03 -.464363739853480D+02
 0.000000000000000D+00 0.000000000000000D+00 -.000000000000000D+00 0.000000000000000D+00
 0.163597199683750D+04 0.000000000000000D+00 0.000000000000000D+00 0.163597199683750D+04
 0.543918147335980D+03 0.000000000000000D+00 0.000000000000000D+00 -.543918147335980D+03
 0.240618998653253D+03 -.863870463847270D+02 -.161052931822419D+03 -.127206456350378D+03
 0.556260236288668D+02 -.520114171913206D+02 0.197247798385957D+02 -.684314146676002D-02
 0.278735897100635D+03 -.162952246070313D+03 0.144865650636720D+03 0.173649673477192D+03
 0.361740849254670D+03 -.232040826379710D+03 0.257957183927108D+03 -.464363739853480D+02
 0.124316837553605D+04 0.533391536026071D+03 -.261494682580004D+03 0.109205384950152D+04
0.171787533650D-04 0.000000000000D+00 0.000000000000D+00 0.108762757940D-05 0.000000000000D+00  7 1 -1 23 -13 13 23 21 0 0.17924791D+00 0.17316326D-01 0.82808415D+05 0.82808415D+05 0.82808415D+05 0.11285076D+01  1  2  2  2  7  2       -1 0.587006046942D-03 0.100000000000D+01
-.893060675769D-06 0.000000000000D+00 -.659709361911D-07 0.108762757940D-05 0.000000000000D+00  7 1 -1 23 -13 13 23 21 2 0.17924791D+00 0.17316326D-01 0.82808415D+05 0.82808415D+05 0.82808415D+05 0.11285076D+01  1  2  3  2  7  2       -1 -.388634090131D-04 0.100000000000D+01
0.102285643436D-05 0.000000000000D+00 0.000000000000D+00 0.108762757940D-05 0.000000000000D+00  7 1 -1 23 -13 13 23 21 2 0.17924791D+00 0.17316326D-01 0.82808415D+05 0.82808415D+05 0.82808415D+05 0.11285076D+01  1  2 15  2  7  2       -1 0.445117437693D-04 0.100000000000D+01
  </mgrwgt>
  </event>
</LesHouchesEvents>
