<event>
12    1  0.1599266E-007  0.1211131E+04  0.7818608E-02  0.9103169E-01
          1   -1    0    0  501    0  0.00000000000E+00  0.00000000000E+00  0.88943465894E+03  0.88943465894E+03  0.00000000000E+00 0. -1.
         -1   -1    0    0    0  501 -0.00000000000E+00 -0.00000000000E+00 -0.41229520380E+03  0.41229520380E+03  0.00000000000E+00 0.  1.
         23    2    1    2    0    0 -0.23303896462E+03  0.76358888617E+02  0.21592565642E+03  0.33924463587E+03  0.91242506367E+02 0.  0.
        254    2    1    2    0    0  0.23303896462E+03 -0.76358888617E+02  0.26121379872E+03  0.96248522686E+03  0.89331255694E+03 0.  0.
        -24    2    4    4    0    0  0.24943803299E+03 -0.82576944017E+02 -0.29412094019E+03  0.40113601586E+03  0.73244056254E+02 0.  0.
         24    2    4    4    0    0 -0.16399068380E+02  0.62180553997E+01  0.55533473891E+03  0.56134921100E+03  0.80054174139E+02 0.  0.
         13    1    3    3    0    0 -0.12766997898E+03  0.30240594519E+02  0.17152799212E+03  0.21595362736E+03  0.00000000000E+00 0. -1.
        -13    1    3    3    0    0 -0.10536898564E+03  0.46118294099E+02  0.44397664301E+02  0.12329100851E+03  0.00000000000E+00 0.  1.
          2    1    6    6  502    0 -0.34657357216E+02  0.26018014210E+02  0.18381573437E+03  0.18885521882E+03  0.00000000000E+00 0. -1.
          1    1    5    5  503    0  0.34462306070E+02  0.12473183315E+02 -0.52680000181E+02  0.64174864712E+02  0.00000000000E+00 0. -1.
         -2    1    5    5    0  503  0.21497572693E+03 -0.95050127332E+02 -0.24144094000E+03  0.33696115115E+03  0.00000000000E+00 0.  1.
         -1    1    6    6    0  502  0.18258288836E+02 -0.19799958810E+02  0.37151900454E+03  0.37249399219E+03  0.00000000000E+00 0.  1.
<mgrwt>
<rscale>  0 0.12111311E+04</rscale>
<asrwt>0</asrwt>
<pdfrwt beam="1">  1        1 0.13683610E+00 0.12111311E+04</pdfrwt>
<pdfrwt beam="2">  1       -1 0.63430032E-01 0.12111311E+04</pdfrwt>
<totfact> 0.46287052E+01</totfact>
</mgrwt>
</event>
<event>
12    1  0.1599266E-007  0.2061560E+04  0.7818608E-02  0.8578368E-01
         -1   -1    0    0    0  501 -0.00000000000E+00  0.00000000000E+00  0.51102306162E+03  0.51102306162E+03  0.00000000000E+00 0.  1.
          1   -1    0    0  501    0  0.00000000000E+00 -0.00000000000E+00 -0.20791776978E+04  0.20791776978E+04  0.00000000000E+00 0. -1.
         23    2    1    2    0    0 -0.18649627829E+03  0.72914199450E+03 -0.27494617399E+03  0.80625866931E+03  0.89603199104E+02 0.  0.
        254    2    1    2    0    0  0.18649627829E+03 -0.72914199450E+03 -0.12932084622E+04  0.17839420901E+04  0.97140740382E+03 0.  0.
        -24    2    4    4    0    0  0.47394457880E+01 -0.27468700001E+03 -0.12545192665E+04  0.12865784452E+04  0.77395706146E+02 0.  0.
         24    2    4    4    0    0  0.18175683250E+03 -0.45445499449E+03 -0.38689195680E+02  0.49736364489E+03  0.79428289795E+02 0.  0.
         11    1    3    3    0    0 -0.20214446565E+02  0.11163140471E+03 -0.75883939230E+02  0.13648650703E+03  0.00000000000E+00 0. -1.
        -11    1    3    3    0    0 -0.16628183172E+03  0.61751058979E+03 -0.19906223476E+03  0.66977216228E+03  0.00000000000E+00 0.  1.
          2    1    6    6  502    0  0.12387104452E+03 -0.26399737069E+03 -0.58148416678E+02  0.29735481460E+03  0.00000000000E+00 0. -1.
          3    1    5    5  503    0 -0.27189479794E+01 -0.38101383205E+02 -0.33143121307E+03  0.33362517453E+03  0.00000000000E+00 0. -1.
         -4    1    5    5    0  503  0.74583937674E+01 -0.23658561680E+03 -0.92308805342E+03  0.95295327067E+03  0.00000000000E+00 0.  1.
         -1    1    6    6    0  502  0.57885787974E+02 -0.19045762381E+03  0.19459220998E+02  0.20000883030E+03  0.00000000000E+00 0.  1.
<mgrwt>
<rscale>  0 0.20615603E+04</rscale>
<asrwt>0</asrwt>
<pdfrwt beam="1">  1        1 0.31987349E+00 0.20615603E+04</pdfrwt>
<pdfrwt beam="2">  1       -1 0.78618934E-01 0.20615603E+04</pdfrwt>
<totfact> 0.39324878E+00</totfact>
</mgrwt>
</event>
<event>
12    1  0.1599266E-007  0.2898830E+04  0.7818608E-02  0.8273226E-01
         -1   -1    0    0    0  501 -0.00000000000E+00  0.00000000000E+00  0.97233813863E+03  0.97233813863E+03  0.00000000000E+00 0.  1.
          1   -1    0    0  501    0  0.00000000000E+00 -0.00000000000E+00 -0.21605697227E+04  0.21605697227E+04  0.00000000000E+00 0. -1.
         23    2    1    2    0    0  0.28789006379E+03 -0.39122473271E+03 -0.18594713294E+04  0.19245602569E+04  0.10178937739E+03 0.  0.
        254    2    1    2    0    0 -0.28789006379E+03  0.39122473271E+03  0.67123974536E+03  0.12083476044E+04  0.87954741598E+03 0.  0.
        -24    2    4    4    0    0 -0.48989494340E+03  0.10322675502E+03  0.67896291899E+03  0.84748187568E+03  0.81129931158E+02 0.  0.
         24    2    4    4    0    0  0.20200487961E+03  0.28799797769E+03 -0.77231736261E+01  0.36086572871E+03  0.80097566775E+02 0.  0.
         11    1    3    3    0    0  0.27991152020E+03 -0.33197991854E+03 -0.16883502688E+04  0.17432979538E+04  0.00000000000E+00 0. -1.
        -11    1    3    3    0    0  0.79785435812E+01 -0.59244814168E+02 -0.17112106063E+03  0.18126230318E+03  0.00000000000E+00 0.  1.
          4    1    6    6  502    0  0.87800790071E+02  0.15266668057E+03  0.32963429925E+02  0.17917221271E+03  0.00000000000E+00 0. -1.
          3    1    5    5  503    0 -0.40029663164E+03  0.52711369314E+02  0.52443871786E+03  0.66185485611E+03  0.00000000000E+00 0. -1.
         -4    1    5    5    0  503 -0.89598311753E+02  0.50515385709E+02  0.15452420113E+03  0.18562701957E+03  0.00000000000E+00 0.  1.
         -3    1    6    6    0  502  0.11420408954E+03  0.13533129712E+03 -0.40686603551E+02  0.18169351600E+03  0.00000000000E+00 0.  1.
<mgrwt>
<rscale>  0 0.28988303E+04</rscale>
<asrwt>0</asrwt>
<pdfrwt beam="1">  1        1 0.33239534E+00 0.28988303E+04</pdfrwt>
<pdfrwt beam="2">  1       -1 0.14959049E+00 0.28988303E+04</pdfrwt>
<totfact> 0.69919082E-01</totfact>
</mgrwt>
</event>
<event>
12    1  0.1599266E-007  0.2132476E+04  0.7818608E-02  0.8547071E-01
         -1   -1    0    0    0  501 -0.00000000000E+00  0.00000000000E+00  0.52333411131E+03  0.52333411131E+03  0.00000000000E+00 0.  1.
          1   -1    0    0  501    0  0.00000000000E+00 -0.00000000000E+00 -0.21723475913E+04  0.21723475913E+04  0.00000000000E+00 0. -1.
         23    2    1    2    0    0  0.66796352139E+03  0.36615125914E+03 -0.14939144713E+03  0.78298591314E+03  0.10250426934E+03 0.  0.
        254    2    1    2    0    0 -0.66796352139E+03 -0.36615125914E+03 -0.14996220328E+04  0.19126957895E+04  0.91065741700E+03 0.  0.
        -24    2    4    4    0    0 -0.56667737125E+03 -0.46761987564E+03 -0.15690881078E+04  0.17344199161E+04  0.79895957584E+02 0.  0.
         24    2    4    4    0    0 -0.10128615014E+03  0.10146861650E+03  0.69466074978E+02  0.17827587337E+03  0.80012418463E+02 0.  0.
         11    1    3    3    0    0  0.65511693266E+03  0.36238201785E+03 -0.16039800304E+03  0.76565425729E+03  0.00000000000E+00 0. -1.
        -11    1    3    3    0    0  0.12846588726E+02  0.37692412853E+01  0.11006555909E+02  0.17331655857E+02  0.00000000000E+00 0.  1.
          2    1    6    6  502    0  0.31288415311E+00  0.33123418638E+01  0.31932648679E+02  0.32105506643E+02  0.00000000000E+00 0. -1.
          3    1    5    5  503    0 -0.24291787255E+03 -0.20500675875E+03 -0.58750377179E+03  0.66798019866E+03  0.00000000000E+00 0. -1.
         -4    1    5    5    0  503 -0.32375949870E+03 -0.26261311688E+03 -0.98158433603E+03  0.10664397174E+04  0.00000000000E+00 0.  1.
         -1    1    6    6    0  502 -0.10159903429E+03  0.98156274632E+02  0.37533426299E+02  0.14617036672E+03  0.00000000000E+00 0.  1.
<mgrwt>
<rscale>  0 0.21324761E+04</rscale>
<asrwt>0</asrwt>
<pdfrwt beam="1">  1        1 0.33420732E+00 0.21324761E+04</pdfrwt>
<pdfrwt beam="2">  1       -1 0.80512941E-01 0.21324761E+04</pdfrwt>
<totfact> 0.32104201E+00</totfact>
</mgrwt>
</event>
<event>
12    1  0.1599266E-007  0.1285961E+04  0.7818608E-02  0.9040773E-01
         -2   -1    0    0    0  501 -0.00000000000E+00  0.00000000000E+00  0.20414869129E+03  0.20414869129E+03  0.00000000000E+00 0.  1.
          2   -1    0    0  501    0  0.00000000000E+00 -0.00000000000E+00 -0.20251105920E+04  0.20251105920E+04  0.00000000000E+00 0. -1.
         23    2    1    2    0    0  0.22732159984E+03 -0.16721762143E+03 -0.23883512765E+03  0.38233235069E+03  0.97462636508E+02 0.  0.
        254    2    1    2    0    0 -0.22732159984E+03  0.16721762143E+03 -0.15821267730E+04  0.18469269326E+04  0.91015225412E+03 0.  0.
        -24    2    4    4    0    0  0.88469659828E+02 -0.10486316488E+03  0.45777916871E+02  0.16461420707E+03  0.78606968130E+02 0.  0.
         24    2    4    4    0    0 -0.31579125967E+03  0.27208078631E+03 -0.16279046899E+04  0.16823127255E+04  0.79689102280E+02 0.  0.
         13    1    3    3    0    0  0.18274503502E+03 -0.14017046686E+03 -0.23653712144E+03  0.33014135976E+03  0.00000000000E+00 0. -1.
        -13    1    3    3    0    0  0.44576564821E+02 -0.27047154571E+02 -0.22980062024E+01  0.52190990929E+02  0.00000000000E+00 0.  1.
          4    1    6    6  502    0 -0.16509922753E+03  0.18495843719E+03 -0.10426800043E+04  0.10717504233E+04  0.00000000000E+00 0. -1.
          1    1    5    5  503    0  0.97312188556E+02 -0.98838974354E+02  0.56219140141E+02  0.14966427968E+03  0.00000000000E+00 0. -1.
         -2    1    5    5    0  503 -0.88425287279E+01 -0.60241905272E+01 -0.10441223270E+02  0.14949927398E+02  0.00000000000E+00 0.  1.
         -3    1    6    6    0  502 -0.15069203214E+03  0.87122349124E+02 -0.58522468561E+03  0.61056230224E+03  0.00000000000E+00 0.  1.
<mgrwt>
<rscale>  0 0.12859606E+04</rscale>
<asrwt>0</asrwt>
<pdfrwt beam="1">  1        2 0.31155547E+00 0.12859606E+04</pdfrwt>
<pdfrwt beam="2">  1       -2 0.31407491E-01 0.12859606E+04</pdfrwt>
<totfact> 0.59791006E+01</totfact>
</mgrwt>
</event>
<event>
12    1  0.1599266E-007  0.2214340E+04  0.7818608E-02  0.8512483E-01
          2   -1    0    0  501    0  0.00000000000E+00  0.00000000000E+00  0.15125318010E+04  0.15125318010E+04  0.00000000000E+00 0.  1.
         -2   -1    0    0    0  501 -0.00000000000E+00 -0.00000000000E+00 -0.81044592052E+03  0.81044592052E+03  0.00000000000E+00 0. -1.
         23    2    1    2    0    0 -0.42002345726E+03 -0.28441016393E+03 -0.52298886710E+03  0.73451971648E+03  0.93236327597E+02 0.  0.
        254    2    1    2    0    0  0.42002345726E+03  0.28441016393E+03  0.12250747476E+04  0.15884580050E+04  0.87468957387E+03 0.  0.
        -24    2    4    4    0    0  0.25859279707E+03  0.35371184374E+03  0.11224148926E+03  0.45909660644E+03  0.78671716851E+02 0.  0.
         24    2    4    4    0    0  0.16143066018E+03 -0.69301679807E+02  0.11128332583E+04  0.11293613986E+04  0.78719292226E+02 0.  0.
         11    1    3    3    0    0 -0.54958354241E+02 -0.80780304281E+02 -0.10242360178E+03  0.14155024713E+03  0.00000000000E+00 0.  1.
        -11    1    3    3    0    0 -0.36506510302E+03 -0.20362985965E+03 -0.42056526532E+03  0.59296946935E+03  0.00000000000E+00 0. -1.
          4    1    6    6  502    0  0.14070857863E+03 -0.85175914577E+02  0.89701711590E+03  0.91197233880E+03  0.00000000000E+00 0. -1.
          3    1    5    5  503    0  0.21332612467E+03  0.30972825574E+03  0.68415477486E+02  0.38225685793E+03  0.00000000000E+00 0. -1.
         -4    1    5    5    0  503  0.45266672408E+02  0.43983587996E+02  0.43826011770E+02  0.76839748513E+02  0.00000000000E+00 0.  1.
         -3    1    6    6    0  502  0.20722081556E+02  0.15874234770E+02  0.21581614241E+03  0.21738905980E+03  0.00000000000E+00 0.  1.
<mgrwt>
<rscale>  0 0.22143398E+04</rscale>
<asrwt>0</asrwt>
<pdfrwt beam="1">  1        2 0.23269720E+00 0.22143398E+04</pdfrwt>
<pdfrwt beam="2">  1       -2 0.12468399E+00 0.22143398E+04</pdfrwt>
<totfact> 0.55026822E+00</totfact>
</mgrwt>
</event>
<event>
12    1  0.1599266E-007  0.2132083E+04  0.7818608E-02  0.8547241E-01
         -1   -1    0    0    0  501 -0.00000000000E+00  0.00000000000E+00  0.38880434314E+03  0.38880434314E+03  0.00000000000E+00 0.  1.
          1   -1    0    0  501    0  0.00000000000E+00 -0.00000000000E+00 -0.29229204133E+04  0.29229204133E+04  0.00000000000E+00 0. -1.
         23    2    1    2    0    0  0.12462140217E+03 -0.79297702727E+03 -0.50763211374E+03  0.95373929154E+03  0.87093132078E+02 0.  0.
        254    2    1    2    0    0 -0.12462140217E+03  0.79297702727E+03 -0.20264839564E+04  0.23579854649E+04  0.89950829201E+03 0.  0.
        -24    2    4    4    0    0 -0.43614450442E+03  0.68193225280E+03 -0.10790905831E+04  0.13513778357E+04  0.80820430665E+02 0.  0.
         24    2    4    4    0    0  0.31152310225E+03  0.11104477448E+03 -0.94739337326E+03  0.10066076292E+04  0.79543260545E+02 0.  0.
         13    1    3    3    0    0 -0.11434224795E+02 -0.25516689266E+02 -0.19158529702E+02  0.33895312185E+02  0.00000000000E+00 0. -1.
        -13    1    3    3    0    0  0.13605562697E+03 -0.76746033801E+03 -0.48847358404E+03  0.91984397935E+03  0.00000000000E+00 0.  1.
          4    1    6    6  502    0  0.24521733134E+03  0.50579152526E+02 -0.69069190265E+03  0.73467346124E+03  0.00000000000E+00 0. -1.
          3    1    5    5  503    0 -0.42409211299E+03  0.67513582052E+03 -0.10437249267E+04  0.13134017737E+04  0.00000000000E+00 0. -1.
         -4    1    5    5    0  503 -0.12052391430E+02  0.67964322730E+01 -0.35365656442E+02  0.37976062018E+02  0.00000000000E+00 0.  1.
         -3    1    6    6    0  502  0.66305770909E+02  0.60465621950E+02 -0.25670147060E+03  0.27193416796E+03  0.00000000000E+00 0.  1.
<mgrwt>
<rscale>  0 0.21320827E+04</rscale>
<asrwt>0</asrwt>
<pdfrwt beam="1">  1        1 0.44968006E+00 0.21320827E+04</pdfrwt>
<pdfrwt beam="2">  1       -1 0.59816054E-01 0.21320827E+04</pdfrwt>
<totfact> 0.17691557E+00</totfact>
</mgrwt>
</event>
<event>
12    1  0.1599266E-007  0.1810000E+04  0.7818608E-02  0.8701000E-01
          1   -1    0    0  501    0  0.00000000000E+00  0.00000000000E+00  0.69259511326E+03  0.69259511326E+03  0.00000000000E+00 0. -1.
         -1   -1    0    0    0  501 -0.00000000000E+00 -0.00000000000E+00 -0.11825454045E+04  0.11825454045E+04  0.00000000000E+00 0.  1.
         23    2    1    2    0    0 -0.82753393276E+02  0.36951750188E+02  0.50563629925E+03  0.52188755570E+03  0.92114047414E+02 0.  0.
        254    2    1    2    0    0  0.82753393276E+02 -0.36951750188E+02 -0.99558659054E+03  0.13532529621E+04  0.91207859544E+03 0.  0.
        -24    2    4    4    0    0 -0.13259926300E+03 -0.27357244881E+03 -0.97271695626E+03  0.10224727040E+04  0.82750855748E+02 0.  0.
         24    2    4    4    0    0  0.21535265628E+03  0.23662069863E+03 -0.22869634284E+02  0.33078025812E+03  0.80786368908E+02 0.  0.
         11    1    3    3    0    0  0.87412294317E+01 -0.83013326812E+00  0.25332649055E+01  0.91386894192E+01  0.00000000000E+00 0.  1.
        -11    1    3    3    0    0 -0.91494622708E+02  0.37781883456E+02  0.50310303435E+03  0.51274886628E+03  0.00000000000E+00 0. -1.
          2    1    6    6  502    0  0.21305628156E+03  0.22350687524E+03 -0.54212637609E+01  0.30883279050E+03  0.00000000000E+00 0. -1.
          3    1    5    5  503    0 -0.13259844943E+03 -0.19107436584E+03 -0.71873715948E+03  0.75543025257E+03  0.00000000000E+00 0. -1.
         -4    1    5    5    0  503 -0.81357089187E-03 -0.82498082977E+02 -0.25397979678E+03  0.26704245143E+03  0.00000000000E+00 0.  1.
         -1    1    6    6    0  502  0.22963747252E+01  0.13113823390E+02 -0.17448370523E+02  0.21947467614E+02  0.00000000000E+00 0.  1.
<mgrwt>
<rscale>  0 0.18100002E+04</rscale>
<asrwt>0</asrwt>
<pdfrwt beam="1">  1        1 0.10655309E+00 0.18100002E+04</pdfrwt>
<pdfrwt beam="2">  1       -1 0.18193006E+00 0.18100002E+04</pdfrwt>
<totfact> 0.52616311E+00</totfact>
</mgrwt>
</event>
<event>
12    1  0.1599266E-007  0.1713418E+04  0.7818608E-02  0.8753748E-01
          1   -1    0    0  501    0  0.00000000000E+00  0.00000000000E+00  0.29743355391E+04  0.29743355391E+04  0.00000000000E+00 0. -1.
         -1   -1    0    0    0  501 -0.00000000000E+00 -0.00000000000E+00 -0.24676120971E+03  0.24676120971E+03  0.00000000000E+00 0.  1.
         23    2    1    2    0    0  0.10335946602E+03  0.55000065328E+03  0.50110558109E+03  0.75721343547E+03  0.95296829106E+02 0.  0.
        254    2    1    2    0    0 -0.10335946602E+03 -0.55000065328E+03  0.22264687483E+04  0.24638833134E+04  0.89463623709E+03 0.  0.
        -24    2    4    4    0    0  0.36159836154E+03 -0.13299263721E+03  0.57839715909E+03  0.69958865525E+03  0.80253325693E+02 0.  0.
         24    2    4    4    0    0 -0.46495782756E+03 -0.41700801607E+03  0.16480715892E+04  0.17642946581E+04  0.80710659060E+02 0.  0.
         11    1    3    3    0    0  0.95791863245E+02  0.53612949759E+03  0.45901268489E+03  0.71225245815E+03  0.00000000000E+00 0. -1.
        -11    1    3    3    0    0  0.75676027758E+01  0.13871155699E+02  0.42092896194E+02  0.44960977327E+02  0.00000000000E+00 0.  1.
          4    1    6    6  502    0 -0.13764216715E+03 -0.13779689958E+03  0.61875239115E+03  0.64868164246E+03  0.00000000000E+00 0. -1.
          3    1    5    5  503    0  0.27167280193E+03 -0.11554982672E+03  0.38118462667E+03  0.48214063651E+03  0.00000000000E+00 0. -1.
         -4    1    5    5    0  503  0.89925559607E+02 -0.17442810496E+02  0.19721253243E+03  0.21744801874E+03  0.00000000000E+00 0.  1.
         -3    1    6    6    0  502 -0.32731566041E+03 -0.27921111650E+03  0.10293191981E+04  0.11156130156E+04  0.00000000000E+00 0.  1.
<mgrwt>
<rscale>  0 0.17134184E+04</rscale>
<asrwt>0</asrwt>
<pdfrwt beam="1">  1        1 0.45759006E+00 0.17134184E+04</pdfrwt>
<pdfrwt beam="2">  1       -1 0.37963265E-01 0.17134184E+04</pdfrwt>
<totfact> 0.39895463E+00</totfact>
</mgrwt>
</event>
<event>
12    1  0.1599266E-007  0.3894167E+04  0.7818608E-02  0.8026243E-01
         -2   -1    0    0    0  501 -0.00000000000E+00  0.00000000000E+00  0.19794880838E+04  0.19794880838E+04  0.00000000000E+00 0.  1.
          2   -1    0    0  501    0  0.00000000000E+00 -0.00000000000E+00 -0.19152094614E+04  0.19152094614E+04  0.00000000000E+00 0. -1.
         23    2    1    2    0    0  0.17480208865E+04  0.27265912089E+03  0.54391184629E+03  0.18532350932E+04  0.93382002713E+02 0.  0.
        254    2    1    2    0    0 -0.17480208865E+04 -0.27265912089E+03 -0.47963322385E+03  0.20414624520E+04  0.89866617698E+03 0.  0.
        -24    2    4    4    0    0 -0.68139361934E+03 -0.37400143562E+03  0.15104999034E+03  0.79565334459E+03  0.77934631895E+02 0.  0.
         24    2    4    4    0    0 -0.10666272672E+04  0.10134231473E+03 -0.63068321419E+03  0.12458091074E+04  0.79467122976E+02 0.  0.
         11    1    3    3    0    0  0.16696301157E+04  0.26797245648E+03  0.53783730440E+03  0.17744697593E+04  0.00000000000E+00 0. -1.
        -11    1    3    3    0    0  0.78390770845E+02  0.46866644136E+01  0.60745418848E+01  0.78765333974E+02  0.00000000000E+00 0.  1.
          2    1    6    6  502    0 -0.13621310757E+03  0.39653421554E+02 -0.79266804345E+02  0.16251040209E+03  0.00000000000E+00 0. -1.
          1    1    5    5  503    0 -0.22609331692E+03 -0.13848935462E+03  0.16323809821E+02  0.26563876988E+03  0.00000000000E+00 0. -1.
         -2    1    5    5    0  503 -0.45530030242E+03 -0.23551208101E+03  0.13472618051E+03  0.53001457471E+03  0.00000000000E+00 0.  1.
         -1    1    6    6    0  502 -0.93041415959E+03  0.61688893179E+02 -0.55141640984E+03  0.10832987053E+04  0.00000000000E+00 0.  1.
<mgrwt>
<rscale>  0 0.38941671E+04</rscale>
<asrwt>0</asrwt>
<pdfrwt beam="1">  1        2 0.29464761E+00 0.38941671E+04</pdfrwt>
<pdfrwt beam="2">  1       -2 0.30453663E+00 0.38941671E+04</pdfrwt>
<totfact> 0.17664771E-01</totfact>
</mgrwt>
</event>
<event>
12    1  0.1599266E-007  0.1577728E+04  0.7818608E-02  0.8834349E-01
          1   -1    0    0  501    0  0.00000000000E+00  0.00000000000E+00  0.12712355838E+04  0.12712355838E+04  0.00000000000E+00 0. -1.
         -1   -1    0    0    0  501 -0.00000000000E+00 -0.00000000000E+00 -0.48952854498E+03  0.48952854498E+03  0.00000000000E+00 0.  1.
         23    2    1    2    0    0 -0.23930187265E+03  0.12468760814E+03 -0.23881354631E+03  0.37173492185E+03  0.91337595481E+02 0.  0.
        254    2    1    2    0    0  0.23930187265E+03 -0.12468760814E+03  0.10205205851E+04  0.13890292069E+04  0.90284411010E+03 0.  0.
        -24    2    4    4    0    0  0.19978828300E+03  0.35881863000E+03  0.29470461492E+03  0.51174049132E+03  0.79758091392E+02 0.  0.
         24    2    4    4    0    0  0.39513589645E+02 -0.48350623814E+03  0.72581597018E+03  0.87728871558E+03  0.86527809583E+02 0.  0.
         13    1    3    3    0    0 -0.12441710911E+03  0.33824339214E+02 -0.64863438515E+02  0.14432937545E+03  0.00000000000E+00 0. -1.
        -13    1    3    3    0    0 -0.11488476354E+03  0.90863268922E+02 -0.17395010779E+03  0.22740554640E+03  0.00000000000E+00 0.  1.
          2    1    6    6  502    0 -0.12604152734E+02 -0.33045797943E+03  0.50382816443E+03  0.60266421838E+03  0.00000000000E+00 0. -1.
          3    1    5    5  503    0  0.14925429442E+03  0.21453266491E+03  0.21985096371E+03  0.34151947962E+03  0.00000000000E+00 0. -1.
         -4    1    5    5    0  503  0.50533988577E+02  0.14428596509E+03  0.74853651204E+02  0.17022101170E+03  0.00000000000E+00 0.  1.
         -1    1    6    6    0  502  0.52117742379E+02 -0.15304825870E+03  0.22198780575E+03  0.27462449720E+03  0.00000000000E+00 0.  1.
<mgrwt>
<rscale>  0 0.15777276E+04</rscale>
<asrwt>0</asrwt>
<pdfrwt beam="1">  1        1 0.19557470E+00 0.15777276E+04</pdfrwt>
<pdfrwt beam="2">  1       -1 0.75312084E-01 0.15777276E+04</pdfrwt>
<totfact> 0.16162830E+01</totfact>
</mgrwt>
</event>
<event>
12    1  0.1599266E-007  0.1349707E+04  0.7818608E-02  0.8991050E-01
         -1   -1    0    0    0  501 -0.00000000000E+00  0.00000000000E+00  0.37277192044E+03  0.37277192044E+03  0.00000000000E+00 0.  1.
          1   -1    0    0  501    0  0.00000000000E+00 -0.00000000000E+00 -0.12217315339E+04  0.12217315339E+04  0.00000000000E+00 0. -1.
         23    2    1    2    0    0  0.10887866883E+03  0.34901232515E+03 -0.16406536972E+03  0.41095402844E+03  0.91113118247E+02 0.  0.
        254    2    1    2    0    0 -0.10887866883E+03 -0.34901232515E+03 -0.68489424378E+03  0.11835494259E+04  0.89333361676E+03 0.  0.
        -24    2    4    4    0    0 -0.92169021468E+02  0.29292691095E+03 -0.25834215917E+03  0.40839169740E+03  0.75774689876E+02 0.  0.
         24    2    4    4    0    0 -0.16709647357E+02 -0.64193923610E+03 -0.42655208462E+03  0.77515772853E+03  0.80979182796E+02 0.  0.
         13    1    3    3    0    0  0.58494273759E+02  0.27965084848E+03 -0.15419697052E+03  0.32465810145E+03  0.00000000000E+00 0. -1.
        -13    1    3    3    0    0  0.50384395067E+02  0.69361476669E+02 -0.98683991942E+01  0.86295926988E+02  0.00000000000E+00 0.  1.
          4    1    6    6  502    0  0.21800847887E+02 -0.19592404507E+03 -0.16199618941E+03  0.25515539145E+03  0.00000000000E+00 0. -1.
          1    1    5    5  503    0 -0.71554987405E+02  0.15540562220E+03 -0.10213081515E+03  0.19925292228E+03  0.00000000000E+00 0. -1.
         -2    1    5    5    0  503 -0.20614034063E+02  0.13752128876E+03 -0.15621134402E+03  0.20913877513E+03  0.00000000000E+00 0.  1.
         -3    1    6    6    0  502 -0.38510495245E+02 -0.44601519103E+03 -0.26455589521E+03  0.52000233708E+03  0.00000000000E+00 0.  1.
<mgrwt>
<rscale>  0 0.13497069E+04</rscale>
<asrwt>0</asrwt>
<pdfrwt beam="1">  1        1 0.18795870E+00 0.13497069E+04</pdfrwt>
<pdfrwt beam="2">  1       -1 0.57349526E-01 0.13497069E+04</pdfrwt>
<totfact> 0.31047755E+01</totfact>
</mgrwt>
</event>
<event>
12    1  0.1599266E-007  0.1911380E+04  0.7818608E-02  0.8649212E-01
         -2   -1    0    0    0  501 -0.00000000000E+00  0.00000000000E+00  0.12927876176E+04  0.12927876176E+04  0.00000000000E+00 0.  1.
          2   -1    0    0  501    0  0.00000000000E+00 -0.00000000000E+00 -0.70649150517E+03  0.70649150517E+03  0.00000000000E+00 0. -1.
         23    2    1    2    0    0  0.70168572865E+03  0.11289020804E+03  0.10027716069E+03  0.72362022324E+03  0.91998139482E+02 0.  0.
        254    2    1    2    0    0 -0.70168572865E+03 -0.11289020804E+03  0.48601895175E+03  0.12756588995E+04  0.94126730829E+03 0.  0.
        -24    2    4    4    0    0 -0.70982203717E+03 -0.24438885150E+03 -0.11045233854E+02  0.75515435336E+03  0.81011511614E+02 0.  0.
         24    2    4    4    0    0  0.81363085185E+01  0.13149864347E+03  0.49706418560E+03  0.52050454618E+03  0.80585887318E+02 0.  0.
         13    1    3    3    0    0  0.24767929432E+03  0.45208195794E+02 -0.83829290422E+01  0.25191087174E+03  0.00000000000E+00 0. -1.
        -13    1    3    3    0    0  0.45400643432E+03  0.67682012243E+02  0.10866008973E+03  0.47170935150E+03  0.00000000000E+00 0.  1.
          2    1    6    6  502    0 -0.14773850745E+02  0.24810799057E+02  0.33303127954E+02  0.44078801563E+02  0.00000000000E+00 0. -1.
          3    1    5    5  503    0 -0.13484421146E+03 -0.81114185334E+02 -0.16173477620E+01  0.15736927350E+03  0.00000000000E+00 0. -1.
         -4    1    5    5    0  503 -0.57497782571E+03 -0.16327466617E+03 -0.94278860918E+01  0.59778507986E+03  0.00000000000E+00 0.  1.
         -1    1    6    6    0  502  0.22910159263E+02  0.10668784441E+03  0.46376105765E+03  0.47642574462E+03  0.00000000000E+00 0.  1.
<mgrwt>
<rscale>  0 0.19113801E+04</rscale>
<asrwt>0</asrwt>
<pdfrwt beam="1">  1        2 0.10869100E+00 0.19113801E+04</pdfrwt>
<pdfrwt beam="2">  1       -2 0.19889040E+00 0.19113801E+04</pdfrwt>
<totfact> 0.51216194E+00</totfact>
</mgrwt>
</event>
<event>
12    1  0.1599266E-007  0.1302903E+04  0.7818608E-02  0.9027266E-01
          2   -1    0    0  501    0  0.00000000000E+00  0.00000000000E+00  0.11327004518E+04  0.11327004518E+04  0.00000000000E+00 0. -1.
         -2   -1    0    0    0  501 -0.00000000000E+00 -0.00000000000E+00 -0.37467029651E+03  0.37467029651E+03  0.00000000000E+00 0.  1.
         23    2    1    2    0    0  0.40403612918E+02  0.27429755630E+03  0.39383621075E+03  0.48997593019E+03  0.89988054438E+02 0.  0.
        254    2    1    2    0    0 -0.40403612918E+02 -0.27429755630E+03  0.36419394452E+03  0.10173948181E+04  0.90861619253E+03 0.  0.
        -24    2    4    4    0    0  0.13662606448E+03 -0.96130485677E+02  0.62206994589E+03  0.64889755863E+03  0.78671927908E+02 0.  0.
         24    2    4    4    0    0 -0.17702967740E+03 -0.17816707062E+03 -0.25787600138E+03  0.36849725946E+03  0.78785699288E+02 0.  0.
         13    1    3    3    0    0  0.66794014257E+02  0.17136220831E+03  0.27151240945E+03  0.32794120702E+03  0.00000000000E+00 0.  1.
        -13    1    3    3    0    0 -0.26390401339E+02  0.10293534799E+03  0.12232380130E+03  0.16203472317E+03  0.00000000000E+00 0. -1.
          4    1    6    6  502    0 -0.70923997578E+02 -0.32872262965E+02 -0.11350825813E+03  0.13782207286E+03  0.00000000000E+00 0. -1.
          1    1    5    5  503    0  0.11567475738E+03 -0.10044919534E+03  0.44698455315E+03  0.47251019153E+03  0.00000000000E+00 0. -1.
         -2    1    5    5    0  503  0.20951307095E+02  0.43187096634E+01  0.17508539274E+03  0.17638736710E+03  0.00000000000E+00 0.  1.
         -3    1    6    6    0  502 -0.10610567982E+03 -0.14529480766E+03 -0.14436774324E+03  0.23067518660E+03  0.00000000000E+00 0.  1.
<mgrwt>
<rscale>  0 0.13029032E+04</rscale>
<asrwt>0</asrwt>
<pdfrwt beam="1">  1        2 0.17426161E+00 0.13029032E+04</pdfrwt>
<pdfrwt beam="2">  1       -2 0.57641585E-01 0.13029032E+04</pdfrwt>
<totfact> 0.57452372E+01</totfact>
</mgrwt>
</event>
<event>
12    1  0.1599266E-007  0.2651804E+04  0.7818608E-02  0.8350815E-01
          1   -1    0    0  501    0  0.00000000000E+00  0.00000000000E+00  0.14501407492E+04  0.14501407492E+04  0.00000000000E+00 0. -1.
         -1   -1    0    0    0  501 -0.00000000000E+00 -0.00000000000E+00 -0.12123070790E+04  0.12123070790E+04  0.00000000000E+00 0.  1.
         23    2    1    2    0    0  0.17014285659E+03 -0.10128378112E+04 -0.43945235715E+03  0.11207071364E+04  0.89872619754E+02 0.  0.
        254    2    1    2    0    0 -0.17014285659E+03  0.10128378112E+04  0.67728602736E+03  0.15417406918E+04  0.92922493206E+03 0.  0.
        -24    2    4    4    0    0 -0.15932533703E+03  0.11433822937E+04  0.74138960871E+03  0.13743046065E+04  0.79667854538E+02 0.  0.
         24    2    4    4    0    0 -0.10817519563E+02 -0.13054448243E+03 -0.64103581344E+02  0.16743608530E+03  0.82259910625E+02 0.  0.
         13    1    3    3    0    0  0.87483419293E+02 -0.65419774121E+03 -0.24156802226E+03  0.70283934341E+03  0.00000000000E+00 0. -1.
        -13    1    3    3    0    0  0.82659437296E+02 -0.35864007003E+03 -0.19788433489E+03  0.41786779297E+03  0.00000000000E+00 0.  1.
          4    1    6    6  502    0 -0.45522524826E+02 -0.92721058339E+02 -0.44878429154E+02  0.11262134935E+03  0.00000000000E+00 0. -1.
          3    1    5    5  503    0 -0.15634508124E+03  0.89018884037E+03  0.58823921444E+03  0.10783808832E+04  0.00000000000E+00 0. -1.
         -4    1    5    5    0  503 -0.29802557826E+01  0.25319345330E+03  0.15315039427E+03  0.29592372326E+03  0.00000000000E+00 0.  1.
         -3    1    6    6    0  502  0.34705005263E+02 -0.37823424092E+02 -0.19225152190E+02  0.54814735948E+02  0.00000000000E+00 0.  1.
<mgrwt>
<rscale>  0 0.26518038E+04</rscale>
<asrwt>0</asrwt>
<pdfrwt beam="1">  1        1 0.22309858E+00 0.26518038E+04</pdfrwt>
<pdfrwt beam="2">  1       -1 0.18650878E+00 0.26518038E+04</pdfrwt>
<totfact> 0.11619062E+00</totfact>
</mgrwt>
</event>
<event>
12    1  0.1599266E-007  0.1678820E+04  0.7818608E-02  0.8773537E-01
          1   -1    0    0  501    0  0.00000000000E+00  0.00000000000E+00  0.17043500395E+04  0.17043500395E+04  0.00000000000E+00 0. -1.
         -1   -1    0    0    0  501 -0.00000000000E+00 -0.00000000000E+00 -0.41341799159E+03  0.41341799159E+03  0.00000000000E+00 0.  1.
         23    2    1    2    0    0  0.43662391531E+03  0.56319172163E+02  0.94408592089E+03  0.10457928496E+04  0.92585990557E+02 0.  0.
        254    2    1    2    0    0 -0.43662391531E+03 -0.56319172163E+02  0.34684612704E+03  0.10719751815E+04  0.91379224191E+03 0.  0.
        -24    2    4    4    0    0 -0.15808782668E+03  0.29160655458E+03 -0.17308329315E+03  0.38276243037E+03  0.80765760824E+02 0.  0.
         24    2    4    4    0    0 -0.27853608862E+03 -0.34792572674E+03  0.51992942019E+03  0.68921275115E+03  0.77800709345E+02 0.  0.
         11    1    3    3    0    0  0.69884099964E+02 -0.24532864573E+02  0.14269389197E+03  0.16077063064E+03  0.00000000000E+00 0.  1.
        -11    1    3    3    0    0  0.36673981534E+03  0.80852036736E+02  0.80139202892E+03  0.88502221894E+03  0.00000000000E+00 0. -1.
          2    1    6    6  502    0 -0.27242825777E+02 -0.66168943743E+01  0.41035675077E+02  0.49697902134E+02  0.00000000000E+00 0. -1.
          3    1    5    5  503    0 -0.57393331351E+02  0.58465325348E+02 -0.14061924303E+02  0.83125967463E+02  0.00000000000E+00 0. -1.
         -4    1    5    5    0  503 -0.10069449533E+03  0.23314122923E+03 -0.15902136884E+03  0.29963646291E+03  0.00000000000E+00 0.  1.
         -1    1    6    6    0  502 -0.25129326285E+03 -0.34130883237E+03  0.47889374511E+03  0.63951484901E+03  0.00000000000E+00 0.  1.
<mgrwt>
<rscale>  0 0.16788198E+04</rscale>
<asrwt>0</asrwt>
<pdfrwt beam="1">  1        1 0.26220769E+00 0.16788198E+04</pdfrwt>
<pdfrwt beam="2">  1       -1 0.63602769E-01 0.16788198E+04</pdfrwt>
<totfact> 0.11312922E+01</totfact>
</mgrwt>
</event>
<event>
12    1  0.1599266E-007  0.1646125E+04  0.7818608E-02  0.8792702E-01
         -2   -1    0    0    0  501 -0.00000000000E+00  0.00000000000E+00  0.41878541350E+03  0.41878541350E+03  0.00000000000E+00 0.  1.
          2   -1    0    0  501    0  0.00000000000E+00 -0.00000000000E+00 -0.16176111658E+04  0.16176111658E+04  0.00000000000E+00 0. -1.
         23    2    1    2    0    0  0.15429103629E+03  0.54930481945E+03 -0.30559672855E+03  0.65334738689E+03  0.89061433338E+02 0.  0.
        254    2    1    2    0    0 -0.15429103629E+03 -0.54930481945E+03 -0.89322902371E+03  0.13830491924E+04  0.88849618524E+03 0.  0.
        -24    2    4    4    0    0  0.32454856419E+03 -0.18056609144E+03 -0.11944828179E+03  0.39823066178E+03  0.79899211929E+02 0.  0.
         24    2    4    4    0    0 -0.47883960049E+03 -0.36873872801E+03 -0.77378074193E+03  0.98481853059E+03  0.76650434393E+02 0.  0.
         13    1    3    3    0    0  0.10969424392E+02  0.32084627795E+02 -0.46015704669E+02  0.57159397201E+02  0.00000000000E+00 0. -1.
        -13    1    3    3    0    0  0.14332161190E+03  0.51722019165E+03 -0.25958102388E+03  0.59618798969E+03  0.00000000000E+00 0.  1.
          2    1    6    6  502    0 -0.39592278545E+03 -0.33235750821E+03 -0.63043422643E+03  0.81526908389E+03  0.00000000000E+00 0. -1.
          1    1    5    5  503    0  0.26988033327E+03 -0.14839649559E+03 -0.65309214666E+02  0.31483679536E+03  0.00000000000E+00 0. -1.
         -2    1    5    5    0  503  0.54668230921E+02 -0.32169595844E+02 -0.54139067120E+02  0.83393866425E+02  0.00000000000E+00 0.  1.
         -1    1    6    6    0  502 -0.82916815036E+02 -0.36381219800E+02 -0.14334651550E+03  0.16954944670E+03  0.00000000000E+00 0.  1.
<mgrwt>
<rscale>  0 0.16461251E+04</rscale>
<asrwt>0</asrwt>
<pdfrwt beam="1">  1        2 0.24886325E+00 0.16461251E+04</pdfrwt>
<pdfrwt beam="2">  1       -2 0.64428526E-01 0.16461251E+04</pdfrwt>
<totfact> 0.23175300E+01</totfact>
</mgrwt>
</event>
<event>
12    1  0.1599266E-007  0.2072177E+04  0.7818608E-02  0.8573599E-01
          2   -1    0    0  501    0  0.00000000000E+00  0.00000000000E+00  0.15133749248E+04  0.15133749248E+04  0.00000000000E+00 0. -1.
         -2   -1    0    0    0  501 -0.00000000000E+00 -0.00000000000E+00 -0.70932842105E+03  0.70932842105E+03  0.00000000000E+00 0.  1.
         23    2    1    2    0    0 -0.24901926272E+03 -0.46121826672E+03 -0.37450240877E+03  0.65036767547E+03  0.89404565581E+02 0.  0.
        254    2    1    2    0    0  0.24901926272E+03  0.46121826672E+03  0.11785489125E+04  0.15723356703E+04  0.89918242774E+03 0.  0.
        -24    2    4    4    0    0  0.83284597894E+02 -0.79172455977E+01  0.10444455356E+04  0.10507892878E+04  0.79326183925E+02 0.  0.
         24    2    4    4    0    0  0.16573466483E+03  0.46913551232E+03  0.13410337691E+03  0.52154638259E+03  0.80441316796E+02 0.  0.
         13    1    3    3    0    0 -0.22008780177E+03 -0.39571496559E+03 -0.28218253699E+03  0.53353159106E+03  0.00000000000E+00 0.  1.
        -13    1    3    3    0    0 -0.28931460959E+02 -0.65503301130E+02 -0.92319871788E+02  0.11683608440E+03  0.00000000000E+00 0. -1.
          4    1    6    6  502    0  0.15032971492E+03  0.39262586425E+03  0.14040640940E+03  0.44324716836E+03  0.00000000000E+00 0. -1.
          1    1    5    5  503    0  0.28250640625E+02 -0.32079532013E+02  0.21739462825E+03  0.22155726000E+03  0.00000000000E+00 0. -1.
         -2    1    5    5    0  503  0.55033957270E+02  0.24162286415E+02  0.82705090733E+03  0.82923202775E+03  0.00000000000E+00 0.  1.
         -3    1    6    6    0  502  0.15404949914E+02  0.76509648075E+02 -0.63030324839E+01  0.78299214229E+02  0.00000000000E+00 0.  1.
<mgrwt>
<rscale>  0 0.20721774E+04</rscale>
<asrwt>0</asrwt>
<pdfrwt beam="1">  1        2 0.23282691E+00 0.20721774E+04</pdfrwt>
<pdfrwt beam="2">  1       -2 0.10912745E+00 0.20721774E+04</pdfrwt>
<totfact> 0.77188822E+00</totfact>
</mgrwt>
</event>
<event>
12    1  0.1599266E-007  0.1964094E+04  0.7818608E-02  0.8623594E-01
          1   -1    0    0  501    0  0.00000000000E+00  0.00000000000E+00  0.11952370855E+04  0.11952370855E+04  0.00000000000E+00 0. -1.
         -1   -1    0    0    0  501 -0.00000000000E+00 -0.00000000000E+00 -0.80688286096E+03  0.80688286096E+03  0.00000000000E+00 0.  1.
         23    2    1    2    0    0 -0.52277618831E+03 -0.10015243587E+03  0.72677235672E+03  0.90511935031E+03  0.87849452687E+02 0.  0.
        254    2    1    2    0    0  0.52277618831E+03  0.10015243587E+03 -0.33841813221E+03  0.10970005961E+04  0.89752884200E+03 0.  0.
        -24    2    4    4    0    0  0.18953535981E+03 -0.15630362529E+02 -0.61050657727E+03  0.64455958443E+03  0.81060570815E+02 0.  0.
         24    2    4    4    0    0  0.33324082849E+03  0.11578279840E+03  0.27208844506E+03  0.45244101169E+03  0.78839336261E+02 0.  0.
         11    1    3    3    0    0 -0.30946229566E+03 -0.56236099593E+02  0.50001028403E+03  0.59071117771E+03  0.00000000000E+00 0.  1.
        -11    1    3    3    0    0 -0.21331389264E+03 -0.43916336277E+02  0.22676207270E+03  0.31440817260E+03  0.00000000000E+00 0. -1.
          4    1    6    6  502    0  0.32144255916E+03  0.99999996613E+02  0.27190849496E+03  0.43273496253E+03  0.00000000000E+00 0. -1.
          3    1    5    5  503    0  0.14734454825E+03 -0.44473190022E+02 -0.49173955033E+03  0.51526310356E+03  0.00000000000E+00 0. -1.
         -4    1    5    5    0  503  0.42190811562E+02  0.28842827493E+02 -0.11876702694E+03  0.12929648087E+03  0.00000000000E+00 0.  1.
         -3    1    6    6    0  502  0.11798269333E+02  0.15782801786E+02  0.17995009981E+00  0.19706049160E+02  0.00000000000E+00 0.  1.
<mgrwt>
<rscale>  0 0.19640940E+04</rscale>
<asrwt>0</asrwt>
<pdfrwt beam="1">  1        1 0.18388263E+00 0.19640940E+04</pdfrwt>
<pdfrwt beam="2">  1       -1 0.12413582E+00 0.19640940E+04</pdfrwt>
<totfact> 0.57076206E+00</totfact>
</mgrwt>
</event>
<event>
12    1  0.1599266E-007  0.1290129E+04  0.7818608E-02  0.9037430E-01
          1   -1    0    0  501    0  0.00000000000E+00  0.00000000000E+00  0.89067478504E+03  0.89067478504E+03  0.00000000000E+00 0. -1.
         -1   -1    0    0    0  501 -0.00000000000E+00 -0.00000000000E+00 -0.46718289264E+03  0.46718289264E+03  0.00000000000E+00 0.  1.
         23    2    1    2    0    0  0.80182969321E+02 -0.47389905612E+02  0.39720795175E+03  0.41790704298E+03  0.90537439308E+02 0.  0.
        254    2    1    2    0    0 -0.80182969321E+02  0.47389905612E+02  0.26283940653E+02  0.93995063469E+03  0.93495520663E+03 0.  0.
        -24    2    4    4    0    0  0.67843518876E+02  0.14109558579E+03 -0.41917210635E+03  0.45467166926E+03  0.80686831056E+02 0.  0.
         24    2    4    4    0    0 -0.14802648820E+03 -0.93705680175E+02  0.44545604700E+03  0.48527896543E+03  0.79824737852E+02 0.  0.
         11    1    3    3    0    0  0.33481917689E+02  0.26318497845E+02  0.13563230876E+03  0.14216126519E+03  0.00000000000E+00 0.  1.
        -11    1    3    3    0    0  0.46701051632E+02 -0.73708403457E+02  0.26157564299E+03  0.27574577779E+03  0.00000000000E+00 0. -1.
          4    1    6    6  502    0 -0.14939866702E+03 -0.10354946024E+03  0.41068601223E+03  0.44911630238E+03  0.00000000000E+00 0. -1.
          1    1    5    5  503    0  0.19271421909E+02  0.10392995966E+03 -0.18939818844E+03  0.21689743659E+03  0.00000000000E+00 0. -1.
         -2    1    5    5    0  503  0.48572096966E+02  0.37165626131E+02 -0.22977391791E+03  0.23777423267E+03  0.00000000000E+00 0.  1.
         -1    1    6    6    0  502  0.13721788231E+01  0.98437800658E+01  0.34770034773E+02  0.36162663049E+02  0.00000000000E+00 0.  1.
<mgrwt>
<rscale>  0 0.12901287E+04</rscale>
<asrwt>0</asrwt>
<pdfrwt beam="1">  1        1 0.13702689E+00 0.12901287E+04</pdfrwt>
<pdfrwt beam="2">  1       -1 0.71874291E-01 0.12901287E+04</pdfrwt>
<totfact> 0.35588268E+01</totfact>
</mgrwt>
</event>
<event>
12    1  0.1599266E-007  0.1882930E+04  0.7818608E-02  0.8663400E-01
         -1   -1    0    0    0  501 -0.00000000000E+00  0.00000000000E+00  0.55973151996E+03  0.55973151996E+03  0.00000000000E+00 0.  1.
          1   -1    0    0  501    0  0.00000000000E+00 -0.00000000000E+00 -0.15835389830E+04  0.15835389830E+04  0.00000000000E+00 0. -1.
         23    2    1    2    0    0 -0.47957328531E+03  0.47362242813E+03 -0.69124766650E+03  0.96985559947E+03  0.92129294824E+02 0.  0.
        254    2    1    2    0    0  0.47957328531E+03 -0.47362242813E+03 -0.33255979657E+03  0.11734149035E+04  0.90110919266E+03 0.  0.
        -24    2    4    4    0    0  0.49030048120E+03 -0.58626997912E+03 -0.52896405579E+03  0.93285721870E+03  0.79451670079E+02 0.  0.
         24    2    4    4    0    0 -0.10727195890E+02  0.11264755099E+03  0.19640425922E+03  0.24055768482E+03  0.80553232141E+02 0.  0.
         11    1    3    3    0    0 -0.21114276065E+03  0.17818488348E+03 -0.22684842778E+03  0.35747912843E+03  0.00000000000E+00 0.  1.
        -11    1    3    3    0    0 -0.26843052466E+03  0.29543754465E+03 -0.46439923872E+03  0.61237647103E+03  0.00000000000E+00 0. -1.
          4    1    6    6  502    0  0.21028655964E+01 -0.11856874506E+02  0.30071710240E+02  0.32393136210E+02  0.00000000000E+00 0. -1.
          1    1    5    5  503    0  0.57726274940E+02 -0.74963010130E+02 -0.99201136883E+02  0.13708625484E+03  0.00000000000E+00 0. -1.
         -2    1    5    5    0  503  0.43257420626E+03 -0.51130696899E+03 -0.42976291891E+03  0.79577096386E+03  0.00000000000E+00 0.  1.
         -3    1    6    6    0  502 -0.12830061486E+02  0.12450442550E+03  0.16633254898E+03  0.20816454861E+03  0.00000000000E+00 0.  1.
<mgrwt>
<rscale>  0 0.18829304E+04</rscale>
<asrwt>0</asrwt>
<pdfrwt beam="1">  1        1 0.24362138E+00 0.18829304E+04</pdfrwt>
<pdfrwt beam="2">  1       -1 0.86112542E-01 0.18829304E+04</pdfrwt>
<totfact> 0.71417536E+00</totfact>
</mgrwt>
</event>
<event>
12    1  0.1599266E-007  0.2369738E+04  0.7818608E-02  0.8450921E-01
         -4   -1    0    0    0  501 -0.00000000000E+00  0.00000000000E+00  0.76730828294E+03  0.76730828294E+03  0.00000000000E+00 0. -1.
          4   -1    0    0  501    0  0.00000000000E+00 -0.00000000000E+00 -0.18296616705E+04  0.18296616705E+04  0.00000000000E+00 0.  1.
         23    2    1    2    0    0 -0.65848073668E+03 -0.34767976168E+03 -0.12096471108E+04  0.14235886649E+04  0.94236176122E+02 0.  0.
        254    2    1    2    0    0  0.65848073668E+03  0.34767976168E+03  0.14729372314E+03  0.11733812886E+04  0.89479053995E+03 0.  0.
        -24    2    4    4    0    0  0.14892319782E+03  0.56508292319E+03  0.16823243981E+03  0.61366046553E+03  0.82341874064E+02 0.  0.
         24    2    4    4    0    0  0.50955753886E+03 -0.21740316151E+03 -0.20938716673E+02  0.55972082310E+03  0.77045116072E+02 0.  0.
         13    1    3    3    0    0 -0.60950635465E+03 -0.29667415985E+03 -0.11232177881E+04  0.13119191107E+04  0.00000000000E+00 0.  1.
        -13    1    3    3    0    0 -0.48974382035E+02 -0.51005601824E+02 -0.86429322605E+02  0.11166955413E+03  0.00000000000E+00 0. -1.
          4    1    6    6  502    0  0.27552969063E+03 -0.15174631689E+03 -0.33507533566E+02  0.31633259382E+03  0.00000000000E+00 0. -1.
          1    1    5    5  503    0  0.17183956293E+02  0.84785815822E+02  0.56251303592E+02  0.10318978668E+03  0.00000000000E+00 0. -1.
         -2    1    5    5    0  503  0.13173924153E+03  0.48029710737E+03  0.11198113622E+03  0.51047067886E+03  0.00000000000E+00 0.  1.
         -3    1    6    6    0  502  0.23402784823E+03 -0.65656844622E+02  0.12568816892E+02  0.24338822927E+03  0.00000000000E+00 0.  1.
<mgrwt>
<rscale>  0 0.23697380E+04</rscale>
<asrwt>0</asrwt>
<pdfrwt beam="1">  1        4 0.28148641E+00 0.23697380E+04</pdfrwt>
<pdfrwt beam="2">  1       -4 0.11804743E+00 0.23697380E+04</pdfrwt>
<totfact> 0.39991924E-02</totfact>
</mgrwt>
</event>
<event>
12    1  0.1599266E-007  0.1225969E+04  0.7818608E-02  0.9090425E-01
          2   -1    0    0  501    0  0.00000000000E+00  0.00000000000E+00  0.12684911404E+04  0.12684911404E+04  0.00000000000E+00 0.  1.
         -2   -1    0    0    0  501 -0.00000000000E+00 -0.00000000000E+00 -0.29621814609E+03  0.29621814609E+03  0.00000000000E+00 0. -1.
         23    2    1    2    0    0 -0.24984053275E+03  0.83984930314E+02  0.15833898762E+03  0.32181997499E+03  0.94990004614E+02 0.  0.
        254    2    1    2    0    0  0.24984053275E+03 -0.83984930314E+02  0.81393400669E+03  0.12428893115E+04  0.90156059868E+03 0.  0.
        -24    2    4    4    0    0 -0.18834744915E+03  0.28966676475E+03  0.26087994084E+03  0.44036426229E+03  0.80503066850E+02 0.  0.
         24    2    4    4    0    0  0.43818798190E+03 -0.37365169506E+03  0.55305406585E+03  0.80252504921E+03  0.80952814379E+02 0.  0.
         11    1    3    3    0    0 -0.20416361568E+01  0.13347275112E+02 -0.74501719453E+01  0.15421513970E+02  0.00000000000E+00 0. -1.
        -11    1    3    3    0    0 -0.24779889659E+03  0.70637655202E+02  0.16578915957E+03  0.30639846102E+03  0.00000000000E+00 0.  1.
          2    1    6    6  502    0  0.61900971153E+01 -0.20897487241E+02  0.35503374369E+02  0.41659475115E+02  0.00000000000E+00 0. -1.
          1    1    5    5  503    0 -0.31162407410E+02  0.82555676943E+02  0.10522952241E+03  0.13733094268E+03  0.00000000000E+00 0. -1.
         -2    1    5    5    0  503 -0.15718504174E+03  0.20711108780E+03  0.15565041843E+03  0.30303331961E+03  0.00000000000E+00 0.  1.
         -1    1    6    6    0  502  0.43199788479E+03 -0.35275420782E+03  0.51755069148E+03  0.76086557410E+03  0.00000000000E+00 0.  1.
<mgrwt>
<rscale>  0 0.12259692E+04</rscale>
<asrwt>0</asrwt>
<pdfrwt beam="1">  1        2 0.19515248E+00 0.12259692E+04</pdfrwt>
<pdfrwt beam="2">  1       -2 0.45572023E-01 0.12259692E+04</pdfrwt>
<totfact> 0.77552006E+01</totfact>
</mgrwt>
</event>
<event>
12    1  0.1599266E-007  0.3094002E+04  0.7818608E-02  0.8217386E-01
         -1   -1    0    0    0  501 -0.00000000000E+00  0.00000000000E+00  0.85905203887E+03  0.85905203887E+03  0.00000000000E+00 0. -1.
          1   -1    0    0  501    0  0.00000000000E+00 -0.00000000000E+00 -0.27858762009E+04  0.27858762009E+04  0.00000000000E+00 0.  1.
         23    2    1    2    0    0  0.13693011051E+04 -0.37068548037E+03 -0.86756125035E+03  0.16653905566E+04  0.92032284124E+02 0.  0.
        254    2    1    2    0    0 -0.13693011051E+04  0.37068548037E+03 -0.10592629116E+04  0.19795376831E+04  0.88551582765E+03 0.  0.
        -24    2    4    4    0    0 -0.67505606056E+03 -0.20795362886E+03 -0.71820092395E+03  0.10103945324E+04  0.78352710140E+02 0.  0.
         24    2    4    4    0    0 -0.69424504452E+03  0.57863910923E+03 -0.34106198769E+03  0.96914315073E+03  0.78203366856E+02 0.  0.
         13    1    3    3    0    0  0.70612533795E+03 -0.19944078120E+03 -0.50170398096E+03  0.88887372704E+03  0.00000000000E+00 0. -1.
        -13    1    3    3    0    0  0.66317576713E+03 -0.17124469918E+03 -0.36585726939E+03  0.77651682961E+03  0.00000000000E+00 0.  1.
          4    1    6    6  502    0 -0.55864175763E+03  0.43209065052E+03 -0.24462465899E+03  0.74741164523E+03  0.00000000000E+00 0. -1.
          3    1    5    5  503    0 -0.15163757070E+03 -0.76685346541E+02 -0.19702245695E+03  0.26017771574E+03  0.00000000000E+00 0. -1.
         -4    1    5    5    0  503 -0.52341848986E+03 -0.13126828232E+03 -0.52117846700E+03  0.75021681662E+03  0.00000000000E+00 0.  1.
         -3    1    6    6    0  502 -0.13560328689E+03  0.14654845871E+03 -0.96437328701E+02  0.22173150550E+03  0.00000000000E+00 0.  1.
<mgrwt>
<rscale>  0 0.30940023E+04</rscale>
<asrwt>0</asrwt>
<pdfrwt beam="1">  1        1 0.42859634E+00 0.30940023E+04</pdfrwt>
<pdfrwt beam="2">  1       -1 0.13216185E+00 0.30940023E+04</pdfrwt>
<totfact> 0.35000721E-01</totfact>
</mgrwt>
</event>
<event>
12    1  0.1599266E-007  0.1197312E+04  0.7818608E-02  0.9115213E-01
          1   -1    0    0  501    0  0.00000000000E+00  0.00000000000E+00  0.44194200641E+03  0.44194200641E+03  0.00000000000E+00 0. -1.
         -1   -1    0    0    0  501 -0.00000000000E+00 -0.00000000000E+00 -0.81094074346E+03  0.81094074346E+03  0.00000000000E+00 0.  1.
         23    2    1    2    0    0 -0.59966830126E+02  0.61828139725E+02  0.15080564565E+03  0.19656047219E+03  0.92059420436E+02 0.  0.
        254    2    1    2    0    0  0.59966830126E+02 -0.61828139725E+02 -0.51980438270E+03  0.10563222777E+04  0.91553340652E+03 0.  0.
        -24    2    4    4    0    0  0.23584864724E+03  0.35864002485E+03 -0.14274190703E+03  0.45945082700E+03  0.80452212988E+02 0.  0.
         24    2    4    4    0    0 -0.17588181712E+03 -0.42046816457E+03 -0.37706247567E+03  0.59687145068E+03  0.79696468372E+02 0.  0.
         11    1    3    3    0    0 -0.45414312121E+02  0.13316171551E+02  0.13568818172E+03  0.14370477664E+03  0.00000000000E+00 0. -1.
        -11    1    3    3    0    0 -0.14552518005E+02  0.48511968174E+02  0.15117463925E+02  0.52855695548E+02  0.00000000000E+00 0.  1.
          4    1    6    6  502    0 -0.13305949826E+03 -0.26801323782E+03 -0.20318005051E+03  0.36168779168E+03  0.00000000000E+00 0. -1.
          3    1    5    5  503    0  0.21968618197E+03  0.35674744999E+03 -0.12965123915E+03  0.43856607876E+03  0.00000000000E+00 0. -1.
         -4    1    5    5    0  503  0.16162465269E+02  0.18925748541E+01 -0.13090667886E+02  0.20884748235E+02  0.00000000000E+00 0.  1.
         -1    1    6    6    0  502 -0.42822318858E+02 -0.15245492675E+03 -0.17388242516E+03  0.23518365900E+03  0.00000000000E+00 0.  1.
<mgrwt>
<rscale>  0 0.11973116E+04</rscale>
<asrwt>0</asrwt>
<pdfrwt beam="1">  1        1 0.67991079E-01 0.11973116E+04</pdfrwt>
<pdfrwt beam="2">  1       -1 0.12476011E+00 0.11973116E+04</pdfrwt>
<totfact> 0.29218609E+01</totfact>
</mgrwt>
</event>
<event>
12    1  0.1599266E-007  0.2335568E+04  0.7818608E-02  0.8464028E-01
          1   -1    0    0  501    0  0.00000000000E+00  0.00000000000E+00  0.61180383685E+03  0.61180383685E+03  0.00000000000E+00 0. -1.
         -1   -1    0    0    0  501 -0.00000000000E+00 -0.00000000000E+00 -0.22290134885E+04  0.22290134885E+04  0.00000000000E+00 0.  1.
         23    2    1    2    0    0  0.41175618181E+03  0.97009737750E+02 -0.17772696231E+04  0.18293040781E+04  0.93338387863E+02 0.  0.
        254    2    1    2    0    0 -0.41175618181E+03 -0.97009737750E+02  0.16005997141E+03  0.10115132472E+04  0.90475732239E+03 0.  0.
        -24    2    4    4    0    0 -0.59435826919E+03 -0.32490406179E+03  0.28665227810E+02  0.68276739351E+03  0.80778814300E+02 0.  0.
         24    2    4    4    0    0  0.18260208738E+03  0.22789432404E+03  0.13139474360E+03  0.32874585373E+03  0.74363381146E+02 0.  0.
         11    1    3    3    0    0  0.23611952521E+03  0.93354676733E+02 -0.11639051040E+04  0.11912777245E+04  0.00000000000E+00 0. -1.
        -11    1    3    3    0    0  0.17563665660E+03  0.36550610173E+01 -0.61336451911E+03  0.63802635362E+03  0.00000000000E+00 0.  1.
          4    1    6    6  502    0  0.98249217128E+02  0.66068543840E+02  0.60589370877E+02  0.13300012412E+03  0.00000000000E+00 0. -1.
          3    1    5    5  503    0 -0.12847628278E+02  0.25835454281E+01  0.73866799323E+01  0.15043247647E+02  0.00000000000E+00 0. -1.
         -4    1    5    5    0  503 -0.58151064091E+03 -0.32748760722E+03  0.21278547877E+02  0.66772414586E+03  0.00000000000E+00 0.  1.
         -3    1    6    6    0  502  0.84352870250E+02  0.16182578020E+03  0.70805372727E+02  0.19574572962E+03  0.00000000000E+00 0.  1.
<mgrwt>
<rscale>  0 0.23355676E+04</rscale>
<asrwt>0</asrwt>
<pdfrwt beam="1">  1        1 0.94123665E-01 0.23355676E+04</pdfrwt>
<pdfrwt beam="2">  1       -1 0.34292516E+00 0.23355676E+04</pdfrwt>
<totfact> 0.51951037E-01</totfact>
</mgrwt>
</event>
<event>
12    1  0.1599266E-007  0.3456886E+04  0.7818608E-02  0.8124084E-01
          2   -1    0    0  501    0  0.00000000000E+00  0.00000000000E+00  0.20748194445E+04  0.20748194445E+04  0.00000000000E+00 0. -1.
         -2   -1    0    0    0  501 -0.00000000000E+00 -0.00000000000E+00 -0.14398913324E+04  0.14398913324E+04  0.00000000000E+00 0.  1.
         23    2    1    2    0    0  0.24452386882E+03 -0.10522185411E+03 -0.13200032080E+04  0.13495365944E+04  0.89313993175E+02 0.  0.
        254    2    1    2    0    0 -0.24452386882E+03  0.10522185411E+03  0.19549313201E+04  0.21651741825E+04  0.89182913910E+03 0.  0.
        -24    2    4    4    0    0 -0.54721903679E+03  0.18835037131E+03  0.14642022991E+04  0.15764001994E+04  0.78896636712E+02 0.  0.
         24    2    4    4    0    0  0.30269516798E+03 -0.83128517203E+02  0.49072902102E+03  0.58877398316E+03  0.85469971888E+02 0.  0.
         13    1    3    3    0    0  0.23425655091E+03 -0.72409325192E+02 -0.11947522149E+04  0.12196524493E+04  0.00000000000E+00 0.  1.
        -13    1    3    3    0    0  0.10267317911E+02 -0.32812528918E+02 -0.12525099312E+03  0.12988414510E+03  0.00000000000E+00 0. -1.
          2    1    6    6  502    0  0.16224281736E+03 -0.79150107389E+02  0.32249416826E+03  0.36958078933E+03  0.00000000000E+00 0. -1.
          1    1    5    5  503    0 -0.40802097611E+03  0.15954780533E+03  0.10229692776E+04  0.11128354605E+04  0.00000000000E+00 0. -1.
         -2    1    5    5    0  503 -0.13919806069E+03  0.28802565981E+02  0.44123302149E+03  0.46356473891E+03  0.00000000000E+00 0.  1.
         -1    1    6    6    0  502  0.14045235062E+03 -0.39784098139E+01  0.16823485276E+03  0.21919319383E+03  0.00000000000E+00 0.  1.
<mgrwt>
<rscale>  0 0.34568856E+04</rscale>
<asrwt>0</asrwt>
<pdfrwt beam="1">  1        2 0.31920299E+00 0.34568856E+04</pdfrwt>
<pdfrwt beam="2">  1       -2 0.22152174E+00 0.34568856E+04</pdfrwt>
<totfact> 0.48382843E-01</totfact>
</mgrwt>
</event>
<event>
12    1  0.1599266E-007  0.1157131E+04  0.7818608E-02  0.9151230E-01
         -2   -1    0    0    0  501 -0.00000000000E+00  0.00000000000E+00  0.12383945390E+03  0.12383945390E+03  0.00000000000E+00 0.  1.
          2   -1    0    0  501    0  0.00000000000E+00 -0.00000000000E+00 -0.27030001058E+04  0.27030001058E+04  0.00000000000E+00 0. -1.
         23    2    1    2    0    0 -0.70974999241E+02  0.41882216075E+02 -0.39560181088E+02  0.12940541812E+03  0.91592487522E+02 0.  0.
        254    2    1    2    0    0  0.70974999241E+02 -0.41882216075E+02 -0.25396004709E+04  0.26974341416E+04  0.90542190515E+03 0.  0.
        -24    2    4    4    0    0  0.10523712406E+03  0.34939715401E+03 -0.19431237982E+04  0.19787295827E+04  0.80544661605E+02 0.  0.
         24    2    4    4    0    0 -0.34262124817E+02 -0.39127937008E+03 -0.59647667263E+03  0.71870455898E+03  0.80488405737E+02 0.  0.
         13    1    3    3    0    0 -0.76877358908E+02 -0.36504338727E+01 -0.29349135497E+02  0.82370053627E+02  0.00000000000E+00 0. -1.
        -13    1    3    3    0    0  0.59023596673E+01  0.45532649948E+02 -0.10211045591E+02  0.47035364493E+02  0.00000000000E+00 0.  1.
          4    1    6    6  502    0 -0.33789154606E+02 -0.29508416490E+03 -0.38395560407E+03  0.48542587204E+03  0.00000000000E+00 0. -1.
          3    1    5    5  503    0  0.85128668275E+02  0.14834949590E+03 -0.94668463008E+03  0.96201156538E+03  0.00000000000E+00 0. -1.
         -4    1    5    5    0  503  0.20108455782E+02  0.20104765811E+03 -0.99643916815E+03  0.10167180173E+04  0.00000000000E+00 0.  1.
         -3    1    6    6    0  502 -0.47297021065E+00 -0.96195205178E+02 -0.21252106856E+03  0.23327868694E+03  0.00000000000E+00 0.  1.
<mgrwt>
<rscale>  0 0.11571310E+04</rscale>
<asrwt>0</asrwt>
<pdfrwt beam="1">  1        2 0.41584615E+00 0.11571310E+04</pdfrwt>
<pdfrwt beam="2">  1       -2 0.19052225E-01 0.11571310E+04</pdfrwt>
<totfact> 0.61546673E+01</totfact>
</mgrwt>
</event>
<event>
12    1  0.1599266E-007  0.1872291E+04  0.7818608E-02  0.8668773E-01
          2   -1    0    0  501    0  0.00000000000E+00  0.00000000000E+00  0.56531725413E+03  0.56531725413E+03  0.00000000000E+00 0. -1.
         -2   -1    0    0    0  501 -0.00000000000E+00 -0.00000000000E+00 -0.15502244600E+04  0.15502244600E+04  0.00000000000E+00 0.  1.
         23    2    1    2    0    0 -0.14313945131E+03  0.69177612618E+03 -0.24026065683E+03  0.75180324896E+03  0.91868550903E+02 0.  0.
        254    2    1    2    0    0  0.14313945131E+03 -0.69177612618E+03 -0.74464654907E+03  0.13637384652E+04  0.89790924216E+03 0.  0.
        -24    2    4    4    0    0  0.86502449128E+02 -0.74258036676E+03 -0.90040663256E+03  0.11730142728E+04  0.79511668311E+02 0.  0.
         24    2    4    4    0    0  0.56637002179E+02  0.50804240574E+02  0.15576008350E+03  0.19072419241E+03  0.79534225872E+02 0.  0.
         13    1    3    3    0    0 -0.13320322078E+03  0.56386942049E+03 -0.22905303782E+03  0.62302256422E+03  0.00000000000E+00 0. -1.
        -13    1    3    3    0    0 -0.99362305302E+01  0.12790670569E+03 -0.11207619012E+02  0.12878068474E+03  0.00000000000E+00 0.  1.
          4    1    6    6  502    0 -0.45190523220E+00 -0.16933509038E+02  0.86985525098E+01  0.19042393821E+02  0.00000000000E+00 0. -1.
          3    1    5    5  503    0  0.71949177968E+02 -0.61086662818E+03 -0.69001031079E+03  0.92436407905E+03  0.00000000000E+00 0. -1.
         -2    1    5    5    0  503  0.14553271160E+02 -0.13171373858E+03 -0.21039632177E+03  0.24865019374E+03  0.00000000000E+00 0.  1.
         -3    1    6    6    0  502  0.57088907411E+02  0.67737749612E+02  0.14706153099E+03  0.17168179859E+03  0.00000000000E+00 0.  1.
<mgrwt>
<rscale>  0 0.18722913E+04</rscale>
<asrwt>0</asrwt>
<pdfrwt beam="1">  1        2 0.86971885E-01 0.18722913E+04</pdfrwt>
<pdfrwt beam="2">  1       -2 0.23849607E+00 0.18722913E+04</pdfrwt>
<totfact> 0.37835399E+00</totfact>
</mgrwt>
</event>
<event>
12    1  0.1599266E-007  0.1990129E+04  0.7818608E-02  0.8611249E-01
          1   -1    0    0  501    0  0.00000000000E+00  0.00000000000E+00  0.19037577964E+04  0.19037577964E+04  0.00000000000E+00 0. -1.
         -1   -1    0    0    0  501 -0.00000000000E+00 -0.00000000000E+00 -0.52010489453E+03  0.52010489453E+03  0.00000000000E+00 0.  1.
         23    2    1    2    0    0  0.22222549560E+03 -0.74131321584E+03  0.36783522666E+03  0.86155675299E+03  0.89709697251E+02 0.  0.
        254    2    1    2    0    0 -0.22222549560E+03  0.74131321584E+03  0.10158176752E+04  0.15623059379E+04  0.89999157747E+03 0.  0.
        -24    2    4    4    0    0 -0.49841016869E+03  0.17225476400E+03  0.33646456858E+03  0.63046618597E+03  0.78707088351E+02 0.  0.
         24    2    4    4    0    0  0.27618467309E+03  0.56905845183E+03  0.67935310659E+03  0.93183975193E+03  0.81848546676E+02 0.  0.
         11    1    3    3    0    0  0.19987413181E+03 -0.68096057818E+03  0.30786274608E+03  0.77358674240E+03  0.00000000000E+00 0.  1.
        -11    1    3    3    0    0  0.22351363791E+02 -0.60352637659E+02  0.59972480577E+02  0.87970010584E+02  0.00000000000E+00 0. -1.
          4    1    6    6  502    0  0.16066421412E+03  0.31443731424E+03  0.32006931251E+03  0.47657966710E+03  0.00000000000E+00 0. -1.
          3    1    5    5  503    0 -0.29963240401E+02 -0.11075855144E+00  0.39769720853E+02  0.49793962882E+02  0.00000000000E+00 0. -1.
         -4    1    5    5    0  503 -0.46844692829E+03  0.17236552256E+03  0.29669484773E+03  0.58067222308E+03  0.00000000000E+00 0.  1.
         -3    1    6    6    0  502  0.11552045897E+03  0.25462113759E+03  0.35928379408E+03  0.45526008483E+03  0.00000000000E+00 0.  1.
<mgrwt>
<rscale>  0 0.19901294E+04</rscale>
<asrwt>0</asrwt>
<pdfrwt beam="1">  1        1 0.29288581E+00 0.19901294E+04</pdfrwt>
<pdfrwt beam="2">  1       -1 0.80016138E-01 0.19901294E+04</pdfrwt>
<totfact> 0.50137175E+00</totfact>
</mgrwt>
</event>
<event>
12    1  0.1599266E-007  0.1119013E+04  0.7818608E-02  0.9186856E-01
         -2   -1    0    0    0  501 -0.00000000000E+00  0.00000000000E+00  0.45345102467E+03  0.45345102467E+03  0.00000000000E+00 0.  1.
          2   -1    0    0  501    0  0.00000000000E+00 -0.00000000000E+00 -0.69036649157E+03  0.69036649157E+03  0.00000000000E+00 0. -1.
         23    2    1    2    0    0  0.87698048429E+02 -0.17628547851E+03 -0.12725314649E+03  0.25071832779E+03  0.88875187569E+02 0.  0.
        254    2    1    2    0    0 -0.87698048429E+02  0.17628547851E+03 -0.10966232041E+03  0.89309918845E+03  0.86419489600E+03 0.  0.
        -24    2    4    4    0    0  0.26452612753E+03  0.14150841359E+03  0.23754466449E+03  0.39112363145E+03  0.80941486170E+02 0.  0.
         24    2    4    4    0    0 -0.35222417596E+03  0.34777064919E+02 -0.34720698490E+03  0.50197555701E+03  0.78456708423E+02 0.  0.
         11    1    3    3    0    0  0.88666681581E+02 -0.17999549595E+03 -0.13516300805E+03  0.24192808379E+03  0.00000000000E+00 0. -1.
        -11    1    3    3    0    0 -0.96863315257E+00  0.37100174341E+01  0.79098615616E+01  0.87902439937E+01  0.00000000000E+00 0.  1.
          2    1    6    6  502    0 -0.82830576695E+01  0.13337168431E+02 -0.28726442009E+02  0.32736792399E+02  0.00000000000E+00 0. -1.
          3    1    5    5  503    0  0.46086139550E+02  0.60658391707E+02  0.41934433934E+02  0.86959010416E+02  0.00000000000E+00 0. -1.
         -4    1    5    5    0  503  0.21843998798E+03  0.80850021885E+02  0.19561023055E+03  0.30416462103E+03  0.00000000000E+00 0.  1.
         -1    1    6    6    0  502 -0.34394111829E+03  0.21439896488E+02 -0.31848054289E+03  0.46923876461E+03  0.00000000000E+00 0.  1.
<mgrwt>
<rscale>  0 0.11190128E+04</rscale>
<asrwt>0</asrwt>
<pdfrwt beam="1">  1        2 0.10621023E+00 0.11190128E+04</pdfrwt>
<pdfrwt beam="2">  1       -2 0.69761696E-01 0.11190128E+04</pdfrwt>
<totfact> 0.77493378E+01</totfact>
</mgrwt>
</event>
<event>
12    1  0.1599266E-007  0.1625225E+04  0.7818608E-02  0.8805200E-01
         -1   -1    0    0    0  501 -0.00000000000E+00  0.00000000000E+00  0.60974615612E+03  0.60974615612E+03  0.00000000000E+00 0.  1.
          1   -1    0    0  501    0  0.00000000000E+00 -0.00000000000E+00 -0.10829735046E+04  0.10829735046E+04  0.00000000000E+00 0. -1.
         23    2    1    2    0    0  0.33037638740E+03  0.39841768887E+03 -0.37125194740E+03  0.64349460111E+03  0.91499076743E+02 0.  0.
        254    2    1    2    0    0 -0.33037638740E+03 -0.39841768887E+03 -0.10197540103E+03  0.10492250596E+04  0.90696694043E+03 0.  0.
        -24    2    4    4    0    0  0.41911934034E+02 -0.57934366683E+03  0.76806169154E+02  0.59135983497E+03  0.80072294140E+02 0.  0.
         24    2    4    4    0    0 -0.37228832144E+03  0.18092597795E+03 -0.17878157019E+03  0.45786522459E+03  0.79654945071E+02 0.  0.
         13    1    3    3    0    0  0.16847245820E+03  0.25139831745E+03 -0.17458565183E+03  0.34937692113E+03  0.00000000000E+00 0.  1.
        -13    1    3    3    0    0  0.16190392920E+03  0.14701937142E+03 -0.19666629557E+03  0.29411767998E+03  0.00000000000E+00 0. -1.
          4    1    6    6  502    0 -0.35405046466E+03  0.16362798729E+03 -0.14579226185E+03  0.41639072200E+03  0.00000000000E+00 0. -1.
          3    1    5    5  503    0  0.26894795073E+02 -0.39391837423E+03  0.14254131550E+02  0.39509264208E+03  0.00000000000E+00 0. -1.
         -4    1    5    5    0  503  0.15017138961E+02 -0.18542529260E+03  0.62552037604E+02  0.19626719289E+03  0.00000000000E+00 0.  1.
         -1    1    6    6    0  502 -0.18237856774E+02  0.17297990665E+02 -0.32989308334E+02  0.41474502590E+02  0.00000000000E+00 0.  1.
<mgrwt>
<rscale>  0 0.16252248E+04</rscale>
<asrwt>0</asrwt>
<pdfrwt beam="1">  1        1 0.16661131E+00 0.16252248E+04</pdfrwt>
<pdfrwt beam="2">  1       -1 0.93807101E-01 0.16252248E+04</pdfrwt>
<totfact> 0.13778477E+01</totfact>
</mgrwt>
</event>
<event>
12    1  0.1599266E-007  0.1381873E+04  0.7818608E-02  0.8967045E-01
         -1   -1    0    0    0  501 -0.00000000000E+00  0.00000000000E+00  0.61530632897E+03  0.61530632897E+03  0.00000000000E+00 0.  1.
          1   -1    0    0  501    0  0.00000000000E+00 -0.00000000000E+00 -0.77586298308E+03  0.77586298308E+03  0.00000000000E+00 0. -1.
         23    2    1    2    0    0 -0.12492806686E+03 -0.15038832301E+03 -0.38909026458E+03  0.44486509021E+03  0.91049683727E+02 0.  0.
        254    2    1    2    0    0  0.12492806686E+03  0.15038832301E+03  0.22853361047E+03  0.94630422184E+03  0.89724043577E+03 0.  0.
        -24    2    4    4    0    0 -0.29788242383E+03  0.31508716020E+03  0.26455592189E+02  0.44212242385E+03  0.82209989425E+02 0.  0.
         24    2    4    4    0    0  0.42281049070E+03 -0.16469883719E+03  0.20207801828E+03  0.50418179800E+03  0.86425354757E+02 0.  0.
         11    1    3    3    0    0 -0.77394249882E+02 -0.29157769316E+02 -0.11769951000E+03  0.14385138192E+03  0.00000000000E+00 0. -1.
        -11    1    3    3    0    0 -0.47533816983E+02 -0.12123055369E+03 -0.27139075458E+03  0.30101370828E+03  0.00000000000E+00 0.  1.
          2    1    6    6  502    0  0.29681246114E+03 -0.11256330419E+03  0.18323231752E+03  0.36652723872E+03  0.00000000000E+00 0. -1.
          1    1    5    5  503    0 -0.18481896129E+03  0.14237661879E+03 -0.47544354654E+01  0.23334899761E+03  0.00000000000E+00 0. -1.
         -2    1    5    5    0  503 -0.11306346254E+03  0.17271054141E+03  0.31210027655E+02  0.20877342624E+03  0.00000000000E+00 0.  1.
         -1    1    6    6    0  502  0.12599802955E+03 -0.52135533005E+02  0.18845700759E+02  0.13765455928E+03  0.00000000000E+00 0.  1.
<mgrwt>
<rscale>  0 0.13818732E+04</rscale>
<asrwt>0</asrwt>
<pdfrwt beam="1">  1        1 0.11936354E+00 0.13818732E+04</pdfrwt>
<pdfrwt beam="2">  1       -1 0.94662513E-01 0.13818732E+04</pdfrwt>
<totfact> 0.24481554E+01</totfact>
</mgrwt>
</event>
<event>
12    1  0.1782487E-007  0.2445537E+04  0.7818608E-02  0.8422649E-01
          1   -1    0    0  501    0  0.00000000000E+00  0.00000000000E+00  0.13441826212E+04  0.13441826212E+04  0.00000000000E+00 0. -1.
         -1   -1    0    0    0  501 -0.00000000000E+00 -0.00000000000E+00 -0.11123212461E+04  0.11123212461E+04  0.00000000000E+00 0.  1.
         23    2    1    2    0    0 -0.10329045275E+03 -0.20708659563E+03  0.11341964526E+04  0.11610266918E+04  0.89596931967E+02 0.  0.
        254    2    1    2    0    0  0.10329045275E+03  0.20708659563E+03 -0.90233507753E+03  0.12954771755E+04  0.90027703756E+03 0.  0.
        -24    2    4    4    0    0  0.20873670248E+01  0.10233068259E+03 -0.10596087994E+04  0.10675417457E+04  0.79991533914E+02 0.  0.
         24    2    4    4    0    0  0.10120308573E+03  0.10475591304E+03  0.15727372185E+03  0.22793542975E+03  0.77483357395E+02 0.  0.
         11    1    3    3    0    0 -0.90320038522E+02 -0.20181296463E+03  0.11178367989E+04  0.11394934361E+04  0.00000000000E+00 0. -1.
        -11    1    3    3    0    0 -0.12970414231E+02 -0.52736310021E+01  0.16359653734E+02  0.21533255666E+02  0.00000000000E+00 0.  1.
          2    1    6    6  502    0  0.10710607779E+03  0.10035379380E+03  0.11898347090E+03  0.18894354230E+03  0.00000000000E+00 0. -1.
          1    1    5    5  503    0 -0.34314587090E+02  0.21730213139E+02 -0.39258639713E+03  0.39468186209E+03  0.00000000000E+00 0. -1.
         -2    1    5    5    0  503  0.36401954115E+02  0.80600469455E+02 -0.66702240224E+03  0.67285988366E+03  0.00000000000E+00 0.  1.
         -3    1    6    6    0  502 -0.59029920653E+01  0.44021192420E+01  0.38290250945E+02  0.38991887446E+02  0.00000000000E+00 0.  1.
<mgrwt>
<rscale>  0 0.24455371E+04</rscale>
<asrwt>0</asrwt>
<pdfrwt beam="1">  1        1 0.20679733E+00 0.24455371E+04</pdfrwt>
<pdfrwt beam="2">  1       -1 0.17112635E+00 0.24455371E+04</pdfrwt>
<totfact> 0.18130380E+00</totfact>
</mgrwt>
</event>
<event>
12    1  0.1599266E-007  0.1856088E+04  0.7818608E-02  0.8677028E-01
          1   -1    0    0  501    0  0.00000000000E+00  0.00000000000E+00  0.12797233816E+04  0.12797233816E+04  0.00000000000E+00 0. -1.
         -1   -1    0    0    0  501 -0.00000000000E+00 -0.00000000000E+00 -0.67300939888E+03  0.67300939888E+03  0.00000000000E+00 0.  1.
         23    2    1    2    0    0 -0.41678268675E+03 -0.43502324367E+03 -0.14392949946E+03  0.62645321959E+03  0.93674462969E+02 0.  0.
        254    2    1    2    0    0  0.41678268675E+03  0.43502324367E+03  0.75064348219E+03  0.13262795609E+04  0.91246852320E+03 0.  0.
        -24    2    4    4    0    0 -0.11486086493E+03  0.26540071740E+03  0.69853642834E+03  0.76032061281E+03  0.80645728055E+02 0.  0.
         24    2    4    4    0    0  0.53164355168E+03  0.16962252626E+03  0.52107053846E+02  0.56595894810E+03  0.78598463141E+02 0.  0.
         11    1    3    3    0    0 -0.65756971437E+01 -0.17127750644E+02 -0.21402194960E+02  0.28189600638E+02  0.00000000000E+00 0. -1.
        -11    1    3    3    0    0 -0.41020698961E+03 -0.41789549302E+03 -0.12252730450E+03  0.59826361895E+03  0.00000000000E+00 0.  1.
          2    1    6    6  502    0  0.41783749570E+03  0.16463955667E+03  0.51454861695E+02  0.45204198834E+03  0.00000000000E+00 0. -1.
          1    1    5    5  503    0 -0.54355656937E+02  0.19967226508E+03  0.54082151383E+03  0.57906084370E+03  0.00000000000E+00 0. -1.
         -2    1    5    5    0  503 -0.60505207995E+02  0.65728452322E+02  0.15771491451E+03  0.18125976911E+03  0.00000000000E+00 0.  1.
         -1    1    6    6    0  502  0.11380605598E+03  0.49829695866E+01  0.65219215059E+00  0.11391695975E+03  0.00000000000E+00 0.  1.
<mgrwt>
<rscale>  0 0.18560882E+04</rscale>
<asrwt>0</asrwt>
<pdfrwt beam="1">  1        1 0.19688052E+00 0.18560882E+04</pdfrwt>
<pdfrwt beam="2">  1       -1 0.10353991E+00 0.18560882E+04</pdfrwt>
<totfact> 0.77267090E+00</totfact>
</mgrwt>
</event>
<event>
12    1  0.1599266E-007  0.1295176E+04  0.7818608E-02  0.9033400E-01
         -2   -1    0    0    0  501 -0.00000000000E+00  0.00000000000E+00  0.18278717731E+03  0.18278717731E+03  0.00000000000E+00 0.  1.
          2   -1    0    0  501    0  0.00000000000E+00 -0.00000000000E+00 -0.22943074199E+04  0.22943074199E+04  0.00000000000E+00 0. -1.
         23    2    1    2    0    0  0.61069312224E+02 -0.30155038288E+03 -0.78125976861E+03  0.84455700430E+03  0.90816370518E+02 0.  0.
        254    2    1    2    0    0 -0.61069312224E+02  0.30155038288E+03 -0.13302604740E+04  0.16325375930E+04  0.89494355651E+03 0.  0.
        -24    2    4    4    0    0 -0.23094681933E+03  0.56919779153E+03 -0.84571881717E+03  0.10482771940E+04  0.79512253488E+02 0.  0.
         24    2    4    4    0    0  0.16987750711E+03 -0.26764740865E+03 -0.48454165686E+03  0.58426039898E+03  0.78013420662E+02 0.  0.
         13    1    3    3    0    0  0.12901274856E+02 -0.14766324454E+03 -0.48642748891E+03  0.50851015590E+03  0.00000000000E+00 0. -1.
        -13    1    3    3    0    0  0.48168037368E+02 -0.15388713834E+03 -0.29483227970E+03  0.33604684840E+03  0.00000000000E+00 0.  1.
          2    1    6    6  502    0  0.17322770908E+03 -0.23755420980E+03 -0.45654099469E+03  0.54301889619E+03  0.00000000000E+00 0. -1.
          3    1    5    5  503    0 -0.20318466317E+03  0.43721876415E+03 -0.62085607545E+03  0.78607030315E+03  0.00000000000E+00 0. -1.
         -4    1    5    5    0  503 -0.27762156162E+02  0.13197902738E+03 -0.22486274172E+03  0.26220689083E+03  0.00000000000E+00 0.  1.
         -1    1    6    6    0  502 -0.33502019724E+01 -0.30093198848E+02 -0.28000662168E+02  0.41241502786E+02  0.00000000000E+00 0.  1.
<mgrwt>
<rscale>  0 0.12951756E+04</rscale>
<asrwt>0</asrwt>
<pdfrwt beam="1">  1        2 0.35297037E+00 0.12951756E+04</pdfrwt>
<pdfrwt beam="2">  1       -2 0.28121104E-01 0.12951756E+04</pdfrwt>
<totfact> 0.51939520E+01</totfact>
</mgrwt>
</event>
<event>
12    1  0.1599266E-007  0.1695853E+04  0.7818608E-02  0.8763733E-01
         -2   -1    0    0    0  501 -0.00000000000E+00  0.00000000000E+00  0.44837429096E+03  0.44837429096E+03  0.00000000000E+00 0. -1.
          2   -1    0    0  501    0  0.00000000000E+00 -0.00000000000E+00 -0.16035248044E+04  0.16035248044E+04  0.00000000000E+00 0.  1.
         23    2    1    2    0    0  0.26924516390E+03  0.50475521711E+03 -0.18163758386E+03  0.60700746449E+03  0.90526585050E+02 0.  0.
        254    2    1    2    0    0 -0.26924516390E+03 -0.50475521711E+03 -0.97351292958E+03  0.14448916309E+04  0.90150630248E+03 0.  0.
        -24    2    4    4    0    0 -0.54097742350E+02 -0.68504332213E+03 -0.39456187322E+03  0.79641149644E+03  0.79882920221E+02 0.  0.
         24    2    4    4    0    0 -0.21514742155E+03  0.18028810502E+03 -0.57895105636E+03  0.64848013443E+03  0.80931732155E+02 0.  0.
         13    1    3    3    0    0  0.20149116005E+03  0.29760826478E+03 -0.13641227668E+03  0.38441862087E+03  0.00000000000E+00 0. -1.
        -13    1    3    3    0    0  0.67754003854E+02  0.20714695232E+03 -0.45225307173E+02  0.22258884362E+03  0.00000000000E+00 0.  1.
          4    1    6    6  502    0 -0.28157219043E+01  0.35509517796E+01 -0.63516666442E+02  0.63678131759E+02  0.00000000000E+00 0. -1.
          3    1    5    5  503    0  0.38147251922E+01 -0.23610660732E+03 -0.10056613332E+03  0.25666014362E+03  0.00000000000E+00 0. -1.
         -4    1    5    5    0  503 -0.57912467542E+02 -0.44893671481E+03 -0.29399573990E+03  0.53975135282E+03  0.00000000000E+00 0.  1.
         -3    1    6    6    0  502 -0.21233169965E+03  0.17673715324E+03 -0.51543438992E+03  0.58480200267E+03  0.00000000000E+00 0.  1.
<mgrwt>
<rscale>  0 0.16958529E+04</rscale>
<asrwt>0</asrwt>
<pdfrwt beam="1">  1        2 0.24669612E+00 0.16958529E+04</pdfrwt>
<pdfrwt beam="2">  1       -2 0.68980661E-01 0.16958529E+04</pdfrwt>
<totfact> 0.20280349E+01</totfact>
</mgrwt>
</event>
<event>
12    1  0.1599266E-007  0.9983346E+03  0.7818608E-02  0.9310373E-01
         -2   -1    0    0    0  501 -0.00000000000E+00  0.00000000000E+00  0.16921950254E+03  0.16921950254E+03  0.00000000000E+00 0.  1.
          2   -1    0    0  501    0  0.00000000000E+00 -0.00000000000E+00 -0.14724542936E+04  0.14724542936E+04  0.00000000000E+00 0. -1.
         23    2    1    2    0    0  0.31419418023E+02  0.28113882528E+02 -0.13858883982E+03  0.17193024114E+03  0.92604379358E+02 0.  0.
        254    2    1    2    0    0 -0.31419418023E+02 -0.28113882528E+02 -0.11646459512E+04  0.14697435550E+04  0.89552685916E+03 0.  0.
        -24    2    4    4    0    0  0.14118795680E+03 -0.29180714458E+03 -0.87361062602E+02  0.34444533971E+03  0.76975242883E+02 0.  0.
         24    2    4    4    0    0 -0.17260737482E+03  0.26369326205E+03 -0.10772848886E+04  0.11252982153E+04  0.80161709975E+02 0.  0.
         11    1    3    3    0    0 -0.10058375132E+02 -0.28690049325E+02 -0.53496969880E+02  0.61532232423E+02  0.00000000000E+00 0. -1.
        -11    1    3    3    0    0  0.41477793155E+02  0.56803931853E+02 -0.85091869936E+02  0.11039800872E+03  0.00000000000E+00 0.  1.
          2    1    6    6  502    0 -0.10277277615E+03  0.21933172468E+03 -0.82174192525E+03  0.85669623594E+03  0.00000000000E+00 0. -1.
          3    1    5    5  503    0  0.29197324606E+02 -0.95348018140E+02  0.57618657089E+01  0.99884570499E+02  0.00000000000E+00 0. -1.
         -4    1    5    5    0  503  0.11199063219E+03 -0.19645912644E+03 -0.93122928310E+02  0.24456076921E+03  0.00000000000E+00 0.  1.
         -1    1    6    6    0  502 -0.69834598666E+02  0.44361537371E+02 -0.25554296336E+03  0.26860197931E+03  0.00000000000E+00 0.  1.
<mgrwt>
<rscale>  0 0.99833458E+03</rscale>
<asrwt>0</asrwt>
<pdfrwt beam="1">  1        2 0.22653143E+00 0.99833458E+03</pdfrwt>
<pdfrwt beam="2">  1       -2 0.26033770E-01 0.99833458E+03</pdfrwt>
<totfact> 0.17490129E+02</totfact>
</mgrwt>
</event>
<event>
12    1  0.1599266E-007  0.1611580E+04  0.7818608E-02  0.8813465E-01
          1   -1    0    0  501    0  0.00000000000E+00  0.00000000000E+00  0.66405943204E+03  0.66405943204E+03  0.00000000000E+00 0. -1.
         -1   -1    0    0    0  501 -0.00000000000E+00 -0.00000000000E+00 -0.97777013883E+03  0.97777013883E+03  0.00000000000E+00 0.  1.
         23    2    1    2    0    0  0.11213912329E+03 -0.34667039417E+03 -0.53016238445E+03  0.64961483721E+03  0.90397664096E+02 0.  0.
        254    2    1    2    0    0 -0.11213912329E+03  0.34667039417E+03  0.21645167767E+03  0.99221473365E+03  0.89715283188E+03 0.  0.
        -24    2    4    4    0    0 -0.33426224316E+03 -0.12090328374E+02 -0.19680561987E+03  0.39644841169E+03  0.81002888094E+02 0.  0.
         24    2    4    4    0    0  0.22212311987E+03  0.35876072254E+03  0.41325729754E+03  0.59576632196E+03  0.78153566748E+02 0.  0.
         13    1    3    3    0    0  0.10565616705E+03 -0.32638489065E+03 -0.44531143690E+03  0.56213218936E+03  0.00000000000E+00 0.  1.
        -13    1    3    3    0    0  0.64829562374E+01 -0.20285503515E+02 -0.84850947554E+02  0.87482647852E+02  0.00000000000E+00 0. -1.
          2    1    6    6  502    0  0.12891651327E+03  0.15801743438E+03  0.23823182669E+03  0.31359748119E+03  0.00000000000E+00 0. -1.
          3    1    5    5  503    0 -0.24603125685E+02  0.55308154088E+01 -0.43943895540E+02  0.50665270825E+02  0.00000000000E+00 0. -1.
         -4    1    5    5    0  503 -0.30965911748E+03 -0.17621143782E+02 -0.15286172433E+03  0.34578314087E+03  0.00000000000E+00 0.  1.
         -1    1    6    6    0  502  0.93206606602E+02  0.20074328816E+03  0.17502547084E+03  0.28216884077E+03  0.00000000000E+00 0.  1.
<mgrwt>
<rscale>  0 0.16115799E+04</rscale>
<asrwt>0</asrwt>
<pdfrwt beam="1">  1        1 0.10216299E+00 0.16115799E+04</pdfrwt>
<pdfrwt beam="2">  1       -1 0.15042617E+00 0.16115799E+04</pdfrwt>
<totfact> 0.97921330E+00</totfact>
</mgrwt>
</event>
<event>
12    1  0.1599266E-007  0.2566629E+04  0.7818608E-02  0.8379626E-01
         -1   -1    0    0    0  501 -0.00000000000E+00  0.00000000000E+00  0.88458099028E+03  0.88458099028E+03  0.00000000000E+00 0.  1.
          1   -1    0    0  501    0  0.00000000000E+00 -0.00000000000E+00 -0.18617807465E+04  0.18617807465E+04  0.00000000000E+00 0. -1.
         23    2    1    2    0    0 -0.25792622205E+03 -0.41481450063E+03  0.65517397147E+03  0.82119595732E+03  0.80702301482E+02 0.  0.
        254    2    1    2    0    0  0.25792622205E+03  0.41481450063E+03 -0.16323737277E+04  0.19251657794E+04  0.89611510732E+03 0.  0.
        -24    2    4    4    0    0  0.45037671301E+03  0.21263848319E+03 -0.35853236940E+03  0.61883232433E+03  0.79709959059E+02 0.  0.
         24    2    4    4    0    0 -0.19245049096E+03  0.20217601744E+03 -0.12738413583E+04  0.13063334551E+04  0.76960745792E+02 0.  0.
         13    1    3    3    0    0 -0.22474380749E+03 -0.31166552865E+03  0.47510835579E+03  0.61104265849E+03  0.00000000000E+00 0.  1.
        -13    1    3    3    0    0 -0.33182414564E+02 -0.10314897198E+03  0.18006561569E+03  0.21015329883E+03  0.00000000000E+00 0. -1.
          2    1    6    6  502    0 -0.28655193162E+01 -0.60365414943E+01 -0.53995524650E+02  0.54407423357E+02  0.00000000000E+00 0. -1.
          1    1    5    5  503    0  0.23478453957E+02  0.22886155143E+02 -0.47036797498E+02  0.57336499861E+02  0.00000000000E+00 0. -1.
         -2    1    5    5    0  503  0.42689825905E+03  0.18975232805E+03 -0.31149557190E+03  0.56149582447E+03  0.00000000000E+00 0.  1.
         -1    1    6    6    0  502 -0.18958497164E+03  0.20821255893E+03 -0.12198458336E+04  0.12519260318E+04  0.00000000000E+00 0.  1.
<mgrwt>
<rscale>  0 0.25666288E+04</rscale>
<asrwt>0</asrwt>
<pdfrwt beam="1">  1        1 0.28642780E+00 0.25666288E+04</pdfrwt>
<pdfrwt beam="2">  1       -1 0.13608938E+00 0.25666288E+04</pdfrwt>
<totfact> 0.14739881E+00</totfact>
</mgrwt>
</event>
<event>
12    1  0.1599266E-007  0.2521613E+04  0.7818608E-02  0.8395326E-01
         -2   -1    0    0    0  501 -0.00000000000E+00  0.00000000000E+00  0.41250579405E+03  0.41250579405E+03  0.00000000000E+00 0.  1.
          2   -1    0    0  501    0  0.00000000000E+00 -0.00000000000E+00 -0.38536010496E+04  0.38536010496E+04  0.00000000000E+00 0. -1.
         23    2    1    2    0    0  0.93564458139E+03  0.14751533127E+03 -0.56474848337E+03  0.11066722667E+04  0.92688191258E+02 0.  0.
        254    2    1    2    0    0 -0.93564458139E+03 -0.14751533127E+03 -0.28763467722E+04  0.31594345770E+04  0.90081326395E+03 0.  0.
        -24    2    4    4    0    0 -0.74340462324E+02 -0.29783752275E+03 -0.14520779070E+04  0.14863044368E+04  0.79604877378E+02 0.  0.
         24    2    4    4    0    0 -0.86130411907E+03  0.15032219148E+03 -0.14242688652E+04  0.16731301402E+04  0.79881905481E+02 0.  0.
         11    1    3    3    0    0  0.41987623513E+03  0.35341875951E+02 -0.29101292007E+03  0.51208751270E+03  0.00000000000E+00 0. -1.
        -11    1    3    3    0    0  0.51576834626E+03  0.11217345532E+03 -0.27373556331E+03  0.59458475401E+03  0.00000000000E+00 0.  1.
          4    1    6    6  502    0 -0.68852884017E+03  0.15212017948E+03 -0.11369920922E+04  0.13378951867E+04  0.00000000000E+00 0. -1.
          1    1    5    5  503    0 -0.10254483009E+02 -0.14906788556E+03 -0.55735805660E+03  0.57703933331E+03  0.00000000000E+00 0. -1.
         -2    1    5    5    0  503 -0.64085979315E+02 -0.14876963718E+03 -0.89471985042E+03  0.90926510350E+03  0.00000000000E+00 0.  1.
         -3    1    6    6    0  502 -0.17277527890E+03 -0.17979879968E+01 -0.28727677296E+03  0.33523495349E+03  0.00000000000E+00 0.  1.
<mgrwt>
<rscale>  0 0.25216128E+04</rscale>
<asrwt>0</asrwt>
<pdfrwt beam="1">  1        2 0.59286170E+00 0.25216128E+04</pdfrwt>
<pdfrwt beam="2">  1       -2 0.63462429E-01 0.25216128E+04</pdfrwt>
<totfact> 0.91643128E-01</totfact>
</mgrwt>
</event>
<event>
12    1  0.1599266E-007  0.2846298E+04  0.7818608E-02  0.8289037E-01
          1   -1    0    0  501    0  0.00000000000E+00  0.00000000000E+00  0.17045251922E+04  0.17045251922E+04  0.00000000000E+00 0. -1.
         -1   -1    0    0    0  501 -0.00000000000E+00 -0.00000000000E+00 -0.11882209746E+04  0.11882209746E+04  0.00000000000E+00 0.  1.
         23    2    1    2    0    0 -0.64188967322E+03 -0.14524146058E+03 -0.87469919129E+03  0.10984732468E+04  0.91800676399E+02 0.  0.
        254    2    1    2    0    0  0.64188967322E+03  0.14524146058E+03  0.13910034089E+04  0.17942729200E+04  0.92271739628E+03 0.  0.
        -24    2    4    4    0    0 -0.63446908616E+02  0.36577247660E+03  0.35964191522E+03  0.52299204816E+03  0.79770673814E+02 0.  0.
         24    2    4    4    0    0  0.70533658183E+03 -0.22053101603E+03  0.10313614937E+04  0.12712808718E+04  0.79466356086E+02 0.  0.
         13    1    3    3    0    0 -0.62458502083E+03 -0.15643149284E+03 -0.84824113583E+03  0.10649367515E+04  0.00000000000E+00 0.  1.
        -13    1    3    3    0    0 -0.17304652391E+02  0.11190032261E+02 -0.26458055464E+02  0.33536495275E+02  0.00000000000E+00 0. -1.
          2    1    6    6  502    0  0.17448420681E+03 -0.77453369099E+02  0.31379425585E+03  0.36730178031E+03  0.00000000000E+00 0. -1.
          3    1    5    5  503    0 -0.90423465202E+01  0.17821981316E+03  0.12581142025E+03  0.21834051227E+03  0.00000000000E+00 0. -1.
         -4    1    5    5    0  503 -0.54404562096E+02  0.18755266344E+03  0.23383049497E+03  0.30465153589E+03  0.00000000000E+00 0.  1.
         -1    1    6    6    0  502  0.53085237502E+03 -0.14307764693E+03  0.71756723780E+03  0.90397909151E+03  0.00000000000E+00 0.  1.
<mgrwt>
<rscale>  0 0.28462977E+04</rscale>
<asrwt>0</asrwt>
<pdfrwt beam="1">  1        1 0.26223465E+00 0.28462977E+04</pdfrwt>
<pdfrwt beam="2">  1       -1 0.18280323E+00 0.28462977E+04</pdfrwt>
<totfact> 0.81086966E-01</totfact>
</mgrwt>
</event>
<event>
12    1  0.1599266E-007  0.1199694E+04  0.7818608E-02  0.9113124E-01
         -1   -1    0    0    0  501 -0.00000000000E+00  0.00000000000E+00  0.13272246830E+04  0.13272246830E+04  0.00000000000E+00 0.  1.
          1   -1    0    0  501    0  0.00000000000E+00 -0.00000000000E+00 -0.27110447269E+03  0.27110447269E+03  0.00000000000E+00 0. -1.
         23    2    1    2    0    0  0.58727862852E+02  0.22394411861E+03  0.84767002998E+02  0.26395396662E+03  0.94267287877E+02 0.  0.
        254    2    1    2    0    0 -0.58727862852E+02 -0.22394411861E+03  0.97135320729E+03  0.13343751890E+04  0.88511590297E+03 0.  0.
        -24    2    4    4    0    0 -0.11429020663E+03 -0.54480536082E+03  0.48037233251E+03  0.73978021115E+03  0.81498775726E+02 0.  0.
         24    2    4    4    0    0  0.55562343781E+02  0.32086124221E+03  0.49098087478E+03  0.59459497790E+03  0.80261183287E+02 0.  0.
         11    1    3    3    0    0  0.70669523133E+02  0.18417616388E+03  0.98138232300E+02  0.22033191662E+03  0.00000000000E+00 0. -1.
        -11    1    3    3    0    0 -0.11941660281E+02  0.39767954729E+02 -0.13371229302E+02  0.43622050005E+02  0.00000000000E+00 0.  1.
          4    1    6    6  502    0  0.73382323362E+02  0.25316766673E+03  0.41150844734E+03  0.48869012174E+03  0.00000000000E+00 0. -1.
          1    1    5    5  503    0 -0.83449203756E+02 -0.46709321341E+03  0.37214148621E+03  0.60301668748E+03  0.00000000000E+00 0. -1.
         -2    1    5    5    0  503 -0.30841002877E+02 -0.77712147414E+02  0.10823084630E+03  0.13676352367E+03  0.00000000000E+00 0.  1.
         -1    1    6    6    0  502 -0.17819979581E+02  0.67693575479E+02  0.79472427445E+02  0.10590485616E+03  0.00000000000E+00 0.  1.
<mgrwt>
<rscale>  0 0.11996942E+04</rscale>
<asrwt>0</asrwt>
<pdfrwt beam="1">  1        1 0.41708381E-01 0.11996942E+04</pdfrwt>
<pdfrwt beam="2">  1       -1 0.20418841E+00 0.11996942E+04</pdfrwt>
<totfact> 0.13954718E+01</totfact>
</mgrwt>
</event>
<event>
12    1  0.1599266E-007  0.2015417E+04  0.7818608E-02  0.8599447E-01
          1   -1    0    0  501    0  0.00000000000E+00  0.00000000000E+00  0.48099380663E+03  0.48099380663E+03  0.00000000000E+00 0. -1.
         -1   -1    0    0    0  501 -0.00000000000E+00 -0.00000000000E+00 -0.21112039044E+04  0.21112039044E+04  0.00000000000E+00 0.  1.
         23    2    1    2    0    0  0.58880229057E+03 -0.12227097369E+03 -0.13136864286E+04  0.14486632138E+04  0.10589969810E+03 0.  0.
        254    2    1    2    0    0 -0.58880229057E+03  0.12227097369E+03 -0.31652366922E+03  0.11435344972E+04  0.91969863805E+03 0.  0.
        -24    2    4    4    0    0  0.14344830265E+03 -0.21021732335E+03 -0.18556626052E+03  0.32493572442E+03  0.79872707441E+02 0.  0.
         24    2    4    4    0    0 -0.73225059322E+03  0.33248829704E+03 -0.13095740871E+03  0.81859877282E+03  0.78833425872E+02 0.  0.
         13    1    3    3    0    0  0.34826201159E+03 -0.10236148806E+03 -0.88772420404E+03  0.95907172068E+03  0.00000000000E+00 0.  1.
        -13    1    3    3    0    0  0.24054027898E+03 -0.19909485629E+02 -0.42596222455E+03  0.48959149316E+03  0.00000000000E+00 0. -1.
          4    1    6    6  502    0 -0.16133243700E+02  0.19572267853E+02 -0.12136857693E+02  0.28118651032E+02  0.00000000000E+00 0. -1.
          1    1    5    5  503    0  0.63489535389E+02 -0.42959862457E+02 -0.83328662020E+02  0.11322604294E+03  0.00000000000E+00 0. -1.
         -2    1    5    5    0  503  0.79958767262E+02 -0.16725746089E+03 -0.10223759850E+03  0.21170968148E+03  0.00000000000E+00 0.  1.
         -3    1    6    6    0  502 -0.71611734952E+03  0.31291602918E+03 -0.11882055101E+03  0.79048012179E+03  0.00000000000E+00 0.  1.
<mgrwt>
<rscale>  0 0.20154166E+04</rscale>
<asrwt>0</asrwt>
<pdfrwt beam="1">  1        1 0.73999049E-01 0.20154166E+04</pdfrwt>
<pdfrwt beam="2">  1       -1 0.32480059E+00 0.20154166E+04</pdfrwt>
<totfact> 0.98730376E-01</totfact>
</mgrwt>
</event>
<event>
12    1  0.1599266E-007  0.2982757E+04  0.7818608E-02  0.8248672E-01
          1   -1    0    0  501    0  0.00000000000E+00  0.00000000000E+00  0.61523744924E+03  0.61523744924E+03  0.00000000000E+00 0. -1.
         -1   -1    0    0    0  501 -0.00000000000E+00 -0.00000000000E+00 -0.36152060648E+04  0.36152060648E+04  0.00000000000E+00 0.  1.
         23    2    1    2    0    0 -0.69322194743E+02 -0.95340424346E+03 -0.27284496458E+04  0.28924505939E+04  0.89709256907E+02 0.  0.
        254    2    1    2    0    0  0.69322194743E+02  0.95340424346E+03 -0.27151896984E+03  0.13379929201E+04  0.89594491195E+03 0.  0.
        -24    2    4    4    0    0  0.12908533254E+03  0.33176257239E+03 -0.54134680992E+03  0.65281833228E+03  0.79912319640E+02 0.  0.
         24    2    4    4    0    0 -0.59763137802E+02  0.62164167107E+03  0.26982784009E+03  0.68517458787E+03  0.81530072511E+02 0.  0.
         11    1    3    3    0    0 -0.69943342858E+02 -0.55110553450E+03 -0.14827482657E+04  0.15833988129E+04  0.00000000000E+00 0. -1.
        -11    1    3    3    0    0  0.62114811557E+00 -0.40229870897E+03 -0.12457013801E+04  0.13090517810E+04  0.00000000000E+00 0.  1.
          4    1    6    6  502    0 -0.78049927084E+02  0.46340195639E+03  0.18854759399E+03  0.50634312427E+03  0.00000000000E+00 0. -1.
          1    1    5    5  503    0  0.14036759683E+03  0.30790877050E+03 -0.50536551074E+03  0.60819830042E+03  0.00000000000E+00 0. -1.
         -2    1    5    5    0  503 -0.11282264288E+02  0.23853801885E+02 -0.35981299186E+02  0.44620031857E+02  0.00000000000E+00 0.  1.
         -1    1    6    6    0  502  0.18286789282E+02  0.15823971469E+03  0.81280246101E+02  0.17883146360E+03  0.00000000000E+00 0.  1.
<mgrwt>
<rscale>  0 0.29827572E+04</rscale>
<asrwt>0</asrwt>
<pdfrwt beam="1">  1        1 0.94651917E-01 0.29827572E+04</pdfrwt>
<pdfrwt beam="2">  1       -1 0.55618554E+00 0.29827572E+04</pdfrwt>
<totfact> 0.19466317E-02</totfact>
</mgrwt>
</event>
<event>
12    1  0.1599266E-007  0.1400212E+04  0.7818608E-02  0.8953665E-01
          2   -1    0    0  501    0  0.00000000000E+00  0.00000000000E+00  0.28317309234E+04  0.28317309234E+04  0.00000000000E+00 0. -1.
         -2   -1    0    0    0  501 -0.00000000000E+00 -0.00000000000E+00 -0.17309135564E+03  0.17309135564E+03  0.00000000000E+00 0.  1.
         23    2    1    2    0    0 -0.21183189472E+03 -0.26605455765E+03  0.10639869926E+04  0.11207356504E+04  0.91226631998E+02 0.  0.
        254    2    1    2    0    0  0.21183189472E+03  0.26605455765E+03  0.15946525752E+04  0.18840866287E+04  0.94403803395E+03 0.  0.
        -24    2    4    4    0    0  0.17451225915E+03 -0.30488901213E+03  0.30938937303E+03  0.47498802442E+03  0.80498452751E+02 0.  0.
         24    2    4    4    0    0  0.37319635574E+02  0.57094356978E+03  0.12852632022E+04  0.14090986043E+04  0.79297305126E+02 0.  0.
         11    1    3    3    0    0 -0.76955100220E+02 -0.63642188537E+02  0.43597815489E+03  0.44726878625E+03  0.00000000000E+00 0. -1.
        -11    1    3    3    0    0 -0.13487679450E+03 -0.20241236911E+03  0.62800883767E+03  0.67346686411E+03  0.00000000000E+00 0.  1.
          4    1    6    6  502    0  0.20632824403E+02  0.54195511491E+03  0.11804522058E+04  0.12990798552E+04  0.00000000000E+00 0. -1.
          3    1    5    5  503    0  0.14645371075E+03 -0.29650028520E+03  0.29021212280E+03  0.43998202774E+03  0.00000000000E+00 0. -1.
         -4    1    5    5    0  503  0.28058548397E+02 -0.83887269334E+01  0.19177250231E+02  0.35005996688E+02  0.00000000000E+00 0.  1.
         -3    1    6    6    0  502  0.16686811171E+02  0.28988454867E+02  0.10481099643E+03  0.11001874911E+03  0.00000000000E+00 0.  1.
<mgrwt>
<rscale>  0 0.14002116E+04</rscale>
<asrwt>0</asrwt>
<pdfrwt beam="1">  1        2 0.43565088E+00 0.14002116E+04</pdfrwt>
<pdfrwt beam="2">  1       -2 0.26629441E-01 0.14002116E+04</pdfrwt>
<totfact> 0.27720629E+01</totfact>
</mgrwt>
</event>
<event>
12    1  0.1599266E-007  0.3484127E+04  0.7818608E-02  0.8117562E-01
         -2   -1    0    0    0  501 -0.00000000000E+00  0.00000000000E+00  0.11998035903E+04  0.11998035903E+04  0.00000000000E+00 0.  1.
          2   -1    0    0  501    0  0.00000000000E+00 -0.00000000000E+00 -0.25294012507E+04  0.25294012507E+04  0.00000000000E+00 0. -1.
         23    2    1    2    0    0 -0.13785719315E+04  0.81883666527E+03 -0.90795073768E+03  0.18449963033E+04  0.93181340927E+02 0.  0.
        254    2    1    2    0    0  0.13785719315E+04 -0.81883666527E+03 -0.42164692275E+03  0.18842085378E+04  0.89526623502E+03 0.  0.
        -24    2    4    4    0    0  0.14561294363E+04 -0.57339057239E+03 -0.35792054608E+03  0.16072520225E+04  0.77860533276E+02 0.  0.
         24    2    4    4    0    0 -0.77557504799E+02 -0.24544609288E+03 -0.63726376663E+02  0.27695651528E+03  0.79905626919E+02 0.  0.
         13    1    3    3    0    0 -0.41680317879E+03  0.24935348969E+03 -0.32480187534E+03  0.58429300089E+03  0.00000000000E+00 0. -1.
        -13    1    3    3    0    0 -0.96176875274E+03  0.56948317558E+03 -0.58314886234E+03  0.12607033024E+04  0.00000000000E+00 0.  1.
          4    1    6    6  502    0 -0.32232385926E+01 -0.93557546767E+02 -0.52857356926E+02  0.10750490224E+03  0.00000000000E+00 0. -1.
          3    1    5    5  503    0  0.51612791711E+02 -0.11250936280E+02 -0.23910295134E+02  0.57984187920E+02  0.00000000000E+00 0. -1.
         -4    1    5    5    0  503  0.14045166446E+04 -0.56213963611E+03 -0.33401025095E+03  0.15492678346E+04  0.00000000000E+00 0.  1.
         -3    1    6    6    0  502 -0.74334266207E+02 -0.15188854612E+03 -0.10869019737E+02  0.16945161305E+03  0.00000000000E+00 0.  1.
<mgrwt>
<rscale>  0 0.34841267E+04</rscale>
<asrwt>0</asrwt>
<pdfrwt beam="1">  1        2 0.38913865E+00 0.34841267E+04</pdfrwt>
<pdfrwt beam="2">  1       -2 0.18458517E+00 0.34841267E+04</pdfrwt>
<totfact> 0.46433071E-01</totfact>
</mgrwt>
</event>
<event>
12    1  0.1599266E-007  0.1330009E+04  0.7818608E-02  0.9006101E-01
         -1   -1    0    0    0  501 -0.00000000000E+00  0.00000000000E+00  0.50857570978E+03  0.50857570978E+03  0.00000000000E+00 0.  1.
          1   -1    0    0  501    0  0.00000000000E+00 -0.00000000000E+00 -0.86954790073E+03  0.86954790073E+03  0.00000000000E+00 0. -1.
         23    2    1    2    0    0 -0.19608700961E+02  0.24678682618E+02 -0.46037092277E+03  0.47034693109E+03  0.91056633591E+02 0.  0.
        254    2    1    2    0    0  0.19608700961E+02 -0.24678682618E+02  0.99398731817E+02  0.90777667942E+03  0.90176762710E+03 0.  0.
        -24    2    4    4    0    0 -0.28632686886E+03  0.29719810488E+03 -0.67918942190E+02  0.42660079281E+03  0.84056316487E+02 0.  0.
         24    2    4    4    0    0  0.30593556982E+03 -0.32187678750E+03  0.16731767401E+03  0.48117588661E+03  0.79585115473E+02 0.  0.
         13    1    3    3    0    0  0.18746708493E+02  0.47795052911E+02 -0.26218686206E+03  0.26716615953E+03  0.00000000000E+00 0.  1.
        -13    1    3    3    0    0 -0.38355409454E+02 -0.23116370293E+02 -0.19818406071E+03  0.20318077156E+03  0.00000000000E+00 0. -1.
          2    1    6    6  502    0  0.76247917890E+02 -0.13033655632E+03  0.71948432599E+02  0.16726607501E+03  0.00000000000E+00 0. -1.
          1    1    5    5  503    0 -0.46733501889E+02  0.94186452345E+02 -0.35133392951E+02  0.11085785179E+03  0.00000000000E+00 0. -1.
         -2    1    5    5    0  503 -0.23959336697E+03  0.20301165254E+03 -0.32785549239E+02  0.31574294102E+03  0.00000000000E+00 0.  1.
         -1    1    6    6    0  502  0.22968765193E+03 -0.19154023118E+03  0.95369241409E+02  0.31390981160E+03  0.00000000000E+00 0.  1.
<mgrwt>
<rscale>  0 0.13300089E+04</rscale>
<asrwt>0</asrwt>
<pdfrwt beam="1">  1        1 0.13377660E+00 0.13300089E+04</pdfrwt>
<pdfrwt beam="2">  1       -1 0.78242417E-01 0.13300089E+04</pdfrwt>
<totfact> 0.30926637E+01</totfact>
</mgrwt>
</event>
<event>
12    1  0.1599266E-007  0.1271055E+04  0.7818608E-02  0.9052839E-01
          1   -1    0    0  501    0  0.00000000000E+00  0.00000000000E+00  0.69116811115E+03  0.69116811115E+03  0.00000000000E+00 0. -1.
         -1   -1    0    0    0  501 -0.00000000000E+00 -0.00000000000E+00 -0.58436587245E+03  0.58436587245E+03  0.00000000000E+00 0.  1.
         23    2    1    2    0    0  0.21362217303E+03  0.20415765858E+03 -0.50422344397E+02  0.31322531176E+03  0.90845477289E+02 0.  0.
        254    2    1    2    0    0 -0.21362217303E+03 -0.20415765858E+03  0.15722458309E+03  0.96230867184E+03  0.90222149609E+03 0.  0.
        -24    2    4    4    0    0  0.15162280430E+03 -0.30046094736E+03 -0.23055965519E+03  0.41559068664E+03  0.79319660534E+02 0.  0.
         24    2    4    4    0    0 -0.36524497733E+03  0.96303288788E+02  0.38778423828E+03  0.54671798520E+03  0.76457327888E+02 0.  0.
         13    1    3    3    0    0  0.21784932067E+03  0.20682024738E+03 -0.41830429354E+02  0.30328654119E+03  0.00000000000E+00 0. -1.
        -13    1    3    3    0    0 -0.42271476417E+01 -0.26625888054E+01 -0.85919150424E+01  0.99387705692E+01  0.00000000000E+00 0.  1.
          2    1    6    6  502    0 -0.23409386329E+02 -0.11818281454E+02  0.34941844969E+02  0.43687568880E+02  0.00000000000E+00 0. -1.
          3    1    5    5  503    0  0.83378722065E+02 -0.12672458480E+03 -0.61280305977E+02  0.16360442411E+03  0.00000000000E+00 0. -1.
         -4    1    5    5    0  503  0.68244082231E+02 -0.17373636256E+03 -0.16927934921E+03  0.25198626253E+03  0.00000000000E+00 0.  1.
         -1    1    6    6    0  502 -0.34183559100E+03  0.10812157024E+03  0.35284239331E+03  0.50303041632E+03  0.00000000000E+00 0.  1.
<mgrwt>
<rscale>  0 0.12710548E+04</rscale>
<asrwt>0</asrwt>
<pdfrwt beam="1">  1        1 0.10633356E+00 0.12710548E+04</pdfrwt>
<pdfrwt beam="2">  1       -1 0.89902442E-01 0.12710548E+04</pdfrwt>
<totfact> 0.33131464E+01</totfact>
</mgrwt>
</event>
<event>
12    1  0.1599266E-007  0.3575088E+04  0.7818608E-02  0.8096222E-01
         -2   -1    0    0    0  501 -0.00000000000E+00  0.00000000000E+00  0.18762077034E+04  0.18762077034E+04  0.00000000000E+00 0. -1.
          2   -1    0    0  501    0  0.00000000000E+00 -0.00000000000E+00 -0.17030701856E+04  0.17030701856E+04  0.00000000000E+00 0.  1.
         23    2    1    2    0    0 -0.10396312995E+04  0.21207924294E+03 -0.11775960660E+04  0.15877240026E+04  0.91236887422E+02 0.  0.
        254    2    1    2    0    0  0.10396312995E+04 -0.21207924294E+03  0.13507335838E+04  0.19915538864E+04  0.10079656858E+04 0.  0.
        -24    2    4    4    0    0  0.11156449756E+04  0.10829968951E+03  0.10770586612E+04  0.15564733511E+04  0.78494576031E+02 0.  0.
         24    2    4    4    0    0 -0.76013676149E+02 -0.32037893245E+03  0.27367492258E+03  0.43508053533E+03  0.77306983187E+02 0.  0.
         13    1    3    3    0    0 -0.10086301328E+04  0.18981500331E+03 -0.11262589382E+04  0.15237531546E+04  0.00000000000E+00 0.  1.
        -13    1    3    3    0    0 -0.31001166638E+02  0.22264239637E+02 -0.51337127827E+02  0.63970847994E+02  0.00000000000E+00 0. -1.
          2    1    6    6  502    0 -0.31186048830E+02 -0.11926246879E+03  0.56154857214E+02  0.13546023067E+03  0.00000000000E+00 0. -1.
          3    1    5    5  503    0  0.36980034499E+03  0.64432398453E+02  0.39344761555E+03  0.54378750934E+03  0.00000000000E+00 0. -1.
         -4    1    5    5    0  503  0.74584463063E+03  0.43867291057E+02  0.68361104566E+03  0.10126858417E+04  0.00000000000E+00 0.  1.
         -1    1    6    6    0  502 -0.44827627319E+02 -0.20111646366E+03  0.21752006537E+03  0.29962030466E+03  0.00000000000E+00 0.  1.
<mgrwt>
<rscale>  0 0.35750879E+04</rscale>
<asrwt>0</asrwt>
<pdfrwt beam="1">  1        2 0.26201080E+00 0.35750879E+04</pdfrwt>
<pdfrwt beam="2">  1       -2 0.28864734E+00 0.35750879E+04</pdfrwt>
<totfact> 0.29750370E-01</totfact>
</mgrwt>
</event>
<event>
12    1  0.1599266E-007  0.2748033E+04  0.7818608E-02  0.8319586E-01
          1   -1    0    0  501    0  0.00000000000E+00  0.00000000000E+00  0.15447121878E+04  0.15447121878E+04  0.00000000000E+00 0. -1.
         -1   -1    0    0    0  501 -0.00000000000E+00 -0.00000000000E+00 -0.12221828034E+04  0.12221828034E+04  0.00000000000E+00 0.  1.
         23    2    1    2    0    0 -0.57099227077E+03 -0.67393631276E+03  0.99623414324E+03  0.13345146568E+04  0.90689437654E+02 0.  0.
        254    2    1    2    0    0  0.57099227077E+03  0.67393631276E+03 -0.67370475891E+03  0.14323803344E+04  0.90421954925E+03 0.  0.
        -24    2    4    4    0    0  0.17096589209E+03  0.78061251364E+03 -0.60476170023E+03  0.10054260401E+04  0.80991205506E+02 0.  0.
         24    2    4    4    0    0  0.40002637868E+03 -0.10667620088E+03 -0.68943058686E+02  0.42695429428E+03  0.78332040631E+02 0.  0.
         13    1    3    3    0    0 -0.44679622787E+03 -0.57896365891E+03  0.80778688017E+03  0.10896538126E+04  0.00000000000E+00 0. -1.
        -13    1    3    3    0    0 -0.12419604290E+03 -0.94972653842E+02  0.18844726307E+03  0.24486084417E+03  0.00000000000E+00 0.  1.
          2    1    6    6  502    0  0.28551798909E+03 -0.71561652932E+02 -0.12670227513E+02  0.29462200687E+03  0.00000000000E+00 0. -1.
          3    1    5    5  503    0  0.11766219329E+03  0.38887856423E+03 -0.33796669915E+03  0.52848123825E+03  0.00000000000E+00 0. -1.
         -4    1    5    5    0  503  0.53303698799E+02  0.39173394941E+03 -0.26679500108E+03  0.47694480186E+03  0.00000000000E+00 0.  1.
         -1    1    6    6    0  502  0.11450838959E+03 -0.35114547948E+02 -0.56272831172E+02  0.13233228741E+03  0.00000000000E+00 0.  1.
<mgrwt>
<rscale>  0 0.27480325E+04</rscale>
<asrwt>0</asrwt>
<pdfrwt beam="1">  1        1 0.23764803E+00 0.27480325E+04</pdfrwt>
<pdfrwt beam="2">  1       -1 0.18802812E+00 0.27480325E+04</pdfrwt>
<totfact> 0.96646285E-01</totfact>
</mgrwt>
</event>
<event>
12    1  0.1599266E-007  0.1718619E+04  0.7818608E-02  0.8750816E-01
          2   -1    0    0  501    0  0.00000000000E+00  0.00000000000E+00  0.71102104178E+03  0.71102104178E+03  0.00000000000E+00 0. -1.
         -2   -1    0    0    0  501 -0.00000000000E+00 -0.00000000000E+00 -0.10385244568E+04  0.10385244568E+04  0.00000000000E+00 0.  1.
         23    2    1    2    0    0 -0.53575259900E+03  0.24931981987E+03 -0.31325381171E+03  0.67525475930E+03  0.93004405758E+02 0.  0.
        254    2    1    2    0    0  0.53575259900E+03 -0.24931981987E+03 -0.14249603359E+02  0.10742907393E+04  0.89705424668E+03 0.  0.
        -24    2    4    4    0    0  0.18408277902E+03 -0.50560934193E+03  0.20446223132E+03  0.58112282696E+03  0.79822677209E+02 0.  0.
         24    2    4    4    0    0  0.35166981998E+03  0.25628952206E+03 -0.21871183468E+03  0.49316791236E+03  0.77612768020E+02 0.  0.
         13    1    3    3    0    0 -0.33059878082E+03  0.19894654622E+03 -0.22189320795E+03  0.44509760488E+03  0.00000000000E+00 0.  1.
        -13    1    3    3    0    0 -0.20515381818E+03  0.50373273648E+02 -0.91360603756E+02  0.23015715442E+03  0.00000000000E+00 0. -1.
          4    1    6    6  502    0  0.53869851871E+02  0.48965672135E+02 -0.71799372123E+01  0.73151551498E+02  0.00000000000E+00 0. -1.
          3    1    5    5  503    0  0.24833760971E+02 -0.21183421719E+02  0.22735448854E+02  0.39778809362E+02  0.00000000000E+00 0. -1.
         -4    1    5    5    0  503  0.15924901805E+03 -0.48442592021E+03  0.18172678247E+03  0.54134401760E+03  0.00000000000E+00 0.  1.
         -3    1    6    6    0  502  0.29779996811E+03  0.20732384992E+03 -0.21153189747E+03  0.42001636087E+03  0.00000000000E+00 0.  1.
<mgrwt>
<rscale>  0 0.17186189E+04</rscale>
<asrwt>0</asrwt>
<pdfrwt beam="1">  1        2 0.10938785E+00 0.17186189E+04</pdfrwt>
<pdfrwt beam="2">  1       -2 0.15977299E+00 0.17186189E+04</pdfrwt>
<totfact> 0.96447598E+00</totfact>
</mgrwt>
</event>
<event>
12    1  0.1599266E-007  0.2457763E+04  0.7818608E-02  0.8418189E-01
         -1   -1    0    0    0  501 -0.00000000000E+00  0.00000000000E+00  0.20974740182E+04  0.20974740182E+04  0.00000000000E+00 0.  1.
          1   -1    0    0  501    0  0.00000000000E+00 -0.00000000000E+00 -0.71998477254E+03  0.71998477254E+03  0.00000000000E+00 0. -1.
         23    2    1    2    0    0 -0.99731871943E+03 -0.38187878875E+03  0.67906371862E+03  0.12688362275E+04  0.91333459917E+02 0.  0.
        254    2    1    2    0    0  0.99731871943E+03  0.38187878875E+03  0.69842552706E+03  0.15486225633E+04  0.87747227257E+03 0.  0.
        -24    2    4    4    0    0  0.90182708961E+03  0.63023248463E+03  0.59186743587E+03  0.12519914646E+04  0.81795363729E+02 0.  0.
         24    2    4    4    0    0  0.95491629818E+02 -0.24835369588E+03  0.10655809119E+03  0.29663109866E+03  0.76401389209E+02 0.  0.
         13    1    3    3    0    0 -0.39487856746E+03 -0.17518406457E+03  0.32075762024E+03  0.53805575033E+03  0.00000000000E+00 0.  1.
        -13    1    3    3    0    0 -0.60244015197E+03 -0.20669472418E+03  0.35830609837E+03  0.73078047719E+03  0.00000000000E+00 0. -1.
          4    1    6    6  502    0  0.23825265900E+02 -0.73033337513E+01  0.14509441095E+02  0.28835843320E+02  0.00000000000E+00 0. -1.
          1    1    5    5  503    0  0.49621479290E+02  0.36313545042E+02  0.55999186443E+02  0.83167744004E+02  0.00000000000E+00 0. -1.
         -2    1    5    5    0  503  0.85220561032E+03  0.59391893958E+03  0.53586824943E+03  0.11688237206E+04  0.00000000000E+00 0.  1.
         -3    1    6    6    0  502  0.71666363917E+02 -0.24105036213E+03  0.92048650094E+02  0.26779525534E+03  0.00000000000E+00 0.  1.
<mgrwt>
<rscale>  0 0.24577627E+04</rscale>
<asrwt>0</asrwt>
<pdfrwt beam="1">  1        1 0.11076689E+00 0.24577627E+04</pdfrwt>
<pdfrwt beam="2">  1       -1 0.32268831E+00 0.24577627E+04</pdfrwt>
<totfact> 0.54704308E-01</totfact>
</mgrwt>
</event>
<event>
12    1  0.1599266E-007  0.2835755E+04  0.7818608E-02  0.8292253E-01
          2   -1    0    0  501    0  0.00000000000E+00  0.00000000000E+00  0.19785971783E+04  0.19785971783E+04  0.00000000000E+00 0. -1.
         -2   -1    0    0    0  501 -0.00000000000E+00 -0.00000000000E+00 -0.10160613660E+04  0.10160613660E+04  0.00000000000E+00 0.  1.
         23    2    1    2    0    0  0.12228743829E+04 -0.14464227275E+03  0.69981111683E+03  0.14196737572E+04  0.96926953357E+02 0.  0.
        254    2    1    2    0    0 -0.12228743829E+04  0.14464227275E+03  0.26272469545E+03  0.15749847871E+04  0.94615520429E+03 0.  0.
        -24    2    4    4    0    0 -0.20443462547E+03 -0.14554168704E+03 -0.27870534299E+03  0.38331943527E+03  0.79254163842E+02 0.  0.
         24    2    4    4    0    0 -0.10184397574E+04  0.29018395979E+03  0.54143003844E+03  0.11916653518E+04  0.74118514607E+02 0.  0.
         11    1    3    3    0    0  0.21866789799E+03 -0.18412120440E+02  0.84166326191E+02  0.23502899024E+03  0.00000000000E+00 0.  1.
        -11    1    3    3    0    0  0.10042064849E+04 -0.12623015231E+03  0.61564479064E+03  0.11846447670E+04  0.00000000000E+00 0. -1.
          4    1    6    6  502    0 -0.53784282465E+03  0.13278493126E+03  0.24780460291E+03  0.60688867448E+03  0.00000000000E+00 0. -1.
          1    1    5    5  503    0 -0.81260986867E+02 -0.37284144264E+02 -0.15095779198E+03  0.17544717256E+03  0.00000000000E+00 0. -1.
         -2    1    5    5    0  503 -0.12317363860E+03 -0.10825754278E+03 -0.12774755101E+03  0.20787226271E+03  0.00000000000E+00 0.  1.
         -3    1    6    6    0  502 -0.48059693276E+03  0.15739902854E+03  0.29362543553E+03  0.58477667733E+03  0.00000000000E+00 0.  1.
<mgrwt>
<rscale>  0 0.28357547E+04</rscale>
<asrwt>0</asrwt>
<pdfrwt beam="1">  1        2 0.30439956E+00 0.28357547E+04</pdfrwt>
<pdfrwt beam="2">  1       -2 0.15631713E+00 0.28357547E+04</pdfrwt>
<totfact> 0.15988036E+00</totfact>
</mgrwt>
</event>
<event>
12    1  0.1599266E-007  0.2893908E+04  0.7818608E-02  0.8274692E-01
          2   -1    0    0  501    0  0.00000000000E+00  0.00000000000E+00  0.33253588305E+04  0.33253588305E+04  0.00000000000E+00 0. -1.
         -2   -1    0    0    0  501 -0.00000000000E+00 -0.00000000000E+00 -0.62960902511E+03  0.62960902511E+03  0.00000000000E+00 0.  1.
         23    2    1    2    0    0  0.33492927589E+03 -0.10798058953E+04  0.32397023922E+03  0.11795593091E+04  0.90802292382E+02 0.  0.
        254    2    1    2    0    0 -0.33492927589E+03  0.10798058953E+04  0.23717795661E+04  0.27754085465E+04  0.89408942401E+03 0.  0.
        -24    2    4    4    0    0  0.12132450506E+03  0.57039262612E+03  0.17542223095E+04  0.18503539594E+04  0.80289976978E+02 0.  0.
         24    2    4    4    0    0 -0.45625378095E+03  0.50941326922E+03  0.61755725661E+03  0.92505458708E+03  0.81729018097E+02 0.  0.
         13    1    3    3    0    0  0.21656848661E+03 -0.56972735730E+03  0.19972313358E+03  0.64138950813E+03  0.00000000000E+00 0. -1.
        -13    1    3    3    0    0  0.11836078928E+03 -0.51007853804E+03  0.12424710564E+03  0.53816980097E+03  0.00000000000E+00 0.  1.
          4    1    6    6  502    0 -0.39662852105E+03  0.40632915490E+03  0.53495670498E+03  0.78012578603E+03  0.00000000000E+00 0. -1.
          3    1    5    5  503    0  0.43248823383E+02  0.36270971459E+03  0.10261981489E+04  0.10892710584E+04  0.00000000000E+00 0. -1.
         -4    1    5    5    0  503  0.78075681678E+02  0.20768291154E+03  0.72802416057E+03  0.76108290100E+03  0.00000000000E+00 0.  1.
         -3    1    6    6    0  502 -0.59625259903E+02  0.10308411432E+03  0.82600551631E+02  0.14492880105E+03  0.00000000000E+00 0.  1.
<mgrwt>
<rscale>  0 0.28939080E+04</rscale>
<asrwt>0</asrwt>
<pdfrwt beam="1">  1        2 0.51159366E+00 0.28939080E+04</pdfrwt>
<pdfrwt beam="2">  1       -2 0.96862929E-01 0.28939080E+04</pdfrwt>
<totfact> 0.82322017E-01</totfact>
</mgrwt>
</event>
<event>
12    1  0.1599266E-007  0.3773432E+04  0.7818608E-02  0.8051880E-01
          2   -1    0    0  501    0  0.00000000000E+00  0.00000000000E+00  0.28451470957E+04  0.28451470957E+04  0.00000000000E+00 0. -1.
         -2   -1    0    0    0  501 -0.00000000000E+00 -0.00000000000E+00 -0.12511468340E+04  0.12511468340E+04  0.00000000000E+00 0.  1.
         23    2    1    2    0    0  0.86508979248E+03  0.15484286912E+04  0.88553934559E+03  0.19845560371E+04  0.90944880015E+02 0.  0.
        254    2    1    2    0    0 -0.86508979248E+03 -0.15484286912E+04  0.70846091606E+03  0.21117378926E+04  0.90083755280E+03 0.  0.
        -24    2    4    4    0    0 -0.54970704257E+03 -0.14938401794E+04  0.77933341188E+03  0.17740834394E+04  0.79215962802E+02 0.  0.
         24    2    4    4    0    0 -0.31538274990E+03 -0.54588511768E+02 -0.70872495821E+02  0.33765445316E+03  0.80879135271E+02 0.  0.
         11    1    3    3    0    0  0.82917202662E+03  0.14660829808E+04  0.85993234704E+03  0.18911396558E+04  0.00000000000E+00 0. -1.
        -11    1    3    3    0    0  0.35917765857E+02  0.82345710406E+02  0.25606998552E+02  0.93416381333E+02  0.00000000000E+00 0.  1.
          2    1    6    6  502    0 -0.10056789833E+02  0.21467988531E+01  0.12421420877E+02  0.16125739167E+02  0.00000000000E+00 0. -1.
          1    1    5    5  503    0 -0.76674804781E+00 -0.20110289027E+02  0.17303343526E+02  0.26540861412E+02  0.00000000000E+00 0. -1.
         -2    1    5    5    0  503 -0.54894029452E+03 -0.14737298904E+04  0.76203006836E+03  0.17475425780E+04  0.00000000000E+00 0.  1.
         -1    1    6    6    0  502 -0.30532596007E+03 -0.56735310621E+02 -0.83293916699E+02  0.32152871400E+03  0.00000000000E+00 0.  1.
<mgrwt>
<rscale>  0 0.37734317E+04</rscale>
<asrwt>0</asrwt>
<pdfrwt beam="1">  1        2 0.43771493E+00 0.37734317E+04</pdfrwt>
<pdfrwt beam="2">  1       -2 0.19248413E+00 0.37734317E+04</pdfrwt>
<totfact> 0.26010917E-01</totfact>
</mgrwt>
</event>
<event>
12    1  0.1599266E-007  0.1606266E+04  0.7818608E-02  0.8816708E-01
          2   -1    0    0  501    0  0.00000000000E+00  0.00000000000E+00  0.84760858539E+03  0.84760858539E+03  0.00000000000E+00 0. -1.
         -2   -1    0    0    0  501 -0.00000000000E+00 -0.00000000000E+00 -0.76099121728E+03  0.76099121728E+03  0.00000000000E+00 0.  1.
         23    2    1    2    0    0  0.12196194677E+03  0.11485605009E+03  0.55012231686E+03  0.58280906365E+03  0.94684805840E+02 0.  0.
        254    2    1    2    0    0 -0.12196194677E+03 -0.11485605009E+03 -0.46350494875E+03  0.10257907390E+04  0.89963502269E+03 0.  0.
        -24    2    4    4    0    0 -0.20105657667E+03  0.35311748582E+03 -0.11184030234E+03  0.42953722445E+03  0.82935325112E+02 0.  0.
         24    2    4    4    0    0  0.79094629898E+02 -0.46797353590E+03 -0.35166464641E+03  0.59625351457E+03  0.81209847405E+02 0.  0.
         11    1    3    3    0    0  0.76588483439E+02  0.11978188734E+03  0.46464868361E+03  0.48591346505E+03  0.00000000000E+00 0. -1.
        -11    1    3    3    0    0  0.45373463330E+02 -0.49258372525E+01  0.85473633251E+02  0.96895598601E+02  0.00000000000E+00 0.  1.
          4    1    6    6  502    0 -0.80706554333E+01 -0.12752051732E+03 -0.12031378055E+03  0.17550505293E+03  0.00000000000E+00 0. -1.
          1    1    5    5  503    0 -0.17847616384E+03  0.31075141690E+03 -0.68470460323E+02  0.36484022270E+03  0.00000000000E+00 0. -1.
         -2    1    5    5    0  503 -0.22580412829E+02  0.42366068917E+02 -0.43369842016E+02  0.64697001751E+02  0.00000000000E+00 0.  1.
         -3    1    6    6    0  502  0.87165285331E+02 -0.34045301859E+03 -0.23135086586E+03  0.42074846163E+03  0.00000000000E+00 0.  1.
<mgrwt>
<rscale>  0 0.16062661E+04</rscale>
<asrwt>0</asrwt>
<pdfrwt beam="1">  1        2 0.13040132E+00 0.16062661E+04</pdfrwt>
<pdfrwt beam="2">  1       -2 0.11707557E+00 0.16062661E+04</pdfrwt>
<totfact> 0.17235336E+01</totfact>
</mgrwt>
</event>
<event>
12    1  0.1599266E-007  0.1212418E+04  0.7818608E-02  0.9102056E-01
         -1   -1    0    0    0  501 -0.00000000000E+00  0.00000000000E+00  0.43463542816E+03  0.43463542816E+03  0.00000000000E+00 0.  1.
          1   -1    0    0  501    0  0.00000000000E+00 -0.00000000000E+00 -0.84551216443E+03  0.84551216443E+03  0.00000000000E+00 0. -1.
         23    2    1    2    0    0  0.34942582165E+02 -0.22896153554E+03 -0.18017129536E+03  0.30686724547E+03  0.89785532629E+02 0.  0.
        254    2    1    2    0    0 -0.34942582165E+02  0.22896153554E+03 -0.23070544091E+03  0.97328034711E+03  0.91673620241E+03 0.  0.
        -24    2    4    4    0    0 -0.63994897435E+02  0.13989873900E+03  0.34410708410E+03  0.38518845255E+03  0.79331296313E+02 0.  0.
         24    2    4    4    0    0  0.29052315269E+02  0.89062796536E+02 -0.57481252501E+03  0.58809189456E+03  0.81648140167E+02 0.  0.
         11    1    3    3    0    0  0.34385266358E+01 -0.40604865967E+02  0.47613265048E+01  0.41027415660E+02  0.00000000000E+00 0.  1.
        -11    1    3    3    0    0  0.31504055530E+02 -0.18835666957E+03 -0.18493262186E+03  0.26583982982E+03  0.00000000000E+00 0. -1.
          4    1    6    6  502    0  0.38648323575E+02  0.19181548268E+02 -0.11362225636E+03  0.12153864344E+03  0.00000000000E+00 0. -1.
          1    1    5    5  503    0 -0.56990982097E+02  0.47407924458E+02  0.10340115529E+03  0.12722925079E+03  0.00000000000E+00 0. -1.
         -2    1    5    5    0  503 -0.70039153375E+01  0.92490814546E+02  0.24070592881E+03  0.25795920176E+03  0.00000000000E+00 0.  1.
         -3    1    6    6    0  502 -0.95960083054E+01  0.69881248268E+02 -0.46119026865E+03  0.46655325112E+03  0.00000000000E+00 0.  1.
<mgrwt>
<rscale>  0 0.12124183E+04</rscale>
<asrwt>0</asrwt>
<pdfrwt beam="1">  1        1 0.13007879E+00 0.12124183E+04</pdfrwt>
<pdfrwt beam="2">  1       -1 0.66866990E-01 0.12124183E+04</pdfrwt>
<totfact> 0.45277661E+01</totfact>
</mgrwt>
</event>
<event>
12    1  0.1599266E-007  0.1626964E+04  0.7818608E-02  0.8804152E-01
         -2   -1    0    0    0  501 -0.00000000000E+00  0.00000000000E+00  0.80272425147E+03  0.80272425147E+03  0.00000000000E+00 0.  1.
          2   -1    0    0  501    0  0.00000000000E+00 -0.00000000000E+00 -0.82438423399E+03  0.82438423399E+03  0.00000000000E+00 0. -1.
         23    2    1    2    0    0 -0.42802228312E+03  0.36629385690E+03 -0.48752506373E+02  0.57192603470E+03  0.85722329911E+02 0.  0.
        254    2    1    2    0    0  0.42802228312E+03 -0.36629385690E+03  0.27092523853E+02  0.10551824508E+04  0.89179691358E+03 0.  0.
        -24    2    4    4    0    0  0.52758883984E+03 -0.54777873751E+03  0.17989192771E+03  0.78545389831E+03  0.78518733649E+02 0.  0.
         24    2    4    4    0    0 -0.99566556716E+02  0.18148488061E+03 -0.15279940386E+03  0.26972855244E+03  0.80966493533E+02 0.  0.
         11    1    3    3    0    0 -0.25815439314E+03  0.24926225309E+03  0.45074886694E+01  0.35888114880E+03  0.00000000000E+00 0.  1.
        -11    1    3    3    0    0 -0.16986788998E+03  0.11703160381E+03 -0.53259995043E+02  0.21304488590E+03  0.00000000000E+00 0. -1.
          4    1    6    6  502    0  0.22590548658E+01  0.74502449149E+02 -0.48755800483E+02  0.89066527601E+02  0.00000000000E+00 0. -1.
          1    1    5    5  503    0  0.16746753092E+03 -0.22648289792E+03  0.76690471359E+02  0.29192688359E+03  0.00000000000E+00 0. -1.
         -2    1    5    5    0  503  0.36012130892E+03 -0.32129583958E+03  0.10320145635E+03  0.49352701473E+03  0.00000000000E+00 0.  1.
         -3    1    6    6    0  502 -0.10182561158E+03  0.10698243146E+03 -0.10404360338E+03  0.18066202484E+03  0.00000000000E+00 0.  1.
<mgrwt>
<rscale>  0 0.16269643E+04</rscale>
<asrwt>0</asrwt>
<pdfrwt beam="1">  1        2 0.12682834E+00 0.16269643E+04</pdfrwt>
<pdfrwt beam="2">  1       -2 0.12349604E+00 0.16269643E+04</pdfrwt>
<totfact> 0.15648061E+01</totfact>
</mgrwt>
</event>
<event>
12    1  0.1599266E-007  0.1809621E+04  0.7818608E-02  0.8701200E-01
         -2   -1    0    0    0  501 -0.00000000000E+00  0.00000000000E+00  0.26232000266E+03  0.26232000266E+03  0.00000000000E+00 0.  1.
          2   -1    0    0  501    0  0.00000000000E+00 -0.00000000000E+00 -0.31209290069E+04  0.31209290069E+04  0.00000000000E+00 0. -1.
         23    2    1    2    0    0  0.25221341395E+03 -0.28836233827E+03 -0.21148654099E+04  0.21512248682E+04  0.91368963184E+02 0.  0.
        254    2    1    2    0    0 -0.25221341395E+03  0.28836233827E+03 -0.74374359438E+03  0.12320241414E+04  0.90441390215E+03 0.  0.
        -24    2    4    4    0    0 -0.49799825489E+03  0.38502519939E+03 -0.71437708795E+03  0.95559282436E+03  0.81094735524E+02 0.  0.
         24    2    4    4    0    0  0.24578484094E+03 -0.96662861122E+02 -0.29366506424E+02  0.27643131700E+03  0.76144497902E+02 0.  0.
         13    1    3    3    0    0  0.78984240289E+02 -0.15068247499E+03 -0.10394020597E+04  0.10532332886E+04  0.00000000000E+00 0. -1.
        -13    1    3    3    0    0  0.17322917366E+03 -0.13767986328E+03 -0.10754633501E+04  0.10979915796E+04  0.00000000000E+00 0.  1.
          4    1    6    6  502    0  0.22534748767E+03 -0.10894866891E+03 -0.21087585710E+02  0.25118914970E+03  0.00000000000E+00 0. -1.
          3    1    5    5  503    0 -0.35465882394E+03  0.23303338279E+03 -0.50796303835E+03  0.66190172021E+03  0.00000000000E+00 0. -1.
         -2    1    5    5    0  503 -0.14333943095E+03  0.15199181660E+03 -0.20641404960E+03  0.29369110414E+03  0.00000000000E+00 0.  1.
         -3    1    6    6    0  502  0.20437353268E+02  0.12285807786E+02 -0.82789207140E+01  0.25242167295E+02  0.00000000000E+00 0.  1.
<mgrwt>
<rscale>  0 0.18096211E+04</rscale>
<asrwt>0</asrwt>
<pdfrwt beam="1">  1        2 0.48014291E+00 0.18096211E+04</pdfrwt>
<pdfrwt beam="2">  1       -2 0.40356925E-01 0.18096211E+04</pdfrwt>
<totfact> 0.80371082E+00</totfact>
</mgrwt>
</event>
<event>
12    1  0.1599266E-007  0.2332263E+04  0.7818608E-02  0.8465308E-01
         -1   -1    0    0    0  501 -0.00000000000E+00  0.00000000000E+00  0.10177280657E+04  0.10177280657E+04  0.00000000000E+00 0.  1.
          1   -1    0    0  501    0  0.00000000000E+00 -0.00000000000E+00 -0.13361754375E+04  0.13361754375E+04  0.00000000000E+00 0. -1.
         23    2    1    2    0    0  0.19348078634E+03  0.93450544967E+03 -0.39765710458E+03  0.10380330159E+04  0.92984510116E+02 0.  0.
        254    2    1    2    0    0 -0.19348078634E+03 -0.93450544967E+03  0.79209732699E+02  0.13158704873E+04  0.90249969942E+03 0.  0.
        -24    2    4    4    0    0 -0.42621273271E+03 -0.52111185252E+03 -0.26126304352E+03  0.72653585487E+03  0.79881876255E+02 0.  0.
         24    2    4    4    0    0  0.23273194636E+03 -0.41339359715E+03  0.34047277621E+03  0.58933463243E+03  0.79593797586E+02 0.  0.
         13    1    3    3    0    0  0.73882664659E+02  0.24712634102E+03 -0.14560986073E+03  0.29619640123E+03  0.00000000000E+00 0.  1.
        -13    1    3    3    0    0  0.11959812168E+03  0.68737910865E+03 -0.25204724385E+03  0.74183661466E+03  0.00000000000E+00 0. -1.
          2    1    6    6  502    0  0.11876346073E+03 -0.22025263860E+03  0.22766691776E+03  0.33830195071E+03  0.00000000000E+00 0. -1.
          1    1    5    5  503    0 -0.11689672631E+03 -0.18739369268E+03 -0.11213497557E+03  0.24770041063E+03  0.00000000000E+00 0. -1.
         -2    1    5    5    0  503 -0.30931600640E+03 -0.33371815983E+03 -0.14912806795E+03  0.47883544424E+03  0.00000000000E+00 0.  1.
         -1    1    6    6    0  502  0.11396848564E+03 -0.19314095855E+03  0.11280585846E+03  0.25103268172E+03  0.00000000000E+00 0.  1.
<mgrwt>
<rscale>  0 0.23322635E+04</rscale>
<asrwt>0</asrwt>
<pdfrwt beam="1">  1        1 0.20556545E+00 0.23322635E+04</pdfrwt>
<pdfrwt beam="2">  1       -1 0.15657355E+00 0.23322635E+04</pdfrwt>
<totfact> 0.23847532E+00</totfact>
</mgrwt>
</event>
<event>
12    1  0.1599266E-007  0.2193280E+04  0.7818608E-02  0.8521230E-01
         -1   -1    0    0    0  501 -0.00000000000E+00  0.00000000000E+00  0.24474946060E+04  0.24474946060E+04  0.00000000000E+00 0.  1.
          1   -1    0    0  501    0  0.00000000000E+00 -0.00000000000E+00 -0.49136751882E+03  0.49136751882E+03  0.00000000000E+00 0. -1.
         23    2    1    2    0    0 -0.42097607414E+03 -0.58929948942E+02  0.18889364133E+04  0.19382368794E+04  0.89374679640E+02 0.  0.
        254    2    1    2    0    0  0.42097607414E+03  0.58929948942E+02  0.67190673909E+02  0.10006252454E+04  0.90335081849E+03 0.  0.
        -24    2    4    4    0    0  0.50582093614E+03  0.35057549313E+03 -0.12215313199E+03  0.63371067168E+03  0.88937235884E+02 0.  0.
         24    2    4    4    0    0 -0.84844862004E+02 -0.29164554418E+03  0.18934380590E+03  0.36691457376E+03  0.80743133166E+02 0.  0.
         11    1    3    3    0    0 -0.21319990724E+03  0.11371163629E+02  0.10129247264E+04  0.10351811460E+04  0.00000000000E+00 0. -1.
        -11    1    3    3    0    0 -0.20777616689E+03 -0.70301112571E+02  0.87601168689E+03  0.90305573334E+03  0.00000000000E+00 0.  1.
          4    1    6    6  502    0 -0.29592909751E+02 -0.22563135729E+03  0.12678329850E+03  0.26049808921E+03  0.00000000000E+00 0. -1.
          1    1    5    5  503    0  0.23145831771E+03  0.21284589910E+03 -0.72996233032E+02  0.32280765115E+03  0.00000000000E+00 0. -1.
         -2    1    5    5    0  503  0.27436261843E+03  0.13772959403E+03 -0.49156898959E+02  0.31090302053E+03  0.00000000000E+00 0.  1.
         -3    1    6    6    0  502 -0.55251952252E+02 -0.66014186892E+02  0.62560507400E+02  0.10641648455E+03  0.00000000000E+00 0.  1.
<mgrwt>
<rscale>  0 0.21932801E+04</rscale>
<asrwt>0</asrwt>
<pdfrwt beam="1">  1        1 0.75595004E-01 0.21932801E+04</pdfrwt>
<pdfrwt beam="2">  1       -1 0.37653763E+00 0.21932801E+04</pdfrwt>
<totfact> 0.42809623E-01</totfact>
</mgrwt>
</event>
<event>
12    1  0.1599266E-007  0.1613562E+04  0.7818608E-02  0.8812260E-01
         -2   -1    0    0    0  501 -0.00000000000E+00  0.00000000000E+00  0.14106133616E+04  0.14106133616E+04  0.00000000000E+00 0.  1.
          2   -1    0    0  501    0  0.00000000000E+00 -0.00000000000E+00 -0.46142721808E+03  0.46142721808E+03  0.00000000000E+00 0. -1.
         23    2    1    2    0    0 -0.50503067451E+03  0.17006929412E+03  0.23078214426E+03  0.59051287468E+03  0.10707712202E+03 0.  0.
        254    2    1    2    0    0  0.50503067451E+03 -0.17006929412E+03  0.71840399923E+03  0.12815277050E+04  0.91773057347E+03 0.  0.
        -24    2    4    4    0    0  0.60545914419E+03 -0.43647575548E+03  0.60761399067E+03  0.96566660309E+03  0.78900990259E+02 0.  0.
         24    2    4    4    0    0 -0.10042846968E+03  0.26640646135E+03  0.11079000856E+03  0.31586110187E+03  0.80221752084E+02 0.  0.
         11    1    3    3    0    0 -0.22596478448E+03  0.71811419210E+02  0.45505106926E+02  0.24142841281E+03  0.00000000000E+00 0.  1.
        -11    1    3    3    0    0 -0.27906589003E+03  0.98257874914E+02  0.18527703734E+03  0.34908446188E+03  0.00000000000E+00 0. -1.
          2    1    6    6  502    0 -0.39853158297E+02  0.16116377707E+03  0.10033246744E+03  0.19398103332E+03  0.00000000000E+00 0. -1.
          3    1    5    5  503    0  0.56945220421E+03 -0.38609727510E+03  0.54620863218E+03  0.87845932666E+03  0.00000000000E+00 0. -1.
         -4    1    5    5    0  503  0.36006939974E+02 -0.50378480373E+02  0.61405358492E+02  0.87207276431E+02  0.00000000000E+00 0.  1.
         -1    1    6    6    0  502 -0.60575311385E+02  0.10524268428E+03  0.10457541120E+02  0.12188006855E+03  0.00000000000E+00 0.  1.
<mgrwt>
<rscale>  0 0.16135618E+04</rscale>
<asrwt>0</asrwt>
<pdfrwt beam="1">  1        2 0.70988803E-01 0.16135618E+04</pdfrwt>
<pdfrwt beam="2">  1       -2 0.21701744E+00 0.16135618E+04</pdfrwt>
<totfact> 0.66782724E+00</totfact>
</mgrwt>
</event>
<event>
12    1  0.1599266E-007  0.1734843E+04  0.7818608E-02  0.8741738E-01
          2   -1    0    0  501    0  0.00000000000E+00  0.00000000000E+00  0.14160656162E+04  0.14160656162E+04  0.00000000000E+00 0.  1.
         -2   -1    0    0    0  501 -0.00000000000E+00 -0.00000000000E+00 -0.53134519123E+03  0.53134519123E+03  0.00000000000E+00 0. -1.
         23    2    1    2    0    0  0.26235421240E+03  0.12819522022E+03 -0.30203757813E+03  0.42991685450E+03  0.91312956009E+02 0.  0.
        254    2    1    2    0    0 -0.26235421240E+03 -0.12819522022E+03  0.11867580031E+04  0.15174939529E+04  0.89951631002E+03 0.  0.
        -24    2    4    4    0    0  0.25190395318E+03 -0.29086094399E+03  0.58778271217E+03  0.70735978865E+03  0.82544918093E+02 0.  0.
         24    2    4    4    0    0 -0.51425816558E+03  0.16266572377E+03  0.59897529092E+03  0.81013416427E+03  0.81390210858E+02 0.  0.
         13    1    3    3    0    0  0.63732431926E+02  0.10337547102E+02 -0.25001762329E+02  0.69237099007E+02  0.00000000000E+00 0.  1.
        -13    1    3    3    0    0  0.19862178047E+03  0.11785767312E+03 -0.27703581580E+03  0.36067975550E+03  0.00000000000E+00 0. -1.
          4    1    6    6  502    0 -0.44223898969E+03  0.15743339377E+03  0.48314229918E+03  0.67363720112E+03  0.00000000000E+00 0. -1.
          1    1    5    5  503    0  0.91611193736E+00  0.17293753774E+01  0.25775153336E+02  0.25849342927E+02  0.00000000000E+00 0. -1.
         -2    1    5    5    0  503  0.25098784124E+03 -0.29259031937E+03  0.56200755884E+03  0.68151044572E+03  0.00000000000E+00 0.  1.
         -3    1    6    6    0  502 -0.72019175898E+02  0.52323300025E+01  0.11583299174E+03  0.13649696315E+03  0.00000000000E+00 0.  1.
<mgrwt>
<rscale>  0 0.17348425E+04</rscale>
<asrwt>0</asrwt>
<pdfrwt beam="1">  1        2 0.21785625E+00 0.17348425E+04</pdfrwt>
<pdfrwt beam="2">  1       -2 0.81745414E-01 0.17348425E+04</pdfrwt>
<totfact> 0.17701179E+01</totfact>
</mgrwt>
</event>
<event>
12    1  0.1599266E-007  0.1710899E+04  0.7818608E-02  0.8755172E-01
          2   -1    0    0  501    0  0.00000000000E+00  0.00000000000E+00  0.42223750777E+04  0.42223750777E+04  0.00000000000E+00 0.  1.
         -2   -1    0    0    0  501 -0.00000000000E+00 -0.00000000000E+00 -0.17331339848E+03  0.17331339848E+03  0.00000000000E+00 0. -1.
         23    2    1    2    0    0  0.10292224510E+03 -0.57429467548E+03  0.18080263766E+04  0.19022238709E+04  0.95335793482E+02 0.  0.
        254    2    1    2    0    0 -0.10292224510E+03  0.57429467548E+03  0.22410353026E+04  0.24934646053E+04  0.92451022039E+03 0.  0.
        -24    2    4    4    0    0  0.26061054356E+03  0.65048649498E+03  0.13084419463E+04  0.14864825745E+04  0.80991245596E+02 0.  0.
         24    2    4    4    0    0 -0.36353278866E+03 -0.76191819497E+02  0.93259335628E+03  0.10069820308E+04  0.79505725472E+02 0.  0.
         13    1    3    3    0    0  0.67208647997E+02 -0.16487231183E+03  0.47445686837E+03  0.50676345716E+03  0.00000000000E+00 0. -1.
        -13    1    3    3    0    0  0.35713597104E+02 -0.40942236365E+03  0.13335695083E+04  0.13954604137E+04  0.00000000000E+00 0.  1.
          4    1    6    6  502    0 -0.11099653085E+03 -0.84091663622E+01  0.37411135414E+03  0.39032070050E+03  0.00000000000E+00 0. -1.
          1    1    5    5  503    0  0.51732048277E+02  0.60970973041E+02  0.15252822717E+03  0.17221650460E+03  0.00000000000E+00 0. -1.
         -2    1    5    5    0  503  0.20887849529E+03  0.58951552194E+03  0.11559137191E+04  0.13142660699E+04  0.00000000000E+00 0.  1.
         -3    1    6    6    0  502 -0.25253625781E+03 -0.67782653135E+02  0.55848200213E+03  0.61666133030E+03  0.00000000000E+00 0.  1.
<mgrwt>
<rscale>  0 0.17108994E+04</rscale>
<asrwt>0</asrwt>
<pdfrwt beam="1">  1        2 0.64959609E+00 0.17108994E+04</pdfrwt>
<pdfrwt beam="2">  1       -2 0.26663603E-01 0.17108994E+04</pdfrwt>
<totfact> 0.27525031E+00</totfact>
</mgrwt>
</event>
<event>
12    1  0.1599266E-007  0.1292991E+04  0.7818608E-02  0.9035142E-01
          2   -1    0    0  501    0  0.00000000000E+00  0.00000000000E+00  0.31012264754E+03  0.31012264754E+03  0.00000000000E+00 0. -1.
         -2   -1    0    0    0  501 -0.00000000000E+00 -0.00000000000E+00 -0.13477124999E+04  0.13477124999E+04  0.00000000000E+00 0.  1.
         23    2    1    2    0    0 -0.31661859980E+03 -0.11008027534E+02 -0.14749414671E+03  0.35970246684E+03  0.85222220856E+02 0.  0.
        254    2    1    2    0    0  0.31661859980E+03  0.11008027534E+02 -0.89009570562E+03  0.12981326806E+04  0.89023006960E+03 0.  0.
        -24    2    4    4    0    0  0.41490909094E+03  0.24251356571E+02 -0.24900047065E+02  0.42356198168E+03  0.77762831377E+02 0.  0.
         24    2    4    4    0    0 -0.98290491139E+02 -0.13243329036E+02 -0.86519565855E+03  0.87457069890E+03  0.80461005321E+02 0.  0.
         13    1    3    3    0    0 -0.10076803188E+03  0.25954017554E+02 -0.18941816726E+02  0.10576672301E+03  0.00000000000E+00 0. -1.
        -13    1    3    3    0    0 -0.21585056792E+03 -0.36962045088E+02 -0.12855232998E+03  0.25393574382E+03  0.00000000000E+00 0.  1.
          4    1    6    6  502    0 -0.53817527377E+02 -0.25959689273E+02 -0.71305101222E+03  0.71555012246E+03  0.00000000000E+00 0. -1.
          3    1    5    5  503    0  0.41740417277E+03  0.23149917102E+02 -0.20704734532E+02  0.41855805827E+03  0.00000000000E+00 0. -1.
         -4    1    5    5    0  503 -0.24950818352E+01  0.11014394692E+01 -0.41953125326E+01  0.50039234122E+01  0.00000000000E+00 0.  1.
         -3    1    6    6    0  502 -0.44472963762E+02  0.12716360236E+02 -0.15214464633E+03  0.15902057644E+03  0.00000000000E+00 0.  1.
<mgrwt>
<rscale>  0 0.12929906E+04</rscale>
<asrwt>0</asrwt>
<pdfrwt beam="1">  1        2 0.47711176E-01 0.12929906E+04</pdfrwt>
<pdfrwt beam="2">  1       -2 0.20734039E+00 0.12929906E+04</pdfrwt>
<totfact> 0.12351898E+01</totfact>
</mgrwt>
</event>
<event>
12    1  0.1599266E-007  0.1374330E+04  0.7818608E-02  0.8972612E-01
          2   -1    0    0  501    0  0.00000000000E+00  0.00000000000E+00  0.23818688878E+04  0.23818688878E+04  0.00000000000E+00 0.  1.
         -2   -1    0    0    0  501 -0.00000000000E+00 -0.00000000000E+00 -0.19824582799E+03  0.19824582799E+03  0.00000000000E+00 0. -1.
         23    2    1    2    0    0  0.21120848340E+03  0.14917785462E+03  0.11123424555E+04  0.11457474024E+04  0.92565199004E+02 0.  0.
        254    2    1    2    0    0 -0.21120848340E+03 -0.14917785462E+03  0.10712806043E+04  0.14343673134E+04  0.91809825221E+03 0.  0.
        -24    2    4    4    0    0 -0.50794473327E+03 -0.27188890701E+03  0.87209765844E+03  0.10481819020E+04  0.78737182748E+02 0.  0.
         24    2    4    4    0    0  0.29673624987E+03  0.12271105239E+03  0.19918294588E+03  0.38618541140E+03  0.79717762658E+02 0.  0.
         11    1    3    3    0    0  0.17086961623E+03  0.14082722494E+03  0.77862791566E+03  0.80949994693E+03  0.00000000000E+00 0. -1.
        -11    1    3    3    0    0  0.40338867170E+02  0.83506296814E+01  0.33371453983E+03  0.33624745547E+03  0.00000000000E+00 0.  1.
          4    1    6    6  502    0  0.29429310092E+03  0.11781173472E+03  0.17644137823E+03  0.36279414830E+03  0.00000000000E+00 0. -1.
          1    1    5    5  503    0 -0.44206099167E+03 -0.21550317752E+03  0.70023094789E+03  0.85567687842E+03  0.00000000000E+00 0. -1.
         -2    1    5    5    0  503 -0.65883741608E+02 -0.56385729487E+02  0.17186671055E+03  0.19250502355E+03  0.00000000000E+00 0.  1.
         -1    1    6    6    0  502  0.24431489515E+01  0.48993176736E+01  0.22741567651E+02  0.23391263106E+02  0.00000000000E+00 0.  1.
<mgrwt>
<rscale>  0 0.13743298E+04</rscale>
<asrwt>0</asrwt>
<pdfrwt beam="1">  1        2 0.36644135E+00 0.13743298E+04</pdfrwt>
<pdfrwt beam="2">  1       -2 0.30499360E-01 0.13743298E+04</pdfrwt>
<totfact> 0.39591657E+01</totfact>
</mgrwt>
</event>
<event>
12    1  0.1599266E-007  0.3138123E+04  0.7818608E-02  0.8205353E-01
          1   -1    0    0  501    0  0.00000000000E+00  0.00000000000E+00  0.22435509144E+04  0.22435509144E+04  0.00000000000E+00 0. -1.
         -1   -1    0    0    0  501 -0.00000000000E+00 -0.00000000000E+00 -0.10973468017E+04  0.10973468017E+04  0.00000000000E+00 0.  1.
         23    2    1    2    0    0  0.64469946545E+03  0.72453186554E+03 -0.60307421385E+03  0.11461190815E+04  0.96470807012E+02 0.  0.
        254    2    1    2    0    0 -0.64469946545E+03 -0.72453186554E+03  0.17492783265E+04  0.21947786346E+04  0.90360099963E+03 0.  0.
        -24    2    4    4    0    0  0.10130840902E+03  0.10332195524E+03  0.46059084405E+03  0.48939900122E+03  0.80178779004E+02 0.  0.
         24    2    4    4    0    0 -0.74600787446E+03 -0.82785382078E+03  0.12886874825E+04  0.17053796334E+04  0.75726938990E+02 0.  0.
         11    1    3    3    0    0  0.15550965760E+03  0.12669030676E+03 -0.15114898690E+03  0.25115673130E+03  0.00000000000E+00 0. -1.
        -11    1    3    3    0    0  0.48918980784E+03  0.59784155878E+03 -0.45192522694E+03  0.89496235018E+03  0.00000000000E+00 0.  1.
          4    1    6    6  502    0 -0.15718145704E+03 -0.13133343916E+03  0.22888892542E+03  0.30715569808E+03  0.00000000000E+00 0. -1.
          3    1    5    5  503    0  0.97351146745E+01 -0.39751534649E+00  0.14332590453E+01  0.98480814206E+01  0.00000000000E+00 0. -1.
         -4    1    5    5    0  503  0.91573294341E+02  0.10371947058E+03  0.45915758500E+03  0.47955091980E+03  0.00000000000E+00 0.  1.
         -3    1    6    6    0  502 -0.58882641742E+03 -0.69652038162E+03  0.10597985570E+04  0.13982239353E+04  0.00000000000E+00 0.  1.
<mgrwt>
<rscale>  0 0.31381226E+04</rscale>
<asrwt>0</asrwt>
<pdfrwt beam="1">  1        1 0.34516168E+00 0.31381226E+04</pdfrwt>
<pdfrwt beam="2">  1       -1 0.16882259E+00 0.31381226E+04</pdfrwt>
<totfact> 0.42947039E-01</totfact>
</mgrwt>
</event>
<event>
12    1  0.1599266E-007  0.1115882E+04  0.7818608E-02  0.9189849E-01
          1   -1    0    0  501    0  0.00000000000E+00  0.00000000000E+00  0.14200090597E+04  0.14200090597E+04  0.00000000000E+00 0. -1.
         -1   -1    0    0    0  501 -0.00000000000E+00 -0.00000000000E+00 -0.21922253776E+03  0.21922253776E+03  0.00000000000E+00 0.  1.
         23    2    1    2    0    0 -0.32913921385E+02 -0.16204970533E+03  0.13003794617E+03  0.22927574576E+03  0.91181505439E+02 0.  0.
        254    2    1    2    0    0  0.32913921385E+02  0.16204970533E+03  0.10707485757E+04  0.14099558517E+04  0.90229128223E+03 0.  0.
        -24    2    4    4    0    0  0.15685911847E+03 -0.34470082058E+03  0.50470980866E+03  0.63666195785E+03  0.84752692332E+02 0.  0.
         24    2    4    4    0    0 -0.12394519708E+03  0.50675052591E+03  0.56603876709E+03  0.77329389383E+03  0.73654959058E+02 0.  0.
         11    1    3    3    0    0 -0.32841694261E+01 -0.15804758389E+03  0.10097136115E+03  0.18757675847E+03  0.00000000000E+00 0.  1.
        -11    1    3    3    0    0 -0.29629751959E+02 -0.40021214319E+01  0.29066585012E+02  0.41698987295E+02  0.00000000000E+00 0. -1.
          4    1    6    6  502    0 -0.10265686732E+03  0.48010550593E+03  0.54349512997E+03  0.73241155475E+03  0.00000000000E+00 0. -1.
          3    1    5    5  503    0  0.13113848089E+03 -0.33518456867E+03  0.45809093676E+03  0.58257471846E+03  0.00000000000E+00 0. -1.
         -4    1    5    5    0  503  0.25720637575E+02 -0.95162519146E+01  0.46618871897E+02  0.54087239389E+02  0.00000000000E+00 0.  1.
         -3    1    6    6    0  502 -0.21288329762E+02  0.26645019980E+02  0.22543637118E+02  0.40882339076E+02  0.00000000000E+00 0.  1.
<mgrwt>
<rscale>  0 0.11158817E+04</rscale>
<asrwt>0</asrwt>
<pdfrwt beam="1">  1        1 0.21846293E+00 0.11158817E+04</pdfrwt>
<pdfrwt beam="2">  1       -1 0.33726545E-01 0.11158817E+04</pdfrwt>
<totfact> 0.61371004E+01</totfact>
</mgrwt>
</event>
<event>
12    1  0.1599266E-007  0.1679556E+04  0.7818608E-02  0.8773111E-01
          1   -1    0    0  501    0  0.00000000000E+00  0.00000000000E+00  0.18655771986E+04  0.18655771986E+04  0.00000000000E+00 0. -1.
         -1   -1    0    0    0  501 -0.00000000000E+00 -0.00000000000E+00 -0.37802079769E+03  0.37802079769E+03  0.00000000000E+00 0.  1.
         23    2    1    2    0    0 -0.77502301254E+02  0.16506049581E+03  0.12833003507E+04  0.12992871876E+04  0.89642801888E+02 0.  0.
        254    2    1    2    0    0  0.77502301254E+02 -0.16506049581E+03  0.20425605028E+03  0.94431080869E+03  0.90374265992E+03 0.  0.
        -24    2    4    4    0    0 -0.30377427264E+03 -0.17413358686E+03  0.37464144445E+03  0.51890729239E+03  0.79418205730E+02 0.  0.
         24    2    4    4    0    0  0.38127657390E+03  0.90730910495E+01 -0.17038539417E+03  0.42540351631E+03  0.80515975790E+02 0.  0.
         11    1    3    3    0    0 -0.93530946025E+02  0.12959145254E+03  0.11237550386E+04  0.11350627160E+04  0.00000000000E+00 0. -1.
        -11    1    3    3    0    0  0.16028644771E+02  0.35469043276E+02  0.15954531207E+03  0.16422447165E+03  0.00000000000E+00 0.  1.
          2    1    6    6  502    0  0.26587535123E+03  0.15790148719E+02 -0.15664548436E+03  0.30899326685E+03  0.00000000000E+00 0. -1.
          1    1    5    5  503    0 -0.15515885818E+03 -0.72016181201E+02  0.23589367275E+03  0.29138707327E+03  0.00000000000E+00 0. -1.
         -2    1    5    5    0  503 -0.14861541447E+03 -0.10211740566E+03  0.13874777170E+03  0.22752021912E+03  0.00000000000E+00 0.  1.
         -1    1    6    6    0  502  0.11540122267E+03 -0.67170576693E+01 -0.13739909801E+02  0.11641024945E+03  0.00000000000E+00 0.  1.
<mgrwt>
<rscale>  0 0.16795559E+04</rscale>
<asrwt>0</asrwt>
<pdfrwt beam="1">  1        1 0.28701187E+00 0.16795559E+04</pdfrwt>
<pdfrwt beam="2">  1       -1 0.58157047E-01 0.16795559E+04</pdfrwt>
<totfact> 0.10500178E+01</totfact>
</mgrwt>
</event>
<event>
12    1  0.1599266E-007  0.1718839E+04  0.7818608E-02  0.8750692E-01
         -2   -1    0    0    0  501 -0.00000000000E+00  0.00000000000E+00  0.31779531265E+03  0.31779531265E+03  0.00000000000E+00 0.  1.
          2   -1    0    0  501    0  0.00000000000E+00 -0.00000000000E+00 -0.23241421258E+04  0.23241421258E+04  0.00000000000E+00 0. -1.
         23    2    1    2    0    0  0.30531157705E+03 -0.50308199223E+03 -0.10354628755E+04  0.11945402448E+04  0.91849768762E+02 0.  0.
        254    2    1    2    0    0 -0.30531157705E+03  0.50308199223E+03 -0.97088393769E+03  0.14473971936E+04  0.89779528050E+03 0.  0.
        -24    2    4    4    0    0  0.11412125622E+02  0.57221292524E+03 -0.95083056876E+03  0.11125979541E+04  0.78978278597E+02 0.  0.
         24    2    4    4    0    0 -0.31672370267E+03 -0.69130933012E+02 -0.20053368933E+02  0.33479923956E+03  0.81212089458E+02 0.  0.
         11    1    3    3    0    0  0.27147968661E+03 -0.48824325560E+03 -0.96906772173E+03  0.11185593172E+04  0.00000000000E+00 0. -1.
        -11    1    3    3    0    0  0.33831890437E+02 -0.14838736629E+02 -0.66395153729E+02  0.75980927568E+02  0.00000000000E+00 0.  1.
          2    1    6    6  502    0 -0.28623387551E+03 -0.44857920789E+02  0.25657122932E+01  0.28973892978E+03  0.00000000000E+00 0. -1.
          3    1    5    5  503    0 -0.16723425063E+02  0.30568210477E+03 -0.56845840165E+03  0.64565174554E+03  0.00000000000E+00 0. -1.
         -4    1    5    5    0  503  0.28135550685E+02  0.26653082048E+03 -0.38237216711E+03  0.46694620853E+03  0.00000000000E+00 0.  1.
         -1    1    6    6    0  502 -0.30489827156E+02 -0.24273012223E+02 -0.22619081226E+02  0.45060309785E+02  0.00000000000E+00 0.  1.
<mgrwt>
<rscale>  0 0.17188385E+04</rscale>
<asrwt>0</asrwt>
<pdfrwt beam="1">  1        2 0.35756031E+00 0.17188385E+04</pdfrwt>
<pdfrwt beam="2">  1       -2 0.48891588E-01 0.17188385E+04</pdfrwt>
<totfact> 0.16546582E+01</totfact>
</mgrwt>
</event>
<event>
12    1  0.1599266E-007  0.3575100E+04  0.7818608E-02  0.8096219E-01
          2   -1    0    0  501    0  0.00000000000E+00  0.00000000000E+00  0.24637110113E+04  0.24637110113E+04  0.00000000000E+00 0. -1.
         -2   -1    0    0    0  501 -0.00000000000E+00 -0.00000000000E+00 -0.12969602677E+04  0.12969602677E+04  0.00000000000E+00 0.  1.
         23    2    1    2    0    0  0.55973411224E+02 -0.16717862470E+04  0.58664876067E+03  0.17748008556E+04  0.88085357581E+02 0.  0.
        254    2    1    2    0    0 -0.55973411224E+02  0.16717862470E+04  0.58010198294E+03  0.19858704235E+04  0.89953362908E+03 0.  0.
        -24    2    4    4    0    0 -0.32604083395E+03  0.12750292421E+04  0.13302568964E+03  0.13251447870E+04  0.79439780945E+02 0.  0.
         24    2    4    4    0    0  0.27006742272E+03  0.39675700483E+03  0.44707629329E+03  0.66072563643E+03  0.79552629777E+02 0.  0.
         13    1    3    3    0    0  0.56765001786E+02 -0.98182590403E+03  0.30632308320E+03  0.10300670864E+04  0.00000000000E+00 0. -1.
        -13    1    3    3    0    0 -0.79159056239E+00 -0.68996034293E+03  0.28032567747E+03  0.74473376913E+03  0.00000000000E+00 0.  1.
          2    1    6    6  502    0  0.94088385887E+02  0.99150463383E+02  0.89785736876E+02  0.16353873331E+03  0.00000000000E+00 0. -1.
          3    1    5    5  503    0 -0.70237928133E+02  0.37881683707E+03  0.64387304543E+02  0.39061654802E+03  0.00000000000E+00 0. -1.
         -4    1    5    5    0  503 -0.25580290581E+03  0.89621240505E+03  0.68638385100E+02  0.93452823901E+03  0.00000000000E+00 0.  1.
         -1    1    6    6    0  502  0.17597903684E+03  0.29760654145E+03  0.35729055642E+03  0.49718690311E+03  0.00000000000E+00 0.  1.
<mgrwt>
<rscale>  0 0.35751002E+04</rscale>
<asrwt>0</asrwt>
<pdfrwt beam="1">  1        2 0.37903246E+00 0.35751002E+04</pdfrwt>
<pdfrwt beam="2">  1       -2 0.19953235E+00 0.35751002E+04</pdfrwt>
<totfact> 0.39964841E-01</totfact>
</mgrwt>
</event>
<event>
12    1  0.1599266E-007  0.2535817E+04  0.7818608E-02  0.8390336E-01
          2   -1    0    0  501    0  0.00000000000E+00  0.00000000000E+00  0.14767678868E+04  0.14767678868E+04  0.00000000000E+00 0. -1.
         -2   -1    0    0    0  501 -0.00000000000E+00 -0.00000000000E+00 -0.10885878887E+04  0.10885878887E+04  0.00000000000E+00 0.  1.
         23    2    1    2    0    0  0.10118351860E+04 -0.44357858367E+03  0.77394319433E+02  0.11112258287E+04  0.90887612993E+02 0.  0.
        254    2    1    2    0    0 -0.10118351860E+04  0.44357858367E+03  0.31078567867E+03  0.14541299467E+04  0.89293547382E+03 0.  0.
        -24    2    4    4    0    0 -0.12728228918E+03  0.44371338073E+03  0.31755535496E+03  0.56559000006E+03  0.77254768922E+02 0.  0.
         24    2    4    4    0    0 -0.88455289679E+03 -0.13479705770E+00 -0.67696762946E+01  0.88853994666E+03  0.83806699599E+02 0.  0.
         11    1    3    3    0    0  0.70872885220E+03 -0.32262252602E+03  0.14318229939E+02  0.77883688404E+03  0.00000000000E+00 0.  1.
        -11    1    3    3    0    0  0.30310633378E+03 -0.12095605765E+03  0.63076089494E+02  0.33238894465E+03  0.00000000000E+00 0. -1.
          4    1    6    6  502    0 -0.52385416046E+03  0.23659350811E+02  0.29659540296E+02  0.52522626995E+03  0.00000000000E+00 0. -1.
          1    1    5    5  503    0 -0.53207845019E+02  0.75473398368E+02  0.58837799737E+02  0.10949518396E+03  0.00000000000E+00 0. -1.
         -2    1    5    5    0  503 -0.74074444163E+02  0.36823998236E+03  0.25871755522E+03  0.45609481609E+03  0.00000000000E+00 0.  1.
         -3    1    6    6    0  502 -0.36069873633E+03 -0.23794147868E+02 -0.36429216590E+02  0.36331367671E+03  0.00000000000E+00 0.  1.
<mgrwt>
<rscale>  0 0.25358167E+04</rscale>
<asrwt>0</asrwt>
<pdfrwt beam="1">  1        2 0.22719506E+00 0.25358167E+04</pdfrwt>
<pdfrwt beam="2">  1       -2 0.16747506E+00 0.25358167E+04</pdfrwt>
<totfact> 0.25855149E+00</totfact>
</mgrwt>
</event>
<event>
12    1  0.1599266E-007  0.2829253E+04  0.7818608E-02  0.8294244E-01
          1   -1    0    0  501    0  0.00000000000E+00  0.00000000000E+00  0.23142087126E+04  0.23142087126E+04  0.00000000000E+00 0. -1.
         -1   -1    0    0    0  501 -0.00000000000E+00 -0.00000000000E+00 -0.86473117967E+03  0.86473117967E+03  0.00000000000E+00 0.  1.
         23    2    1    2    0    0  0.10192093823E+04  0.38419269045E+03  0.13995284581E+04  0.17759615683E+04  0.94698462393E+02 0.  0.
        254    2    1    2    0    0 -0.10192093823E+04 -0.38419269045E+03  0.49949074838E+02  0.14029783239E+04  0.88287115642E+03 0.  0.
        -24    2    4    4    0    0 -0.68759589720E+03 -0.58432282044E+03  0.27683039831E+03  0.94724373063E+03  0.80089571498E+02 0.  0.
         24    2    4    4    0    0 -0.33161348515E+03  0.20013012999E+03 -0.22688132347E+03  0.45573459328E+03  0.78735710506E+02 0.  0.
         11    1    3    3    0    0  0.14190231214E+03  0.40110010735E+02  0.24131940059E+03  0.28280758875E+03  0.00000000000E+00 0.  1.
        -11    1    3    3    0    0  0.87730707021E+03  0.34408267971E+03  0.11582090575E+04  0.14931539796E+04  0.00000000000E+00 0. -1.
          2    1    6    6  502    0 -0.33504750001E+03  0.19514262471E+03 -0.21750763362E+03  0.44457512517E+03  0.00000000000E+00 0. -1.
          3    1    5    5  503    0 -0.44756099190E+03 -0.41441980297E+03  0.15826313372E+03  0.63016016541E+03  0.00000000000E+00 0. -1.
         -4    1    5    5    0  503 -0.24003490529E+03 -0.16990301747E+03  0.11856726459E+03  0.31708356523E+03  0.00000000000E+00 0.  1.
         -1    1    6    6    0  502  0.34340148570E+01  0.49875052830E+01 -0.93736898571E+01  0.11159468111E+02  0.00000000000E+00 0.  1.
<mgrwt>
<rscale>  0 0.28292532E+04</rscale>
<asrwt>0</asrwt>
<pdfrwt beam="1">  1        1 0.35603211E+00 0.28292532E+04</pdfrwt>
<pdfrwt beam="2">  1       -1 0.13303557E+00 0.28292532E+04</pdfrwt>
<totfact> 0.75138479E-01</totfact>
</mgrwt>
</event>
<event>
12    1  0.1599266E-007  0.1554508E+04  0.7818608E-02  0.8848994E-01
         -3   -1    0    0    0  501 -0.00000000000E+00  0.00000000000E+00  0.59471769893E+03  0.59471769893E+03  0.00000000000E+00 0.  1.
          3   -1    0    0  501    0  0.00000000000E+00 -0.00000000000E+00 -0.10158158207E+04  0.10158158207E+04  0.00000000000E+00 0. -1.
         23    2    1    2    0    0 -0.23536254986E+03  0.43282633643E+03 -0.13152263496E+02  0.50141943674E+03  0.92272976118E+02 0.  0.
        254    2    1    2    0    0  0.23536254986E+03 -0.43282633643E+03 -0.40794585823E+03  0.11091140828E+04  0.90607949879E+03 0.  0.
        -24    2    4    4    0    0  0.42967611855E+03 -0.57788591155E+03 -0.44655030129E+03  0.85156533468E+03  0.84750539957E+02 0.  0.
         24    2    4    4    0    0 -0.19431356869E+03  0.14505957512E+03  0.38604443061E+02  0.25754874816E+03  0.77723943174E+02 0.  0.
         11    1    3    3    0    0 -0.21780023884E+03  0.41887728089E+03 -0.30445944538E+02  0.47309837880E+03  0.00000000000E+00 0.  1.
        -11    1    3    3    0    0 -0.17562311021E+02  0.13949055538E+02  0.17293681042E+02  0.28321057939E+02  0.00000000000E+00 0. -1.
          2    1    6    6  502    0 -0.96449319324E+02  0.96956781635E+02  0.54752642789E+02  0.14731239118E+03  0.00000000000E+00 0. -1.
          1    1    5    5  503    0  0.39456050883E+03 -0.53306577131E+03 -0.43593108369E+03  0.79364540028E+03  0.00000000000E+00 0. -1.
         -2    1    5    5    0  503  0.35115609723E+02 -0.44820140246E+02 -0.10619217597E+02  0.57919934394E+02  0.00000000000E+00 0.  1.
         -1    1    6    6    0  502 -0.97864249369E+02  0.48102793490E+02 -0.16148199728E+02  0.11023635698E+03  0.00000000000E+00 0.  1.
<mgrwt>
<rscale>  0 0.15545078E+04</rscale>
<asrwt>0</asrwt>
<pdfrwt beam="1">  1        3 0.15627935E+00 0.15545078E+04</pdfrwt>
<pdfrwt beam="2">  1       -3 0.91495032E-01 0.15545078E+04</pdfrwt>
<totfact> 0.78648389E-01</totfact>
</mgrwt>
</event>
<event>
12    1  0.1599266E-007  0.2209039E+04  0.7818608E-02  0.8514675E-01
          1   -1    0    0  501    0  0.00000000000E+00  0.00000000000E+00  0.11227308049E+04  0.11227308049E+04  0.00000000000E+00 0. -1.
         -1   -1    0    0    0  501 -0.00000000000E+00 -0.00000000000E+00 -0.10866038163E+04  0.10866038163E+04  0.00000000000E+00 0.  1.
         23    2    1    2    0    0 -0.91880055086E+03 -0.98281695727E+02 -0.38142168933E+02  0.92911431229E+03  0.89133811033E+02 0.  0.
        254    2    1    2    0    0  0.91880055086E+03  0.98281695727E+02  0.74269157483E+02  0.12802203089E+04  0.88294642400E+03 0.  0.
        -24    2    4    4    0    0  0.51330539967E+03  0.94324661630E+02 -0.39160693704E+03  0.65743939042E+03  0.80566642090E+02 0.  0.
         24    2    4    4    0    0  0.40549515119E+03  0.39570340975E+01  0.46587609452E+03  0.62278091850E+03  0.79834586785E+02 0.  0.
         13    1    3    3    0    0 -0.53155888329E+03 -0.47876908676E+02 -0.65154211218E+02  0.53767287083E+03  0.00000000000E+00 0. -1.
        -13    1    3    3    0    0 -0.38724166757E+03 -0.50404787051E+02  0.27012042284E+02  0.39144144146E+03  0.00000000000E+00 0.  1.
          4    1    6    6  502    0  0.98346576821E+02  0.32762642611E+02  0.97720205673E+02  0.14245939253E+03  0.00000000000E+00 0. -1.
          3    1    5    5  503    0  0.15749175653E+03  0.57220867347E+01 -0.82657848688E+02  0.17795706111E+03  0.00000000000E+00 0. -1.
         -4    1    5    5    0  503  0.35581364315E+03  0.88602574895E+02 -0.30894908835E+03  0.47948232931E+03  0.00000000000E+00 0.  1.
         -3    1    6    6    0  502  0.30714857437E+03 -0.28805608514E+02  0.36815588885E+03  0.48032152597E+03  0.00000000000E+00 0.  1.
<mgrwt>
<rscale>  0 0.22090392E+04</rscale>
<asrwt>0</asrwt>
<pdfrwt beam="1">  1        1 0.17272782E+00 0.22090392E+04</pdfrwt>
<pdfrwt beam="2">  1       -1 0.16716982E+00 0.22090392E+04</pdfrwt>
<totfact> 0.28675104E+00</totfact>
</mgrwt>
</event>
<event>
12    1  0.1599266E-007  0.2391022E+04  0.7818608E-02  0.8442872E-01
         -1   -1    0    0    0  501 -0.00000000000E+00  0.00000000000E+00  0.26823588386E+04  0.26823588386E+04  0.00000000000E+00 0. -1.
          1   -1    0    0  501    0  0.00000000000E+00 -0.00000000000E+00 -0.53283207487E+03  0.53283207487E+03  0.00000000000E+00 0.  1.
         23    2    1    2    0    0 -0.45390875773E+03 -0.39513023767E+03 -0.18845040083E+03  0.63703322115E+03  0.90203692880E+02 0.  0.
        254    2    1    2    0    0  0.45390875773E+03  0.39513023767E+03  0.23379771646E+04  0.25781576923E+04  0.90476449939E+03 0.  0.
        -24    2    4    4    0    0  0.46310880010E+03  0.53136376236E+03  0.97548791709E+03  0.12064777914E+04  0.84822025416E+02 0.  0.
         24    2    4    4    0    0 -0.92000423644E+01 -0.13623352469E+03  0.13624892475E+04  0.13716799010E+04  0.80526934311E+02 0.  0.
         13    1    3    3    0    0 -0.20348362958E+03 -0.19001496567E+03 -0.41312894647E+02  0.28145697708E+03  0.00000000000E+00 0. -1.
        -13    1    3    3    0    0 -0.25042512816E+03 -0.20511527200E+03 -0.14713750619E+03  0.35557624407E+03  0.00000000000E+00 0.  1.
          4    1    6    6  502    0 -0.19033734842E+02 -0.14142565125E+03  0.11375055176E+04  0.11464215195E+04  0.00000000000E+00 0. -1.
          1    1    5    5  503    0  0.27081831853E+03  0.35055830807E+03  0.55651471717E+03  0.71129622481E+03  0.00000000000E+00 0. -1.
         -2    1    5    5    0  503  0.19229048156E+03  0.18080545430E+03  0.41897319992E+03  0.49518156656E+03  0.00000000000E+00 0.  1.
         -3    1    6    6    0  502  0.98336924773E+01  0.51921265584E+01  0.22498372991E+03  0.22525838145E+03  0.00000000000E+00 0.  1.
<mgrwt>
<rscale>  0 0.23910222E+04</rscale>
<asrwt>0</asrwt>
<pdfrwt beam="1">  1        1 0.81974167E-01 0.23910222E+04</pdfrwt>
<pdfrwt beam="2">  1       -1 0.41267058E+00 0.23910222E+04</pdfrwt>
<totfact> 0.21309316E-01</totfact>
</mgrwt>
</event>
<event>
12    1  0.1599266E-007  0.1650987E+04  0.7818608E-02  0.8789823E-01
         -2   -1    0    0    0  501 -0.00000000000E+00  0.00000000000E+00  0.30799101365E+03  0.30799101365E+03  0.00000000000E+00 0. -1.
          2   -1    0    0  501    0  0.00000000000E+00 -0.00000000000E+00 -0.22125305808E+04  0.22125305808E+04  0.00000000000E+00 0.  1.
         23    2    1    2    0    0 -0.31516735509E+03  0.15288147048E+03 -0.13621196803E+04  0.14098252653E+04  0.97642456821E+02 0.  0.
        254    2    1    2    0    0  0.31516735509E+03 -0.15288147048E+03 -0.54241988682E+03  0.11106963292E+04  0.90372772241E+03 0.  0.
        -24    2    4    4    0    0  0.39539043574E+03  0.77547451102E+02  0.96429388696E+02  0.42240267790E+03  0.82329772551E+02 0.  0.
         24    2    4    4    0    0 -0.80223080647E+02 -0.23042892158E+03 -0.63884927552E+03  0.68829365125E+03  0.78016171142E+02 0.  0.
         11    1    3    3    0    0 -0.43769046680E+01 -0.10858622322E+02 -0.31125959914E+02  0.33254959837E+02  0.00000000000E+00 0. -1.
        -11    1    3    3    0    0 -0.31079045042E+03  0.16374009280E+03 -0.13309937204E+04  0.13765703054E+04  0.00000000000E+00 0.  1.
          4    1    6    6  502    0 -0.51574148560E+02 -0.17971361995E+03 -0.55912973147E+03  0.58956164615E+03  0.00000000000E+00 0. -1.
          3    1    5    5  503    0  0.38545840953E+03  0.59680160683E+02  0.97077443344E+02  0.40195016738E+03  0.00000000000E+00 0. -1.
         -4    1    5    5    0  503  0.99320262078E+01  0.17867290418E+02 -0.64805464763E+00  0.20452510514E+02  0.00000000000E+00 0.  1.
         -3    1    6    6    0  502 -0.28648932087E+02 -0.50715301632E+02 -0.79719544047E+02  0.98732005107E+02  0.00000000000E+00 0.  1.
<mgrwt>
<rscale>  0 0.16509870E+04</rscale>
<asrwt>0</asrwt>
<pdfrwt beam="1">  1        2 0.34038933E+00 0.16509870E+04</pdfrwt>
<pdfrwt beam="2">  1       -2 0.47383231E-01 0.16509870E+04</pdfrwt>
<totfact> 0.20498755E+01</totfact>
</mgrwt>
</event>
<event>
12    1  0.1599266E-007  0.1498183E+04  0.7818608E-02  0.8885662E-01
          1   -1    0    0  501    0  0.00000000000E+00  0.00000000000E+00  0.12480356677E+04  0.12480356677E+04  0.00000000000E+00 0. -1.
         -1   -1    0    0    0  501 -0.00000000000E+00 -0.00000000000E+00 -0.44961681698E+03  0.44961681698E+03  0.00000000000E+00 0.  1.
         23    2    1    2    0    0  0.26849442200E+03  0.44771166663E+02 -0.18898634411E+03  0.34357959682E+03  0.90760063258E+02 0.  0.
        254    2    1    2    0    0 -0.26849442200E+03 -0.44771166663E+02  0.98740519485E+03  0.13540728879E+04  0.88569218967E+03 0.  0.
        -24    2    4    4    0    0  0.13192659024E+02 -0.25761551207E+03 -0.32150983440E+02  0.27209743333E+03  0.80396076867E+02 0.  0.
         24    2    4    4    0    0 -0.28168708103E+03  0.21284434541E+03  0.10195561783E+04  0.10819754545E+04  0.80782154891E+02 0.  0.
         11    1    3    3    0    0  0.19886464442E+03  0.34082797563E+02 -0.18382130488E+03  0.27294515203E+03  0.00000000000E+00 0.  1.
        -11    1    3    3    0    0  0.69629777583E+02  0.10688369100E+02 -0.51650392229E+01  0.70634444788E+02  0.00000000000E+00 0. -1.
          4    1    6    6  502    0 -0.14581684393E+03  0.12042133670E+03  0.66170466674E+03  0.68819831175E+03  0.00000000000E+00 0. -1.
          3    1    5    5  503    0  0.21861636936E+02 -0.25546859060E+03 -0.40843144222E+02  0.25963492520E+03  0.00000000000E+00 0. -1.
         -4    1    5    5    0  503 -0.86689779113E+01 -0.21469214710E+01  0.86921607815E+01  0.12462508130E+02  0.00000000000E+00 0.  1.
         -3    1    6    6    0  502 -0.13587023710E+03  0.92423008716E+02  0.35785151154E+03  0.39377714279E+03  0.00000000000E+00 0.  1.
<mgrwt>
<rscale>  0 0.14981827E+04</rscale>
<asrwt>0</asrwt>
<pdfrwt beam="1">  1        1 0.19200549E+00 0.14981827E+04</pdfrwt>
<pdfrwt beam="2">  1       -1 0.69171818E-01 0.14981827E+04</pdfrwt>
<totfact> 0.20167805E+01</totfact>
</mgrwt>
</event>
<event>
12    1  0.1599266E-007  0.1527587E+04  0.7818608E-02  0.8866312E-01
          1   -1    0    0  501    0  0.00000000000E+00  0.00000000000E+00  0.68133559672E+03  0.68133559672E+03  0.00000000000E+00 0. -1.
         -1   -1    0    0    0  501 -0.00000000000E+00 -0.00000000000E+00 -0.85623100913E+03  0.85623100913E+03  0.00000000000E+00 0.  1.
         23    2    1    2    0    0  0.39034077952E+03  0.23202137924E+03 -0.24346936519E+03  0.52357243914E+03  0.93010336304E+02 0.  0.
        254    2    1    2    0    0 -0.39034077952E+03 -0.23202137924E+03  0.68573952778E+02  0.10139941667E+04  0.90403646969E+03 0.  0.
        -24    2    4    4    0    0  0.24109200938E+03 -0.21699096979E+03  0.16043580262E+03  0.37080786012E+03  0.80922088531E+02 0.  0.
         24    2    4    4    0    0 -0.63143278890E+03 -0.15030409454E+02 -0.91861849843E+02  0.64318630658E+03  0.79477955531E+02 0.  0.
         13    1    3    3    0    0  0.32621630791E+03  0.17646832790E+03 -0.23320391394E+03  0.43811210412E+03  0.00000000000E+00 0.  1.
        -13    1    3    3    0    0  0.64124471608E+02  0.55553051334E+02 -0.10265451246E+02  0.85460335015E+02  0.00000000000E+00 0. -1.
          2    1    6    6  502    0 -0.39190567937E+03  0.26886603108E+02 -0.70269684526E+02  0.39906237547E+03  0.00000000000E+00 0. -1.
          3    1    5    5  503    0  0.11687452938E+03 -0.68751378668E+02  0.34168777360E+02  0.13983530682E+03  0.00000000000E+00 0. -1.
         -4    1    5    5    0  503  0.12421747999E+03 -0.14823959112E+03  0.12626702526E+03  0.23097255330E+03  0.00000000000E+00 0.  1.
         -1    1    6    6    0  502 -0.23952710952E+03 -0.41917012562E+02 -0.21592165317E+02  0.24412393111E+03  0.00000000000E+00 0.  1.
<mgrwt>
<rscale>  0 0.15275872E+04</rscale>
<asrwt>0</asrwt>
<pdfrwt beam="1">  1        1 0.10482086E+00 0.15275872E+04</pdfrwt>
<pdfrwt beam="2">  1       -1 0.13172785E+00 0.15275872E+04</pdfrwt>
<totfact> 0.13439095E+01</totfact>
</mgrwt>
</event>
<event>
12    1  0.1599266E-007  0.1225819E+04  0.7818608E-02  0.9090553E-01
          1   -1    0    0  501    0  0.00000000000E+00  0.00000000000E+00  0.65647961641E+03  0.65647961641E+03  0.00000000000E+00 0. -1.
         -1   -1    0    0    0  501 -0.00000000000E+00 -0.00000000000E+00 -0.57223088132E+03  0.57223088132E+03  0.00000000000E+00 0.  1.
         23    2    1    2    0    0 -0.22437764678E+03 -0.22853252125E+02 -0.12629703076E+03  0.27390282472E+03  0.90577137850E+02 0.  0.
        254    2    1    2    0    0  0.22437764678E+03  0.22853252125E+02  0.21054576586E+03  0.95480767301E+03  0.90358207896E+03 0.  0.
        -24    2    4    4    0    0  0.97817552316E+02 -0.32802081129E+03  0.39706069148E+03  0.53033407292E+03  0.80194201802E+02 0.  0.
         24    2    4    4    0    0  0.12656009446E+03  0.35087406342E+03 -0.18651492562E+03  0.42447360009E+03  0.79119869849E+02 0.  0.
         11    1    3    3    0    0 -0.19735623723E+03 -0.36465301406E+02 -0.13564305914E+03  0.24223592234E+03  0.00000000000E+00 0.  1.
        -11    1    3    3    0    0 -0.27021409551E+02  0.13612049281E+02  0.93460283747E+01  0.31666902377E+02  0.00000000000E+00 0. -1.
          4    1    6    6  502    0  0.73618515749E+01  0.14534373339E+02  0.79056954168E+01  0.18109248659E+02  0.00000000000E+00 0. -1.
          1    1    5    5  503    0 -0.99072874735E+01 -0.50905220273E+01  0.12363499940E+02  0.16641030327E+02  0.00000000000E+00 0. -1.
         -2    1    5    5    0  503  0.10772483979E+03 -0.32293028926E+03  0.38469719154E+03  0.51369304260E+03  0.00000000000E+00 0.  1.
         -3    1    6    6    0  502  0.11919824289E+03  0.33633969008E+03 -0.19442062104E+03  0.40636435143E+03  0.00000000000E+00 0.  1.
<mgrwt>
<rscale>  0 0.12258188E+04</rscale>
<asrwt>0</asrwt>
<pdfrwt beam="1">  1        1 0.10099686E+00 0.12258188E+04</pdfrwt>
<pdfrwt beam="2">  1       -1 0.88035521E-01 0.12258188E+04</pdfrwt>
<totfact> 0.37616218E+01</totfact>
</mgrwt>
</event>
<event>
12    1  0.1599266E-007  0.4160619E+04  0.7818608E-02  0.7972906E-01
          1   -1    0    0  501    0  0.00000000000E+00  0.00000000000E+00  0.35629581569E+04  0.35629581569E+04  0.00000000000E+00 0. -1.
         -1   -1    0    0    0  501 -0.00000000000E+00 -0.00000000000E+00 -0.12146332422E+04  0.12146332422E+04  0.00000000000E+00 0.  1.
         23    2    1    2    0    0 -0.11001374403E+04  0.11424578718E+04  0.24822725364E+04  0.29471462744E+04  0.92096912649E+02 0.  0.
        254    2    1    2    0    0  0.11001374403E+04 -0.11424578718E+04 -0.13394762169E+03  0.18304451246E+04  0.90392201684E+03 0.  0.
        -24    2    4    4    0    0  0.39705060352E+03 -0.10251006436E+03  0.28337241117E+03  0.50492053258E+03  0.80543936820E+02 0.  0.
         24    2    4    4    0    0  0.70308683679E+03 -0.10399478074E+04 -0.41732003286E+03  0.13255245921E+04  0.83886185041E+02 0.  0.
         11    1    3    3    0    0 -0.50680461701E+03  0.51409419079E+03  0.10465148004E+04  0.12713524233E+04  0.00000000000E+00 0.  1.
        -11    1    3    3    0    0 -0.59333282330E+03  0.62836368101E+03  0.14357577361E+04  0.16757938511E+04  0.00000000000E+00 0. -1.
          2    1    6    6  502    0  0.29516051049E+02 -0.46226689785E+02 -0.87481535850E+00  0.54853162351E+02  0.00000000000E+00 0. -1.
          3    1    5    5  503    0  0.17575239078E+03 -0.48209953377E+01  0.11185774747E+03  0.20838498154E+03  0.00000000000E+00 0. -1.
         -4    1    5    5    0  503  0.22129821273E+03 -0.97689069025E+02  0.17151466370E+03  0.29653555104E+03  0.00000000000E+00 0.  1.
         -1    1    6    6    0  502  0.67357078574E+03 -0.99372111766E+03 -0.41644521750E+03  0.12706714297E+04  0.00000000000E+00 0.  1.
<mgrwt>
<rscale>  0 0.41606189E+04</rscale>
<asrwt>0</asrwt>
<pdfrwt beam="1">  1        1 0.54814740E+00 0.41606189E+04</pdfrwt>
<pdfrwt beam="2">  1       -1 0.18686665E+00 0.41606189E+04</pdfrwt>
<totfact> 0.31933529E-02</totfact>
</mgrwt>
</event>
<event>
12    1  0.1599266E-007  0.2065702E+04  0.7818608E-02  0.8576504E-01
          1   -1    0    0  501    0  0.00000000000E+00  0.00000000000E+00  0.97537034573E+03  0.97537034573E+03  0.00000000000E+00 0. -1.
         -1   -1    0    0    0  501 -0.00000000000E+00 -0.00000000000E+00 -0.10937186002E+04  0.10937186002E+04  0.00000000000E+00 0.  1.
         23    2    1    2    0    0  0.30583814203E+03 -0.61897037131E+03  0.40867636355E+03  0.80706226579E+03  0.87589046456E+02 0.  0.
        254    2    1    2    0    0 -0.30583814203E+03  0.61897037131E+03 -0.52702461800E+03  0.12620266801E+04  0.91558456938E+03 0.  0.
        -24    2    4    4    0    0 -0.38348977017E+03 -0.96932755739E+02 -0.30285230085E+03  0.50371575422E+03  0.74496187530E+02 0.  0.
         24    2    4    4    0    0  0.77651628140E+02  0.71590312704E+03 -0.22417231714E+03  0.75831092590E+03  0.78963091999E+02 0.  0.
         13    1    3    3    0    0  0.45656044485E+01  0.22665529974E+01  0.82804446678E+00  0.51640743710E+01  0.00000000000E+00 0.  1.
        -13    1    3    3    0    0  0.30127253759E+03 -0.62123692430E+03  0.40784831908E+03  0.80189819142E+03  0.00000000000E+00 0. -1.
          2    1    6    6  502    0  0.72633154362E+02  0.32938702923E+03 -0.11947168948E+03  0.35783358524E+03  0.00000000000E+00 0. -1.
          1    1    5    5  503    0 -0.23258504933E+03 -0.44221932148E+02 -0.13773535036E+03  0.27390219275E+03  0.00000000000E+00 0. -1.
         -2    1    5    5    0  503 -0.15090472084E+03 -0.52710823591E+02 -0.16511695049E+03  0.22981356147E+03  0.00000000000E+00 0.  1.
         -1    1    6    6    0  502  0.50184737781E+01  0.38651609781E+03 -0.10470062767E+03  0.40047734066E+03  0.00000000000E+00 0.  1.
<mgrwt>
<rscale>  0 0.20657015E+04</rscale>
<asrwt>0</asrwt>
<pdfrwt beam="1">  1        1 0.15005698E+00 0.20657015E+04</pdfrwt>
<pdfrwt beam="2">  1       -1 0.16826440E+00 0.20657015E+04</pdfrwt>
<totfact> 0.36986398E+00</totfact>
</mgrwt>
</event>
<event>
12    1  0.1599266E-007  0.1574214E+04  0.7818608E-02  0.8836547E-01
         -2   -1    0    0    0  501 -0.00000000000E+00  0.00000000000E+00  0.46325378736E+03  0.46325378736E+03  0.00000000000E+00 0.  1.
          2   -1    0    0  501    0  0.00000000000E+00 -0.00000000000E+00 -0.13373615757E+04  0.13373615757E+04  0.00000000000E+00 0. -1.
         23    2    1    2    0    0 -0.20677007195E+03 -0.46654140730E+03 -0.16444820898E+03  0.54413427077E+03  0.92866268438E+02 0.  0.
        254    2    1    2    0    0  0.20677007195E+03  0.46654140730E+03 -0.70965957939E+03  0.12564810923E+04  0.90261468488E+03 0.  0.
        -24    2    4    4    0    0  0.44392989158E+03  0.56932247897E+03 -0.65915825237E+03  0.98084684884E+03  0.79806675894E+02 0.  0.
         24    2    4    4    0    0 -0.23715981962E+03 -0.10278107168E+03 -0.50501327023E+02  0.27563424348E+03  0.81333408942E+02 0.  0.
         13    1    3    3    0    0 -0.12093575051E+03 -0.19358428991E+03 -0.38384089064E+02  0.23145986984E+03  0.00000000000E+00 0. -1.
        -13    1    3    3    0    0 -0.85834321440E+02 -0.27295711738E+03 -0.12606411992E+03  0.31267440093E+03  0.00000000000E+00 0.  1.
          4    1    6    6  502    0 -0.51648637782E+02 -0.18827420103E+02  0.22388956223E+02  0.59357551274E+02  0.00000000000E+00 0. -1.
          3    1    5    5  503    0  0.58275126487E+01 -0.13634769486E+01 -0.10816465163E+02  0.12361832052E+02  0.00000000000E+00 0. -1.
         -4    1    5    5    0  503  0.43810237893E+03  0.57068595592E+03 -0.64834178720E+03  0.96848501679E+03  0.00000000000E+00 0.  1.
         -3    1    6    6    0  502 -0.18551118184E+03 -0.83953651575E+02 -0.72890283247E+02  0.21627669221E+03  0.00000000000E+00 0.  1.
<mgrwt>
<rscale>  0 0.15742145E+04</rscale>
<asrwt>0</asrwt>
<pdfrwt beam="1">  1        2 0.20574793E+00 0.15742145E+04</pdfrwt>
<pdfrwt beam="2">  1       -2 0.71269814E-01 0.15742145E+04</pdfrwt>
<totfact> 0.27000885E+01</totfact>
</mgrwt>
</event>
<event>
12    1  0.1599266E-007  0.1537907E+04  0.7818608E-02  0.8859629E-01
         -2   -1    0    0    0  501 -0.00000000000E+00  0.00000000000E+00  0.49953839727E+03  0.49953839727E+03  0.00000000000E+00 0.  1.
          2   -1    0    0  501    0  0.00000000000E+00 -0.00000000000E+00 -0.11836721027E+04  0.11836721027E+04  0.00000000000E+00 0. -1.
         23    2    1    2    0    0  0.45647008539E+03 -0.15012359833E+02 -0.35984739552E+03  0.58905950500E+03  0.94396199960E+02 0.  0.
        254    2    1    2    0    0 -0.45647008539E+03  0.15012359833E+02 -0.32428630992E+03  0.10941509950E+04  0.93990131355E+03 0.  0.
        -24    2    4    4    0    0 -0.54047215274E+03  0.31243487912E+02  0.18001375537E+03  0.57600042034E+03  0.79279434203E+02 0.  0.
         24    2    4    4    0    0  0.84002067347E+02 -0.16231128079E+02 -0.50430006528E+03  0.51815057465E+03  0.82714359835E+02 0.  0.
         11    1    3    3    0    0 -0.42524247107E+01  0.31423140488E+01 -0.42838005712E+01  0.68050129195E+01  0.00000000000E+00 0.  1.
        -11    1    3    3    0    0  0.46072251010E+03 -0.18154673882E+02 -0.35556359495E+03  0.58225449208E+03  0.00000000000E+00 0. -1.
          4    1    6    6  502    0  0.25148289946E+01 -0.11469818674E+02 -0.26598424895E+03  0.26624331314E+03  0.00000000000E+00 0. -1.
          3    1    5    5  503    0 -0.44250586622E+03  0.24522113872E+02  0.17853015423E+03  0.47779262414E+03  0.00000000000E+00 0. -1.
         -4    1    5    5    0  503 -0.97966286513E+02  0.67213740401E+01  0.14836011361E+01  0.98207796200E+02  0.00000000000E+00 0.  1.
         -3    1    6    6    0  502  0.81487238353E+02 -0.47613094054E+01 -0.23831581634E+03  0.25190726150E+03  0.00000000000E+00 0.  1.
<mgrwt>
<rscale>  0 0.15379072E+04</rscale>
<asrwt>0</asrwt>
<pdfrwt beam="1">  1        2 0.18210340E+00 0.15379072E+04</pdfrwt>
<pdfrwt beam="2">  1       -2 0.76852062E-01 0.15379072E+04</pdfrwt>
<totfact> 0.28233010E+01</totfact>
</mgrwt>
</event>
<event>
12    1  0.1599266E-007  0.1888264E+04  0.7818608E-02  0.8660720E-01
         -1   -1    0    0    0  501 -0.00000000000E+00  0.00000000000E+00  0.29485392997E+03  0.29485392997E+03  0.00000000000E+00 0.  1.
          1   -1    0    0  501    0  0.00000000000E+00 -0.00000000000E+00 -0.30231410159E+04  0.30231410159E+04  0.00000000000E+00 0. -1.
         23    2    1    2    0    0 -0.21190543445E+03 -0.64559812924E+03 -0.14940172189E+04  0.16436546197E+04  0.88386657128E+02 0.  0.
        254    2    1    2    0    0  0.21190543445E+03  0.64559812924E+03 -0.12342698671E+04  0.16743403261E+04  0.90459524944E+03 0.  0.
        -24    2    4    4    0    0  0.18049545869E+03  0.35726604069E+03 -0.13034370011E+04  0.13658111220E+04  0.79210926097E+02 0.  0.
         24    2    4    4    0    0  0.31409975761E+02  0.28833208855E+03  0.69167134018E+02  0.30852920409E+03  0.79272930353E+02 0.  0.
         11    1    3    3    0    0 -0.14840264045E+03 -0.32982200544E+03 -0.73687486264E+03  0.82084740491E+03  0.00000000000E+00 0. -1.
        -11    1    3    3    0    0 -0.63502794000E+02 -0.31577612380E+03 -0.75714235621E+03  0.82280721483E+03  0.00000000000E+00 0.  1.
          4    1    6    6  502    0  0.18645577213E+02  0.28710474294E+03  0.68115829024E+02  0.29566291132E+03  0.00000000000E+00 0. -1.
          1    1    5    5  503    0  0.14225147087E+03  0.30864525846E+03 -0.11765275374E+04  0.12246282794E+04  0.00000000000E+00 0. -1.
         -2    1    5    5    0  503  0.38243987816E+02  0.48620782236E+02 -0.12690946370E+03  0.14118284261E+03  0.00000000000E+00 0.  1.
         -3    1    6    6    0  502  0.12764398548E+02  0.12273456105E+01  0.10513049931E+01  0.12866292773E+02  0.00000000000E+00 0.  1.
<mgrwt>
<rscale>  0 0.18882638E+04</rscale>
<asrwt>0</asrwt>
<pdfrwt beam="1">  1        1 0.46509863E+00 0.18882638E+04</pdfrwt>
<pdfrwt beam="2">  1       -1 0.45362142E-01 0.18882638E+04</pdfrwt>
<totfact> 0.26044783E+00</totfact>
</mgrwt>
</event>
<event>
12    1  0.1599266E-007  0.2777823E+04  0.7818608E-02  0.8310187E-01
         -1   -1    0    0    0  501 -0.00000000000E+00  0.00000000000E+00  0.70415851455E+03  0.70415851455E+03  0.00000000000E+00 0.  1.
          1   -1    0    0  501    0  0.00000000000E+00 -0.00000000000E+00 -0.27395461817E+04  0.27395461817E+04  0.00000000000E+00 0. -1.
         23    2    1    2    0    0  0.96373112384E+03 -0.78055147225E+03 -0.96867155522E+03  0.15762073271E+04  0.89814677787E+02 0.  0.
        254    2    1    2    0    0 -0.96373112384E+03  0.78055147225E+03 -0.10667161119E+04  0.18674973691E+04  0.90090225901E+03 0.  0.
        -24    2    4    4    0    0 -0.49954110150E+03  0.11822978848E+03  0.88643889356E+01  0.51941013847E+03  0.78668415417E+02 0.  0.
         24    2    4    4    0    0 -0.46419002234E+03  0.66232168377E+03 -0.10755805008E+04  0.13480872306E+04  0.79519670168E+02 0.  0.
         13    1    3    3    0    0  0.30094570376E+03 -0.27517304509E+03 -0.27520010586E+03  0.49195896132E+03  0.00000000000E+00 0.  1.
        -13    1    3    3    0    0  0.66278542008E+03 -0.50537842716E+03 -0.69347144936E+03  0.10842483658E+04  0.00000000000E+00 0. -1.
          2    1    6    6  502    0 -0.34482152419E+03  0.44336457616E+03 -0.78352232450E+03  0.96404422302E+03  0.00000000000E+00 0. -1.
          1    1    5    5  503    0 -0.30045135657E+03  0.72185249947E+02  0.43833694688E+02  0.31209473043E+03  0.00000000000E+00 0. -1.
         -4    1    5    5    0  503 -0.19908974493E+03  0.46044538533E+02 -0.34969305753E+02  0.20731540804E+03  0.00000000000E+00 0.  1.
         -1    1    6    6    0  502 -0.11936849814E+03  0.21895710761E+03 -0.29205817634E+03  0.38404300761E+03  0.00000000000E+00 0.  1.
<mgrwt>
<rscale>  0 0.27778227E+04</rscale>
<asrwt>0</asrwt>
<pdfrwt beam="1">  1        1 0.42146864E+00 0.27778227E+04</pdfrwt>
<pdfrwt beam="2">  1       -1 0.10833208E+00 0.27778227E+04</pdfrwt>
<totfact> 0.63112919E-01</totfact>
</mgrwt>
</event>
<event>
12    1  0.1599266E-007  0.2129536E+04  0.7818608E-02  0.8548343E-01
          1   -1    0    0  501    0  0.00000000000E+00  0.00000000000E+00  0.13781037226E+04  0.13781037226E+04  0.00000000000E+00 0. -1.
         -1   -1    0    0    0  501 -0.00000000000E+00 -0.00000000000E+00 -0.82267449561E+03  0.82267449561E+03  0.00000000000E+00 0.  1.
         23    2    1    2    0    0 -0.15822197818E+02  0.45054279928E+02  0.11303709154E+04  0.11348461983E+04  0.88641171008E+02 0.  0.
        254    2    1    2    0    0  0.15822197818E+02 -0.45054279928E+02 -0.57494168844E+03  0.10659320199E+04  0.89631071395E+03 0.  0.
        -24    2    4    4    0    0  0.29386656904E+03 -0.41627861816E+01 -0.68817960705E+03  0.75269000563E+03  0.81093673111E+02 0.  0.
         24    2    4    4    0    0 -0.27804437123E+03 -0.40891493746E+02  0.11323791861E+03  0.31324201431E+03  0.79479221733E+02 0.  0.
         13    1    3    3    0    0  0.35685829005E+02  0.11605706757E+02  0.33125820774E+03  0.33337692034E+03  0.00000000000E+00 0.  1.
        -13    1    3    3    0    0 -0.51508026823E+02  0.33448573171E+02  0.79911270769E+03  0.80146927793E+03  0.00000000000E+00 0. -1.
          4    1    6    6  502    0 -0.26654030587E+03 -0.56691387234E+02  0.10633185996E+03  0.29251343983E+03  0.00000000000E+00 0. -1.
          3    1    5    5  503    0  0.21159806041E+03  0.27800512180E+02 -0.53347015040E+03  0.57457550332E+03  0.00000000000E+00 0. -1.
         -4    1    5    5    0  503  0.82268508632E+02 -0.31963298362E+02 -0.15470945665E+03  0.17811450231E+03  0.00000000000E+00 0.  1.
         -1    1    6    6    0  502 -0.11504065360E+02  0.15799893487E+02  0.69060586554E+01  0.20728574485E+02  0.00000000000E+00 0.  1.
<mgrwt>
<rscale>  0 0.21295359E+04</rscale>
<asrwt>0</asrwt>
<pdfrwt beam="1">  1        1 0.21201596E+00 0.21295359E+04</pdfrwt>
<pdfrwt beam="2">  1       -1 0.12656531E+00 0.21295359E+04</pdfrwt>
<totfact> 0.39617540E+00</totfact>
</mgrwt>
</event>
<event>
12    1  0.1599266E-007  0.1672054E+04  0.7818608E-02  0.8777465E-01
          2   -1    0    0  501    0  0.00000000000E+00  0.00000000000E+00  0.12729478814E+04  0.12729478814E+04  0.00000000000E+00 0. -1.
         -2   -1    0    0    0  501 -0.00000000000E+00 -0.00000000000E+00 -0.54907302727E+03  0.54907302727E+03  0.00000000000E+00 0.  1.
         23    2    1    2    0    0  0.13751355875E+03 -0.19643962151E+03 -0.33119156169E+03  0.41928937983E+03  0.92829035168E+02 0.  0.
        254    2    1    2    0    0 -0.13751355875E+03  0.19643962151E+03  0.10550664158E+04  0.14027315289E+04  0.89274413831E+03 0.  0.
        -24    2    4    4    0    0  0.18261442000E+03  0.45213496385E+03  0.45418469345E+03  0.67103307885E+03  0.78915177348E+02 0.  0.
         24    2    4    4    0    0 -0.32012797875E+03 -0.25569534234E+03  0.60088172239E+03  0.73169845001E+03  0.80384989732E+02 0.  0.
         11    1    3    3    0    0  0.75314366130E+02 -0.36954185462E+02 -0.13469351744E+03  0.15868273129E+03  0.00000000000E+00 0. -1.
        -11    1    3    3    0    0  0.62199192623E+02 -0.15948543604E+03 -0.19649804424E+03  0.26060664854E+03  0.00000000000E+00 0.  1.
          4    1    6    6  502    0 -0.14663289496E+03 -0.94154295338E+02  0.19380086184E+03  0.26062427221E+03  0.00000000000E+00 0. -1.
          3    1    5    5  503    0  0.76332227457E+02  0.12169098596E+03  0.16890152173E+03  0.22172737552E+03  0.00000000000E+00 0. -1.
         -2    1    5    5    0  503  0.10628219254E+03  0.33044397789E+03  0.28528317173E+03  0.44930570333E+03  0.00000000000E+00 0.  1.
         -3    1    6    6    0  502 -0.17349508379E+03 -0.16154104701E+03  0.40708086055E+03  0.47107417780E+03  0.00000000000E+00 0.  1.
<mgrwt>
<rscale>  0 0.16720542E+04</rscale>
<asrwt>0</asrwt>
<pdfrwt beam="1">  1        2 0.19583814E+00 0.16720542E+04</pdfrwt>
<pdfrwt beam="2">  1       -2 0.84472774E-01 0.16720542E+04</pdfrwt>
<totfact> 0.19984303E+01</totfact>
</mgrwt>
</event>
<event>
12    1  0.1599266E-007  0.1553061E+04  0.7818608E-02  0.8849915E-01
         -2   -1    0    0    0  501 -0.00000000000E+00  0.00000000000E+00  0.28866036071E+03  0.28866036071E+03  0.00000000000E+00 0.  1.
          2   -1    0    0  501    0  0.00000000000E+00 -0.00000000000E+00 -0.20889598382E+04  0.20889598382E+04  0.00000000000E+00 0. -1.
         23    2    1    2    0    0 -0.25687966996E+03 -0.16350385664E+03  0.19882150215E+02  0.31851742783E+03  0.91309232614E+02 0.  0.
        254    2    1    2    0    0  0.25687966996E+03  0.16350385664E+03 -0.18201816277E+04  0.20591027711E+04  0.91330300998E+03 0.  0.
        -24    2    4    4    0    0  0.34355251768E+03  0.19911289121E+03 -0.23319450138E+03  0.46739687225E+03  0.80036772002E+02 0.  0.
         24    2    4    4    0    0 -0.86672847718E+02 -0.35609034564E+02 -0.15869871264E+04  0.15917058989E+04  0.78862813450E+02 0.  0.
         13    1    3    3    0    0 -0.95393995464E+02 -0.52690743712E+02  0.50808682091E+02  0.12024080430E+03  0.00000000000E+00 0.  1.
        -13    1    3    3    0    0 -0.16148567449E+03 -0.11081311293E+03 -0.30926531876E+02  0.19827662353E+03  0.00000000000E+00 0. -1.
          4    1    6    6  502    0 -0.32973863658E+02 -0.39730639464E+02 -0.37680004179E+03  0.38032101032E+03  0.00000000000E+00 0. -1.
          1    1    5    5  503    0  0.12140847979E+03  0.11560076957E+03 -0.91332042050E+02  0.19090599465E+03  0.00000000000E+00 0. -1.
         -2    1    5    5    0  503  0.22214403789E+03  0.83512121638E+02 -0.14186245933E+03  0.27649087760E+03  0.00000000000E+00 0.  1.
         -3    1    6    6    0  502 -0.53698984060E+02  0.41216048996E+01 -0.12101870846E+04  0.12113848885E+04  0.00000000000E+00 0.  1.
<mgrwt>
<rscale>  0 0.15530614E+04</rscale>
<asrwt>0</asrwt>
<pdfrwt beam="1">  1        2 0.32137844E+00 0.15530614E+04</pdfrwt>
<pdfrwt beam="2">  1       -2 0.44409285E-01 0.15530614E+04</pdfrwt>
<totfact> 0.27594740E+01</totfact>
</mgrwt>
</event>
<event>
12    1  0.1599266E-007  0.2041836E+04  0.7818608E-02  0.8587307E-01
          2   -1    0    0  501    0  0.00000000000E+00  0.00000000000E+00  0.28779896972E+04  0.28779896972E+04  0.00000000000E+00 0. -1.
         -2   -1    0    0    0  501 -0.00000000000E+00 -0.00000000000E+00 -0.36215342867E+03  0.36215342867E+03  0.00000000000E+00 0.  1.
         23    2    1    2    0    0  0.71255475944E+03  0.22914639082E+03  0.15515532545E+04  0.17250519634E+04  0.90798794494E+02 0.  0.
        254    2    1    2    0    0 -0.71255475944E+03 -0.22914639082E+03  0.96428301398E+03  0.15150911625E+04  0.89745035845E+03 0.  0.
        -24    2    4    4    0    0 -0.32170889739E+03 -0.19374658881E+03 -0.82908161436E+02  0.39396178344E+03  0.85426976089E+02 0.  0.
         24    2    4    4    0    0 -0.39084586206E+03 -0.35399802007E+02  0.10471911754E+04  0.11211293790E+04  0.79423502591E+02 0.  0.
         11    1    3    3    0    0  0.17034491193E+03  0.16865551655E+02  0.37989516187E+03  0.41667993696E+03  0.00000000000E+00 0.  1.
        -11    1    3    3    0    0  0.54220984752E+03  0.21228083917E+03  0.11716580926E+04  0.13083720264E+04  0.00000000000E+00 0. -1.
          4    1    6    6  502    0 -0.28984904826E+03 -0.60967072903E+02  0.78044312118E+03  0.83475800095E+03  0.00000000000E+00 0. -1.
          1    1    5    5  503    0 -0.18076264502E+03 -0.66032008397E+02 -0.64061866704E+02  0.20282820990E+03  0.00000000000E+00 0. -1.
         -2    1    5    5    0  503 -0.14094625237E+03 -0.12771458042E+03 -0.18846294732E+02  0.19113357354E+03  0.00000000000E+00 0.  1.
         -3    1    6    6    0  502 -0.10099681380E+03  0.25567270895E+02  0.26674805424E+03  0.28637137807E+03  0.00000000000E+00 0.  1.
<mgrwt>
<rscale>  0 0.20418363E+04</rscale>
<asrwt>0</asrwt>
<pdfrwt beam="1">  1        2 0.44276763E+00 0.20418363E+04</pdfrwt>
<pdfrwt beam="2">  1       -2 0.55715914E-01 0.20418363E+04</pdfrwt>
<totfact> 0.58171165E+00</totfact>
</mgrwt>
</event>
<event>
12    1  0.1599266E-007  0.2141455E+04  0.7818608E-02  0.8543199E-01
         -1   -1    0    0    0  501 -0.00000000000E+00  0.00000000000E+00  0.79655946506E+03  0.79655946506E+03  0.00000000000E+00 0.  1.
          1   -1    0    0  501    0  0.00000000000E+00 -0.00000000000E+00 -0.14392612006E+04  0.14392612006E+04  0.00000000000E+00 0. -1.
         23    2    1    2    0    0 -0.34184129406E+03  0.74836429952E+03 -0.58447265289E+03  0.10133505034E+04  0.91467839959E+02 0.  0.
        254    2    1    2    0    0  0.34184129406E+03 -0.74836429952E+03 -0.58229082640E+02  0.12224701622E+04  0.90229600259E+03 0.  0.
        -24    2    4    4    0    0  0.56213498324E+03 -0.37239368365E+03 -0.27099492750E+03  0.73106764235E+03  0.79679683467E+02 0.  0.
         24    2    4    4    0    0 -0.22029368918E+03 -0.37597061587E+03  0.21276584486E+03  0.49140251985E+03  0.79523067611E+02 0.  0.
         11    1    3    3    0    0 -0.66617464303E+02  0.21370735480E+03 -0.19527342669E+03  0.29705290979E+03  0.00000000000E+00 0.  1.
        -11    1    3    3    0    0 -0.27522382976E+03  0.53465694472E+03 -0.38919922620E+03  0.71629759366E+03  0.00000000000E+00 0. -1.
          2    1    6    6  502    0 -0.22035703177E+03 -0.37907460701E+03  0.20704652324E+03  0.48489487718E+03  0.00000000000E+00 0. -1.
          3    1    5    5  503    0  0.53049486557E+03 -0.32604823037E+03 -0.24378492275E+03  0.66870272878E+03  0.00000000000E+00 0. -1.
         -4    1    5    5    0  503  0.31640117676E+02 -0.46345453281E+02 -0.27210004744E+02  0.62364913570E+02  0.00000000000E+00 0.  1.
         -1    1    6    6    0  502  0.63342586771E-01  0.31039911423E+01  0.57193216154E+01  0.65076426635E+01  0.00000000000E+00 0.  1.
<mgrwt>
<rscale>  0 0.21414548E+04</rscale>
<asrwt>0</asrwt>
<pdfrwt beam="1">  1        1 0.22142480E+00 0.21414548E+04</pdfrwt>
<pdfrwt beam="2">  1       -1 0.12254761E+00 0.21414548E+04</pdfrwt>
<totfact> 0.38845805E+00</totfact>
</mgrwt>
</event>
<event>
12    1  0.1599266E-007  0.1637308E+04  0.7818608E-02  0.8797951E-01
         -2   -1    0    0    0  501 -0.00000000000E+00  0.00000000000E+00  0.20623957403E+04  0.20623957403E+04  0.00000000000E+00 0.  1.
          2   -1    0    0  501    0  0.00000000000E+00 -0.00000000000E+00 -0.32495908200E+03  0.32495908200E+03  0.00000000000E+00 0. -1.
         23    2    1    2    0    0  0.42624692780E+03 -0.28433779068E+03  0.75590836652E+03  0.91770347727E+03  0.90817349400E+02 0.  0.
        254    2    1    2    0    0 -0.42624692780E+03  0.28433779068E+03  0.98152829174E+03  0.14696513450E+04  0.96640719457E+03 0.  0.
        -24    2    4    4    0    0 -0.13926059167E+03  0.40771237335E+03  0.38717380675E+01  0.43999122170E+03  0.89187404017E+02 0.  0.
         24    2    4    4    0    0 -0.28698633612E+03 -0.12337458268E+03  0.97765655367E+03  0.10296601233E+04  0.82493562253E+02 0.  0.
         11    1    3    3    0    0  0.40456246020E+03 -0.24967869052E+03  0.65953663612E+03  0.81301833134E+03  0.00000000000E+00 0.  1.
        -11    1    3    3    0    0  0.21684467595E+02 -0.34659100158E+02  0.96371730395E+02  0.10468514593E+03  0.00000000000E+00 0. -1.
          4    1    6    6  502    0 -0.27718812545E+03 -0.10914331631E+03  0.95912298350E+03  0.10043218697E+04  0.00000000000E+00 0. -1.
          1    1    5    5  503    0 -0.11123222472E+03  0.21809087899E+03 -0.25220003084E+02  0.24611437965E+03  0.00000000000E+00 0. -1.
         -2    1    5    5    0  503 -0.28028366952E+02  0.18962149436E+03  0.29091741152E+02  0.19387684204E+03  0.00000000000E+00 0.  1.
         -3    1    6    6    0  502 -0.97982106763E+01 -0.14231266366E+02  0.18533570175E+02  0.25338253655E+02  0.00000000000E+00 0.  1.
<mgrwt>
<rscale>  0 0.16373078E+04</rscale>
<asrwt>0</asrwt>
<pdfrwt beam="1">  1        2 0.49993706E-01 0.16373078E+04</pdfrwt>
<pdfrwt beam="2">  1       -2 0.31729164E+00 0.16373078E+04</pdfrwt>
<totfact> 0.23978984E+00</totfact>
</mgrwt>
</event>
<event>
12    1  0.1599266E-007  0.1974995E+04  0.7818608E-02  0.8618402E-01
         -2   -1    0    0    0  501 -0.00000000000E+00  0.00000000000E+00  0.52463310967E+03  0.52463310967E+03  0.00000000000E+00 0.  1.
          2   -1    0    0  501    0  0.00000000000E+00 -0.00000000000E+00 -0.18587292160E+04  0.18587292160E+04  0.00000000000E+00 0. -1.
         23    2    1    2    0    0 -0.30591901622E+02  0.70228226639E+03 -0.12251948533E+03  0.71930392035E+03  0.90834241369E+02 0.  0.
        254    2    1    2    0    0  0.30591901622E+02 -0.70228226639E+03 -0.12115766210E+04  0.16640584053E+04  0.89835194753E+03 0.  0.
        -24    2    4    4    0    0 -0.17556669211E+03 -0.44992946316E+03 -0.96936364747E+02  0.50014308380E+03  0.86523177627E+02 0.  0.
         24    2    4    4    0    0  0.20615859373E+03 -0.25235280323E+03 -0.11146402562E+04  0.11639153215E+04  0.78055568306E+02 0.  0.
         11    1    3    3    0    0  0.31081038990E+01  0.31653212366E+02 -0.25686375043E+02  0.40882465994E+02  0.00000000000E+00 0. -1.
        -11    1    3    3    0    0 -0.33700005521E+02  0.67062905403E+03 -0.96833110283E+02  0.67842145435E+03  0.00000000000E+00 0.  1.
          4    1    6    6  502    0  0.10852333448E+01  0.49117155447E+01 -0.84196639003E+01  0.98078244885E+01  0.00000000000E+00 0. -1.
          1    1    5    5  503    0 -0.83066096944E+02 -0.13569163681E+03 -0.61859498438E+02  0.17070089135E+03  0.00000000000E+00 0. -1.
         -2    1    5    5    0  503 -0.92500595164E+02 -0.31423782635E+03 -0.35076866309E+02  0.32944219245E+03  0.00000000000E+00 0.  1.
         -3    1    6    6    0  502  0.20507336038E+03 -0.25726451878E+03 -0.11062205923E+04  0.11541074970E+04  0.00000000000E+00 0.  1.
<mgrwt>
<rscale>  0 0.19749946E+04</rscale>
<asrwt>0</asrwt>
<pdfrwt beam="1">  1        2 0.28595833E+00 0.19749946E+04</pdfrwt>
<pdfrwt beam="2">  1       -2 0.80712788E-01 0.19749946E+04</pdfrwt>
<totfact> 0.10096161E+01</totfact>
</mgrwt>
</event>
<event>
12    1  0.1599266E-007  0.3035445E+04  0.7818608E-02  0.8233681E-01
          1   -1    0    0  501    0  0.00000000000E+00  0.00000000000E+00  0.25414041950E+04  0.25414041950E+04  0.00000000000E+00 0. -1.
         -1   -1    0    0    0  501 -0.00000000000E+00 -0.00000000000E+00 -0.90638165372E+03  0.90638165372E+03  0.00000000000E+00 0.  1.
         23    2    1    2    0    0 -0.91244323055E+03 -0.33585292923E+03 -0.36620330921E+03  0.10429713989E+04  0.91294228486E+02 0.  0.
        254    2    1    2    0    0  0.91244323055E+03  0.33585292923E+03  0.20012258505E+04  0.24048144498E+04  0.91262138614E+03 0.  0.
        -24    2    4    4    0    0  0.63573397888E+03  0.13712275925E+03  0.19438618080E+04  0.20513336922E+04  0.80067754306E+02 0.  0.
         24    2    4    4    0    0  0.27670925167E+03  0.19873016998E+03  0.57364042499E+02  0.35348075762E+03  0.74808570445E+02 0.  0.
         11    1    3    3    0    0 -0.75025937331E+02 -0.42983740912E+02 -0.56611485642E+02  0.10335063407E+03  0.00000000000E+00 0. -1.
        -11    1    3    3    0    0 -0.83741729322E+03 -0.29286918832E+03 -0.30959182357E+03  0.93962076482E+03  0.00000000000E+00 0.  1.
          4    1    6    6  502    0  0.23221607460E+03  0.19537179026E+03  0.57451124823E+02  0.30886092902E+03  0.00000000000E+00 0. -1.
          3    1    5    5  503    0  0.55808563610E+03  0.14290001066E+03  0.16673360671E+04  0.17640548605E+04  0.00000000000E+00 0. -1.
         -4    1    5    5    0  503  0.77648342776E+02 -0.57772514113E+01  0.27652574088E+03  0.28727883169E+03  0.00000000000E+00 0.  1.
         -3    1    6    6    0  502  0.44493177078E+02  0.33583797173E+01 -0.87082324901E-01  0.44619828599E+02  0.00000000000E+00 0.  1.
<mgrwt>
<rscale>  0 0.30354454E+04</rscale>
<asrwt>0</asrwt>
<pdfrwt beam="1">  1        1 0.39098526E+00 0.30354454E+04</pdfrwt>
<pdfrwt beam="2">  1       -1 0.13944333E+00 0.30354454E+04</pdfrwt>
<totfact> 0.45544229E-01</totfact>
</mgrwt>
</event>
<event>
12    1  0.1599266E-007  0.1494808E+04  0.7818608E-02  0.8887913E-01
         -2   -1    0    0    0  501 -0.00000000000E+00  0.00000000000E+00  0.56664104455E+03  0.56664104455E+03  0.00000000000E+00 0. -1.
          2   -1    0    0  501    0  0.00000000000E+00 -0.00000000000E+00 -0.98583171852E+03  0.98583171852E+03  0.00000000000E+00 0.  1.
         23    2    1    2    0    0  0.23800568135E+03 -0.32860108229E+03 -0.37302461789E+03  0.55723741291E+03  0.82102333491E+02 0.  0.
        254    2    1    2    0    0 -0.23800568135E+03  0.32860108229E+03 -0.46166056081E+02  0.99523535016E+03  0.90759942808E+03 0.  0.
        -24    2    4    4    0    0  0.14353651081E+03 -0.12491977167E+03  0.25340641119E+03  0.32636757192E+03  0.78059614894E+02 0.  0.
         24    2    4    4    0    0 -0.38154219216E+03  0.45352085396E+03 -0.29957246727E+03  0.66886777824E+03  0.79905145311E+02 0.  0.
         11    1    3    3    0    0  0.24599991761E+02 -0.39055174922E+02 -0.12173420430E+02  0.47735295619E+02  0.00000000000E+00 0. -1.
        -11    1    3    3    0    0  0.21340568959E+03 -0.28954590737E+03 -0.36085119746E+03  0.50950211730E+03  0.00000000000E+00 0.  1.
          2    1    6    6  502    0 -0.10254751554E+03  0.15195683367E+03 -0.12835553758E+03  0.22379011656E+03  0.00000000000E+00 0. -1.
          3    1    5    5  503    0  0.27704383111E+02 -0.20794784372E+02  0.77508922934E+01  0.35496932712E+02  0.00000000000E+00 0. -1.
         -4    1    5    5    0  503  0.11583212770E+03 -0.10412498730E+03  0.24565551890E+03  0.29087063921E+03  0.00000000000E+00 0.  1.
         -1    1    6    6    0  502 -0.27899467662E+03  0.30156402029E+03 -0.17121692970E+03  0.44507766169E+03  0.00000000000E+00 0.  1.
<mgrwt>
<rscale>  0 0.14948080E+04</rscale>
<asrwt>0</asrwt>
<pdfrwt beam="1">  1        2 0.15166642E+00 0.14948080E+04</pdfrwt>
<pdfrwt beam="2">  1       -2 0.87175546E-01 0.14948080E+04</pdfrwt>
<totfact> 0.28284901E+01</totfact>
</mgrwt>
</event>
<event>
12    1  0.1599266E-007  0.1115631E+04  0.7818608E-02  0.9190090E-01
         -1   -1    0    0    0  501 -0.00000000000E+00  0.00000000000E+00  0.98452184128E+02  0.98452184128E+02  0.00000000000E+00 0.  1.
          1   -1    0    0  501    0  0.00000000000E+00 -0.00000000000E+00 -0.31604982301E+04  0.31604982301E+04  0.00000000000E+00 0. -1.
         23    2    1    2    0    0  0.11649630216E+03  0.35313428053E+01 -0.18683881807E+03  0.23791951439E+03  0.90072707228E+02 0.  0.
        254    2    1    2    0    0 -0.11649630216E+03 -0.35313428053E+01 -0.28752072279E+04  0.30210308998E+04  0.91990610153E+03 0.  0.
        -24    2    4    4    0    0  0.16502894955E+03 -0.25242347103E+03 -0.35895642433E+03  0.47561747316E+03  0.80063120651E+02 0.  0.
         24    2    4    4    0    0 -0.28152525172E+03  0.24889212823E+03 -0.25162508036E+04  0.25454134267E+04  0.80047782071E+02 0.  0.
         13    1    3    3    0    0  0.84474627636E+02 -0.20164724876E+02 -0.17658332497E+03  0.19678477965E+03  0.00000000000E+00 0.  1.
        -13    1    3    3    0    0  0.32021674527E+02  0.23696067681E+02 -0.10255493100E+02  0.41134734736E+02  0.00000000000E+00 0. -1.
          4    1    6    6  502    0 -0.27374578619E+03  0.25472245166E+03 -0.24708154175E+04  0.24989496013E+04  0.00000000000E+00 0. -1.
          1    1    5    5  503    0  0.16607804229E+03 -0.25130517783E+03 -0.33071718532E+03  0.44733663521E+03  0.00000000000E+00 0. -1.
         -2    1    5    5    0  503 -0.10490927379E+01 -0.11182931993E+01 -0.28239239003E+02  0.28280837942E+02  0.00000000000E+00 0.  1.
         -3    1    6    6    0  502 -0.77794655236E+01 -0.58303234318E+01 -0.45435386119E+02  0.46463825358E+02  0.00000000000E+00 0.  1.
<mgrwt>
<rscale>  0 0.11156307E+04</rscale>
<asrwt>0</asrwt>
<pdfrwt beam="1">  1        1 0.48623051E+00 0.11156307E+04</pdfrwt>
<pdfrwt beam="2">  1       -1 0.15146490E-01 0.11156307E+04</pdfrwt>
<totfact> 0.14962618E+01</totfact>
</mgrwt>
</event>
<event>
12    1  0.1599266E-007  0.1382825E+04  0.7818608E-02  0.8966345E-01
          1   -1    0    0  501    0  0.00000000000E+00  0.00000000000E+00  0.13125573539E+04  0.13125573539E+04  0.00000000000E+00 0.  1.
         -1   -1    0    0    0  501 -0.00000000000E+00 -0.00000000000E+00 -0.36421362353E+03  0.36421362353E+03  0.00000000000E+00 0. -1.
         23    2    1    2    0    0  0.14169160395E+03  0.13748948578E+03 -0.15070991310E+03  0.26474537472E+03  0.91633870370E+02 0.  0.
        254    2    1    2    0    0 -0.14169160395E+03 -0.13748948578E+03  0.10990536435E+04  0.14120256027E+04  0.86424390200E+03 0.  0.
        -24    2    4    4    0    0 -0.27200920016E+03 -0.26103292043E+03  0.11462452790E+04  0.12092598127E+04  0.79396878587E+02 0.  0.
         24    2    4    4    0    0  0.13031759621E+03  0.12354343465E+03 -0.47191635561E+02  0.20276579003E+03  0.81493920118E+02 0.  0.
         11    1    3    3    0    0  0.99865697807E+02  0.72596071338E+02 -0.14022411270E+03  0.18683187350E+03  0.00000000000E+00 0. -1.
        -11    1    3    3    0    0  0.41825906143E+02  0.64893414444E+02 -0.10485800402E+02  0.77913501224E+02  0.00000000000E+00 0.  1.
          4    1    6    6  502    0 -0.10004157034E+02  0.16586188170E+01  0.23526060075E+01  0.10410039835E+02  0.00000000000E+00 0. -1.
          1    1    5    5  503    0 -0.23553645614E+02 -0.63389558041E+02  0.18815985953E+03  0.19994284940E+03  0.00000000000E+00 0. -1.
         -2    1    5    5    0  503 -0.24845555454E+03 -0.19764336239E+03  0.95808541951E+03  0.10093169633E+04  0.00000000000E+00 0.  1.
         -3    1    6    6    0  502  0.14032175324E+03  0.12188481583E+03 -0.49544241568E+02  0.19235575020E+03  0.00000000000E+00 0.  1.
<mgrwt>
<rscale>  0 0.13828250E+04</rscale>
<asrwt>0</asrwt>
<pdfrwt beam="1">  1        1 0.20193190E+00 0.13828250E+04</pdfrwt>
<pdfrwt beam="2">  1       -1 0.56032866E-01 0.13828250E+04</pdfrwt>
<totfact> 0.27872913E+01</totfact>
</mgrwt>
</event>
<event>
12    1  0.1599266E-007  0.2041609E+04  0.7818608E-02  0.8587410E-01
         -2   -1    0    0    0  501 -0.00000000000E+00  0.00000000000E+00  0.65727100878E+03  0.65727100878E+03  0.00000000000E+00 0. -1.
          2   -1    0    0  501    0  0.00000000000E+00 -0.00000000000E+00 -0.15854068552E+04  0.15854068552E+04  0.00000000000E+00 0.  1.
         23    2    1    2    0    0 -0.14584703758E+03 -0.68662728109E+03 -0.83031316686E+03  0.10914289215E+04  0.95230006332E+02 0.  0.
        254    2    1    2    0    0  0.14584703758E+03  0.68662728109E+03 -0.97822679606E+02  0.11512489425E+04  0.90723561963E+03 0.  0.
        -24    2    4    4    0    0  0.12914515893E+03 -0.15030503267E+03  0.16419544679E+03  0.27049301000E+03  0.83284144883E+02 0.  0.
         24    2    4    4    0    0  0.16701878649E+02  0.83693231376E+03 -0.26201812640E+03  0.88075593254E+03  0.79642096693E+02 0.  0.
         13    1    3    3    0    0 -0.54288045181E+02 -0.20592645352E+03 -0.18892201709E+03  0.28468302487E+03  0.00000000000E+00 0. -1.
        -13    1    3    3    0    0 -0.91558992397E+02 -0.48070082758E+03 -0.64139114977E+03  0.80674589663E+03  0.00000000000E+00 0.  1.
          2    1    6    6  502    0  0.40799094721E+01  0.60379990295E+03 -0.22496408988E+03  0.64436000047E+03  0.00000000000E+00 0. -1.
          3    1    5    5  503    0  0.66313893219E+02 -0.11848974136E+03  0.14242066063E+03  0.19677651235E+03  0.00000000000E+00 0. -1.
         -4    1    5    5    0  503  0.62831265710E+02 -0.31815291314E+02  0.21774786163E+02  0.73716497642E+02  0.00000000000E+00 0.  1.
         -1    1    6    6    0  502  0.12621969177E+02  0.23313241081E+03 -0.37054036515E+02  0.23639593207E+03  0.00000000000E+00 0.  1.
<mgrwt>
<rscale>  0 0.20416091E+04</rscale>
<asrwt>0</asrwt>
<pdfrwt beam="1">  1        2 0.24390874E+00 0.20416091E+04</pdfrwt>
<pdfrwt beam="2">  1       -2 0.10111862E+00 0.20416091E+04</pdfrwt>
<totfact> 0.84650981E+00</totfact>
</mgrwt>
</event>
<event>
12    1  0.1599266E-007  0.1623250E+04  0.7818608E-02  0.8806391E-01
          2   -1    0    0  501    0  0.00000000000E+00  0.00000000000E+00  0.19486101142E+04  0.19486101142E+04  0.00000000000E+00 0. -1.
         -2   -1    0    0    0  501 -0.00000000000E+00 -0.00000000000E+00 -0.33805379362E+03  0.33805379362E+03  0.00000000000E+00 0.  1.
         23    2    1    2    0    0 -0.37504620929E+03 -0.40951780863E+03  0.64029676410E+03  0.85234924918E+03  0.90303941064E+02 0.  0.
        254    2    1    2    0    0  0.37504620929E+03  0.40951780863E+03  0.97025955649E+03  0.14343146587E+04  0.89860471754E+03 0.  0.
        -24    2    4    4    0    0  0.91220634852E+02  0.31879625330E+03  0.10595770896E+04  0.11130019037E+04  0.78213639485E+02 0.  0.
         24    2    4    4    0    0  0.28382557444E+03  0.90721555326E+02 -0.89317533111E+02  0.32131275499E+03  0.80479236428E+02 0.  0.
         11    1    3    3    0    0 -0.61454062465E+02 -0.53288139702E+02  0.52241290414E+02  0.96671505887E+02  0.00000000000E+00 0. -1.
        -11    1    3    3    0    0 -0.31359214682E+03 -0.35622966893E+03  0.58805547369E+03  0.75567774329E+03  0.00000000000E+00 0.  1.
          2    1    6    6  502    0  0.93139255096E+02  0.69073252309E+02 -0.22627454337E+02  0.11814413534E+03  0.00000000000E+00 0. -1.
          3    1    5    5  503    0  0.10319109607E+01 -0.45500466550E+01  0.96976608280E+01  0.10761616530E+02  0.00000000000E+00 0. -1.
         -4    1    5    5    0  503  0.90188723891E+02  0.32334629996E+03  0.10498794288E+04  0.11022402871E+04  0.00000000000E+00 0.  1.
         -1    1    6    6    0  502  0.19068631934E+03  0.21648303017E+02 -0.66690078774E+02  0.20316861966E+03  0.00000000000E+00 0.  1.
<mgrwt>
<rscale>  0 0.16232499E+04</rscale>
<asrwt>0</asrwt>
<pdfrwt beam="1">  1        2 0.29978616E+00 0.16232499E+04</pdfrwt>
<pdfrwt beam="2">  1       -2 0.52008277E-01 0.16232499E+04</pdfrwt>
<totfact> 0.23845194E+01</totfact>
</mgrwt>
</event>
<event>
12    1  0.1599266E-007  0.1304131E+04  0.7818608E-02  0.9026296E-01
         -2   -1    0    0    0  501 -0.00000000000E+00  0.00000000000E+00  0.43444268101E+03  0.43444268101E+03  0.00000000000E+00 0.  1.
          2   -1    0    0  501    0  0.00000000000E+00 -0.00000000000E+00 -0.97870098842E+03  0.97870098842E+03  0.00000000000E+00 0. -1.
         23    2    1    2    0    0  0.11535100380E+03  0.27249726419E+03  0.17135596450E+02  0.30899986157E+03  0.87330823408E+02 0.  0.
        254    2    1    2    0    0 -0.11535100380E+03 -0.27249726419E+03 -0.56139390386E+03  0.11041438078E+04  0.90355399399E+03 0.  0.
        -24    2    4    4    0    0 -0.13375124406E+03  0.31533371464E+03 -0.26632873835E+03  0.44137198975E+03  0.80953626204E+02 0.  0.
         24    2    4    4    0    0  0.18400240263E+02 -0.58783097883E+03 -0.29506516551E+03  0.66277181810E+03  0.79493411358E+02 0.  0.
         11    1    3    3    0    0  0.67366623939E+02  0.98589958208E+02 -0.28812107558E+02  0.12283476471E+03  0.00000000000E+00 0. -1.
        -11    1    3    3    0    0  0.47984379862E+02  0.17390730598E+03  0.45947704008E+02  0.18616509686E+03  0.00000000000E+00 0.  1.
          2    1    6    6  502    0 -0.26264571142E+02 -0.27298394473E+03 -0.15788418347E+03  0.31644506185E+03  0.00000000000E+00 0. -1.
          1    1    5    5  503    0 -0.59490991606E+02  0.98400870051E+02 -0.47481351557E+02  0.12440413198E+03  0.00000000000E+00 0. -1.
         -2    1    5    5    0  503 -0.74260252459E+02  0.21693284459E+03 -0.21884738679E+03  0.31696785777E+03  0.00000000000E+00 0.  1.
         -3    1    6    6    0  502  0.44664811405E+02 -0.31484703410E+03 -0.13718098204E+03  0.34632675625E+03  0.00000000000E+00 0.  1.
<mgrwt>
<rscale>  0 0.13041311E+04</rscale>
<asrwt>0</asrwt>
<pdfrwt beam="1">  1        2 0.15056938E+00 0.13041311E+04</pdfrwt>
<pdfrwt beam="2">  1       -2 0.66837336E-01 0.13041311E+04</pdfrwt>
<totfact> 0.52385350E+01</totfact>
</mgrwt>
</event>
<event>
12    1  0.1599266E-007  0.1778451E+04  0.7818608E-02  0.8717843E-01
         -2   -1    0    0    0  501 -0.00000000000E+00  0.00000000000E+00  0.53220140011E+03  0.53220140011E+03  0.00000000000E+00 0.  1.
          2   -1    0    0  501    0  0.00000000000E+00 -0.00000000000E+00 -0.14857575905E+04  0.14857575905E+04  0.00000000000E+00 0. -1.
         23    2    1    2    0    0  0.36462608053E+03 -0.27766332972E+03  0.17221507962E+03  0.49837776615E+03  0.93130343429E+02 0.  0.
        254    2    1    2    0    0 -0.36462608053E+03  0.27766332972E+03 -0.11257712700E+04  0.15195812245E+04  0.91198522033E+03 0.  0.
        -24    2    4    4    0    0  0.43608684429E+02  0.52773156702E+03 -0.57198424149E+03  0.78336899949E+03  0.78094126951E+02 0.  0.
         24    2    4    4    0    0 -0.40823476496E+03 -0.25006823730E+03 -0.55378702853E+03  0.73621222498E+03  0.78349349861E+02 0.  0.
         13    1    3    3    0    0  0.11882550799E+02 -0.17294938509E+02 -0.10422163627E+02  0.23429285225E+02  0.00000000000E+00 0.  1.
        -13    1    3    3    0    0  0.35274352973E+03 -0.26036839122E+03  0.18263724324E+03  0.47494848092E+03  0.00000000000E+00 0. -1.
          4    1    6    6  502    0 -0.36411906613E+03 -0.24758042922E+03 -0.49211843995E+03  0.66034787967E+03  0.00000000000E+00 0. -1.
          1    1    5    5  503    0  0.63134700331E+02  0.47199462428E+03 -0.50833399385E+03  0.69654028242E+03  0.00000000000E+00 0. -1.
         -2    1    5    5    0  503 -0.19526015902E+02  0.55736942741E+02 -0.63650247640E+02  0.86828717068E+02  0.00000000000E+00 0.  1.
         -3    1    6    6    0  502 -0.44115698833E+02 -0.24878080827E+01 -0.61668588581E+02  0.75864345316E+02  0.00000000000E+00 0.  1.
<mgrwt>
<rscale>  0 0.17784513E+04</rscale>
<asrwt>0</asrwt>
<pdfrwt beam="1">  1        2 0.22857809E+00 0.17784513E+04</pdfrwt>
<pdfrwt beam="2">  1       -2 0.81877139E-01 0.17784513E+04</pdfrwt>
<totfact> 0.16042360E+01</totfact>
</mgrwt>
</event>
<event>
12    1  0.1599266E-007  0.1244469E+04  0.7818608E-02  0.9074799E-01
          1   -1    0    0  501    0  0.00000000000E+00  0.00000000000E+00  0.10699414401E+04  0.10699414401E+04  0.00000000000E+00 0. -1.
         -1   -1    0    0    0  501 -0.00000000000E+00 -0.00000000000E+00 -0.36186635961E+03  0.36186635961E+03  0.00000000000E+00 0.  1.
         23    2    1    2    0    0 -0.24996510076E+03 -0.24820097749E+02  0.67776972238E+02  0.28170819976E+03  0.10801482767E+03 0.  0.
        254    2    1    2    0    0  0.24996510076E+03  0.24820097749E+02  0.64029810824E+03  0.11500995999E+04  0.92176397928E+03 0.  0.
        -24    2    4    4    0    0  0.37180414725E+03 -0.28351341703E+03  0.63813849295E+02  0.47917352877E+03  0.83167792854E+02 0.  0.
         24    2    4    4    0    0 -0.12183904648E+03  0.30833351478E+03  0.57648425895E+03  0.67092607116E+03  0.88844710353E+02 0.  0.
         13    1    3    3    0    0 -0.25645361027E+03 -0.11856688190E+02  0.55377863442E+02  0.26263233433E+03  0.00000000000E+00 0.  1.
        -13    1    3    3    0    0  0.64885095092E+01 -0.12963409560E+02  0.12399108797E+02  0.19075865433E+02  0.00000000000E+00 0. -1.
          4    1    6    6  502    0  0.11989650834E+02  0.18664345008E+02  0.22374347094E+02  0.31507473869E+02  0.00000000000E+00 0. -1.
          1    1    5    5  503    0  0.14298929265E+03 -0.98653140397E+02  0.63654956305E+02  0.18501441399E+03  0.00000000000E+00 0. -1.
         -2    1    5    5    0  503  0.22881485460E+03 -0.18486027663E+03  0.15889298977E+00  0.29415911478E+03  0.00000000000E+00 0.  1.
         -3    1    6    6    0  502 -0.13382869732E+03  0.28966916977E+03  0.55410991186E+03  0.63941859729E+03  0.00000000000E+00 0.  1.
<mgrwt>
<rscale>  0 0.12444691E+04</rscale>
<asrwt>0</asrwt>
<pdfrwt beam="1">  1        1 0.16460637E+00 0.12444691E+04</pdfrwt>
<pdfrwt beam="2">  1       -1 0.55671748E-01 0.12444691E+04</pdfrwt>
<totfact> 0.43008985E+01</totfact>
</mgrwt>
</event>
<event>
12    1  0.1599266E-007  0.1305405E+04  0.7818608E-02  0.9025290E-01
         -1   -1    0    0    0  501 -0.00000000000E+00  0.00000000000E+00  0.19241059179E+03  0.19241059179E+03  0.00000000000E+00 0.  1.
          1   -1    0    0  501    0  0.00000000000E+00 -0.00000000000E+00 -0.22141208655E+04  0.22141208655E+04  0.00000000000E+00 0. -1.
         23    2    1    2    0    0 -0.11669973661E+03 -0.28418625767E+03 -0.27958712774E+03  0.42533299990E+03  0.91425058046E+02 0.  0.
        254    2    1    2    0    0  0.11669973661E+03  0.28418625767E+03 -0.17421231459E+04  0.19811984574E+04  0.89206144084E+03 0.  0.
        -24    2    4    4    0    0 -0.16713445464E+03  0.25573404004E+03 -0.12805277119E+03  0.34018735829E+03  0.77434497295E+02 0.  0.
         24    2    4    4    0    0  0.28383419124E+03  0.28452217627E+02 -0.16140703748E+04  0.16410110991E+04  0.79516512664E+02 0.  0.
         13    1    3    3    0    0 -0.25881537984E+02 -0.16817222376E+03 -0.17881515341E+03  0.24683316216E+03  0.00000000000E+00 0. -1.
        -13    1    3    3    0    0 -0.90818198623E+02 -0.11601403391E+03 -0.10077197433E+03  0.17849983775E+03  0.00000000000E+00 0.  1.
          2    1    6    6  502    0  0.26461839900E+03  0.55051012156E+01 -0.14941967404E+04  0.15174574466E+04  0.00000000000E+00 0. -1.
          1    1    5    5  503    0 -0.12668603639E+03  0.21337387991E+03 -0.70257655443E+02  0.25790289373E+03  0.00000000000E+00 0. -1.
         -4    1    5    5    0  503 -0.40448418246E+02  0.42360160128E+02 -0.57795115745E+02  0.82284464564E+02  0.00000000000E+00 0.  1.
         -1    1    6    6    0  502  0.19215792247E+02  0.22947116412E+02 -0.11987363432E+03  0.12355365243E+03  0.00000000000E+00 0.  1.
<mgrwt>
<rscale>  0 0.13054046E+04</rscale>
<asrwt>0</asrwt>
<pdfrwt beam="1">  1        1 0.34063401E+00 0.13054046E+04</pdfrwt>
<pdfrwt beam="2">  1       -1 0.29601627E-01 0.13054046E+04</pdfrwt>
<totfact> 0.21913994E+01</totfact>
</mgrwt>
</event>
<event>
12    1  0.1599266E-007  0.2529533E+04  0.7818608E-02  0.8392539E-01
         -1   -1    0    0    0  501 -0.00000000000E+00  0.00000000000E+00  0.77118850628E+03  0.77118850628E+03  0.00000000000E+00 0.  1.
          1   -1    0    0  501    0  0.00000000000E+00 -0.00000000000E+00 -0.20742461032E+04  0.20742461032E+04  0.00000000000E+00 0. -1.
         23    2    1    2    0    0 -0.78833637098E+03 -0.63793383951E+03 -0.10510813548E+04  0.14634236974E+04  0.91668349058E+02 0.  0.
        254    2    1    2    0    0  0.78833637098E+03  0.63793383951E+03 -0.25197624212E+03  0.13820109121E+04  0.90444917891E+03 0.  0.
        -24    2    4    4    0    0  0.83287611774E+03  0.55368800655E+03 -0.48779718133E+03  0.11155600753E+04  0.79215878967E+02 0.  0.
         24    2    4    4    0    0 -0.44539746764E+02  0.84245832955E+02  0.23582093921E+03  0.26645083678E+03  0.79393851396E+02 0.  0.
         11    1    3    3    0    0 -0.72983756751E+03 -0.60981586053E+03 -0.95781387195E+03  0.13497946777E+04  0.00000000000E+00 0. -1.
        -11    1    3    3    0    0 -0.58498803470E+02 -0.28117978976E+02 -0.93267482857E+02  0.11362901965E+03  0.00000000000E+00 0.  1.
          4    1    6    6  502    0  0.65975801258E+01  0.64743123667E+02  0.16177191492E+03  0.17437130665E+03  0.00000000000E+00 0. -1.
          3    1    5    5  503    0  0.36841295444E+03  0.26935396870E+03 -0.26008861847E+03  0.52528635515E+03  0.00000000000E+00 0. -1.
         -4    1    5    5    0  503  0.46446316330E+03  0.28433403786E+03 -0.22770856286E+03  0.59027372019E+03  0.00000000000E+00 0.  1.
         -3    1    6    6    0  502 -0.51137326889E+02  0.19502709288E+02  0.74049024286E+02  0.92079530129E+02  0.00000000000E+00 0.  1.
<mgrwt>
<rscale>  0 0.25295334E+04</rscale>
<asrwt>0</asrwt>
<pdfrwt beam="1">  1        1 0.31911478E+00 0.25295334E+04</pdfrwt>
<pdfrwt beam="2">  1       -1 0.11864439E+00 0.25295334E+04</pdfrwt>
<totfact> 0.14963341E+00</totfact>
</mgrwt>
</event>
<event>
12    1  0.1599266E-007  0.1532898E+04  0.7818608E-02  0.8862866E-01
         -2   -1    0    0    0  501 -0.00000000000E+00  0.00000000000E+00  0.17004007044E+03  0.17004007044E+03  0.00000000000E+00 0.  1.
          2   -1    0    0  501    0  0.00000000000E+00 -0.00000000000E+00 -0.34547394435E+04  0.34547394435E+04  0.00000000000E+00 0. -1.
         23    2    1    2    0    0  0.28503240644E+02 -0.15976900537E+03 -0.21794803058E+04  0.21874668099E+04  0.92401683412E+02 0.  0.
        254    2    1    2    0    0 -0.28503240644E+02  0.15976900537E+03 -0.11052190672E+04  0.14373127040E+04  0.90444461015E+03 0.  0.
        -24    2    4    4    0    0 -0.35427728138E+03  0.33406657651E+03 -0.39193233072E+03  0.63008287012E+03  0.79250247324E+02 0.  0.
         24    2    4    4    0    0  0.32577404074E+03 -0.17429757114E+03 -0.71328673650E+03  0.80722983393E+03  0.79584341323E+02 0.  0.
         13    1    3    3    0    0 -0.51046243097E+01  0.20575910996E+01 -0.80277033671E+01  0.97331850813E+01  0.00000000000E+00 0.  1.
        -13    1    3    3    0    0  0.33607864954E+02 -0.16182659647E+03 -0.21714526024E+04  0.21777336248E+04  0.00000000000E+00 0. -1.
          2    1    6    6  502    0  0.20512042033E+03 -0.14891357802E+03 -0.50895301447E+03  0.56857964393E+03  0.00000000000E+00 0. -1.
          3    1    5    5  503    0 -0.29824186211E+03  0.31563343315E+03 -0.34066787183E+03  0.55193049502E+03  0.00000000000E+00 0. -1.
         -4    1    5    5    0  503 -0.56035419277E+02  0.18433143362E+02 -0.51264458888E+02  0.78152375094E+02  0.00000000000E+00 0.  1.
         -1    1    6    6    0  502  0.12065362040E+03 -0.25383993116E+02 -0.20433372203E+03  0.23865018999E+03  0.00000000000E+00 0.  1.
<mgrwt>
<rscale>  0 0.15328981E+04</rscale>
<asrwt>0</asrwt>
<pdfrwt beam="1">  1        2 0.53149833E+00 0.15328981E+04</pdfrwt>
<pdfrwt beam="2">  1       -2 0.26160013E-01 0.15328981E+04</pdfrwt>
<totfact> 0.11270651E+01</totfact>
</mgrwt>
</event>
<event>
12    1  0.1599266E-007  0.2109945E+04  0.7818608E-02  0.8556875E-01
          2   -1    0    0  501    0  0.00000000000E+00  0.00000000000E+00  0.21636924913E+04  0.21636924913E+04  0.00000000000E+00 0. -1.
         -2   -1    0    0    0  501 -0.00000000000E+00 -0.00000000000E+00 -0.51438294014E+03  0.51438294014E+03  0.00000000000E+00 0.  1.
         23    2    1    2    0    0  0.29506001817E+03  0.35026282974E+03 -0.24820612401E+03  0.52882787548E+03  0.91149205524E+02 0.  0.
        254    2    1    2    0    0 -0.29506001817E+03 -0.35026282974E+03  0.18975156752E+04  0.21492475560E+04  0.89941917651E+03 0.  0.
        -24    2    4    4    0    0 -0.55266007101E+01 -0.19902469125E+03  0.17799335504E+04  0.17928643452E+04  0.80979906411E+02 0.  0.
         24    2    4    4    0    0 -0.28953341746E+03 -0.15123813849E+03  0.11758212474E+03  0.35638321078E+03  0.80503804292E+02 0.  0.
         13    1    3    3    0    0  0.36439153211E+02  0.84752885033E+02 -0.78684538905E+02  0.12125229924E+03  0.00000000000E+00 0. -1.
        -13    1    3    3    0    0  0.25862086496E+03  0.26550994471E+03 -0.16952158511E+03  0.40757557624E+03  0.00000000000E+00 0.  1.
          2    1    6    6  502    0 -0.17438662175E+03 -0.11889325088E+03  0.42892371207E+02  0.21537421958E+03  0.00000000000E+00 0. -1.
          1    1    5    5  503    0 -0.23560522793E+02 -0.13074315320E+03  0.85734415331E+03  0.86757585695E+03  0.00000000000E+00 0. -1.
         -2    1    5    5    0  503  0.18033922083E+02 -0.68281538047E+02  0.92258939711E+03  0.92528848823E+03  0.00000000000E+00 0.  1.
         -1    1    6    6    0  502 -0.11514679571E+03 -0.32344887609E+02  0.74689753530E+02  0.14100899120E+03  0.00000000000E+00 0.  1.
<mgrwt>
<rscale>  0 0.21099446E+04</rscale>
<asrwt>0</asrwt>
<pdfrwt beam="1">  1        2 0.33287576E+00 0.21099446E+04</pdfrwt>
<pdfrwt beam="2">  1       -2 0.79135838E-01 0.21099446E+04</pdfrwt>
<totfact> 0.70586699E+00</totfact>
</mgrwt>
</event>
<event>
12    1  0.1599266E-007  0.1601639E+04  0.7818608E-02  0.8819541E-01
         -4   -1    0    0    0  501 -0.00000000000E+00  0.00000000000E+00  0.60014016509E+03  0.60014016509E+03  0.00000000000E+00 0.  1.
          4   -1    0    0  501    0  0.00000000000E+00 -0.00000000000E+00 -0.10686041345E+04  0.10686041345E+04  0.00000000000E+00 0. -1.
         23    2    1    2    0    0 -0.95111091087E+02  0.23084444709E+03  0.33262908830E+03  0.42573765483E+03  0.90967917187E+02 0.  0.
        254    2    1    2    0    0  0.95111091087E+02 -0.23084444709E+03 -0.80109305772E+03  0.12430066448E+04  0.91704970061E+03 0.  0.
        -24    2    4    4    0    0 -0.35992657031E+02 -0.60412339283E+01  0.19314553071E+03  0.21229206742E+03  0.80192007020E+02 0.  0.
         24    2    4    4    0    0  0.13110374812E+03 -0.22480321316E+03 -0.99423858843E+03  0.10307145773E+04  0.78342145659E+02 0.  0.
         11    1    3    3    0    0 -0.10796378056E+03  0.20218641102E+03  0.25998476179E+03  0.34659428599E+03  0.00000000000E+00 0.  1.
        -11    1    3    3    0    0  0.12852689476E+02  0.28658036070E+02  0.72644326509E+02  0.79143368844E+02  0.00000000000E+00 0. -1.
          4    1    6    6  502    0 -0.22816651630E+01 -0.54815105023E+02 -0.17055318362E+03  0.17915995696E+03  0.00000000000E+00 0. -1.
          3    1    5    5  503    0 -0.98039856607E+01  0.36087140091E+02  0.66751897983E+02  0.76512846628E+02  0.00000000000E+00 0. -1.
         -4    1    5    5    0  503 -0.26188671370E+02 -0.42128374019E+02  0.12639363273E+03  0.13577922080E+03  0.00000000000E+00 0.  1.
         -3    1    6    6    0  502  0.13338541328E+03 -0.16998810814E+03 -0.82368540481E+03  0.85155462038E+03  0.00000000000E+00 0.  1.
<mgrwt>
<rscale>  0 0.16016395E+04</rscale>
<asrwt>0</asrwt>
<pdfrwt beam="1">  1        4 0.16440063E+00 0.16016395E+04</pdfrwt>
<pdfrwt beam="2">  1       -4 0.92329257E-01 0.16016395E+04</pdfrwt>
<totfact> 0.44393201E-01</totfact>
</mgrwt>
</event>
<event>
12    1  0.1599266E-007  0.1148225E+04  0.7818608E-02  0.9159423E-01
         -2   -1    0    0    0  501 -0.00000000000E+00  0.00000000000E+00  0.81128499172E+03  0.81128499172E+03  0.00000000000E+00 0.  1.
          2   -1    0    0  501    0  0.00000000000E+00 -0.00000000000E+00 -0.40627525564E+03  0.40627525564E+03  0.00000000000E+00 0. -1.
         23    2    1    2    0    0 -0.12296002873E+03  0.68345348027E+02  0.22673229975E+03  0.28197835477E+03  0.91181146883E+02 0.  0.
        254    2    1    2    0    0  0.12296002873E+03 -0.68345348027E+02  0.17827743633E+03  0.93558189259E+03  0.90760144236E+03 0.  0.
        -24    2    4    4    0    0  0.16141254841E+03  0.30655296202E+03  0.36340258275E+03  0.50817795546E+03  0.78451691879E+02 0.  0.
         24    2    4    4    0    0 -0.38452519681E+02 -0.37489831005E+03 -0.18512514642E+03  0.42740393712E+03  0.79846518286E+02 0.  0.
         11    1    3    3    0    0 -0.13259915981E+03  0.41491333522E+02  0.19276355206E+03  0.23761703420E+03  0.00000000000E+00 0.  1.
        -11    1    3    3    0    0  0.96391310799E+01  0.26854014505E+02  0.33968747688E+02  0.44361320568E+02  0.00000000000E+00 0. -1.
          2    1    6    6  502    0 -0.54341311241E+02 -0.35750169366E+03 -0.17561705004E+03  0.40199724793E+03  0.00000000000E+00 0. -1.
          1    1    5    5  503    0  0.15051114206E+03  0.30594767330E+03  0.36178982562E+03  0.49714128837E+03  0.00000000000E+00 0. -1.
         -2    1    5    5    0  503  0.10901406354E+02  0.60528871825E+00  0.16127571353E+01  0.11036667092E+02  0.00000000000E+00 0.  1.
         -1    1    6    6    0  502  0.15888791560E+02 -0.17396616390E+02 -0.95080963866E+01  0.25406689197E+02  0.00000000000E+00 0.  1.
<mgrwt>
<rscale>  0 0.11482247E+04</rscale>
<asrwt>0</asrwt>
<pdfrwt beam="1">  1        2 0.62503886E-01 0.11482247E+04</pdfrwt>
<pdfrwt beam="2">  1       -2 0.12481308E+00 0.11482247E+04</pdfrwt>
<totfact> 0.37207568E+01</totfact>
</mgrwt>
</event>
<event>
12    1  0.1599266E-007  0.3147893E+04  0.7818608E-02  0.8202716E-01
          2   -1    0    0  501    0  0.00000000000E+00  0.00000000000E+00  0.31067813515E+04  0.31067813515E+04  0.00000000000E+00 0.  1.
         -2   -1    0    0    0  501 -0.00000000000E+00 -0.00000000000E+00 -0.79738710939E+03  0.79738710939E+03  0.00000000000E+00 0. -1.
         23    2    1    2    0    0  0.39794452243E+03 -0.77217385916E+03 -0.36787813806E+03  0.94773174474E+03  0.90823035789E+02 0.  0.
        254    2    1    2    0    0 -0.39794452243E+03  0.77217385916E+03  0.26772723802E+04  0.29564367162E+04  0.90449894822E+03 0.  0.
        -24    2    4    4    0    0  0.11141856523E+03 -0.12501198861E+03  0.20409180253E+03  0.27561560921E+03  0.79173266986E+02 0.  0.
         24    2    4    4    0    0 -0.50936308765E+03  0.89718584777E+03  0.24731805777E+04  0.26808211070E+04  0.76068635825E+02 0.  0.
         11    1    3    3    0    0  0.35539503077E+02 -0.13532212034E+03 -0.44670681750E+02  0.14686933764E+03  0.00000000000E+00 0.  1.
        -11    1    3    3    0    0  0.36240501935E+03 -0.63685173883E+03 -0.32320745631E+03  0.80086240710E+03  0.00000000000E+00 0. -1.
          4    1    6    6  502    0 -0.48204946213E+03  0.87326179340E+03  0.23663849190E+04  0.25680216955E+04  0.00000000000E+00 0. -1.
          3    1    5    5  503    0  0.74106583199E+02 -0.10547181003E+03  0.99426435750E+02  0.16279344124E+03  0.00000000000E+00 0. -1.
         -4    1    5    5    0  503  0.37311982026E+02 -0.19540178580E+02  0.10466536678E+03  0.11282216797E+03  0.00000000000E+00 0.  1.
         -3    1    6    6    0  502 -0.27313625525E+02  0.23924054376E+02  0.10679565864E+03  0.11279941144E+03  0.00000000000E+00 0.  1.
<mgrwt>
<rscale>  0 0.31478929E+04</rscale>
<asrwt>0</asrwt>
<pdfrwt beam="1">  1        2 0.47796636E+00 0.31478929E+04</pdfrwt>
<pdfrwt beam="2">  1       -2 0.12267494E+00 0.31478929E+04</pdfrwt>
<totfact> 0.63273682E-01</totfact>
</mgrwt>
</event>
<event>
12    1  0.1599266E-007  0.1587887E+04  0.7818608E-02  0.8828024E-01
         -2   -1    0    0    0  501 -0.00000000000E+00  0.00000000000E+00  0.23796323728E+03  0.23796323728E+03  0.00000000000E+00 0.  1.
          2   -1    0    0  501    0  0.00000000000E+00 -0.00000000000E+00 -0.26489216987E+04  0.26489216987E+04  0.00000000000E+00 0. -1.
         23    2    1    2    0    0  0.47939064290E+03 -0.16071592800E+03 -0.49523868570E+03  0.71321154208E+03  0.88115548706E+02 0.  0.
        254    2    1    2    0    0 -0.47939064290E+03  0.16071592800E+03 -0.19157197757E+04  0.21736733939E+04  0.89399595427E+03 0.  0.
        -24    2    4    4    0    0 -0.35018454418E+03 -0.34046067556E+03 -0.79190150128E+03  0.93373013465E+03  0.78748270056E+02 0.  0.
         24    2    4    4    0    0 -0.12920609873E+03  0.50117660356E+03 -0.11238182744E+04  0.12399432592E+04  0.81360729487E+02 0.  0.
         13    1    3    3    0    0  0.29077993176E+03 -0.11608927516E+03 -0.35871778146E+03  0.47613877731E+03  0.00000000000E+00 0.  1.
        -13    1    3    3    0    0  0.18861071114E+03 -0.44626652840E+02 -0.13652090424E+03  0.23707276477E+03  0.00000000000E+00 0. -1.
          2    1    6    6  502    0 -0.47787991672E+02  0.31582328400E+03 -0.63340528604E+03  0.70938726747E+03  0.00000000000E+00 0. -1.
          3    1    5    5  503    0 -0.34956738494E+03 -0.31948041766E+03 -0.76285812164E+03  0.89789621206E+03  0.00000000000E+00 0. -1.
         -4    1    5    5    0  503 -0.61715923742E+00 -0.20980257897E+02 -0.29043379640E+02  0.35833922586E+02  0.00000000000E+00 0.  1.
         -1    1    6    6    0  502 -0.81418107054E+02  0.18535331955E+03 -0.49041298838E+03  0.53055599176E+03  0.00000000000E+00 0.  1.
<mgrwt>
<rscale>  0 0.15878866E+04</rscale>
<asrwt>0</asrwt>
<pdfrwt beam="1">  1        2 0.40752641E+00 0.15878866E+04</pdfrwt>
<pdfrwt beam="2">  1       -2 0.36609730E-01 0.15878866E+04</pdfrwt>
<totfact> 0.19265318E+01</totfact>
</mgrwt>
</event>
<event>
12    1  0.1599266E-007  0.2259990E+04  0.7818608E-02  0.8493866E-01
         -2   -1    0    0    0  501 -0.00000000000E+00  0.00000000000E+00  0.97307161386E+03  0.97307161386E+03  0.00000000000E+00 0.  1.
          2   -1    0    0  501    0  0.00000000000E+00 -0.00000000000E+00 -0.13122245557E+04  0.13122245557E+04  0.00000000000E+00 0. -1.
         23    2    1    2    0    0 -0.58404249780E+03 -0.38038845548E+03  0.51124135980E+03  0.86928940810E+03  0.92170118649E+02 0.  0.
        254    2    1    2    0    0  0.58404249780E+03  0.38038845548E+03 -0.85039430166E+03  0.14160067615E+04  0.89224641438E+03 0.  0.
        -24    2    4    4    0    0 -0.18429309411E+03 -0.37517533082E+02 -0.14543554388E+02  0.20361773014E+03  0.76662606444E+02 0.  0.
         24    2    4    4    0    0  0.76833559191E+03  0.41790598856E+03 -0.83585074727E+03  0.12123890313E+04  0.79092948661E+02 0.  0.
         13    1    3    3    0    0 -0.45659073673E+03 -0.25154092999E+03  0.36434282935E+03  0.63599814278E+03  0.00000000000E+00 0.  1.
        -13    1    3    3    0    0 -0.12745176107E+03 -0.12884752549E+03  0.14689853045E+03  0.23329126532E+03  0.00000000000E+00 0. -1.
          4    1    6    6  502    0  0.71029307476E+03  0.36285485778E+03 -0.74631286364E+03  0.10923199121E+04  0.00000000000E+00 0. -1.
          1    1    5    5  503    0 -0.18223362102E+03 -0.46833324794E+02 -0.24598738171E+02  0.18975655683E+03  0.00000000000E+00 0. -1.
         -2    1    5    5    0  503 -0.20594730977E+01  0.93157917123E+01  0.10055183783E+02  0.13861173312E+02  0.00000000000E+00 0.  1.
         -3    1    6    6    0  502  0.58042517148E+02  0.55051130783E+02 -0.89537883625E+02  0.12006911927E+03  0.00000000000E+00 0.  1.
<mgrwt>
<rscale>  0 0.22599898E+04</rscale>
<asrwt>0</asrwt>
<pdfrwt beam="1">  1        2 0.20188070E+00 0.22599898E+04</pdfrwt>
<pdfrwt beam="2">  1       -2 0.14970333E+00 0.22599898E+04</pdfrwt>
<totfact> 0.44558341E+00</totfact>
</mgrwt>
</event>
<event>
12    1  0.1599266E-007  0.1291889E+04  0.7818608E-02  0.9036022E-01
         -1   -1    0    0    0  501 -0.00000000000E+00  0.00000000000E+00  0.33008968380E+03  0.33008968380E+03  0.00000000000E+00 0.  1.
          1   -1    0    0  501    0  0.00000000000E+00 -0.00000000000E+00 -0.12640323918E+04  0.12640323918E+04  0.00000000000E+00 0. -1.
         23    2    1    2    0    0 -0.24917175140E+03 -0.19717644019E+03 -0.24550491622E+03  0.41223655014E+03  0.93280218268E+02 0.  0.
        254    2    1    2    0    0  0.24917175140E+03  0.19717644019E+03 -0.68843779176E+03  0.11818855254E+04  0.90660999986E+03 0.  0.
        -24    2    4    4    0    0  0.12496337406E+02  0.84244776913E+02  0.21208063878E+03  0.24050879905E+03  0.74919584818E+02 0.  0.
         24    2    4    4    0    0  0.23667541400E+03  0.11293166327E+03 -0.90051843054E+03  0.94137672639E+03  0.80547408958E+02 0.  0.
         11    1    3    3    0    0 -0.96872755584E+01  0.10265026930E+02 -0.76425168499E+01  0.16050612119E+02  0.00000000000E+00 0.  1.
        -11    1    3    3    0    0 -0.23948447584E+03 -0.20744146712E+03 -0.23786239937E+03  0.39618593802E+03  0.00000000000E+00 0. -1.
          4    1    6    6  502    0  0.12917204870E+03  0.89521202916E+02 -0.42046581729E+03  0.44887745259E+03  0.00000000000E+00 0. -1.
          1    1    5    5  503    0  0.45197238253E+01 -0.12144964668E+02  0.51009338384E+02  0.52629655829E+02  0.00000000000E+00 0. -1.
         -2    1    5    5    0  503  0.79766135806E+01  0.96389741581E+02  0.16107130039E+03  0.18787914322E+03  0.00000000000E+00 0.  1.
         -3    1    6    6    0  502  0.10750336529E+03  0.23410460358E+02 -0.48005261325E+03  0.49249927380E+03  0.00000000000E+00 0.  1.
<mgrwt>
<rscale>  0 0.12918886E+04</rscale>
<asrwt>0</asrwt>
<pdfrwt beam="1">  1        1 0.19446652E+00 0.12918886E+04</pdfrwt>
<pdfrwt beam="2">  1       -1 0.50783028E-01 0.12918886E+04</pdfrwt>
<totfact> 0.36767982E+01</totfact>
</mgrwt>
</event>
<event>
12    1  0.1599266E-007  0.1120792E+04  0.7818608E-02  0.9185160E-01
          2   -1    0    0  501    0  0.00000000000E+00  0.00000000000E+00  0.13213207466E+04  0.13213207466E+04  0.00000000000E+00 0. -1.
         -2   -1    0    0    0  501 -0.00000000000E+00 -0.00000000000E+00 -0.23767412814E+03  0.23767412814E+03  0.00000000000E+00 0.  1.
         23    2    1    2    0    0 -0.12100154294E+03  0.36558995651E+02  0.14715838776E+02  0.15697014709E+03  0.91897429827E+02 0.  0.
        254    2    1    2    0    0  0.12100154294E+03 -0.36558995651E+02  0.10689307797E+04  0.14020247277E+04  0.89837764423E+03 0.  0.
        -24    2    4    4    0    0  0.46147985950E+03  0.10335186060E+03  0.82143070849E+03  0.95123308606E+03  0.80316295682E+02 0.  0.
         24    2    4    4    0    0 -0.34047831656E+03 -0.13991085625E+03  0.24750007125E+03  0.45079164164E+03  0.80351024624E+02 0.  0.
         11    1    3    3    0    0 -0.34526286298E+02 -0.27357498901E+02  0.21906084115E+02  0.49197293756E+02  0.00000000000E+00 0. -1.
        -11    1    3    3    0    0 -0.86475256641E+02  0.63916494552E+02 -0.71902453388E+01  0.10777285333E+03  0.00000000000E+00 0.  1.
          4    1    6    6  502    0 -0.31942891662E+03 -0.12756154219E+03  0.25145207927E+03  0.42606915869E+03  0.00000000000E+00 0. -1.
          3    1    5    5  503    0  0.37387823528E+03  0.82192703004E+02  0.59476787700E+03  0.70731139023E+03  0.00000000000E+00 0. -1.
         -2    1    5    5    0  503  0.87601624220E+02  0.21159157598E+02  0.22666283149E+03  0.24392169582E+03  0.00000000000E+00 0.  1.
         -3    1    6    6    0  502 -0.21049399942E+02 -0.12349314061E+02 -0.39520080217E+01  0.24722482948E+02  0.00000000000E+00 0.  1.
<mgrwt>
<rscale>  0 0.11207921E+04</rscale>
<asrwt>0</asrwt>
<pdfrwt beam="1">  1        2 0.20328011E+00 0.11207921E+04</pdfrwt>
<pdfrwt beam="2">  1       -2 0.36565251E-01 0.11207921E+04</pdfrwt>
<totfact> 0.11209976E+02</totfact>
</mgrwt>
</event>
<event>
12    1  0.1739312E-007  0.2243408E+04  0.7818608E-02  0.8500575E-01
          2   -1    0    0  501    0  0.00000000000E+00  0.00000000000E+00  0.64772941431E+03  0.64772941431E+03  0.00000000000E+00 0. -1.
         -2   -1    0    0    0  501 -0.00000000000E+00 -0.00000000000E+00 -0.19425088601E+04  0.19425088601E+04  0.00000000000E+00 0.  1.
         23    2    1    2    0    0 -0.84722368674E+03 -0.88679959785E+02 -0.14271729870E+03  0.86770260381E+03  0.82990786672E+02 0.  0.
        254    2    1    2    0    0  0.84722368674E+03  0.88679959785E+02 -0.11520621471E+04  0.17225356706E+04  0.95615366711E+03 0.  0.
        -24    2    4    4    0    0  0.29232055163E+03 -0.36507994145E+03 -0.77269512505E+03  0.90755330371E+03  0.88659879491E+02 0.  0.
         24    2    4    4    0    0  0.55490313511E+03  0.45375990124E+03 -0.37936702206E+03  0.81498236692E+03  0.80382732202E+02 0.  0.
         13    1    3    3    0    0 -0.16558541321E+01  0.27723339455E+01  0.34603974167E+01  0.47330791979E+01  0.00000000000E+00 0. -1.
        -13    1    3    3    0    0 -0.84556783261E+03 -0.91452293731E+02 -0.14617769612E+03  0.86296952461E+03  0.00000000000E+00 0.  1.
          4    1    6    6  502    0  0.65126852499E+02  0.48309270180E+02 -0.73385561675E+02  0.10936513688E+03  0.00000000000E+00 0. -1.
          3    1    5    5  503    0  0.84789694659E+02 -0.74928449641E+02 -0.12880438533E+03  0.17144717719E+03  0.00000000000E+00 0. -1.
         -4    1    5    5    0  503  0.20753085697E+03 -0.29015149181E+03 -0.64389073972E+03  0.73610612652E+03  0.00000000000E+00 0.  1.
         -3    1    6    6    0  502  0.48977628261E+03  0.40545063106E+03 -0.30598146039E+03  0.70561723004E+03  0.00000000000E+00 0.  1.
<mgrwt>
<rscale>  0 0.22434082E+04</rscale>
<asrwt>0</asrwt>
<pdfrwt beam="1">  1        2 0.99650680E-01 0.22434082E+04</pdfrwt>
<pdfrwt beam="2">  1       -2 0.29884751E+00 0.22434082E+04</pdfrwt>
<totfact> 0.13292786E+00</totfact>
</mgrwt>
</event>
<event>
12    1  0.1599266E-007  0.1636973E+04  0.7818608E-02  0.8798150E-01
         -1   -1    0    0    0  501 -0.00000000000E+00  0.00000000000E+00  0.39874753801E+03  0.39874753801E+03  0.00000000000E+00 0.  1.
          1   -1    0    0  501    0  0.00000000000E+00 -0.00000000000E+00 -0.16800612938E+04  0.16800612938E+04  0.00000000000E+00 0. -1.
         23    2    1    2    0    0  0.51382327758E+02  0.56263642894E+03 -0.50010714777E+03  0.75993614615E+03  0.90531166984E+02 0.  0.
        254    2    1    2    0    0 -0.51382327758E+02 -0.56263642894E+03 -0.78120660799E+03  0.13188726856E+04  0.89996750037E+03 0.  0.
        -24    2    4    4    0    0  0.98028277197E+02  0.22016731058E+03 -0.25965220315E+03  0.36317284251E+03  0.79950354324E+02 0.  0.
         24    2    4    4    0    0 -0.14941060495E+03 -0.78280373953E+03 -0.52155440483E+03  0.95569984310E+03  0.78980816769E+02 0.  0.
         13    1    3    3    0    0  0.43342491567E+02  0.56242872113E+03 -0.49417724782E+03  0.74994385803E+03  0.00000000000E+00 0.  1.
        -13    1    3    3    0    0  0.80398361910E+01  0.20770781008E+00 -0.59298999539E+01  0.99922881252E+01  0.00000000000E+00 0. -1.
          2    1    6    6  502    0 -0.19184490247E+02 -0.10238785609E+03 -0.38093188531E+02  0.11091622403E+03  0.00000000000E+00 0. -1.
          1    1    5    5  503    0  0.97868775631E+02  0.22482357096E+03 -0.26120446587E+03  0.35826206650E+03  0.00000000000E+00 0. -1.
         -2    1    5    5    0  503  0.15950156542E+00 -0.46562603770E+01  0.15522627215E+01  0.49107760083E+01  0.00000000000E+00 0.  1.
         -1    1    6    6    0  502 -0.13022611471E+03 -0.68041588343E+03 -0.48346121630E+03  0.84478361907E+03  0.00000000000E+00 0.  1.
<mgrwt>
<rscale>  0 0.16369732E+04</rscale>
<asrwt>0</asrwt>
<pdfrwt beam="1">  1        1 0.25847097E+00 0.16369732E+04</pdfrwt>
<pdfrwt beam="2">  1       -1 0.61345775E-01 0.16369732E+04</pdfrwt>
<totfact> 0.12678742E+01</totfact>
</mgrwt>
</event>
<event>
12    1  0.1599266E-007  0.1638132E+04  0.7818608E-02  0.8797459E-01
         -2   -1    0    0    0  501 -0.00000000000E+00  0.00000000000E+00  0.13607757619E+04  0.13607757619E+04  0.00000000000E+00 0.  1.
          2   -1    0    0  501    0  0.00000000000E+00 -0.00000000000E+00 -0.49300480650E+03  0.49300480650E+03  0.00000000000E+00 0. -1.
         23    2    1    2    0    0 -0.47437869053E+02 -0.44463343895E+02  0.90767412799E+03  0.91448638873E+03  0.90474815193E+02 0.  0.
        254    2    1    2    0    0  0.47437869053E+02  0.44463343895E+02 -0.39903172584E+02  0.93929417968E+03  0.93619119437E+03 0.  0.
        -24    2    4    4    0    0  0.47740901095E+03  0.85318959571E+02  0.38544244969E+02  0.49304824376E+03  0.80076358907E+02 0.  0.
         24    2    4    4    0    0 -0.42997114189E+03 -0.40855615677E+02 -0.78447417553E+02  0.44624593592E+03  0.80231376724E+02 0.  0.
         11    1    3    3    0    0 -0.53442000017E+02  0.10169204937E+02  0.53893349686E+03  0.54167220174E+03  0.00000000000E+00 0.  1.
        -11    1    3    3    0    0  0.60041309633E+01 -0.54632548832E+02  0.36874063113E+03  0.37281418699E+03  0.00000000000E+00 0. -1.
          2    1    6    6  502    0 -0.26278966717E+03 -0.45875820220E+02 -0.14422022889E+02  0.26715350418E+03  0.00000000000E+00 0. -1.
          1    1    5    5  503    0  0.11947006199E+03 -0.13014100902E+02  0.14878005681E+02  0.12109425085E+03  0.00000000000E+00 0. -1.
         -2    1    5    5    0  503  0.35793894895E+03  0.98333060473E+02  0.23666239289E+02  0.37195399291E+03  0.00000000000E+00 0.  1.
         -1    1    6    6    0  502 -0.16718147473E+03  0.50202045433E+01 -0.64025394664E+02  0.17909243174E+03  0.00000000000E+00 0.  1.
<mgrwt>
<rscale>  0 0.16381319E+04</rscale>
<asrwt>0</asrwt>
<pdfrwt beam="1">  1        2 0.75846894E-01 0.16381319E+04</pdfrwt>
<pdfrwt beam="2">  1       -2 0.20935012E+00 0.16381319E+04</pdfrwt>
<totfact> 0.69138808E+00</totfact>
</mgrwt>
</event>
<event>
12    1  0.1599266E-007  0.2160826E+04  0.7818608E-02  0.8534913E-01
          1   -1    0    0  501    0  0.00000000000E+00  0.00000000000E+00  0.11417160863E+04  0.11417160863E+04  0.00000000000E+00 0. -1.
         -1   -1    0    0    0  501 -0.00000000000E+00 -0.00000000000E+00 -0.10224011059E+04  0.10224011059E+04  0.00000000000E+00 0.  1.
         23    2    1    2    0    0  0.83073871111E+03  0.14919108735E+03  0.18634831627E+03  0.86912111688E+03  0.90890231372E+02 0.  0.
        254    2    1    2    0    0 -0.83073871111E+03 -0.14919108735E+03 -0.67033335772E+02  0.12949960753E+04  0.97986559298E+03 0.  0.
        -24    2    4    4    0    0  0.13861867180E+03  0.18793188491E+03  0.69954605674E+02  0.25653263961E+03  0.79886286653E+02 0.  0.
         24    2    4    4    0    0 -0.96935738291E+03 -0.33712297226E+03 -0.13698794145E+03  0.10384634357E+04  0.79592568541E+02 0.  0.
         11    1    3    3    0    0  0.63769970718E+03  0.83191922418E+02  0.16544343523E+03  0.66404317838E+03  0.00000000000E+00 0. -1.
        -11    1    3    3    0    0  0.19303900393E+03  0.65999164932E+02  0.20904881036E+02  0.20507793850E+03  0.00000000000E+00 0.  1.
          4    1    6    6  502    0 -0.63006831472E+03 -0.17870780203E+03 -0.90040080575E+02  0.66108227614E+03  0.00000000000E+00 0. -1.
          1    1    5    5  503    0  0.12559903179E+03  0.11197947629E+03  0.34788726377E+02  0.17182774916E+03  0.00000000000E+00 0. -1.
         -2    1    5    5    0  503  0.13019640009E+02  0.75952408612E+02  0.35165879298E+02  0.84704890453E+02  0.00000000000E+00 0.  1.
         -3    1    6    6    0  502 -0.33928906819E+03 -0.15841517023E+03 -0.46947860871E+02  0.37738115956E+03  0.00000000000E+00 0.  1.
<mgrwt>
<rscale>  0 0.21608256E+04</rscale>
<asrwt>0</asrwt>
<pdfrwt beam="1">  1        1 0.17564863E+00 0.21608256E+04</pdfrwt>
<pdfrwt beam="2">  1       -1 0.15729248E+00 0.21608256E+04</pdfrwt>
<totfact> 0.33079897E+00</totfact>
</mgrwt>
</event>
<event>
12    1  0.1599266E-007  0.1519594E+04  0.7818608E-02  0.8871526E-01
         -1   -1    0    0    0  501 -0.00000000000E+00  0.00000000000E+00  0.13971194720E+04  0.13971194720E+04  0.00000000000E+00 0.  1.
          1   -1    0    0  501    0  0.00000000000E+00 -0.00000000000E+00 -0.41320143869E+03  0.41320143869E+03  0.00000000000E+00 0. -1.
         23    2    1    2    0    0 -0.15017713089E+03  0.24594008844E+03 -0.15308503047E+03  0.34209439068E+03  0.10273192220E+03 0.  0.
        254    2    1    2    0    0  0.15017713089E+03 -0.24594008844E+03  0.11370030638E+04  0.14682265200E+04  0.88310443848E+03 0.  0.
        -24    2    4    4    0    0 -0.13592555618E+03  0.14973612291E+03  0.88792123497E+03  0.91425953375E+03  0.81053761235E+02 0.  0.
         24    2    4    4    0    0  0.28610268707E+03 -0.39567621135E+03  0.24908182879E+03  0.55396698625E+03  0.80145197250E+02 0.  0.
         11    1    3    3    0    0 -0.99397164632E+02  0.18543763784E+03 -0.15775124904E+03  0.26296838296E+03  0.00000000000E+00 0. -1.
        -11    1    3    3    0    0 -0.50779966255E+02  0.60502450602E+02  0.46662185756E+01  0.79126007719E+02  0.00000000000E+00 0.  1.
          2    1    6    6  502    0  0.24378351944E+03 -0.28058591700E+03  0.19780996387E+03  0.42105539182E+03  0.00000000000E+00 0. -1.
          1    1    5    5  503    0 -0.10439558241E+03  0.14616428099E+03  0.81779894858E+03  0.83729179797E+03  0.00000000000E+00 0. -1.
         -2    1    5    5    0  503 -0.31529973773E+02  0.35718419172E+01  0.70122286393E+02  0.76967735772E+02  0.00000000000E+00 0.  1.
         -1    1    6    6    0  502  0.42319167625E+02 -0.11509029435E+03  0.51271864920E+02  0.13291159443E+03  0.00000000000E+00 0.  1.
<mgrwt>
<rscale>  0 0.15195944E+04</rscale>
<asrwt>0</asrwt>
<pdfrwt beam="1">  1        1 0.63569453E-01 0.15195944E+04</pdfrwt>
<pdfrwt beam="2">  1       -1 0.21494146E+00 0.15195944E+04</pdfrwt>
<totfact> 0.66031877E+00</totfact>
</mgrwt>
</event>
<event>
12    1  0.1599266E-007  0.2508732E+04  0.7818608E-02  0.8399881E-01
         -1   -1    0    0    0  501 -0.00000000000E+00  0.00000000000E+00  0.13777962207E+04  0.13777962207E+04  0.00000000000E+00 0.  1.
          1   -1    0    0  501    0  0.00000000000E+00 -0.00000000000E+00 -0.11419929216E+04  0.11419929216E+04  0.00000000000E+00 0. -1.
         23    2    1    2    0    0 -0.56916987524E+03  0.91670717189E+03  0.10762814303E+03  0.10883078882E+04  0.92324733217E+02 0.  0.
        254    2    1    2    0    0  0.56916987524E+03 -0.91670717189E+03  0.12817515605E+03  0.14314812541E+04  0.93188160425E+03 0.  0.
        -24    2    4    4    0    0  0.39022680173E+03  0.70088535210E+02  0.12844202662E+03  0.42581241232E+03  0.87346990361E+02 0.  0.
         24    2    4    4    0    0  0.17894307351E+03 -0.98679570710E+03 -0.26687057376E+00  0.10056688418E+04  0.74721864302E+02 0.  0.
         11    1    3    3    0    0 -0.10411130997E+03  0.19159273145E+03 -0.13141672572E+02  0.21844826199E+03  0.00000000000E+00 0. -1.
        -11    1    3    3    0    0 -0.46505856527E+03  0.72511444044E+03  0.12076981560E+03  0.86985962617E+03  0.00000000000E+00 0.  1.
          2    1    6    6  502    0  0.15073622209E+03 -0.63534571514E+03  0.68149061039E+01  0.65301763326E+03  0.00000000000E+00 0. -1.
          3    1    5    5  503    0  0.77565191702E+01  0.17978967804E+02  0.10352760139E+02  0.22149187693E+02  0.00000000000E+00 0. -1.
         -4    1    5    5    0  503  0.38247028256E+03  0.52109567406E+02  0.11808926648E+03  0.40366322463E+03  0.00000000000E+00 0.  1.
         -1    1    6    6    0  502  0.28206851424E+02 -0.35144999196E+03 -0.70817766777E+01  0.35265120853E+03  0.00000000000E+00 0.  1.
<mgrwt>
<rscale>  0 0.25087316E+04</rscale>
<asrwt>0</asrwt>
<pdfrwt beam="1">  1        1 0.17569122E+00 0.25087316E+04</pdfrwt>
<pdfrwt beam="2">  1       -1 0.21196865E+00 0.25087316E+04</pdfrwt>
<totfact> 0.13050899E+00</totfact>
</mgrwt>
</event>
<event>
12    1  0.1599266E-007  0.1206073E+04  0.7818608E-02  0.9107557E-01
          2   -1    0    0  501    0  0.00000000000E+00  0.00000000000E+00  0.33090869326E+03  0.33090869326E+03  0.00000000000E+00 0.  1.
         -2   -1    0    0    0  501 -0.00000000000E+00 -0.00000000000E+00 -0.10989529146E+04  0.10989529146E+04  0.00000000000E+00 0. -1.
         23    2    1    2    0    0 -0.88080012755E+02  0.24165703919E+03 -0.13178758819E+03  0.30260843689E+03  0.89708887173E+02 0.  0.
        254    2    1    2    0    0  0.88080012755E+02 -0.24165703919E+03 -0.63625663319E+03  0.11272531710E+04  0.89427120888E+03 0.  0.
        -24    2    4    4    0    0 -0.37337664857E+03 -0.21379439322E+03 -0.43412982827E+03  0.61648345300E+03  0.80405072921E+02 0.  0.
         24    2    4    4    0    0  0.46145666133E+03 -0.27862645970E+02 -0.20212680492E+03  0.51076971801E+03  0.79447355173E+02 0.  0.
         13    1    3    3    0    0  0.15855040524E+02  0.67058953107E+02 -0.39665897132E+02  0.79508923381E+02  0.00000000000E+00 0. -1.
        -13    1    3    3    0    0 -0.10393505328E+03  0.17459808608E+03 -0.92121691061E+02  0.22309951351E+03  0.00000000000E+00 0.  1.
          2    1    6    6  502    0  0.12530774238E+03 -0.16370107378E+02 -0.18969559524E+02  0.12778832069E+03  0.00000000000E+00 0. -1.
          3    1    5    5  503    0 -0.16022567847E+03 -0.63781356787E+02 -0.21744682626E+03  0.27753099244E+03  0.00000000000E+00 0. -1.
         -4    1    5    5    0  503 -0.21315097010E+03 -0.15001303643E+03 -0.21668300201E+03  0.33895246055E+03  0.00000000000E+00 0.  1.
         -1    1    6    6    0  502  0.33614891895E+03 -0.11492538593E+02 -0.18315724539E+03  0.38298139732E+03  0.00000000000E+00 0.  1.
<mgrwt>
<rscale>  0 0.12060731E+04</rscale>
<asrwt>0</asrwt>
<pdfrwt beam="1">  1        2 0.50909029E-01 0.12060731E+04</pdfrwt>
<pdfrwt beam="2">  1       -2 0.16906968E+00 0.12060731E+04</pdfrwt>
<totfact> 0.20979402E+01</totfact>
</mgrwt>
</event>
<event>
12    1  0.1599266E-007  0.1215803E+04  0.7818608E-02  0.9099136E-01
         -1   -1    0    0    0  501 -0.00000000000E+00  0.00000000000E+00  0.49274268068E+03  0.49274268068E+03  0.00000000000E+00 0.  1.
          1   -1    0    0  501    0  0.00000000000E+00 -0.00000000000E+00 -0.74997405669E+03  0.74997405669E+03  0.00000000000E+00 0. -1.
         23    2    1    2    0    0  0.13265161483E+03 -0.21535992864E+03  0.11174917131E+02  0.26949843986E+03  0.92348148501E+02 0.  0.
        254    2    1    2    0    0 -0.13265161483E+03  0.21535992864E+03 -0.26840629314E+03  0.97321829751E+03  0.90063064940E+03 0.  0.
        -24    2    4    4    0    0 -0.44306743457E+03  0.31116794630E+03 -0.49503241791E+01  0.54739250284E+03  0.80497230213E+02 0.  0.
         24    2    4    4    0    0  0.31041581975E+03 -0.95808017657E+02 -0.26345596896E+03  0.42582579467E+03  0.79883680657E+02 0.  0.
         13    1    3    3    0    0  0.41167153794E+02 -0.38631100660E+02 -0.33357367094E+02  0.65572939762E+02  0.00000000000E+00 0.  1.
        -13    1    3    3    0    0  0.91484461032E+02 -0.17672882798E+03  0.44532284225E+02  0.20392550009E+03  0.00000000000E+00 0. -1.
          2    1    6    6  502    0  0.25819417166E+03 -0.10415647334E+03 -0.19781378183E+03  0.34153051620E+03  0.00000000000E+00 0. -1.
          3    1    5    5  503    0 -0.37378236675E+03  0.27408898800E+03 -0.31164058444E+02  0.46455271991E+03  0.00000000000E+00 0. -1.
         -4    1    5    5    0  503 -0.69285067818E+02  0.37078958297E+02  0.26213734265E+02  0.82839782925E+02  0.00000000000E+00 0.  1.
         -1    1    6    6    0  502  0.52221648089E+02  0.83484556869E+01 -0.65642187129E+02  0.84295278471E+02  0.00000000000E+00 0.  1.
<mgrwt>
<rscale>  0 0.12158030E+04</rscale>
<asrwt>0</asrwt>
<pdfrwt beam="1">  1        1 0.11538062E+00 0.12158030E+04</pdfrwt>
<pdfrwt beam="2">  1       -1 0.75806566E-01 0.12158030E+04</pdfrwt>
<totfact> 0.42350489E+01</totfact>
</mgrwt>
</event>
<event>
12    1  0.1599266E-007  0.3113527E+04  0.7818608E-02  0.8212035E-01
         -1   -1    0    0    0  501 -0.00000000000E+00  0.00000000000E+00  0.61862240117E+03  0.61862240117E+03  0.00000000000E+00 0.  1.
          1   -1    0    0  501    0  0.00000000000E+00 -0.00000000000E+00 -0.39175959931E+04  0.39175959931E+04  0.00000000000E+00 0. -1.
         23    2    1    2    0    0 -0.13594042822E+04  0.39989403437E+03 -0.17204967858E+04  0.22309551875E+04  0.95690216946E+02 0.  0.
        254    2    1    2    0    0  0.13594042822E+04 -0.39989403437E+03 -0.15784768061E+04  0.23052632067E+04  0.90263734898E+03 0.  0.
        -24    2    4    4    0    0  0.21996023607E+02 -0.72050445601E+02  0.89444457666E+02  0.14091136620E+03  0.78616857932E+02 0.  0.
         24    2    4    4    0    0  0.13374082586E+04 -0.32784358877E+03 -0.16679212637E+04  0.21643518405E+04  0.79468727904E+02 0.  0.
         13    1    3    3    0    0 -0.12371743501E+04  0.38884931659E+03 -0.15519965405E+04  0.20224978184E+04  0.00000000000E+00 0. -1.
        -13    1    3    3    0    0 -0.12222993205E+03  0.11044717782E+02 -0.16850024533E+03  0.20845736916E+03  0.00000000000E+00 0.  1.
          4    1    6    6  502    0  0.11078650632E+04 -0.27479445785E+03 -0.13339968234E+04  0.17556834900E+04  0.00000000000E+00 0. -1.
          3    1    5    5  503    0  0.19040747051E+02 -0.54889943852E+02  0.10339438341E+03  0.11859955525E+03  0.00000000000E+00 0. -1.
         -4    1    5    5    0  503  0.29552765558E+01 -0.17160501750E+02 -0.13949925742E+02  0.22311810953E+02  0.00000000000E+00 0.  1.
         -3    1    6    6    0  502  0.22954319537E+03 -0.53049130921E+02 -0.33392444033E+03  0.40866835048E+03  0.00000000000E+00 0.  1.
<mgrwt>
<rscale>  0 0.31135270E+04</rscale>
<asrwt>0</asrwt>
<pdfrwt beam="1">  1        1 0.60270709E+00 0.31135270E+04</pdfrwt>
<pdfrwt beam="2">  1       -1 0.95172675E-01 0.31135270E+04</pdfrwt>
<totfact> 0.10162347E-01</totfact>
</mgrwt>
</event>
<event>
12    1  0.1599266E-007  0.1873751E+04  0.7818608E-02  0.8668034E-01
         -2   -1    0    0    0  501 -0.00000000000E+00  0.00000000000E+00  0.38351230969E+03  0.38351230969E+03  0.00000000000E+00 0.  1.
          2   -1    0    0  501    0  0.00000000000E+00 -0.00000000000E+00 -0.22886768009E+04  0.22886768009E+04  0.00000000000E+00 0. -1.
         23    2    1    2    0    0  0.32835706292E+03 -0.35650136734E+03 -0.14946729933E+04  0.15739002958E+04  0.90571510625E+02 0.  0.
        254    2    1    2    0    0 -0.32835706292E+03  0.35650136734E+03 -0.41049149795E+03  0.10982888148E+04  0.89600416584E+03 0.  0.
        -24    2    4    4    0    0 -0.48176119619E+03  0.27804576186E+03  0.84529689069E+02  0.56838847904E+03  0.80727312164E+02 0.  0.
         24    2    4    4    0    0  0.15340413328E+03  0.78455605483E+02 -0.49502118702E+03  0.52990033578E+03  0.77847801033E+02 0.  0.
         13    1    3    3    0    0  0.77223635507E+02 -0.12654764922E+03 -0.55406032824E+03  0.57355090858E+03  0.00000000000E+00 0. -1.
        -13    1    3    3    0    0  0.25113342741E+03 -0.22995371812E+03 -0.94061266507E+03  0.10003493872E+04  0.00000000000E+00 0.  1.
          4    1    6    6  502    0  0.77517410561E+02  0.86158112682E+00 -0.16106293619E+03  0.17874831657E+03  0.00000000000E+00 0. -1.
          3    1    5    5  503    0 -0.22749966605E+03  0.17518265420E+03  0.29518752034E+02  0.28864583334E+03  0.00000000000E+00 0. -1.
         -4    1    5    5    0  503 -0.25426153015E+03  0.10286310765E+03  0.55010937036E+02  0.27974264570E+03  0.00000000000E+00 0.  1.
         -3    1    6    6    0  502  0.75886722716E+02  0.77594024356E+02 -0.33395825083E+03  0.35115201921E+03  0.00000000000E+00 0.  1.
<mgrwt>
<rscale>  0 0.18737510E+04</rscale>
<asrwt>0</asrwt>
<pdfrwt beam="1">  1        2 0.35210411E+00 0.18737510E+04</pdfrwt>
<pdfrwt beam="2">  1       -2 0.59001895E-01 0.18737510E+04</pdfrwt>
<totfact> 0.11591801E+01</totfact>
</mgrwt>
</event>
<event>
12    1  0.1599266E-007  0.1308537E+04  0.7818608E-02  0.9022822E-01
         -1   -1    0    0    0  501 -0.00000000000E+00  0.00000000000E+00  0.29121268610E+03  0.29121268610E+03  0.00000000000E+00 0.  1.
          1   -1    0    0  501    0  0.00000000000E+00 -0.00000000000E+00 -0.14699472749E+04  0.14699472749E+04  0.00000000000E+00 0. -1.
         23    2    1    2    0    0 -0.26207227413E+03 -0.39616452400E+02 -0.17850872254E+02  0.28135729631E+03  0.92692687853E+02 0.  0.
        254    2    1    2    0    0  0.26207227413E+03  0.39616452400E+02 -0.11608837166E+04  0.14798026647E+04  0.87858612721E+03 0.  0.
        -24    2    4    4    0    0  0.15954597143E+03  0.34354492428E+03 -0.14823615203E+03  0.41480091120E+03  0.81288419616E+02 0.  0.
         24    2    4    4    0    0  0.10252630269E+03 -0.30392847188E+03 -0.10126475646E+04  0.10650017535E+04  0.76742988327E+02 0.  0.
         13    1    3    3    0    0 -0.51501386503E+02 -0.46978901586E+02  0.18890938365E+01  0.69735060633E+02  0.00000000000E+00 0. -1.
        -13    1    3    3    0    0 -0.21057088762E+03  0.73624491860E+01 -0.19739966091E+02  0.21162223568E+03  0.00000000000E+00 0.  1.
          4    1    6    6  502    0  0.80604118598E+02 -0.17569074321E+03 -0.49890737535E+03  0.53504469941E+03  0.00000000000E+00 0. -1.
          1    1    5    5  503    0  0.30037583750E+02  0.94971651454E+02 -0.42654288978E+01  0.99699874128E+02  0.00000000000E+00 0. -1.
         -2    1    5    5    0  503  0.12950838768E+03  0.24857327283E+03 -0.14397072314E+03  0.31510103707E+03  0.00000000000E+00 0.  1.
         -3    1    6    6    0  502  0.21922184097E+02 -0.12823772867E+03 -0.51374018921E+03  0.52995705413E+03  0.00000000000E+00 0.  1.
<mgrwt>
<rscale>  0 0.13085370E+04</rscale>
<asrwt>0</asrwt>
<pdfrwt beam="1">  1        1 0.22614574E+00 0.13085370E+04</pdfrwt>
<pdfrwt beam="2">  1       -1 0.44801952E-01 0.13085370E+04</pdfrwt>
<totfact> 0.33275567E+01</totfact>
</mgrwt>
</event>
<event>
12    1  0.1599266E-007  0.2587725E+04  0.7818608E-02  0.8372383E-01
          1   -1    0    0  501    0  0.00000000000E+00  0.00000000000E+00  0.23642749427E+04  0.23642749427E+04  0.00000000000E+00 0. -1.
         -1   -1    0    0    0  501 -0.00000000000E+00 -0.00000000000E+00 -0.70807326569E+03  0.70807326569E+03  0.00000000000E+00 0.  1.
         23    2    1    2    0    0 -0.10483206200E+04 -0.18142786628E+03  0.12030797369E+04  0.16085098112E+04  0.89502885496E+02 0.  0.
        254    2    1    2    0    0  0.10483206200E+04  0.18142786628E+03  0.45312194017E+03  0.14638383972E+04  0.89755844797E+03 0.  0.
        -24    2    4    4    0    0  0.25859364710E+03 -0.31162203502E+03 -0.26072407668E+02  0.41365591812E+03  0.80327337326E+02 0.  0.
         24    2    4    4    0    0  0.78972697289E+03  0.49304990130E+03  0.47919434784E+03  0.10501824791E+04  0.80555071258E+02 0.  0.
         13    1    3    3    0    0 -0.25746819610E+03 -0.59105984431E+02  0.24626465791E+03  0.36115048267E+03  0.00000000000E+00 0.  1.
        -13    1    3    3    0    0 -0.79085242390E+03 -0.12232188185E+03  0.95681507895E+03  0.12473593285E+04  0.00000000000E+00 0. -1.
          2    1    6    6  502    0  0.48950937649E+03  0.33682215827E+03  0.33682161184E+03  0.68302078605E+03  0.00000000000E+00 0. -1.
          3    1    5    5  503    0  0.21522289073E+03 -0.20365877802E+03 -0.13257984927E+02  0.29660337948E+03  0.00000000000E+00 0. -1.
         -4    1    5    5    0  503  0.43370756375E+02 -0.10796325700E+03 -0.12814422740E+02  0.11705253863E+03  0.00000000000E+00 0.  1.
         -1    1    6    6    0  502  0.30021759640E+03  0.15622774303E+03  0.14237273599E+03  0.36716169304E+03  0.00000000000E+00 0.  1.
<mgrwt>
<rscale>  0 0.25877248E+04</rscale>
<asrwt>0</asrwt>
<pdfrwt beam="1">  1        1 0.36373460E+00 0.25877248E+04</pdfrwt>
<pdfrwt beam="2">  1       -1 0.10893435E+00 0.25877248E+04</pdfrwt>
<totfact> 0.11572479E+00</totfact>
</mgrwt>
</event>
<event>
12    1  0.1599266E-007  0.1417068E+04  0.7818608E-02  0.8941555E-01
          1   -1    0    0  501    0  0.00000000000E+00  0.00000000000E+00  0.76132617378E+03  0.76132617378E+03  0.00000000000E+00 0. -1.
         -1   -1    0    0    0  501 -0.00000000000E+00 -0.00000000000E+00 -0.65940300615E+03  0.65940300615E+03  0.00000000000E+00 0.  1.
         23    2    1    2    0    0  0.88053648389E+02  0.23499603849E+03  0.41761529088E+03  0.49634829933E+03  0.94776157206E+02 0.  0.
        254    2    1    2    0    0 -0.88053648389E+02 -0.23499603849E+03 -0.31569212325E+03  0.92438088060E+03  0.83177034850E+03 0.  0.
        -24    2    4    4    0    0 -0.15689032532E+03 -0.26781630535E+03  0.21243090725E+03  0.38469863086E+03  0.80783653282E+02 0.  0.
         24    2    4    4    0    0  0.68836676936E+02  0.32820266856E+02 -0.52812303050E+03  0.53968224975E+03  0.80791938592E+02 0.  0.
         13    1    3    3    0    0  0.88684752648E+02  0.12877285429E+03  0.29686741199E+03  0.33552599549E+03  0.00000000000E+00 0. -1.
        -13    1    3    3    0    0 -0.63110425887E+00  0.10622318420E+03  0.12074787889E+03  0.16082230384E+03  0.00000000000E+00 0.  1.
          2    1    6    6  502    0  0.30445145373E+02 -0.23296506972E+02 -0.12121403677E+03  0.12713173020E+03  0.00000000000E+00 0. -1.
          1    1    5    5  503    0 -0.40340694242E+02 -0.19510104357E+02  0.17119270582E+02  0.47969627987E+02  0.00000000000E+00 0. -1.
         -2    1    5    5    0  503 -0.11654963108E+03 -0.24830620099E+03  0.19531163667E+03  0.33672900287E+03  0.00000000000E+00 0.  1.
         -1    1    6    6    0  502  0.38391531563E+02  0.56116773828E+02 -0.40690899373E+03  0.41255051954E+03  0.00000000000E+00 0.  1.
<mgrwt>
<rscale>  0 0.14170685E+04</rscale>
<asrwt>0</asrwt>
<pdfrwt beam="1">  1        1 0.11712710E+00 0.14170685E+04</pdfrwt>
<pdfrwt beam="2">  1       -1 0.10144662E+00 0.14170685E+04</pdfrwt>
<totfact> 0.21490932E+01</totfact>
</mgrwt>
</event>
<event>
12    1  0.1599266E-007  0.2276451E+04  0.7818608E-02  0.8487264E-01
          2   -1    0    0  501    0  0.00000000000E+00  0.00000000000E+00  0.47771573894E+03  0.47771573894E+03  0.00000000000E+00 0.  1.
         -2   -1    0    0    0  501 -0.00000000000E+00 -0.00000000000E+00 -0.27119839153E+04  0.27119839153E+04  0.00000000000E+00 0. -1.
         23    2    1    2    0    0  0.23909490909E+03 -0.32247812378E+03  0.27497487916E+03  0.49497858664E+03  0.90741948364E+02 0.  0.
        254    2    1    2    0    0 -0.23909490909E+03  0.32247812378E+03 -0.25092430555E+04  0.26947210676E+04  0.89669526854E+03 0.  0.
        -24    2    4    4    0    0 -0.50070049156E+03  0.25424581777E+03 -0.91901904410E+03  0.10799475529E+04  0.79679328571E+02 0.  0.
         24    2    4    4    0    0  0.26160558247E+03  0.68232306014E+02 -0.15902240114E+04  0.16147735148E+04  0.74752719376E+02 0.  0.
         11    1    3    3    0    0  0.42324080111E+02 -0.11956220656E+03  0.10873381761E+03  0.16706134229E+03  0.00000000000E+00 0. -1.
        -11    1    3    3    0    0  0.19677082898E+03 -0.20291591722E+03  0.16624106155E+03  0.32791724435E+03  0.00000000000E+00 0.  1.
          4    1    6    6  502    0  0.24793633620E+03  0.42945041131E+02 -0.14117972143E+04  0.14340460514E+04  0.00000000000E+00 0. -1.
          3    1    5    5  503    0 -0.35944803323E+03  0.14474090757E+03 -0.65747871315E+03  0.76317172194E+03  0.00000000000E+00 0. -1.
         -2    1    5    5    0  503 -0.14125245833E+03  0.10950491020E+03 -0.26154033095E+03  0.31677583092E+03  0.00000000000E+00 0.  1.
         -3    1    6    6    0  502  0.13669246277E+02  0.25287264883E+02 -0.17842679719E+03  0.18072746337E+03  0.00000000000E+00 0.  1.
<mgrwt>
<rscale>  0 0.22764511E+04</rscale>
<asrwt>0</asrwt>
<pdfrwt beam="1">  1        2 0.73494729E-01 0.22764511E+04</pdfrwt>
<pdfrwt beam="2">  1       -2 0.41722829E+00 0.22764511E+04</pdfrwt>
<totfact> 0.33760159E-01</totfact>
</mgrwt>
</event>
<event>
12    1  0.1599266E-007  0.1531973E+04  0.7818608E-02  0.8863465E-01
         -1   -1    0    0    0  501 -0.00000000000E+00  0.00000000000E+00  0.79338455688E+03  0.79338455688E+03  0.00000000000E+00 0.  1.
          1   -1    0    0  501    0  0.00000000000E+00 -0.00000000000E+00 -0.73953496298E+03  0.73953496298E+03  0.00000000000E+00 0. -1.
         23    2    1    2    0    0  0.29767899029E+03  0.36808665405E+03  0.16592005436E+03  0.50731871722E+03  0.75777636872E+02 0.  0.
        254    2    1    2    0    0 -0.29767899029E+03 -0.36808665405E+03 -0.11207046046E+03  0.10256008026E+04  0.90288241323E+03 0.  0.
        -24    2    4    4    0    0  0.16984210206E+03  0.35400676456E+02  0.24270744570E+03  0.30867780696E+03  0.79218285663E+02 0.  0.
         24    2    4    4    0    0 -0.46752109235E+03 -0.40348733051E+03 -0.35477790616E+03  0.71692299569E+03  0.82056208611E+02 0.  0.
         13    1    3    3    0    0  0.34601867978E+02  0.66266116957E+02  0.51942402692E+02  0.91030218727E+02  0.00000000000E+00 0. -1.
        -13    1    3    3    0    0  0.26307712231E+03  0.30182053709E+03  0.11397765167E+03  0.41628849849E+03  0.00000000000E+00 0.  1.
          4    1    6    6  502    0 -0.12008401376E+03 -0.13546193498E+03 -0.13716263694E+03  0.22712044197E+03  0.00000000000E+00 0. -1.
          3    1    5    5  503    0  0.49311710167E+02  0.48054039669E+02  0.75684129394E+02  0.10231775472E+03  0.00000000000E+00 0. -1.
         -4    1    5    5    0  503  0.12053039189E+03 -0.12653363213E+02  0.16702331631E+03  0.20636005224E+03  0.00000000000E+00 0.  1.
         -3    1    6    6    0  502 -0.34743707859E+03 -0.26802539553E+03 -0.21761526922E+03  0.48980255372E+03  0.00000000000E+00 0.  1.
<mgrwt>
<rscale>  0 0.15319734E+04</rscale>
<asrwt>0</asrwt>
<pdfrwt beam="1">  1        1 0.11377461E+00 0.15319734E+04</pdfrwt>
<pdfrwt beam="2">  1       -1 0.12205916E+00 0.15319734E+04</pdfrwt>
<totfact> 0.14344680E+01</totfact>
</mgrwt>
</event>
<event>
12    1  0.1599266E-007  0.1229099E+04  0.7818608E-02  0.9087761E-01
          2   -1    0    0  501    0  0.00000000000E+00  0.00000000000E+00  0.16112467119E+04  0.16112467119E+04  0.00000000000E+00 0. -1.
         -2   -1    0    0    0  501 -0.00000000000E+00 -0.00000000000E+00 -0.23439669204E+03  0.23439669204E+03  0.00000000000E+00 0.  1.
         23    2    1    2    0    0  0.20672703886E+03 -0.49786790907E+02  0.62117528362E+02  0.23864558782E+03  0.88759991614E+02 0.  0.
        254    2    1    2    0    0 -0.20672703886E+03  0.49786790907E+02  0.13147324915E+04  0.16069978161E+04  0.89928063678E+03 0.  0.
        -24    2    4    4    0    0  0.21675142872E+03  0.11222446165E+03  0.10844994291E+04  0.11143812540E+04  0.78301058868E+02 0.  0.
         24    2    4    4    0    0 -0.42347846758E+03 -0.62437670741E+02  0.23023306233E+03  0.49261656211E+03  0.80195629816E+02 0.  0.
         13    1    3    3    0    0  0.18678041753E+03 -0.13639806040E+02  0.38884050539E+02  0.19127189565E+03  0.00000000000E+00 0.  1.
        -13    1    3    3    0    0  0.19946621329E+02 -0.36146984867E+02  0.23233477823E+02  0.47373692164E+02  0.00000000000E+00 0. -1.
          4    1    6    6  502    0 -0.21296701994E+03 -0.71866856227E+02  0.11675273747E+03  0.25328047361E+03  0.00000000000E+00 0. -1.
          3    1    5    5  503    0  0.12545990777E+03  0.10382608226E+03  0.62831684205E+03  0.64907788271E+03  0.00000000000E+00 0. -1.
         -4    1    5    5    0  503  0.91291520953E+02  0.83983793844E+01  0.45618258707E+03  0.46530337127E+03  0.00000000000E+00 0.  1.
         -3    1    6    6    0  502 -0.21051144764E+03  0.94291854863E+01  0.11348032487E+03  0.23933608850E+03  0.00000000000E+00 0.  1.
<mgrwt>
<rscale>  0 0.12290987E+04</rscale>
<asrwt>0</asrwt>
<pdfrwt beam="1">  1        2 0.24788410E+00 0.12290987E+04</pdfrwt>
<pdfrwt beam="2">  1       -2 0.36061031E-01 0.12290987E+04</pdfrwt>
<totfact> 0.78277463E+01</totfact>
</mgrwt>
</event>
<event>
12    1  0.1599266E-007  0.1383684E+04  0.7818608E-02  0.8965714E-01
         -1   -1    0    0    0  501 -0.00000000000E+00  0.00000000000E+00  0.39284019802E+03  0.39284019802E+03  0.00000000000E+00 0.  1.
          1   -1    0    0  501    0  0.00000000000E+00 -0.00000000000E+00 -0.12184221594E+04  0.12184221594E+04  0.00000000000E+00 0. -1.
         23    2    1    2    0    0 -0.23029131767E+03  0.70072672633E+02 -0.60596221354E+03  0.65786319471E+03  0.87461467324E+02 0.  0.
        254    2    1    2    0    0  0.23029131767E+03 -0.70072672633E+02 -0.21961974783E+03  0.95339916270E+03  0.89598708660E+03 0.  0.
        -24    2    4    4    0    0  0.38127781420E+03 -0.40020312801E+00 -0.49032348187E+03  0.62532611840E+03  0.72406530896E+02 0.  0.
         24    2    4    4    0    0 -0.15098649653E+03 -0.69672469505E+02  0.27070373404E+03  0.32807304430E+03  0.81854967049E+02 0.  0.
         11    1    3    3    0    0 -0.20562587582E+03  0.47099372544E+02 -0.57349795714E+03  0.61106485624E+03  0.00000000000E+00 0. -1.
        -11    1    3    3    0    0 -0.24665441858E+02  0.22973300089E+02 -0.32464256409E+02  0.46798338466E+02  0.00000000000E+00 0.  1.
          2    1    6    6  502    0 -0.15761852364E+03 -0.55080473258E+02  0.22907930637E+03  0.28346919786E+03  0.00000000000E+00 0. -1.
          3    1    5    5  503    0  0.24211915859E+03  0.10016350726E+02 -0.25529294409E+03  0.35198934862E+03  0.00000000000E+00 0. -1.
         -4    1    5    5    0  503  0.13915865561E+03 -0.10416553854E+02 -0.23503053778E+03  0.27333676978E+03  0.00000000000E+00 0.  1.
         -1    1    6    6    0  502  0.66320271126E+01 -0.14591996247E+02  0.41624427667E+02  0.44603846433E+02  0.00000000000E+00 0.  1.
<mgrwt>
<rscale>  0 0.13836838E+04</rscale>
<asrwt>0</asrwt>
<pdfrwt beam="1">  1        1 0.18744956E+00 0.13836838E+04</pdfrwt>
<pdfrwt beam="2">  1       -1 0.60436954E-01 0.13836838E+04</pdfrwt>
<totfact> 0.28078129E+01</totfact>
</mgrwt>
</event>
<event>
12    1  0.1599266E-007  0.1991598E+04  0.7818608E-02  0.8610559E-01
          1   -1    0    0  501    0  0.00000000000E+00  0.00000000000E+00  0.10383211244E+04  0.10383211244E+04  0.00000000000E+00 0. -1.
         -1   -1    0    0    0  501 -0.00000000000E+00 -0.00000000000E+00 -0.95501830320E+03  0.95501830320E+03  0.00000000000E+00 0.  1.
         23    2    1    2    0    0  0.39026783105E+02  0.65243356521E+03  0.48526062650E+03  0.81886694520E+03  0.88727399957E+02 0.  0.
        254    2    1    2    0    0 -0.39026783105E+02 -0.65243356521E+03 -0.40195780533E+03  0.11744724824E+04  0.88916977445E+03 0.  0.
        -24    2    4    4    0    0  0.35262572866E+03 -0.44020456043E+03 -0.44032823855E+03  0.71998460381E+03  0.79774134491E+02 0.  0.
         24    2    4    4    0    0 -0.39165251176E+03 -0.21222900478E+03  0.38370433223E+02  0.45448787856E+03  0.81572674181E+02 0.  0.
         13    1    3    3    0    0  0.14249162847E+02  0.95500662322E+02  0.11243076896E+03  0.14820287769E+03  0.00000000000E+00 0.  1.
        -13    1    3    3    0    0  0.24777620259E+02  0.55693290288E+03  0.37282985754E+03  0.67066406752E+03  0.00000000000E+00 0. -1.
          2    1    6    6  502    0 -0.54183580345E+02 -0.45689861103E+02  0.32858657165E+02  0.78122436837E+02  0.00000000000E+00 0. -1.
          1    1    5    5  503    0  0.18177947730E+03 -0.21455823613E+03 -0.26892599217E+03  0.38910179173E+03  0.00000000000E+00 0. -1.
         -2    1    5    5    0  503  0.17084625136E+03 -0.22564632430E+03 -0.17140224637E+03  0.33088281209E+03  0.00000000000E+00 0.  1.
         -1    1    6    6    0  502 -0.33746893142E+03 -0.16653914368E+03  0.55117760581E+01  0.37636544172E+03  0.00000000000E+00 0.  1.
<mgrwt>
<rscale>  0 0.19915980E+04</rscale>
<asrwt>0</asrwt>
<pdfrwt beam="1">  1        1 0.15974171E+00 0.19915980E+04</pdfrwt>
<pdfrwt beam="2">  1       -1 0.14692589E+00 0.19915980E+04</pdfrwt>
<totfact> 0.48384077E+00</totfact>
</mgrwt>
</event>
<event>
12    1  0.1599266E-007  0.1440991E+04  0.7818608E-02  0.8924670E-01
         -1   -1    0    0    0  501 -0.00000000000E+00  0.00000000000E+00  0.60118646228E+03  0.60118646228E+03  0.00000000000E+00 0.  1.
          1   -1    0    0  501    0  0.00000000000E+00 -0.00000000000E+00 -0.86348260586E+03  0.86348260586E+03  0.00000000000E+00 0. -1.
         23    2    1    2    0    0 -0.12025835846E+03  0.40015628084E+03 -0.21755162632E+03  0.47958727451E+03  0.89933986244E+02 0.  0.
        254    2    1    2    0    0  0.12025835846E+03 -0.40015628084E+03 -0.44744517262E+02  0.98508179364E+03  0.89095283066E+03 0.  0.
        -24    2    4    4    0    0  0.10259313818E+03 -0.52447308839E+02  0.39446699685E+03  0.41883136536E+03  0.80866734820E+02 0.  0.
         24    2    4    4    0    0  0.17665220272E+02 -0.34770897200E+03 -0.43921151411E+03  0.56625042827E+03  0.80741588884E+02 0.  0.
         13    1    3    3    0    0 -0.32201625630E+02  0.70947289895E+02 -0.81214736042E+02  0.11254463997E+03  0.00000000000E+00 0.  1.
        -13    1    3    3    0    0 -0.88056732826E+02  0.32920899094E+03 -0.13633689028E+03  0.36704263453E+03  0.00000000000E+00 0. -1.
          2    1    6    6  502    0  0.41725748429E+02 -0.10631643342E+03 -0.12558557937E+03  0.16975264311E+03  0.00000000000E+00 0. -1.
          1    1    5    5  503    0  0.50714850061E+01  0.18933174765E+02  0.45982723653E+02  0.49985957442E+02  0.00000000000E+00 0. -1.
         -2    1    5    5    0  503  0.97521653178E+02 -0.71380483604E+02  0.34848427320E+03  0.36884540792E+03  0.00000000000E+00 0.  1.
         -1    1    6    6    0  502 -0.24060528157E+02 -0.24139253858E+03 -0.31362593474E+03  0.39649778516E+03  0.00000000000E+00 0.  1.
<mgrwt>
<rscale>  0 0.14409914E+04</rscale>
<asrwt>0</asrwt>
<pdfrwt beam="1">  1        1 0.13284348E+00 0.14409914E+04</pdfrwt>
<pdfrwt beam="2">  1       -1 0.92490226E-01 0.14409914E+04</pdfrwt>
<totfact> 0.21567853E+01</totfact>
</mgrwt>
</event>
<event>
12    1  0.1599266E-007  0.1460603E+04  0.7818608E-02  0.8911083E-01
          2   -1    0    0  501    0  0.00000000000E+00  0.00000000000E+00  0.96781222753E+03  0.96781222753E+03  0.00000000000E+00 0. -1.
         -2   -1    0    0    0  501 -0.00000000000E+00 -0.00000000000E+00 -0.55107792872E+03  0.55107792872E+03  0.00000000000E+00 0.  1.
         23    2    1    2    0    0 -0.17511153566E+03  0.18682005545E+03  0.51551956872E+03  0.58305010666E+03  0.92850514841E+02 0.  0.
        254    2    1    2    0    0  0.17511153566E+03 -0.18682005545E+03 -0.98785269912E+02  0.93584004959E+03  0.89469116785E+03 0.  0.
        -24    2    4    4    0    0 -0.30036481370E+03  0.14567131099E+03 -0.67987426544E+02  0.34993663440E+03  0.79963777894E+02 0.  0.
         24    2    4    4    0    0  0.47547634936E+03 -0.33249136644E+03 -0.30797843369E+02  0.58590341518E+03  0.75538316173E+02 0.  0.
         11    1    3    3    0    0 -0.87644472593E+02  0.14980106938E+03  0.37776715766E+03  0.41572820372E+03  0.00000000000E+00 0. -1.
        -11    1    3    3    0    0 -0.87467063062E+02  0.37018986073E+02  0.13775241106E+03  0.16732190294E+03  0.00000000000E+00 0.  1.
          2    1    6    6  502    0  0.16238496542E+02  0.27859973954E+01 -0.20143884383E+00  0.16476987864E+02  0.00000000000E+00 0. -1.
          1    1    5    5  503    0  0.27835142166E+01  0.60247114262E+01  0.49675744690E+01  0.82898670236E+01  0.00000000000E+00 0. -1.
         -2    1    5    5    0  503 -0.30314832792E+03  0.13964659956E+03 -0.72955001013E+02  0.34164676738E+03  0.00000000000E+00 0.  1.
         -1    1    6    6    0  502  0.45923785281E+03 -0.33527736384E+03 -0.30596404525E+02  0.56942642732E+03  0.00000000000E+00 0.  1.
<mgrwt>
<rscale>  0 0.14606026E+04</rscale>
<asrwt>0</asrwt>
<pdfrwt beam="1">  1        2 0.14889419E+00 0.14606026E+04</pdfrwt>
<pdfrwt beam="2">  1       -2 0.84781220E-01 0.14606026E+04</pdfrwt>
<totfact> 0.31047780E+01</totfact>
</mgrwt>
</event>
<event>
12    1  0.1599266E-007  0.1912644E+04  0.7818608E-02  0.8648588E-01
          2   -1    0    0  501    0  0.00000000000E+00  0.00000000000E+00  0.82570519338E+03  0.82570519338E+03  0.00000000000E+00 0.  1.
         -2   -1    0    0    0  501 -0.00000000000E+00 -0.00000000000E+00 -0.11076006881E+04  0.11076006881E+04  0.00000000000E+00 0. -1.
         23    2    1    2    0    0 -0.18746432900E+03 -0.38640768281E+03  0.50080107623E+03  0.66596845498E+03  0.90876251531E+02 0.  0.
        254    2    1    2    0    0  0.18746432900E+03  0.38640768281E+03 -0.78269657090E+03  0.12673374265E+04  0.89948677501E+03 0.  0.
        -24    2    4    4    0    0 -0.75294384971E+02 -0.92645129215E+02 -0.69313812283E+03  0.70807659106E+03  0.81729046944E+02 0.  0.
         24    2    4    4    0    0  0.26275871397E+03  0.47905281203E+03 -0.89558448073E+02  0.55926083540E+03  0.78855741130E+02 0.  0.
         11    1    3    3    0    0 -0.42949909905E+02 -0.18909173998E+03  0.20567633148E+03  0.28267142449E+03  0.00000000000E+00 0. -1.
        -11    1    3    3    0    0 -0.14451441910E+03 -0.19731594283E+03  0.29512474475E+03  0.38329703049E+03  0.00000000000E+00 0.  1.
          2    1    6    6  502    0  0.20826881239E+03  0.30706520277E+03 -0.72437222664E+02  0.37803715187E+03  0.00000000000E+00 0. -1.
          1    1    5    5  503    0 -0.30621904877E+02 -0.40199571779E+01 -0.62917188704E+02  0.70088756219E+02  0.00000000000E+00 0. -1.
         -2    1    5    5    0  503 -0.44672480095E+02 -0.88625172037E+02 -0.63022093413E+03  0.63798783484E+03  0.00000000000E+00 0.  1.
         -1    1    6    6    0  502  0.54489901585E+02  0.17198760925E+03 -0.17121225409E+02  0.18122368353E+03  0.00000000000E+00 0.  1.
<mgrwt>
<rscale>  0 0.19126439E+04</rscale>
<asrwt>0</asrwt>
<pdfrwt beam="1">  1        2 0.12703157E+00 0.19126439E+04</pdfrwt>
<pdfrwt beam="2">  1       -2 0.17040010E+00 0.19126439E+04</pdfrwt>
<totfact> 0.65375308E+00</totfact>
</mgrwt>
</event>
<event>
12    1  0.1599266E-007  0.2662856E+04  0.7818608E-02  0.8347158E-01
          2   -1    0    0  501    0  0.00000000000E+00  0.00000000000E+00  0.41011468251E+04  0.41011468251E+04  0.00000000000E+00 0.  1.
         -2   -1    0    0    0  501 -0.00000000000E+00 -0.00000000000E+00 -0.43224507492E+03  0.43224507492E+03  0.00000000000E+00 0. -1.
         23    2    1    2    0    0 -0.34414286157E+03  0.89625167309E+03  0.46164678718E+03  0.10691830813E+04  0.91287099604E+02 0.  0.
        254    2    1    2    0    0  0.34414286157E+03 -0.89625167309E+03  0.32072549630E+04  0.34642088187E+04  0.89025668841E+03 0.  0.
        -24    2    4    4    0    0  0.24728857147E+03 -0.37379316253E+03  0.40017612851E+03  0.60614504486E+03  0.79986971769E+02 0.  0.
         24    2    4    4    0    0  0.96854290096E+02 -0.52245851056E+03  0.28070788345E+04  0.28580637738E+04  0.80581037170E+02 0.  0.
         13    1    3    3    0    0 -0.33318269360E+03  0.83488077527E+03  0.45182310293E+03  0.10060719321E+04  0.00000000000E+00 0. -1.
        -13    1    3    3    0    0 -0.10960167968E+02  0.61370897812E+02  0.98236842438E+01  0.63111149192E+02  0.00000000000E+00 0.  1.
          4    1    6    6  502    0  0.54468232782E+02 -0.14579906219E+03  0.69162833746E+03  0.70892447560E+03  0.00000000000E+00 0. -1.
          1    1    5    5  503    0  0.33728668903E+02 -0.20532355147E+02  0.56936186279E+02  0.69288743832E+02  0.00000000000E+00 0. -1.
         -2    1    5    5    0  503  0.21355990257E+03 -0.35326080738E+03  0.34323994223E+03  0.53685630103E+03  0.00000000000E+00 0.  1.
         -3    1    6    6    0  502  0.42386057315E+02 -0.37665944837E+03  0.21154504970E+04  0.21491392983E+04  0.00000000000E+00 0.  1.
<mgrwt>
<rscale>  0 0.26628560E+04</rscale>
<asrwt>0</asrwt>
<pdfrwt beam="1">  1        2 0.63094564E+00 0.26628560E+04</pdfrwt>
<pdfrwt beam="2">  1       -2 0.66499245E-01 0.26628560E+04</pdfrwt>
<totfact> 0.51751425E-01</totfact>
</mgrwt>
</event>
<event>
12    1  0.1599266E-007  0.2039518E+04  0.7818608E-02  0.8588364E-01
          2   -1    0    0  501    0  0.00000000000E+00  0.00000000000E+00  0.29277540539E+04  0.29277540539E+04  0.00000000000E+00 0. -1.
         -2   -1    0    0    0  501 -0.00000000000E+00 -0.00000000000E+00 -0.35518991995E+03  0.35518991995E+03  0.00000000000E+00 0.  1.
         23    2    1    2    0    0  0.58484821092E+03 -0.12203469769E+03  0.19346084315E+04  0.20268371374E+04  0.91755659647E+02 0.  0.
        254    2    1    2    0    0 -0.58484821092E+03  0.12203469769E+03  0.63795570243E+03  0.12561068364E+04  0.90215132268E+03 0.  0.
        -24    2    4    4    0    0 -0.31619138048E+03 -0.38140735147E+03  0.24497535811E+03  0.55828121711E+03  0.78844368522E+02 0.  0.
         24    2    4    4    0    0 -0.26865683044E+03  0.50344204917E+03  0.39298034433E+03  0.69782561933E+03  0.83046098981E+02 0.  0.
         11    1    3    3    0    0  0.54795753840E+03 -0.12217160177E+03  0.18698040554E+04  0.19522680579E+04  0.00000000000E+00 0. -1.
        -11    1    3    3    0    0  0.36890672522E+02  0.13690407970E+00  0.64804376100E+02  0.74569079541E+02  0.00000000000E+00 0.  1.
          2    1    6    6  502    0 -0.10212147110E+03  0.25787524013E+03  0.22288479790E+03  0.35581746369E+03  0.00000000000E+00 0. -1.
          3    1    5    5  503    0 -0.30912056006E+03 -0.37596392232E+03  0.25087991851E+03  0.54758115842E+03  0.00000000000E+00 0. -1.
         -4    1    5    5    0  503 -0.70708204227E+01 -0.54434291523E+01 -0.59045604090E+01  0.10700058692E+02  0.00000000000E+00 0.  1.
         -1    1    6    6    0  502 -0.16653535934E+03  0.24556680903E+03  0.17009554643E+03  0.34200815564E+03  0.00000000000E+00 0.  1.
<mgrwt>
<rscale>  0 0.20395183E+04</rscale>
<asrwt>0</asrwt>
<pdfrwt beam="1">  1        2 0.45042369E+00 0.20395183E+04</pdfrwt>
<pdfrwt beam="2">  1       -2 0.54644605E-01 0.20395183E+04</pdfrwt>
<totfact> 0.56464774E+00</totfact>
</mgrwt>
</event>
<event>
12    1  0.1599266E-007  0.1376828E+04  0.7818608E-02  0.8970764E-01
          2   -1    0    0  501    0  0.00000000000E+00  0.00000000000E+00  0.11237125487E+04  0.11237125487E+04  0.00000000000E+00 0. -1.
         -2   -1    0    0    0  501 -0.00000000000E+00 -0.00000000000E+00 -0.42173949943E+03  0.42173949943E+03  0.00000000000E+00 0.  1.
         23    2    1    2    0    0  0.62202505569E+02 -0.63407372356E+02 -0.21737084397E+03  0.25158586184E+03  0.90309000116E+02 0.  0.
        254    2    1    2    0    0 -0.62202505569E+02  0.63407372356E+02  0.91934389321E+03  0.12938661863E+04  0.90609429279E+03 0.  0.
        -24    2    4    4    0    0  0.27058566890E+03 -0.23083461293E+03  0.70569355329E+03  0.79423349091E+03  0.79386549156E+02 0.  0.
         24    2    4    4    0    0 -0.33278817447E+03  0.29424198528E+03  0.21365033993E+03  0.49963269537E+03  0.81609114418E+02 0.  0.
         13    1    3    3    0    0  0.98899919265E+01 -0.61696778054E+02 -0.63631644085E+02  0.89181222752E+02  0.00000000000E+00 0. -1.
        -13    1    3    3    0    0  0.52312513642E+02 -0.17105943019E+01 -0.15373919988E+03  0.16240463909E+03  0.00000000000E+00 0.  1.
          2    1    6    6  502    0 -0.16069121879E+03  0.12677473577E+03  0.55391331669E+02  0.21204174365E+03  0.00000000000E+00 0. -1.
          3    1    5    5  503    0  0.13734698126E+03 -0.15477192923E+03  0.46264837544E+03  0.50681561009E+03  0.00000000000E+00 0. -1.
         -4    1    5    5    0  503  0.13323868764E+03 -0.76062683698E+02  0.24304517785E+03  0.28741788081E+03  0.00000000000E+00 0.  1.
         -1    1    6    6    0  502 -0.17209695568E+03  0.16746724951E+03  0.15825900826E+03  0.28759095172E+03  0.00000000000E+00 0.  1.
<mgrwt>
<rscale>  0 0.13768282E+04</rscale>
<asrwt>0</asrwt>
<pdfrwt beam="1">  1        2 0.17287885E+00 0.13768282E+04</pdfrwt>
<pdfrwt beam="2">  1       -2 0.64883000E-01 0.13768282E+04</pdfrwt>
<totfact> 0.45016115E+01</totfact>
</mgrwt>
</event>
<event>
12    1  0.1599266E-007  0.2836230E+04  0.7818608E-02  0.8292108E-01
         -1   -1    0    0    0  501 -0.00000000000E+00  0.00000000000E+00  0.12311643938E+04  0.12311643938E+04  0.00000000000E+00 0.  1.
          1   -1    0    0  501    0  0.00000000000E+00 -0.00000000000E+00 -0.16334538037E+04  0.16334538037E+04  0.00000000000E+00 0. -1.
         23    2    1    2    0    0 -0.10662279247E+04  0.65890966811E+03 -0.42746254244E+03  0.13273616292E+04  0.90336767137E+02 0.  0.
        254    2    1    2    0    0  0.10662279247E+04 -0.65890966811E+03  0.25173132572E+02  0.15372565683E+04  0.88967417186E+03 0.  0.
        -24    2    4    4    0    0  0.92471219270E+03 -0.82675306061E+03  0.18162877453E+03  0.12561160764E+04  0.78900716403E+02 0.  0.
         24    2    4    4    0    0  0.14151573199E+03  0.16784339249E+03 -0.15645564196E+03  0.28114049193E+03  0.79771558188E+02 0.  0.
         11    1    3    3    0    0 -0.10502001852E+04  0.64152883232E+03 -0.42995519273E+03  0.13035877951E+04  0.00000000000E+00 0. -1.
        -11    1    3    3    0    0 -0.16027739454E+02  0.17380835794E+02  0.24926502935E+01  0.23773834154E+02  0.00000000000E+00 0.  1.
          2    1    6    6  502    0  0.14881807867E+03  0.14684555382E+03 -0.15195424893E+03  0.25845798688E+03  0.00000000000E+00 0. -1.
          3    1    5    5  503    0  0.11810139351E+03 -0.13007172388E+03  0.46648883938E+02  0.18177654104E+03  0.00000000000E+00 0. -1.
         -4    1    5    5    0  503  0.80661079919E+03 -0.69668133673E+03  0.13497989059E+03  0.10743395353E+04  0.00000000000E+00 0.  1.
         -1    1    6    6    0  502 -0.73023466793E+01  0.20997838671E+02 -0.45013930323E+01  0.22682505045E+02  0.00000000000E+00 0.  1.
<mgrwt>
<rscale>  0 0.28362300E+04</rscale>
<asrwt>0</asrwt>
<pdfrwt beam="1">  1        1 0.25130058E+00 0.28362300E+04</pdfrwt>
<pdfrwt beam="2">  1       -1 0.18940991E+00 0.28362300E+04</pdfrwt>
<totfact> 0.81493113E-01</totfact>
</mgrwt>
</event>
<event>
12    1  0.1599266E-007  0.1715988E+04  0.7818608E-02  0.8752298E-01
         -2   -1    0    0    0  501 -0.00000000000E+00  0.00000000000E+00  0.44841671056E+03  0.44841671056E+03  0.00000000000E+00 0.  1.
          2   -1    0    0  501    0  0.00000000000E+00 -0.00000000000E+00 -0.16416739906E+04  0.16416739906E+04  0.00000000000E+00 0. -1.
         23    2    1    2    0    0  0.23884879515E+03  0.15095907406E+00  0.26002083371E+03  0.36469745512E+03  0.91348946769E+02 0.  0.
        254    2    1    2    0    0 -0.23884879515E+03 -0.15095907406E+00 -0.14532781138E+04  0.17253932461E+04  0.89884136967E+03 0.  0.
        -24    2    4    4    0    0 -0.30325684361E+03 -0.70073473722E+02 -0.60533775687E+02  0.32733230956E+03  0.81284057303E+02 0.  0.
         24    2    4    4    0    0  0.64408048452E+02  0.69922514648E+02 -0.13927443381E+04  0.13980609365E+04  0.76157968135E+02 0.  0.
         11    1    3    3    0    0  0.95157639582E+02 -0.23676750993E+02  0.16120848307E+03  0.18868953316E+03  0.00000000000E+00 0.  1.
        -11    1    3    3    0    0  0.14369115557E+03  0.23827710067E+02  0.98812350636E+02  0.17600792197E+03  0.00000000000E+00 0. -1.
          4    1    6    6  502    0 -0.15252397264E+02  0.12524459456E+02 -0.12816044214E+03  0.12967110949E+03  0.00000000000E+00 0. -1.
          3    1    5    5  503    0 -0.15137589644E+03 -0.21352426231E+02 -0.68738462209E+02  0.16761731508E+03  0.00000000000E+00 0. -1.
         -4    1    5    5    0  503 -0.15188094717E+03 -0.48721047492E+02  0.82046865217E+01  0.15971499448E+03  0.00000000000E+00 0.  1.
         -3    1    6    6    0  502  0.79660445717E+02  0.57398055192E+02 -0.12645838959E+04  0.12683898270E+04  0.00000000000E+00 0.  1.
<mgrwt>
<rscale>  0 0.17159884E+04</rscale>
<asrwt>0</asrwt>
<pdfrwt beam="1">  1        2 0.25256523E+00 0.17159884E+04</pdfrwt>
<pdfrwt beam="2">  1       -2 0.68987186E-01 0.17159884E+04</pdfrwt>
<totfact> 0.19274008E+01</totfact>
</mgrwt>
</event>
<event>
12    1  0.1599266E-007  0.3817570E+04  0.7818608E-02  0.8042395E-01
         -1   -1    0    0    0  501 -0.00000000000E+00  0.00000000000E+00  0.13761849334E+04  0.13761849334E+04  0.00000000000E+00 0.  1.
          1   -1    0    0  501    0  0.00000000000E+00 -0.00000000000E+00 -0.26475072092E+04  0.26475072092E+04  0.00000000000E+00 0. -1.
         23    2    1    2    0    0  0.85511817691E+03  0.11379671203E+04  0.56254512551E+03  0.15333569671E+04  0.92359660749E+02 0.  0.
        254    2    1    2    0    0 -0.85511817691E+03 -0.11379671203E+04 -0.18338674014E+04  0.24903351755E+04  0.90138969204E+03 0.  0.
        -24    2    4    4    0    0 -0.42811676739E+03 -0.10392380229E+03 -0.16135897849E+03  0.47646741295E+03  0.83068360196E+02 0.  0.
         24    2    4    4    0    0 -0.42700140952E+03 -0.10340433180E+04 -0.16725084229E+04  0.20138677625E+04  0.82481227883E+02 0.  0.
         11    1    3    3    0    0  0.46045925336E+03  0.67124637495E+03  0.35265930696E+03  0.88710935440E+03  0.00000000000E+00 0.  1.
        -11    1    3    3    0    0  0.39465892355E+03  0.46672074538E+03  0.20988581855E+03  0.64624761271E+03  0.00000000000E+00 0. -1.
          4    1    6    6  502    0 -0.19940040174E+03 -0.38211946119E+03 -0.66335002156E+03  0.79108094019E+03  0.00000000000E+00 0. -1.
          3    1    5    5  503    0 -0.35022521029E+02  0.68091882883E+01  0.39288518574E+01  0.35893981408E+02  0.00000000000E+00 0. -1.
         -4    1    5    5    0  503 -0.39309424636E+03 -0.11073299057E+03 -0.16528783034E+03  0.44057343154E+03  0.00000000000E+00 0.  1.
         -3    1    6    6    0  502 -0.22760100778E+03 -0.65192385685E+03 -0.10091584013E+04  0.12227868223E+04  0.00000000000E+00 0.  1.
<mgrwt>
<rscale>  0 0.38175697E+04</rscale>
<asrwt>0</asrwt>
<pdfrwt beam="1">  1        1 0.40730880E+00 0.38175697E+04</pdfrwt>
<pdfrwt beam="2">  1       -1 0.21172076E+00 0.38175697E+04</pdfrwt>
<totfact> 0.10623751E-01</totfact>
</mgrwt>
</event>
<event>
12    1  0.1599266E-007  0.2413060E+04  0.7818608E-02  0.8434630E-01
          2   -1    0    0  501    0  0.00000000000E+00  0.00000000000E+00  0.11920420147E+04  0.11920420147E+04  0.00000000000E+00 0.  1.
         -2   -1    0    0    0  501 -0.00000000000E+00 -0.00000000000E+00 -0.12211940015E+04  0.12211940015E+04  0.00000000000E+00 0. -1.
         23    2    1    2    0    0  0.92749639626E+03  0.30812459868E+03  0.32670587439E+03  0.10343512736E+04  0.89193583779E+02 0.  0.
        254    2    1    2    0    0 -0.92749639626E+03 -0.30812459868E+03 -0.35585786121E+03  0.13788847427E+04  0.90526127877E+03 0.  0.
        -24    2    4    4    0    0 -0.38274349318E+03  0.21607621514E+03  0.14351210791E+03  0.46915897762E+03  0.79579575503E+02 0.  0.
         24    2    4    4    0    0 -0.54475290308E+03 -0.52420081382E+03 -0.49936996912E+03  0.90972576507E+03  0.81782534509E+02 0.  0.
         13    1    3    3    0    0  0.88539638429E+03  0.29402422383E+03  0.33059470869E+03  0.98978273522E+03  0.00000000000E+00 0.  1.
        -13    1    3    3    0    0  0.42100011968E+02  0.14100374856E+02 -0.38888343061E+01  0.44568538355E+02  0.00000000000E+00 0. -1.
          2    1    6    6  502    0 -0.10829178538E+03 -0.13788046083E+03 -0.86944529649E+02  0.19569742844E+03  0.00000000000E+00 0. -1.
          3    1    5    5  503    0 -0.31986796713E+02  0.30646059111E+02 -0.69338603320E+01  0.44837646260E+02  0.00000000000E+00 0. -1.
         -4    1    5    5    0  503 -0.35075669647E+03  0.18543015603E+03  0.15044596824E+03  0.42432133136E+03  0.00000000000E+00 0.  1.
         -1    1    6    6    0  502 -0.43646111770E+03 -0.38632035299E+03 -0.41242543947E+03  0.71402833663E+03  0.00000000000E+00 0.  1.
<mgrwt>
<rscale>  0 0.24130599E+04</rscale>
<asrwt>0</asrwt>
<pdfrwt beam="1">  1        2 0.18339108E+00 0.24130599E+04</pdfrwt>
<pdfrwt beam="2">  1       -2 0.18787600E+00 0.24130599E+04</pdfrwt>
<totfact> 0.27555358E+00</totfact>
</mgrwt>
</event>
<event>
12    1  0.1599266E-007  0.1747597E+04  0.7818608E-02  0.8734674E-01
          2   -1    0    0  501    0  0.00000000000E+00  0.00000000000E+00  0.11115034918E+04  0.11115034918E+04  0.00000000000E+00 0. -1.
         -2   -1    0    0    0  501 -0.00000000000E+00 -0.00000000000E+00 -0.68692908204E+03  0.68692908204E+03  0.00000000000E+00 0.  1.
         23    2    1    2    0    0  0.42300470810E+03 -0.43309064520E+03  0.36676518920E+03  0.71296949175E+03  0.85488608145E+02 0.  0.
        254    2    1    2    0    0 -0.42300470810E+03  0.43309064520E+03  0.57809220530E+02  0.10854630821E+04  0.89910383523E+03 0.  0.
        -24    2    4    4    0    0  0.18711716208E+03  0.27466320982E+03  0.24954551924E+03  0.42182638953E+03  0.72192974462E+02 0.  0.
         24    2    4    4    0    0 -0.61012187018E+03  0.15842743537E+03 -0.19173629871E+03  0.66363669254E+03  0.79390822467E+02 0.  0.
         13    1    3    3    0    0  0.74225180897E+02 -0.87853714020E+02  0.33621983971E+02  0.11982524923E+03  0.00000000000E+00 0.  1.
        -13    1    3    3    0    0  0.34877952721E+03 -0.34523693118E+03  0.33314320523E+03  0.59314424252E+03  0.00000000000E+00 0. -1.
          2    1    6    6  502    0 -0.13708742013E+03  0.15571835420E+02 -0.70075867406E+02  0.15474517766E+03  0.00000000000E+00 0. -1.
          3    1    5    5  503    0  0.13759839269E+03  0.24266643936E+03  0.22313320677E+03  0.35722366443E+03  0.00000000000E+00 0. -1.
         -4    1    5    5    0  503  0.49518769382E+02  0.31996770459E+02  0.26412312468E+02  0.64602725104E+02  0.00000000000E+00 0.  1.
         -1    1    6    6    0  502 -0.47303445005E+03  0.14285559995E+03 -0.12166043130E+03  0.50889151488E+03  0.00000000000E+00 0.  1.
<mgrwt>
<rscale>  0 0.17475973E+04</rscale>
<asrwt>0</asrwt>
<pdfrwt beam="1">  1        2 0.17100054E+00 0.17475973E+04</pdfrwt>
<pdfrwt beam="2">  1       -2 0.10568140E+00 0.17475973E+04</pdfrwt>
<totfact> 0.14707937E+01</totfact>
</mgrwt>
</event>
<event>
12    1  0.1599266E-007  0.1236008E+04  0.7818608E-02  0.9081910E-01
         -2   -1    0    0    0  501 -0.00000000000E+00  0.00000000000E+00  0.12763915417E+04  0.12763915417E+04  0.00000000000E+00 0.  1.
          2   -1    0    0  501    0  0.00000000000E+00 -0.00000000000E+00 -0.29922551743E+03  0.29922551743E+03  0.00000000000E+00 0. -1.
         23    2    1    2    0    0 -0.20664575461E+03  0.16381963441E+03  0.10652153520E+03  0.29878235012E+03  0.91568088141E+02 0.  0.
        254    2    1    2    0    0  0.20664575461E+03 -0.16381963441E+03  0.87064448910E+03  0.12768347090E+04  0.89596077331E+03 0.  0.
        -24    2    4    4    0    0  0.29135841704E+03  0.29451612536E+03  0.22829579774E+03  0.47948536466E+03  0.78471449484E+02 0.  0.
         24    2    4    4    0    0 -0.84712662430E+02 -0.45833575977E+03  0.64234869136E+03  0.79734934438E+03  0.76852012615E+02 0.  0.
         13    1    3    3    0    0  0.83604807609E+00  0.82497363027E+01 -0.11241373658E+02  0.13968736778E+02  0.00000000000E+00 0.  1.
        -13    1    3    3    0    0 -0.20748180268E+03  0.15556989811E+03  0.11776290886E+03  0.28481361334E+03  0.00000000000E+00 0. -1.
          2    1    6    6  502    0 -0.77719230992E+02 -0.34601871040E+03  0.53470149112E+03  0.64161897683E+03  0.00000000000E+00 0. -1.
          1    1    5    5  503    0  0.21455376550E+03  0.18034612711E+03  0.18251515143E+03  0.33446946700E+03  0.00000000000E+00 0. -1.
         -2    1    5    5    0  503  0.76804651539E+02  0.11416999825E+03  0.45780646310E+02  0.14501589766E+03  0.00000000000E+00 0.  1.
         -1    1    6    6    0  502 -0.69934314382E+01 -0.11231704936E+03  0.10764720023E+03  0.15573036755E+03  0.00000000000E+00 0.  1.
<mgrwt>
<rscale>  0 0.12360080E+04</rscale>
<asrwt>0</asrwt>
<pdfrwt beam="1">  1        2 0.46034696E-01 0.12360080E+04</pdfrwt>
<pdfrwt beam="2">  1       -2 0.19636793E+00 0.12360080E+04</pdfrwt>
<totfact> 0.15222131E+01</totfact>
</mgrwt>
</event>
<event>
12    1  0.1599266E-007  0.1661429E+04  0.7818608E-02  0.8783674E-01
          2   -1    0    0  501    0  0.00000000000E+00  0.00000000000E+00  0.12899103197E+04  0.12899103197E+04  0.00000000000E+00 0. -1.
         -2   -1    0    0    0  501 -0.00000000000E+00 -0.00000000000E+00 -0.53498799458E+03  0.53498799458E+03  0.00000000000E+00 0.  1.
         23    2    1    2    0    0 -0.56712609610E+03 -0.13014363485E+03  0.31353936919E+03  0.66733460806E+03  0.91973738165E+02 0.  0.
        254    2    1    2    0    0  0.56712609610E+03  0.13014363485E+03  0.44138295591E+03  0.11575637062E+04  0.89808988725E+03 0.  0.
        -24    2    4    4    0    0 -0.86060413422E+02 -0.25397134541E+03  0.82425389619E+01  0.28105443980E+03  0.83760489694E+02 0.  0.
         24    2    4    4    0    0  0.65318650952E+03  0.38411498026E+03  0.43314041695E+03  0.87650926641E+03  0.80379966531E+02 0.  0.
         11    1    3    3    0    0 -0.11381809037E+03 -0.46278853496E+02  0.31277205994E+02  0.12678546285E+03  0.00000000000E+00 0. -1.
        -11    1    3    3    0    0 -0.45330800573E+03 -0.83864781358E+02  0.28226216319E+03  0.54054914521E+03  0.00000000000E+00 0.  1.
          2    1    6    6  502    0  0.84751590073E+01 -0.10285575331E+01  0.14197177405E+02  0.16566414732E+02  0.00000000000E+00 0. -1.
          1    1    5    5  503    0 -0.22100064025E+02 -0.46496076991E+01 -0.56660081910E+01  0.23283799743E+02  0.00000000000E+00 0. -1.
         -2    1    5    5    0  503 -0.63960349397E+02 -0.24932173771E+03  0.13908547153E+02  0.25777064005E+03  0.00000000000E+00 0.  1.
         -1    1    6    6    0  502  0.64471135052E+03  0.38514353779E+03  0.41894323955E+03  0.85994285168E+03  0.00000000000E+00 0.  1.
<mgrwt>
<rscale>  0 0.16614289E+04</rscale>
<asrwt>0</asrwt>
<pdfrwt beam="1">  1        2 0.19844774E+00 0.16614289E+04</pdfrwt>
<pdfrwt beam="2">  1       -2 0.82305846E-01 0.16614289E+04</pdfrwt>
<totfact> 0.20735675E+01</totfact>
</mgrwt>
</event>
<event>
12    1  0.1599266E-007  0.1194042E+04  0.7818608E-02  0.9118087E-01
         -2   -1    0    0    0  501 -0.00000000000E+00  0.00000000000E+00  0.12645736180E+03  0.12645736180E+03  0.00000000000E+00 0.  1.
          2   -1    0    0  501    0  0.00000000000E+00 -0.00000000000E+00 -0.28186120079E+04  0.28186120079E+04  0.00000000000E+00 0. -1.
         23    2    1    2    0    0 -0.12748783085E+03 -0.14880597958E+03 -0.10086671772E+04  0.10313664447E+04  0.88943252628E+02 0.  0.
        254    2    1    2    0    0  0.12748783085E+03  0.14880597958E+03 -0.16834874688E+04  0.19137029250E+04  0.88866892644E+03 0.  0.
        -24    2    4    4    0    0 -0.31203483991E+03 -0.14794225976E+03 -0.48760387504E+03  0.60312293918E+03  0.82140655445E+02 0.  0.
         24    2    4    4    0    0  0.43952267076E+03  0.29674823933E+03 -0.11958835938E+04  0.13105799858E+04  0.79010338819E+02 0.  0.
         11    1    3    3    0    0 -0.13612559233E+03 -0.14682960581E+03 -0.88429308887E+03  0.90667710738E+03  0.00000000000E+00 0. -1.
        -11    1    3    3    0    0  0.86377614757E+01 -0.19763737655E+01 -0.12437408837E+03  0.12468933729E+03  0.00000000000E+00 0.  1.
          2    1    6    6  502    0  0.26693982170E+02  0.40055980209E+02 -0.14312909562E+03  0.15100658345E+03  0.00000000000E+00 0. -1.
          3    1    5    5  503    0 -0.21743468325E+03 -0.14194593143E+03 -0.34259571329E+03  0.42988174152E+03  0.00000000000E+00 0. -1.
         -4    1    5    5    0  503 -0.94600156652E+02 -0.59963283277E+01 -0.14500816175E+03  0.17324119766E+03  0.00000000000E+00 0.  1.
         -1    1    6    6    0  502  0.41282868859E+03  0.25669225912E+03 -0.10527544982E+04  0.11595734024E+04  0.00000000000E+00 0.  1.
<mgrwt>
<rscale>  0 0.11940423E+04</rscale>
<asrwt>0</asrwt>
<pdfrwt beam="1">  1        2 0.43363259E+00 0.11940423E+04</pdfrwt>
<pdfrwt beam="2">  1       -2 0.19454980E-01 0.11940423E+04</pdfrwt>
<totfact> 0.50475963E+01</totfact>
</mgrwt>
</event>
<event>
12    1  0.1599266E-007  0.1747691E+04  0.7818608E-02  0.8734622E-01
          1   -1    0    0  501    0  0.00000000000E+00  0.00000000000E+00  0.22165342270E+04  0.22165342270E+04  0.00000000000E+00 0. -1.
         -1   -1    0    0    0  501 -0.00000000000E+00 -0.00000000000E+00 -0.34450448684E+03  0.34450448684E+03  0.00000000000E+00 0.  1.
         23    2    1    2    0    0 -0.41941909869E+03  0.17600627499E+03  0.13305692846E+04  0.14090616534E+04  0.90274763225E+02 0.  0.
        254    2    1    2    0    0  0.41941909869E+03 -0.17600627499E+03  0.54146045557E+03  0.11519770604E+04  0.90938503046E+03 0.  0.
        -24    2    4    4    0    0  0.55271225388E+03 -0.29662613928E+03  0.66693295486E+03  0.91908397172E+03  0.80236392601E+02 0.  0.
         24    2    4    4    0    0 -0.13329315519E+03  0.12061986429E+03 -0.12547249929E+03  0.23289308870E+03  0.78610596004E+02 0.  0.
         11    1    3    3    0    0 -0.26921910729E+03  0.10364992653E+03  0.70703438930E+03  0.76362285367E+03  0.00000000000E+00 0.  1.
        -11    1    3    3    0    0 -0.15019999140E+03  0.72356348460E+02  0.62353489531E+03  0.64543879977E+03  0.00000000000E+00 0. -1.
          4    1    6    6  502    0 -0.69669056785E+02  0.20528353340E+02 -0.73731630029E+02  0.10349658947E+03  0.00000000000E+00 0. -1.
          1    1    5    5  503    0  0.58038660597E+01  0.10081810391E+01 -0.96239761983E+00  0.59688775683E+01  0.00000000000E+00 0. -1.
         -2    1    5    5    0  503  0.54690838782E+03 -0.29763432032E+03  0.66789535248E+03  0.91311509415E+03  0.00000000000E+00 0.  1.
         -3    1    6    6    0  502 -0.63624098408E+02  0.10009151095E+03 -0.51740869262E+02  0.12939649924E+03  0.00000000000E+00 0.  1.
<mgrwt>
<rscale>  0 0.17476910E+04</rscale>
<asrwt>0</asrwt>
<pdfrwt beam="1">  1        1 0.34100526E+00 0.17476910E+04</pdfrwt>
<pdfrwt beam="2">  1       -1 0.53000692E-01 0.17476910E+04</pdfrwt>
<totfact> 0.72254319E+00</totfact>
</mgrwt>
</event>
<event>
12    1  0.1599266E-007  0.2120590E+04  0.7818608E-02  0.8552227E-01
          1   -1    0    0  501    0  0.00000000000E+00  0.00000000000E+00  0.11636581750E+04  0.11636581750E+04  0.00000000000E+00 0. -1.
         -1   -1    0    0    0  501 -0.00000000000E+00 -0.00000000000E+00 -0.96611297524E+03  0.96611297524E+03  0.00000000000E+00 0.  1.
         23    2    1    2    0    0  0.34454358572E+03 -0.51050360532E+03 -0.53129180901E+03  0.81844979223E+03  0.90911289663E+02 0.  0.
        254    2    1    2    0    0 -0.34454358572E+03  0.51050360532E+03  0.72883700877E+03  0.13113213580E+04  0.89946434343E+03 0.  0.
        -24    2    4    4    0    0 -0.15208219049E+03  0.73820775385E+03  0.38625321039E+03  0.85075460827E+03  0.80698082080E+02 0.  0.
         24    2    4    4    0    0 -0.19246139522E+03 -0.22770414853E+03  0.34258379838E+03  0.46056674974E+03  0.76599635387E+02 0.  0.
         11    1    3    3    0    0  0.71355586109E+02 -0.14646190704E+03 -0.98483766425E+02  0.19037269271E+03  0.00000000000E+00 0. -1.
        -11    1    3    3    0    0  0.27318799961E+03 -0.36404169828E+03 -0.43280804258E+03  0.62807709952E+03  0.00000000000E+00 0.  1.
          4    1    6    6  502    0 -0.66462116755E+02 -0.93341647292E+02  0.79719442773E+02  0.13958891660E+03  0.00000000000E+00 0. -1.
          1    1    5    5  503    0 -0.14977711533E+03  0.60094424584E+03  0.33570951078E+03  0.70446294900E+03  0.00000000000E+00 0. -1.
         -2    1    5    5    0  503 -0.23050751619E+01  0.13726350801E+03  0.50543699612E+02  0.14629165927E+03  0.00000000000E+00 0.  1.
         -3    1    6    6    0  502 -0.12599927847E+03 -0.13436250124E+03  0.26286435561E+03  0.32097783313E+03  0.00000000000E+00 0.  1.
<mgrwt>
<rscale>  0 0.21205898E+04</rscale>
<asrwt>0</asrwt>
<pdfrwt beam="1">  1        1 0.17902434E+00 0.21205898E+04</pdfrwt>
<pdfrwt beam="2">  1       -1 0.14863276E+00 0.21205898E+04</pdfrwt>
<totfact> 0.37312939E+00</totfact>
</mgrwt>
</event>
<event>
12    1  0.1599266E-007  0.1087016E+04  0.7818608E-02  0.9217940E-01
         -2   -1    0    0    0  501 -0.00000000000E+00  0.00000000000E+00  0.10692455373E+03  0.10692455373E+03  0.00000000000E+00 0.  1.
          2   -1    0    0  501    0  0.00000000000E+00 -0.00000000000E+00 -0.27627068739E+04  0.27627068739E+04  0.00000000000E+00 0. -1.
         23    2    1    2    0    0  0.44461652103E+02  0.56112414547E+02 -0.79072276476E+03  0.79912533572E+03  0.90737918749E+02 0.  0.
        254    2    1    2    0    0 -0.44461652103E+02 -0.56112414547E+02 -0.18650595554E+04  0.20705060919E+04  0.89633860222E+03 0.  0.
        -24    2    4    4    0    0 -0.44251922732E+03  0.88493214968E+02 -0.11082159153E+04  0.11994523226E+04  0.83000262566E+02 0.  0.
         24    2    4    4    0    0  0.39805757522E+03 -0.14460562952E+03 -0.75684364013E+03  0.87105376934E+03  0.81004643068E+02 0.  0.
         13    1    3    3    0    0  0.54048611786E+02  0.63882625851E+02 -0.77307681961E+03  0.77759244553E+03  0.00000000000E+00 0. -1.
        -13    1    3    3    0    0 -0.95869596826E+01 -0.77702113040E+01 -0.17645945150E+02  0.21532890190E+02  0.00000000000E+00 0.  1.
          2    1    6    6  502    0  0.38062979797E+03 -0.13284081154E+03 -0.67207237427E+03  0.78371359601E+03  0.00000000000E+00 0. -1.
          1    1    5    5  503    0 -0.42442872427E+03  0.68162970794E+02 -0.10132500412E+04  0.11006641534E+04  0.00000000000E+00 0. -1.
         -2    1    5    5    0  503 -0.18090503052E+02  0.20330244174E+02 -0.94965874083E+02  0.98788169177E+02  0.00000000000E+00 0.  1.
         -1    1    6    6    0  502  0.17427777247E+02 -0.11764817978E+02 -0.84771265853E+02  0.87340173324E+02  0.00000000000E+00 0.  1.
<mgrwt>
<rscale>  0 0.10870165E+04</rscale>
<asrwt>0</asrwt>
<pdfrwt beam="1">  1        2 0.42503184E+00 0.10870165E+04</pdfrwt>
<pdfrwt beam="2">  1       -2 0.16449931E-01 0.10870165E+04</pdfrwt>
<totfact> 0.73647916E+01</totfact>
</mgrwt>
</event>
<event>
12    1  0.1599266E-007  0.1697758E+04  0.7818608E-02  0.8762644E-01
          2   -1    0    0  501    0  0.00000000000E+00  0.00000000000E+00  0.57959231171E+03  0.57959231171E+03  0.00000000000E+00 0. -1.
         -2   -1    0    0    0  501 -0.00000000000E+00 -0.00000000000E+00 -0.12432794292E+04  0.12432794292E+04  0.00000000000E+00 0.  1.
         23    2    1    2    0    0  0.48836674494E+03 -0.18545267825E+03  0.93664987903E+02  0.53859334695E+03  0.91732709478E+02 0.  0.
        254    2    1    2    0    0 -0.48836674494E+03  0.18545267825E+03 -0.75735210535E+03  0.12842783939E+04  0.89604353029E+03 0.  0.
        -24    2    4    4    0    0 -0.72958403060E+03  0.24939880084E+03 -0.56971366027E+03  0.96216917790E+03  0.81873393988E+02 0.  0.
         24    2    4    4    0    0  0.24121728566E+03 -0.63946122589E+02 -0.18763844508E+03  0.32210921601E+03  0.79191385105E+02 0.  0.
         11    1    3    3    0    0  0.34454851220E+02 -0.16788212183E+02  0.32993224336E+02  0.50572064354E+02  0.00000000000E+00 0. -1.
        -11    1    3    3    0    0  0.45391189372E+03 -0.16866446607E+03  0.60671763567E+02  0.48802128260E+03  0.00000000000E+00 0.  1.
          2    1    6    6  502    0  0.23081904907E+03 -0.72054302101E+02 -0.15580605981E+03  0.28765393121E+03  0.00000000000E+00 0. -1.
          3    1    5    5  503    0 -0.64897692799E+03  0.21555296185E+03 -0.47121349187E+03  0.83046751131E+03  0.00000000000E+00 0. -1.
         -4    1    5    5    0  503 -0.80607102611E+02  0.33845838988E+02 -0.98500168400E+02  0.13170166659E+03  0.00000000000E+00 0.  1.
         -1    1    6    6    0  502  0.10398236588E+02  0.81081795127E+01 -0.31832385272E+02  0.34455284809E+02  0.00000000000E+00 0.  1.
<mgrwt>
<rscale>  0 0.16977576E+04</rscale>
<asrwt>0</asrwt>
<pdfrwt beam="1">  1        2 0.89168048E-01 0.16977576E+04</pdfrwt>
<pdfrwt beam="2">  1       -2 0.19127376E+00 0.16977576E+04</pdfrwt>
<totfact> 0.74727831E+00</totfact>
</mgrwt>
</event>
<event>
12    1  0.1599266E-007  0.2200203E+04  0.7818608E-02  0.8518344E-01
          1   -1    0    0  501    0  0.00000000000E+00  0.00000000000E+00  0.15883441713E+04  0.15883441713E+04  0.00000000000E+00 0. -1.
         -1   -1    0    0    0  501 -0.00000000000E+00 -0.00000000000E+00 -0.76194023331E+03  0.76194023331E+03  0.00000000000E+00 0.  1.
         23    2    1    2    0    0 -0.79602357646E+03 -0.16974491550E+03  0.78806292013E+03  0.11369754639E+04  0.95933147979E+02 0.  0.
        254    2    1    2    0    0  0.79602357646E+03  0.16974491550E+03  0.38341017841E+02  0.12133089407E+04  0.89898925533E+03 0.  0.
        -24    2    4    4    0    0 -0.58513528863E+02  0.68976608273E+02  0.28789453289E+03  0.31379173848E+03  0.86025505055E+02 0.  0.
         24    2    4    4    0    0  0.85453710532E+03  0.10076830722E+03 -0.24955351505E+03  0.89951720217E+03  0.80413456698E+02 0.  0.
         13    1    3    3    0    0 -0.18532016641E+03 -0.40832495040E+02  0.13021425994E+03  0.23014475927E+03  0.00000000000E+00 0.  1.
        -13    1    3    3    0    0 -0.61070341005E+03 -0.12891242046E+03  0.65784866019E+03  0.90683070466E+03  0.00000000000E+00 0. -1.
          2    1    6    6  502    0  0.13544819079E+03  0.12172137161E+01 -0.13352305690E+02  0.13611016885E+03  0.00000000000E+00 0. -1.
          3    1    5    5  503    0 -0.74215945440E+01  0.23530973912E+01 -0.48987217276E+01  0.91986198679E+01  0.00000000000E+00 0. -1.
         -4    1    5    5    0  503 -0.51091934319E+02  0.66623510882E+02  0.29279325462E+03  0.30459311861E+03  0.00000000000E+00 0.  1.
         -1    1    6    6    0  502  0.71908891453E+03  0.99551093506E+02 -0.23620120936E+03  0.76340703332E+03  0.00000000000E+00 0.  1.
<mgrwt>
<rscale>  0 0.22002030E+04</rscale>
<asrwt>0</asrwt>
<pdfrwt beam="1">  1        1 0.24436064E+00 0.22002030E+04</pdfrwt>
<pdfrwt beam="2">  1       -1 0.11722157E+00 0.22002030E+04</pdfrwt>
<totfact> 0.33965937E+00</totfact>
</mgrwt>
</event>
<event>
12    1  0.1599266E-007  0.2365333E+04  0.7818608E-02  0.8452597E-01
          2   -1    0    0  501    0  0.00000000000E+00  0.00000000000E+00  0.14217067577E+04  0.14217067577E+04  0.00000000000E+00 0. -1.
         -2   -1    0    0    0  501 -0.00000000000E+00 -0.00000000000E+00 -0.98381778249E+03  0.98381778249E+03  0.00000000000E+00 0.  1.
         23    2    1    2    0    0  0.87098677821E+03 -0.18043636926E+03 -0.30046935719E+03  0.94341164524E+03  0.92565904112E+02 0.  0.
        254    2    1    2    0    0 -0.87098677821E+03  0.18043636926E+03  0.73835833238E+03  0.14621128949E+04  0.89522390458E+03 0.  0.
        -24    2    4    4    0    0 -0.20879835244E+03  0.67756926739E+02  0.74996053360E+03  0.78558031221E+03  0.80671381958E+02 0.  0.
         24    2    4    4    0    0 -0.66218842576E+03  0.11267944252E+03 -0.11602201222E+02  0.67653258271E+03  0.79822029645E+02 0.  0.
         13    1    3    3    0    0  0.31052158026E+02  0.19348928925E+01  0.44350914453E+01  0.31426905109E+02  0.00000000000E+00 0. -1.
        -13    1    3    3    0    0  0.83993462018E+03 -0.18237126215E+03 -0.30490444864E+03  0.91198474013E+03  0.00000000000E+00 0.  1.
          2    1    6    6  502    0 -0.62124467724E+03  0.10430470427E+03 -0.30476169190E+02  0.63067679299E+03  0.00000000000E+00 0. -1.
          1    1    5    5  503    0 -0.16471284476E+03  0.86365409042E+02  0.60205751146E+03  0.63012899649E+03  0.00000000000E+00 0. -1.
         -4    1    5    5    0  503 -0.44085507685E+02 -0.18608482303E+02  0.14790302214E+03  0.15545131572E+03  0.00000000000E+00 0.  1.
         -1    1    6    6    0  502 -0.40943748524E+02  0.83747382488E+01  0.18873967968E+02  0.45855789719E+02  0.00000000000E+00 0.  1.
<mgrwt>
<rscale>  0 0.23653333E+04</rscale>
<asrwt>0</asrwt>
<pdfrwt beam="1">  1        2 0.21872412E+00 0.23653333E+04</pdfrwt>
<pdfrwt beam="2">  1       -2 0.15135658E+00 0.23653333E+04</pdfrwt>
<totfact> 0.37103918E+00</totfact>
</mgrwt>
</event>
<event>
12    1  0.1599266E-007  0.2800334E+04  0.7818608E-02  0.8303165E-01
         -2   -1    0    0    0  501 -0.00000000000E+00  0.00000000000E+00  0.53118341083E+03  0.53118341083E+03  0.00000000000E+00 0.  1.
          2   -1    0    0  501    0  0.00000000000E+00 -0.00000000000E+00 -0.36907545820E+04  0.36907545820E+04  0.00000000000E+00 0. -1.
         23    2    1    2    0    0 -0.73011379239E+02  0.31244091213E+03 -0.32521882723E+04  0.32692015337E+04  0.89443413734E+02 0.  0.
        254    2    1    2    0    0  0.73011379239E+02 -0.31244091213E+03  0.92617101116E+02  0.95273645917E+03  0.89228854534E+03 0.  0.
        -24    2    4    4    0    0  0.26538575389E+03  0.19174712294E+03  0.20616512932E+03  0.39543498290E+03  0.81659093995E+02 0.  0.
         24    2    4    4    0    0 -0.19237437465E+03 -0.50418803508E+03 -0.11354802820E+03  0.55730147627E+03  0.80487924585E+02 0.  0.
         13    1    3    3    0    0 -0.93497201054E+02  0.27082727372E+03 -0.28366165855E+04  0.28510494194E+04  0.00000000000E+00 0. -1.
        -13    1    3    3    0    0  0.20485821815E+02  0.41613638413E+02 -0.41557168675E+03  0.41815211422E+03  0.00000000000E+00 0.  1.
          4    1    6    6  502    0 -0.70533611514E+02 -0.11991215451E+03 -0.24346270275E+01  0.13913965129E+03  0.00000000000E+00 0. -1.
          3    1    5    5  503    0  0.30229799039E+00  0.20662608636E+02  0.21709271087E+02  0.29972107547E+02  0.00000000000E+00 0. -1.
         -4    1    5    5    0  503  0.26508345590E+03  0.17108451431E+03  0.18445585823E+03  0.36546287536E+03  0.00000000000E+00 0.  1.
         -3    1    6    6    0  502 -0.12184076314E+03 -0.38427588057E+03 -0.11111340118E+03  0.41816182498E+03  0.00000000000E+00 0.  1.
<mgrwt>
<rscale>  0 0.28003340E+04</rscale>
<asrwt>0</asrwt>
<pdfrwt beam="1">  1        2 0.56780839E+00 0.28003340E+04</pdfrwt>
<pdfrwt beam="2">  1       -2 0.81720526E-01 0.28003340E+04</pdfrwt>
<totfact> 0.67981455E-01</totfact>
</mgrwt>
</event>
<event>
12    1  0.1599266E-007  0.1480149E+04  0.7818608E-02  0.8897762E-01
          2   -1    0    0  501    0  0.00000000000E+00  0.00000000000E+00  0.21515327186E+04  0.21515327186E+04  0.00000000000E+00 0.  1.
         -2   -1    0    0    0  501 -0.00000000000E+00 -0.00000000000E+00 -0.25456734735E+03  0.25456734735E+03  0.00000000000E+00 0. -1.
         23    2    1    2    0    0  0.78448135209E+02  0.61375667703E+02 -0.12423943041E+03  0.18640245936E+03  0.96898701140E+02 0.  0.
        254    2    1    2    0    0 -0.78448135209E+02 -0.61375667703E+02  0.20212048016E+04  0.22196976066E+04  0.91206772334E+03 0.  0.
        -24    2    4    4    0    0  0.89060103653E+02 -0.21502066682E+03  0.72463535047E+02  0.25608071894E+03  0.78490645824E+02 0.  0.
         24    2    4    4    0    0 -0.16750823886E+03  0.15364499911E+03  0.19487412666E+04  0.19636168876E+04  0.80826737173E+02 0.  0.
         11    1    3    3    0    0  0.11784705672E+02 -0.17936777078E+02  0.36939610683E+01  0.21777341621E+02  0.00000000000E+00 0.  1.
        -11    1    3    3    0    0  0.66663429537E+02  0.79312444781E+02 -0.12793339148E+03  0.16462511774E+03  0.00000000000E+00 0. -1.
          2    1    6    6  502    0 -0.16733135173E+03  0.13962188222E+03  0.16220387108E+04  0.16366134640E+04  0.00000000000E+00 0. -1.
          3    1    5    5  503    0  0.55440512559E+02 -0.54976197570E+02  0.22553597318E+01  0.78109662524E+02  0.00000000000E+00 0. -1.
         -4    1    5    5    0  503  0.33619591094E+02 -0.16004446925E+03  0.70208175315E+02  0.17797105642E+03  0.00000000000E+00 0.  1.
         -1    1    6    6    0  502 -0.17688713641E+00  0.14023116893E+02  0.32670255580E+03  0.32700342363E+03  0.00000000000E+00 0.  1.
<mgrwt>
<rscale>  0 0.14801486E+04</rscale>
<asrwt>0</asrwt>
<pdfrwt beam="1">  1        2 0.33100502E+00 0.14801486E+04</pdfrwt>
<pdfrwt beam="2">  1       -2 0.39164209E-01 0.14801486E+04</pdfrwt>
<totfact> 0.32822918E+01</totfact>
</mgrwt>
</event>
<event>
12    1  0.1599266E-007  0.1109314E+04  0.7818608E-02  0.9196161E-01
         -2   -1    0    0    0  501 -0.00000000000E+00  0.00000000000E+00  0.92347914842E+02  0.92347914842E+02  0.00000000000E+00 0.  1.
          2   -1    0    0  501    0  0.00000000000E+00 -0.00000000000E+00 -0.33313612913E+04  0.33313612913E+04  0.00000000000E+00 0. -1.
         23    2    1    2    0    0 -0.50215076459E+02  0.12749641353E+03 -0.97329954049E+03  0.98715902894E+03  0.91619122022E+02 0.  0.
        254    2    1    2    0    0  0.50215076459E+02 -0.12749641353E+03 -0.22657138360E+04  0.24365501772E+04  0.88574301588E+03 0.  0.
        -24    2    4    4    0    0  0.86634824995E+02 -0.27307125701E+03 -0.22455201906E+04  0.22652128656E+04  0.82188174288E+02 0.  0.
         24    2    4    4    0    0 -0.36419748536E+02  0.14557484348E+03 -0.20193645401E+02  0.17133731159E+03  0.80188888827E+02 0.  0.
         13    1    3    3    0    0 -0.43051946370E+02  0.39756481712E+02 -0.63120281731E+03  0.63391722212E+03  0.00000000000E+00 0. -1.
        -13    1    3    3    0    0 -0.71631300888E+01  0.87739931818E+02 -0.34209672318E+03  0.35324180681E+03  0.00000000000E+00 0.  1.
          4    1    6    6  502    0 -0.35278187959E+02  0.10607940947E+03  0.21560268403E+02  0.11385181963E+03  0.00000000000E+00 0. -1.
          1    1    5    5  503    0  0.80793959757E+02 -0.15977638442E+03 -0.15775516874E+04  0.15876792759E+04  0.00000000000E+00 0. -1.
         -2    1    5    5    0  503  0.58408652379E+01 -0.11329487260E+03 -0.66796850320E+03  0.67753358967E+03  0.00000000000E+00 0.  1.
         -3    1    6    6    0  502 -0.11415605770E+01  0.39495434007E+02 -0.41753913804E+02  0.57485491961E+02  0.00000000000E+00 0.  1.
<mgrwt>
<rscale>  0 0.11093138E+04</rscale>
<asrwt>0</asrwt>
<pdfrwt beam="1">  1        2 0.51251701E+00 0.11093138E+04</pdfrwt>
<pdfrwt beam="2">  1       -2 0.14207375E-01 0.11093138E+04</pdfrwt>
<totfact> 0.41620527E+01</totfact>
</mgrwt>
</event>
<event>
12    1  0.1599266E-007  0.1030521E+04  0.7818608E-02  0.9275689E-01
         -4   -1    0    0    0  501 -0.00000000000E+00  0.00000000000E+00  0.22129321646E+03  0.22129321646E+03  0.00000000000E+00 0.  1.
          4   -1    0    0  501    0  0.00000000000E+00 -0.00000000000E+00 -0.11997368553E+04  0.11997368553E+04  0.00000000000E+00 0. -1.
         23    2    1    2    0    0 -0.60054776127E+02 -0.11282942324E+02 -0.50987017855E+02  0.12076740675E+03  0.90836169113E+02 0.  0.
        254    2    1    2    0    0  0.60054776127E+02  0.11282942324E+02 -0.92745662102E+03  0.13002626650E+04  0.90927077007E+03 0.  0.
        -24    2    4    4    0    0 -0.62083497764E+02 -0.17428937608E+03  0.11483658052E+03  0.23152786531E+03  0.78654719364E+02 0.  0.
         24    2    4    4    0    0  0.12213827389E+03  0.18557231841E+03 -0.10422932015E+04  0.10687347997E+04  0.80399694478E+02 0.  0.
         13    1    3    3    0    0  0.29446500638E+01 -0.20650594420E+02 -0.53089694418E+02  0.57040631723E+02  0.00000000000E+00 0. -1.
        -13    1    3    3    0    0 -0.62999426190E+02  0.93676520956E+01  0.21026765630E+01  0.63726775023E+02  0.00000000000E+00 0.  1.
          4    1    6    6  502    0  0.40071566465E+02  0.13250329811E+03 -0.62618321993E+03  0.64130201884E+03  0.00000000000E+00 0. -1.
          3    1    5    5  503    0 -0.28502012395E+02 -0.16015189041E+03  0.10560090915E+03  0.19393953885E+03  0.00000000000E+00 0. -1.
         -4    1    5    5    0  503 -0.33581485368E+02 -0.14137485668E+02  0.92356713690E+01  0.37588326462E+02  0.00000000000E+00 0.  1.
         -3    1    6    6    0  502  0.82066707425E+02  0.53069020293E+02 -0.41610998162E+03  0.42743278089E+03  0.00000000000E+00 0.  1.
<mgrwt>
<rscale>  0 0.10305215E+04</rscale>
<asrwt>0</asrwt>
<pdfrwt beam="1">  1        4 0.18457490E+00 0.10305215E+04</pdfrwt>
<pdfrwt beam="2">  1       -4 0.34045111E-01 0.10305215E+04</pdfrwt>
<totfact> 0.27928131E+00</totfact>
</mgrwt>
</event>
<event>
12    1  0.1599266E-007  0.1881778E+04  0.7818608E-02  0.8663980E-01
          1   -1    0    0  501    0  0.00000000000E+00  0.00000000000E+00  0.99244944672E+03  0.99244944672E+03  0.00000000000E+00 0. -1.
         -1   -1    0    0    0  501 -0.00000000000E+00 -0.00000000000E+00 -0.89200744988E+03  0.89200744988E+03  0.00000000000E+00 0.  1.
         23    2    1    2    0    0  0.43170211254E+03 -0.52595473804E+03 -0.14702618127E+03  0.70206140801E+03  0.90985835121E+02 0.  0.
        254    2    1    2    0    0 -0.43170211254E+03  0.52595473804E+03  0.24746817811E+03  0.11823954886E+04  0.93478526509E+03 0.  0.
        -24    2    4    4    0    0 -0.25958511337E+03  0.57365496179E+03  0.53806601803E+03  0.83222734110E+03  0.81380963640E+02 0.  0.
         24    2    4    4    0    0 -0.17211699917E+03 -0.47700223751E+02 -0.29059783992E+03  0.35016814749E+03  0.79189988026E+02 0.  0.
         11    1    3    3    0    0  0.71725334609E+01 -0.33365485646E+02  0.43125369626E+01  0.34399111089E+02  0.00000000000E+00 0. -1.
        -11    1    3    3    0    0  0.42452957908E+03 -0.49258925240E+03 -0.15133871823E+03  0.66766229692E+03  0.00000000000E+00 0.  1.
          2    1    6    6  502    0 -0.19216551753E+02 -0.73521896091E+01 -0.10196478431E+03  0.10401993940E+03  0.00000000000E+00 0. -1.
          1    1    5    5  503    0 -0.18060541849E+03  0.30348411880E+03  0.31110499752E+03  0.47064556413E+03  0.00000000000E+00 0. -1.
         -2    1    5    5    0  503 -0.78979694878E+02  0.27017084299E+03  0.22696102051E+03  0.36158177697E+03  0.00000000000E+00 0.  1.
         -1    1    6    6    0  502 -0.15290044741E+03 -0.40348034142E+02 -0.18863305561E+03  0.24614820809E+03  0.00000000000E+00 0.  1.
<mgrwt>
<rscale>  0 0.18817782E+04</rscale>
<asrwt>0</asrwt>
<pdfrwt beam="1">  1        1 0.15268453E+00 0.18817782E+04</pdfrwt>
<pdfrwt beam="2">  1       -1 0.13723191E+00 0.18817782E+04</pdfrwt>
<totfact> 0.63476244E+00</totfact>
</mgrwt>
</event>
<event>
12    1  0.1599266E-007  0.1905328E+04  0.7818608E-02  0.8652209E-01
          2   -1    0    0  501    0  0.00000000000E+00  0.00000000000E+00  0.14915630371E+04  0.14915630371E+04  0.00000000000E+00 0. -1.
         -2   -1    0    0    0  501 -0.00000000000E+00 -0.00000000000E+00 -0.60846834595E+03  0.60846834595E+03  0.00000000000E+00 0.  1.
         23    2    1    2    0    0  0.30369620334E+03 -0.18460275162E+03  0.10578087588E+04  0.11196643767E+04  0.91538988248E+02 0.  0.
        254    2    1    2    0    0 -0.30369620334E+03  0.18460275162E+03 -0.17471406769E+03  0.98036700633E+03  0.89681932507E+03 0.  0.
        -24    2    4    4    0    0 -0.50343849482E+03  0.30656501331E+03  0.10899636301E+03  0.60385431096E+03  0.72989014687E+02 0.  0.
         24    2    4    4    0    0  0.19974229148E+03 -0.12196226168E+03 -0.28371043071E+03  0.37651269537E+03  0.80612809168E+02 0.  0.
         11    1    3    3    0    0  0.14491823607E+03 -0.11158115809E+03  0.41487780372E+03  0.45340406042E+03  0.00000000000E+00 0.  1.
        -11    1    3    3    0    0  0.15877796727E+03 -0.73021593530E+02  0.64293095512E+03  0.66626031629E+03  0.00000000000E+00 0. -1.
          2    1    6    6  502    0  0.24139985141E+02 -0.46780712551E+01 -0.77711032623E+02  0.81508452474E+02  0.00000000000E+00 0. -1.
          1    1    5    5  503    0 -0.46230578788E+03  0.25745329943E+03  0.10633966819E+03  0.53973786964E+03  0.00000000000E+00 0. -1.
         -2    1    5    5    0  503 -0.41132706944E+02  0.49111713874E+02  0.26566948205E+01  0.64116441320E+02  0.00000000000E+00 0.  1.
         -1    1    6    6    0  502  0.17560230634E+03 -0.11728419043E+03 -0.20599939809E+03  0.29500424290E+03  0.00000000000E+00 0.  1.
<mgrwt>
<rscale>  0 0.19053282E+04</rscale>
<asrwt>0</asrwt>
<pdfrwt beam="1">  1        2 0.22947123E+00 0.19053282E+04</pdfrwt>
<pdfrwt beam="2">  1       -2 0.93610515E-01 0.19053282E+04</pdfrwt>
<totfact> 0.11590725E+01</totfact>
</mgrwt>
</event>
<event>
12    1  0.1599266E-007  0.1696865E+04  0.7818608E-02  0.8763155E-01
          1   -1    0    0  501    0  0.00000000000E+00  0.00000000000E+00  0.23231908345E+04  0.23231908345E+04  0.00000000000E+00 0. -1.
         -1   -1    0    0    0  501 -0.00000000000E+00 -0.00000000000E+00 -0.30984855984E+03  0.30984855984E+03  0.00000000000E+00 0.  1.
         23    2    1    2    0    0  0.23112027564E+02 -0.41014859785E+03  0.14248421674E+04  0.14857169847E+04  0.91780817673E+02 0.  0.
        254    2    1    2    0    0 -0.23112027564E+02  0.41014859785E+03  0.58850010725E+03  0.11473224096E+04  0.89513144134E+03 0.  0.
        -24    2    4    4    0    0 -0.12476689014E+03 -0.54978615857E+02 -0.18003200524E+03  0.23933549258E+03  0.79249795085E+02 0.  0.
         24    2    4    4    0    0  0.10165486258E+03  0.46512721371E+03  0.76853211249E+03  0.90798691705E+03  0.84389558475E+02 0.  0.
         11    1    3    3    0    0 -0.13251435471E+02 -0.11793102619E+03  0.29118922346E+03  0.31444314484E+03  0.00000000000E+00 0.  1.
        -11    1    3    3    0    0  0.36363463035E+02 -0.29221757166E+03  0.11336529439E+04  0.11712738398E+04  0.00000000000E+00 0. -1.
          2    1    6    6  502    0  0.10753264321E+03  0.30813233158E+03  0.52575686863E+03  0.61881264373E+03  0.00000000000E+00 0. -1.
          1    1    5    5  503    0 -0.13563155544E+03 -0.52789545394E+02 -0.15894761764E+03  0.21551566088E+03  0.00000000000E+00 0. -1.
         -4    1    5    5    0  503  0.10864665297E+02 -0.21890704630E+01 -0.21084387603E+02  0.23819831697E+02  0.00000000000E+00 0.  1.
         -1    1    6    6    0  502 -0.58777806358E+01  0.15699488213E+03  0.24277524386E+03  0.28917427332E+03  0.00000000000E+00 0.  1.
<mgrwt>
<rscale>  0 0.16968646E+04</rscale>
<asrwt>0</asrwt>
<pdfrwt beam="1">  1        1 0.35741396E+00 0.16968646E+04</pdfrwt>
<pdfrwt beam="2">  1       -1 0.47669011E-01 0.16968646E+04</pdfrwt>
<totfact> 0.75127068E+00</totfact>
</mgrwt>
</event>
<event>
12    1  0.1599266E-007  0.1757732E+04  0.7818608E-02  0.8729106E-01
         -1   -1    0    0    0  501 -0.00000000000E+00  0.00000000000E+00  0.45705716141E+03  0.45705716141E+03  0.00000000000E+00 0.  1.
          1   -1    0    0  501    0  0.00000000000E+00 -0.00000000000E+00 -0.16899539429E+04  0.16899539429E+04  0.00000000000E+00 0. -1.
         23    2    1    2    0    0  0.37354756079E+03 -0.41721369410E+03 -0.61747840587E+02  0.57073887877E+03  0.91241576083E+02 0.  0.
        254    2    1    2    0    0 -0.37354756079E+03  0.41721369410E+03 -0.11711489409E+04  0.15762722255E+04  0.89411366194E+03 0.  0.
        -24    2    4    4    0    0 -0.40565242545E+03  0.40538692703E+02 -0.85846856664E+02  0.42410214482E+03  0.79345261754E+02 0.  0.
         24    2    4    4    0    0  0.32104864659E+02  0.37667500140E+03 -0.10853020842E+04  0.11521700807E+04  0.81856593120E+02 0.  0.
         13    1    3    3    0    0  0.25987028519E+03 -0.22503029634E+03 -0.27749292800E+02  0.34487856217E+03  0.00000000000E+00 0.  1.
        -13    1    3    3    0    0  0.11367727560E+03 -0.19218339776E+03 -0.33998547787E+02  0.22586031660E+03  0.00000000000E+00 0. -1.
          2    1    6    6  502    0  0.24710201724E+02  0.71574978048E+02 -0.14499456985E+03  0.16357566090E+03  0.00000000000E+00 0. -1.
          3    1    5    5  503    0 -0.17777950605E+02  0.13979803167E+02  0.82854079143E+01  0.24086062539E+02  0.00000000000E+00 0. -1.
         -4    1    5    5    0  503 -0.38787447484E+03  0.26558889536E+02 -0.94132264578E+02  0.40001608228E+03  0.00000000000E+00 0.  1.
         -1    1    6    6    0  502  0.73946629344E+01  0.30510002335E+03 -0.94030751434E+03  0.98859441977E+03  0.00000000000E+00 0.  1.
<mgrwt>
<rscale>  0 0.17577321E+04</rscale>
<asrwt>0</asrwt>
<pdfrwt beam="1">  1        1 0.25999292E+00 0.17577321E+04</pdfrwt>
<pdfrwt beam="2">  1       -1 0.70316485E-01 0.17577321E+04</pdfrwt>
<totfact> 0.93725424E+00</totfact>
</mgrwt>
</event>
<event>
12    1  0.1599266E-007  0.2513937E+04  0.7818608E-02  0.8398037E-01
         -1   -1    0    0    0  501 -0.00000000000E+00  0.00000000000E+00  0.62058985604E+03  0.62058985604E+03  0.00000000000E+00 0.  1.
          1   -1    0    0  501    0  0.00000000000E+00 -0.00000000000E+00 -0.25459157063E+04  0.25459157063E+04  0.00000000000E+00 0. -1.
         23    2    1    2    0    0  0.67967987695E+03 -0.66934876024E+02 -0.19232583123E+04  0.20429816349E+04  0.91686487380E+02 0.  0.
        254    2    1    2    0    0 -0.67967987695E+03  0.66934876024E+02 -0.20675379684E+01  0.11235239274E+04  0.89210802488E+03 0.  0.
        -24    2    4    4    0    0 -0.54986978478E+03  0.61765148569E+02 -0.40669717211E+03  0.69144903603E+03  0.80792733782E+02 0.  0.
         24    2    4    4    0    0 -0.12981009217E+03  0.51697274546E+01  0.40462963414E+03  0.43207489141E+03  0.78014004202E+02 0.  0.
         11    1    3    3    0    0  0.19157423388E+03  0.19556731166E+02 -0.58370893053E+03  0.61465377929E+03  0.00000000000E+00 0. -1.
        -11    1    3    3    0    0  0.48810564307E+03 -0.86491607190E+02 -0.13395493817E+04  0.14283278556E+04  0.00000000000E+00 0.  1.
          4    1    6    6  502    0 -0.85931920412E+02  0.86977399520E+01  0.35665806758E+03  0.36696719580E+03  0.00000000000E+00 0. -1.
          3    1    5    5  503    0 -0.21385577940E+03  0.52011472041E+02 -0.12667258453E+03  0.25393981822E+03  0.00000000000E+00 0. -1.
         -4    1    5    5    0  503 -0.33601400537E+03  0.97536765283E+01 -0.28002458758E+03  0.43750921780E+03  0.00000000000E+00 0.  1.
         -3    1    6    6    0  502 -0.43878171759E+02 -0.35280124974E+01  0.47971566563E+02  0.65107695610E+02  0.00000000000E+00 0.  1.
<mgrwt>
<rscale>  0 0.25139367E+04</rscale>
<asrwt>0</asrwt>
<pdfrwt beam="1">  1        1 0.39167933E+00 0.25139367E+04</pdfrwt>
<pdfrwt beam="2">  1       -1 0.95475364E-01 0.25139367E+04</pdfrwt>
<totfact> 0.11821617E+00</totfact>
</mgrwt>
</event>
<event>
12    1  0.1599266E-007  0.1613100E+04  0.7818608E-02  0.8812540E-01
          1   -1    0    0  501    0  0.00000000000E+00  0.00000000000E+00  0.13711502633E+04  0.13711502633E+04  0.00000000000E+00 0.  1.
         -1   -1    0    0    0  501 -0.00000000000E+00 -0.00000000000E+00 -0.47443586040E+03  0.47443586040E+03  0.00000000000E+00 0. -1.
         23    2    1    2    0    0  0.21132916377E+02 -0.23015076900E+03  0.96689380981E+03  0.99828706936E+03  0.90980529719E+02 0.  0.
        254    2    1    2    0    0 -0.21132916377E+02  0.23015076900E+03 -0.70179406914E+02  0.84729905433E+03  0.81214195907E+03 0.  0.
        -24    2    4    4    0    0  0.35961097321E+03  0.43569702599E+01  0.73199511406E+02  0.37520974298E+03  0.78007355528E+02 0.  0.
         24    2    4    4    0    0 -0.38074388959E+03  0.22579379874E+03 -0.14337891832E+03  0.47208931135E+03  0.79762489083E+02 0.  0.
         11    1    3    3    0    0  0.12307952375E+02 -0.23673402981E+03  0.93331602549E+03  0.96295030505E+03  0.00000000000E+00 0.  1.
        -11    1    3    3    0    0  0.88249640027E+01  0.65832608044E+01  0.33577784320E+02  0.35336764315E+02  0.00000000000E+00 0. -1.
          2    1    6    6  502    0 -0.17292882903E+03  0.68915888668E+02 -0.87899701686E+02  0.20586436597E+03  0.00000000000E+00 0. -1.
          3    1    5    5  503    0  0.21553863320E+02  0.12743324744E+02 -0.10002913508E+02  0.26963301508E+02  0.00000000000E+00 0. -1.
         -4    1    5    5    0  503  0.33805710989E+03 -0.83863544844E+01  0.83202424913E+02  0.34824644147E+03  0.00000000000E+00 0.  1.
         -1    1    6    6    0  502 -0.20781506056E+03  0.15687791008E+03 -0.55479216634E+02  0.26622494538E+03  0.00000000000E+00 0.  1.
<mgrwt>
<rscale>  0 0.16130999E+04</rscale>
<asrwt>0</asrwt>
<pdfrwt beam="1">  1        1 0.21094619E+00 0.16130999E+04</pdfrwt>
<pdfrwt beam="2">  1       -1 0.72990133E-01 0.16130999E+04</pdfrwt>
<totfact> 0.14602081E+01</totfact>
</mgrwt>
</event>
<event>
12    1  0.1599266E-007  0.1522791E+04  0.7818608E-02  0.8869437E-01
          1   -1    0    0  501    0  0.00000000000E+00  0.00000000000E+00  0.95552682540E+03  0.95552682540E+03  0.00000000000E+00 0. -1.
         -1   -1    0    0    0  501 -0.00000000000E+00 -0.00000000000E+00 -0.60670493873E+03  0.60670493873E+03  0.00000000000E+00 0.  1.
         23    2    1    2    0    0 -0.16151096508E+02  0.49043418975E+03  0.20263237607E+03  0.54111424995E+03  0.10468141798E+03 0.  0.
        254    2    1    2    0    0  0.16151096508E+02 -0.49043418975E+03  0.14618951059E+03  0.10211175142E+04  0.88347215711E+03 0.  0.
        -24    2    4    4    0    0  0.71470679583E+02 -0.63765700729E+02 -0.34289740675E+03  0.36481669603E+03  0.79614493130E+02 0.  0.
         24    2    4    4    0    0 -0.55319583075E+02 -0.42666848902E+03  0.48908691734E+03  0.65630081816E+03  0.80115512904E+02 0.  0.
         13    1    3    3    0    0  0.26872802877E+01  0.40425041782E+02  0.52570064124E+02  0.66370303001E+02  0.00000000000E+00 0. -1.
        -13    1    3    3    0    0 -0.18838376796E+02  0.45000914797E+03  0.15006231195E+03  0.47474394694E+03  0.00000000000E+00 0.  1.
          4    1    6    6  502    0  0.14526904504E+02 -0.49805598371E+02  0.37653873364E+02  0.64104935558E+02  0.00000000000E+00 0. -1.
          3    1    5    5  503    0  0.38882588357E+02 -0.99010808310E+01 -0.44786651168E+02  0.60130950448E+02  0.00000000000E+00 0. -1.
         -4    1    5    5    0  503  0.32588091226E+02 -0.53864619898E+02 -0.29811075558E+03  0.30468574558E+03  0.00000000000E+00 0.  1.
         -3    1    6    6    0  502 -0.69846487579E+02 -0.37686289065E+03  0.45143304398E+03  0.59219588260E+03  0.00000000000E+00 0.  1.
<mgrwt>
<rscale>  0 0.15227907E+04</rscale>
<asrwt>0</asrwt>
<pdfrwt beam="1">  1        1 0.14700413E+00 0.15227907E+04</pdfrwt>
<pdfrwt beam="2">  1       -1 0.93339221E-01 0.15227907E+04</pdfrwt>
<totfact> 0.17652312E+01</totfact>
</mgrwt>
</event>
<event>
12    1  0.1599266E-007  0.1198056E+04  0.7818608E-02  0.9114560E-01
         -1   -1    0    0    0  501 -0.00000000000E+00  0.00000000000E+00  0.10242190334E+04  0.10242190334E+04  0.00000000000E+00 0.  1.
          1   -1    0    0  501    0  0.00000000000E+00 -0.00000000000E+00 -0.35034936549E+03  0.35034936549E+03  0.00000000000E+00 0. -1.
         23    2    1    2    0    0 -0.20091028909E+03  0.95346222652E+02  0.29137184601E+03  0.37761632235E+03  0.90778234306E+02 0.  0.
        254    2    1    2    0    0  0.20091028909E+03 -0.95346222652E+02  0.38249782189E+03  0.99695207653E+03  0.89339409708E+03 0.  0.
        -24    2    4    4    0    0  0.54293174972E+03 -0.13898890572E+03  0.21542567906E+03  0.60572594118E+03  0.80018072024E+02 0.  0.
         24    2    4    4    0    0 -0.34202146064E+03  0.43642683065E+02  0.16707214284E+03  0.39122613535E+03  0.79129164960E+02 0.  0.
         11    1    3    3    0    0 -0.11387394112E+03  0.53321213718E+02  0.91197420686E+02  0.15532995795E+03  0.00000000000E+00 0. -1.
        -11    1    3    3    0    0 -0.87036347969E+02  0.42025008935E+02  0.20017442532E+03  0.22228636440E+03  0.00000000000E+00 0.  1.
          4    1    6    6  502    0 -0.68236332163E+01  0.15543011278E+02  0.41551353946E+01  0.17476049897E+02  0.00000000000E+00 0. -1.
          1    1    5    5  503    0  0.91623297709E+02  0.43267043636E+01  0.22716275470E+02  0.94496445568E+02  0.00000000000E+00 0. -1.
         -2    1    5    5    0  503  0.45130845201E+03 -0.14331561008E+03  0.19270940359E+03  0.51122949561E+03  0.00000000000E+00 0.  1.
         -3    1    6    6    0  502 -0.33519782742E+03  0.28099671787E+02  0.16291700744E+03  0.37375008545E+03  0.00000000000E+00 0.  1.
<mgrwt>
<rscale>  0 0.11980559E+04</rscale>
<asrwt>0</asrwt>
<pdfrwt beam="1">  1        1 0.53899903E-01 0.11980559E+04</pdfrwt>
<pdfrwt beam="2">  1       -1 0.15757216E+00 0.11980559E+04</pdfrwt>
<totfact> 0.21590601E+01</totfact>
</mgrwt>
</event>
<event>
12    1  0.1599266E-007  0.2219668E+04  0.7818608E-02  0.8510286E-01
         -2   -1    0    0    0  501 -0.00000000000E+00  0.00000000000E+00  0.65912147269E+03  0.65912147269E+03  0.00000000000E+00 0.  1.
          2   -1    0    0  501    0  0.00000000000E+00 -0.00000000000E+00 -0.18687472351E+04  0.18687472351E+04  0.00000000000E+00 0. -1.
         23    2    1    2    0    0 -0.44717650913E+03  0.76394059319E+03 -0.81542062900E+03  0.12071738970E+04  0.93733425980E+02 0.  0.
        254    2    1    2    0    0  0.44717650913E+03 -0.76394059319E+03 -0.39420513337E+03  0.13206948107E+04  0.89736560872E+03 0.  0.
        -24    2    4    4    0    0  0.58832397000E+02 -0.75434928344E+03  0.62595520628E+00  0.76096229104E+03  0.80988420115E+02 0.  0.
         24    2    4    4    0    0  0.38834411213E+03 -0.95913097506E+01 -0.39483108858E+03  0.55973251971E+03  0.80658306890E+02 0.  0.
         11    1    3    3    0    0 -0.31355309971E+03  0.58333223901E+03 -0.56277381233E+03  0.86908366183E+03  0.00000000000E+00 0.  1.
        -11    1    3    3    0    0 -0.13362340942E+03  0.18060835418E+03 -0.25264681666E+03  0.33809023516E+03  0.00000000000E+00 0. -1.
          2    1    6    6  502    0  0.20304492249E+03 -0.37099121800E+02 -0.17245720299E+03  0.26897039289E+03  0.00000000000E+00 0. -1.
          1    1    5    5  503    0  0.26746309328E+01 -0.43464067246E+03 -0.24865758160E+02  0.43535959130E+03  0.00000000000E+00 0. -1.
         -2    1    5    5    0  503  0.56157766068E+02 -0.31970861098E+03  0.25491713366E+02  0.32560269973E+03  0.00000000000E+00 0.  1.
         -1    1    6    6    0  502  0.18529918963E+03  0.27507812050E+02 -0.22237388559E+03  0.29076212682E+03  0.00000000000E+00 0.  1.
<mgrwt>
<rscale>  0 0.22196679E+04</rscale>
<asrwt>0</asrwt>
<pdfrwt beam="1">  1        2 0.28749957E+00 0.22196679E+04</pdfrwt>
<pdfrwt beam="2">  1       -2 0.10140330E+00 0.22196679E+04</pdfrwt>
<totfact> 0.57626554E+00</totfact>
</mgrwt>
</event>
<event>
12    1  0.1599266E-007  0.1809057E+04  0.7818608E-02  0.8701498E-01
         -2   -1    0    0    0  501 -0.00000000000E+00  0.00000000000E+00  0.71478271434E+03  0.71478271434E+03  0.00000000000E+00 0.  1.
          2   -1    0    0  501    0  0.00000000000E+00 -0.00000000000E+00 -0.11446440603E+04  0.11446440603E+04  0.00000000000E+00 0. -1.
         23    2    1    2    0    0  0.51463506172E+03  0.10385484166E+02 -0.61378296145E+03  0.80692771302E+03  0.97189018098E+02 0.  0.
        254    2    1    2    0    0 -0.51463506172E+03 -0.10385484166E+02  0.18392161549E+03  0.10524990616E+04  0.89942760077E+03 0.  0.
        -24    2    4    4    0    0  0.62107949067E+02 -0.31419730290E+03  0.21668820434E+03  0.39485235615E+03  0.79857765875E+02 0.  0.
         24    2    4    4    0    0 -0.57674301079E+03  0.30381181873E+03 -0.32766588845E+02  0.65764670547E+03  0.80569337683E+02 0.  0.
         11    1    3    3    0    0  0.37493358918E+02 -0.52946472740E+01 -0.14059777445E+02  0.40391367822E+02  0.00000000000E+00 0.  1.
        -11    1    3    3    0    0  0.47714170280E+03  0.15680131440E+02 -0.59972318401E+03  0.76653634520E+03  0.00000000000E+00 0. -1.
          4    1    6    6  502    0 -0.80100920451E+02  0.16632347545E+02  0.97001702109E+01  0.82382557281E+02  0.00000000000E+00 0. -1.
          1    1    5    5  503    0  0.36780557156E+02 -0.17689704470E+03  0.74077988194E+02  0.19527652738E+03  0.00000000000E+00 0. -1.
         -2    1    5    5    0  503  0.25327391911E+02 -0.13730025820E+03  0.14261021614E+03  0.19957582877E+03  0.00000000000E+00 0.  1.
         -3    1    6    6    0  502 -0.49664209033E+03  0.28717947119E+03 -0.42466759055E+02  0.57526414819E+03  0.00000000000E+00 0.  1.
<mgrwt>
<rscale>  0 0.18090570E+04</rscale>
<asrwt>0</asrwt>
<pdfrwt beam="1">  1        2 0.17609908E+00 0.18090570E+04</pdfrwt>
<pdfrwt beam="2">  1       -2 0.10996657E+00 0.18090570E+04</pdfrwt>
<totfact> 0.12690104E+01</totfact>
</mgrwt>
</event>
<event>
12    1  0.1599266E-007  0.1451842E+04  0.7818608E-02  0.8917125E-01
          2   -1    0    0  501    0  0.00000000000E+00  0.00000000000E+00  0.11602988933E+04  0.11602988933E+04  0.00000000000E+00 0. -1.
         -2   -1    0    0    0  501 -0.00000000000E+00 -0.00000000000E+00 -0.45415968810E+03  0.45415968810E+03  0.00000000000E+00 0.  1.
         23    2    1    2    0    0 -0.34950169969E+03  0.74318692449E+02  0.50524013244E+03  0.62567944821E+03  0.92371393570E+02 0.  0.
        254    2    1    2    0    0  0.34950169969E+03 -0.74318692449E+02  0.20089907274E+03  0.98877913318E+03  0.89980499590E+03 0.  0.
        -24    2    4    4    0    0 -0.23088847489E+03  0.20500296408E+03  0.71635835694E+02  0.32694483705E+03  0.80159406179E+02 0.  0.
         24    2    4    4    0    0  0.58039017458E+03 -0.27932165653E+03  0.12926323705E+03  0.66183429613E+03  0.80263992755E+02 0.  0.
         11    1    3    3    0    0 -0.24909270250E+03  0.26818448856E+02  0.40406229619E+03  0.47542900925E+03  0.00000000000E+00 0. -1.
        -11    1    3    3    0    0 -0.10040899719E+03  0.47500243592E+02  0.10117783625E+03  0.15025043896E+03  0.00000000000E+00 0.  1.
          2    1    6    6  502    0  0.80608231336E+01 -0.12479510173E+02  0.13001278716E+02  0.19742043764E+02  0.00000000000E+00 0. -1.
          1    1    5    5  503    0 -0.55942036088E+02  0.11786921944E+02  0.22386511371E+01  0.57214110930E+02  0.00000000000E+00 0. -1.
         -2    1    5    5    0  503 -0.17494643880E+03  0.19321604214E+03  0.69397184557E+02  0.26973072612E+03  0.00000000000E+00 0.  1.
         -1    1    6    6    0  502  0.57232935144E+03 -0.26684214636E+03  0.11626195833E+03  0.64209225237E+03  0.00000000000E+00 0.  1.
<mgrwt>
<rscale>  0 0.14518416E+04</rscale>
<asrwt>0</asrwt>
<pdfrwt beam="1">  1        2 0.17850752E+00 0.14518416E+04</pdfrwt>
<pdfrwt beam="2">  1       -2 0.69870722E-01 0.14518416E+04</pdfrwt>
<totfact> 0.36222513E+01</totfact>
</mgrwt>
</event>
<event>
12    1  0.1599266E-007  0.1951547E+04  0.7818608E-02  0.8629615E-01
          1   -1    0    0  501    0  0.00000000000E+00  0.00000000000E+00  0.14831322781E+04  0.14831322781E+04  0.00000000000E+00 0. -1.
         -1   -1    0    0    0  501 -0.00000000000E+00 -0.00000000000E+00 -0.64197504847E+03  0.64197504847E+03  0.00000000000E+00 0.  1.
         23    2    1    2    0    0 -0.17046941882E+03 -0.68545209952E+03  0.62942641298E+03  0.94962484179E+03  0.81886062937E+02 0.  0.
        254    2    1    2    0    0  0.17046941882E+03  0.68545209952E+03  0.21173081661E+03  0.11754824847E+04  0.91543690648E+03 0.  0.
        -24    2    4    4    0    0  0.46373080806E+03  0.10196353395E+03 -0.10242293507E+02  0.48166046921E+03  0.80306154349E+02 0.  0.
         24    2    4    4    0    0 -0.29326138925E+03  0.58348856557E+03  0.22197311012E+03  0.69382201553E+03  0.75204913686E+02 0.  0.
         13    1    3    3    0    0 -0.18876823706E+01 -0.86452671733E+02  0.10353512153E+03  0.13489680939E+03  0.00000000000E+00 0.  1.
        -13    1    3    3    0    0 -0.16858173645E+03 -0.59899942778E+03  0.52589129145E+03  0.81472803240E+03  0.00000000000E+00 0. -1.
          2    1    6    6  502    0 -0.22214183051E+02  0.14567936067E+02  0.32839257064E+01  0.26767122706E+02  0.00000000000E+00 0. -1.
          3    1    5    5  503    0  0.61194291402E+02  0.42830604681E+02 -0.19126932297E+01  0.74718541159E+02  0.00000000000E+00 0. -1.
         -4    1    5    5    0  503  0.40253651666E+03  0.59132929266E+02 -0.83296002772E+01  0.40694192806E+03  0.00000000000E+00 0.  1.
         -1    1    6    6    0  502 -0.27104720619E+03  0.56892062950E+03  0.21868918441E+03  0.66705489282E+03  0.00000000000E+00 0.  1.
<mgrwt>
<rscale>  0 0.19515470E+04</rscale>
<asrwt>0</asrwt>
<pdfrwt beam="1">  1        1 0.22817420E+00 0.19515470E+04</pdfrwt>
<pdfrwt beam="2">  1       -1 0.98765392E-01 0.19515470E+04</pdfrwt>
<totfact> 0.61383769E+00</totfact>
</mgrwt>
</event>
<event>
12    1  0.1599266E-007  0.2905037E+04  0.7818608E-02  0.8271381E-01
          2   -1    0    0  501    0  0.00000000000E+00  0.00000000000E+00  0.16671919445E+04  0.16671919445E+04  0.00000000000E+00 0. -1.
         -2   -1    0    0    0  501 -0.00000000000E+00 -0.00000000000E+00 -0.12654867581E+04  0.12654867581E+04  0.00000000000E+00 0.  1.
         23    2    1    2    0    0  0.17297385338E+03 -0.60382202492E+03 -0.98038174807E+03  0.11678771583E+04  0.90926855658E+02 0.  0.
        254    2    1    2    0    0 -0.17297385338E+03  0.60382202492E+03  0.13820869345E+04  0.17648015444E+04  0.89991066507E+03 0.  0.
        -24    2    4    4    0    0  0.20422016545E+03  0.91862778096E+02 -0.40756947172E+01  0.23759720264E+03  0.79316917729E+02 0.  0.
         24    2    4    4    0    0 -0.37719401883E+03  0.51195924683E+03  0.13861626292E+04  0.15272043418E+04  0.80800178264E+02 0.  0.
         13    1    3    3    0    0  0.10223784439E+03 -0.32688307617E+03 -0.61544998128E+03  0.70433216721E+03  0.00000000000E+00 0. -1.
        -13    1    3    3    0    0  0.70736008983E+02 -0.27693894876E+03 -0.36493176679E+03  0.46354499104E+03  0.00000000000E+00 0.  1.
          2    1    6    6  502    0 -0.23770300088E+03  0.31610938952E+03  0.76647628866E+03  0.86250435584E+03  0.00000000000E+00 0. -1.
          3    1    5    5  503    0  0.48706842994E+02 -0.12063118626E+02  0.43359095829E+01  0.50365419659E+02  0.00000000000E+00 0. -1.
         -4    1    5    5    0  503  0.15551332246E+03  0.10392589672E+03 -0.84116043001E+01  0.18723178298E+03  0.00000000000E+00 0.  1.
         -1    1    6    6    0  502 -0.13949101795E+03  0.19584985731E+03  0.61968634053E+03  0.66469998596E+03  0.00000000000E+00 0.  1.
<mgrwt>
<rscale>  0 0.29050365E+04</rscale>
<asrwt>0</asrwt>
<pdfrwt beam="1">  1        2 0.25649107E+00 0.29050365E+04</pdfrwt>
<pdfrwt beam="2">  1       -2 0.19469027E+00 0.29050365E+04</pdfrwt>
<totfact> 0.12726128E+00</totfact>
</mgrwt>
</event>
<event>
12    1  0.1599266E-007  0.1645927E+04  0.7818608E-02  0.8792820E-01
          1   -1    0    0  501    0  0.00000000000E+00  0.00000000000E+00  0.52247614952E+03  0.52247614952E+03  0.00000000000E+00 0. -1.
         -1   -1    0    0    0  501 -0.00000000000E+00 -0.00000000000E+00 -0.12962677776E+04  0.12962677776E+04  0.00000000000E+00 0.  1.
         23    2    1    2    0    0  0.17804723928E+03  0.47293175458E+03  0.24387378420E+02  0.51413882839E+03  0.91535385135E+02 0.  0.
        254    2    1    2    0    0 -0.17804723928E+03 -0.47293175458E+03 -0.79817900647E+03  0.13046050987E+04  0.89974411543E+03 0.  0.
        -24    2    4    4    0    0 -0.37399029338E+03  0.10706247929E+03 -0.43164522098E+03  0.58654941321E+03  0.79946878105E+02 0.  0.
         24    2    4    4    0    0  0.19594305410E+03 -0.57999423387E+03 -0.36653378549E+03  0.71805568548E+03  0.80436060161E+02 0.  0.
         13    1    3    3    0    0  0.17634871350E+03  0.38126434236E+03  0.34120493255E+01  0.42008690718E+03  0.00000000000E+00 0.  1.
        -13    1    3    3    0    0  0.16985257862E+01  0.91667412220E+02  0.20975329095E+02  0.94051921211E+02  0.00000000000E+00 0. -1.
          4    1    6    6  502    0  0.19255627097E+03 -0.56787043251E+03 -0.37049942794E+03  0.70485783795E+03  0.00000000000E+00 0. -1.
          3    1    5    5  503    0 -0.37716030801E+03  0.10979975849E+03 -0.42853168793E+03  0.58133062233E+03  0.00000000000E+00 0. -1.
         -4    1    5    5    0  503  0.31700146237E+01 -0.27372791992E+01 -0.31135330562E+01  0.52187908773E+01  0.00000000000E+00 0.  1.
         -3    1    6    6    0  502  0.33867831347E+01 -0.12123801359E+02  0.39656424579E+01  0.13197847532E+02  0.00000000000E+00 0.  1.
<mgrwt>
<rscale>  0 0.16459271E+04</rscale>
<asrwt>0</asrwt>
<pdfrwt beam="1">  1        1 0.80380948E-01 0.16459271E+04</pdfrwt>
<pdfrwt beam="2">  1       -1 0.19942581E+00 0.16459271E+04</pdfrwt>
<totfact> 0.60523576E+00</totfact>
</mgrwt>
</event>
<event>
12    1  0.1599266E-007  0.2701943E+04  0.7818608E-02  0.8334375E-01
         -1   -1    0    0    0  501 -0.00000000000E+00  0.00000000000E+00  0.80823946348E+03  0.80823946348E+03  0.00000000000E+00 0.  1.
          1   -1    0    0  501    0  0.00000000000E+00 -0.00000000000E+00 -0.22581480555E+04  0.22581480555E+04  0.00000000000E+00 0. -1.
         23    2    1    2    0    0 -0.39400041422E+03  0.45617232698E+03 -0.18227115471E+04  0.19220229285E+04  0.92548557829E+02 0.  0.
        254    2    1    2    0    0  0.39400041422E+03 -0.45617232698E+03  0.37280295504E+03  0.11443645905E+04  0.89847579510E+03 0.  0.
        -24    2    4    4    0    0 -0.17446890686E+03  0.35341483750E+02  0.33486140283E+03  0.38763451013E+03  0.80249201912E+02 0.  0.
         24    2    4    4    0    0  0.56846932107E+03 -0.49151381073E+03  0.37941552217E+02  0.75673008036E+03  0.80359554550E+02 0.  0.
         11    1    3    3    0    0 -0.29376821347E+03  0.34750079147E+03 -0.12401430137E+04  0.13209887424E+04  0.00000000000E+00 0.  1.
        -11    1    3    3    0    0 -0.10023220075E+03  0.10867153551E+03 -0.58256853344E+03  0.60103418609E+03  0.00000000000E+00 0. -1.
          2    1    6    6  502    0  0.34192182520E+03 -0.28472254960E+03 -0.16257203769E+02  0.44524348560E+03  0.00000000000E+00 0. -1.
          3    1    5    5  503    0  0.29362107598E+01 -0.43682061103E+01  0.46187087825E+02  0.46486015532E+02  0.00000000000E+00 0. -1.
         -2    1    5    5    0  503 -0.17740511762E+03  0.39709689860E+02  0.28867431500E+03  0.34114849460E+03  0.00000000000E+00 0.  1.
         -1    1    6    6    0  502  0.22654749587E+03 -0.20679126113E+03  0.54198755986E+02  0.31148659476E+03  0.00000000000E+00 0.  1.
<mgrwt>
<rscale>  0 0.27019433E+04</rscale>
<asrwt>0</asrwt>
<pdfrwt beam="1">  1        1 0.34740739E+00 0.27019433E+04</pdfrwt>
<pdfrwt beam="2">  1       -1 0.12434453E+00 0.27019433E+04</pdfrwt>
<totfact> 0.98381854E-01</totfact>
</mgrwt>
</event>
<event>
12    1  0.1599266E-007  0.1557474E+04  0.7818608E-02  0.8847108E-01
         -1   -1    0    0    0  501 -0.00000000000E+00  0.00000000000E+00  0.10745913633E+04  0.10745913633E+04  0.00000000000E+00 0.  1.
          1   -1    0    0  501    0  0.00000000000E+00 -0.00000000000E+00 -0.56433636191E+03  0.56433636191E+03  0.00000000000E+00 0. -1.
         23    2    1    2    0    0  0.36011877360E+03 -0.36435210785E+03  0.16399639201E+03  0.54579475288E+03  0.92515436963E+02 0.  0.
        254    2    1    2    0    0 -0.36011877360E+03  0.36435210785E+03  0.34625860941E+03  0.10931329724E+04  0.90144699293E+03 0.  0.
        -24    2    4    4    0    0 -0.14032956669E+03  0.63319009895E+03  0.10589507842E+03  0.66214064105E+03  0.81205739962E+02 0.  0.
         24    2    4    4    0    0 -0.21978920692E+03 -0.26883799110E+03  0.24036353099E+03  0.43099233130E+03  0.86015124700E+02 0.  0.
         13    1    3    3    0    0  0.20863475706E+03 -0.18775968320E+03  0.13458370967E+03  0.31127951330E+03  0.00000000000E+00 0.  1.
        -13    1    3    3    0    0  0.15148401654E+03 -0.17659242466E+03  0.29412682340E+02  0.23451523958E+03  0.00000000000E+00 0. -1.
          4    1    6    6  502    0 -0.19561930782E+03 -0.20795960549E+03  0.15988253351E+03  0.32722551189E+03  0.00000000000E+00 0. -1.
          1    1    5    5  503    0 -0.14804676162E+03  0.58819721848E+03  0.87064270900E+02  0.61275933181E+03  0.00000000000E+00 0. -1.
         -2    1    5    5    0  503  0.77171949292E+01  0.44992880474E+02  0.18830807518E+02  0.49381309245E+02  0.00000000000E+00 0.  1.
         -3    1    6    6    0  502 -0.24169899095E+02 -0.60878385606E+02  0.80480997476E+02  0.10376681941E+03  0.00000000000E+00 0.  1.
<mgrwt>
<rscale>  0 0.15574736E+04</rscale>
<asrwt>0</asrwt>
<pdfrwt beam="1">  1        1 0.86820979E-01 0.15574736E+04</pdfrwt>
<pdfrwt beam="2">  1       -1 0.16532175E+00 0.15574736E+04</pdfrwt>
<totfact> 0.95965628E+00</totfact>
</mgrwt>
</event>
<event>
12    1  0.1599266E-007  0.3630267E+04  0.7818608E-02  0.8083594E-01
          1   -1    0    0  501    0  0.00000000000E+00  0.00000000000E+00  0.31798685110E+04  0.31798685110E+04  0.00000000000E+00 0. -1.
         -1   -1    0    0    0  501 -0.00000000000E+00 -0.00000000000E+00 -0.10361147923E+04  0.10361147923E+04  0.00000000000E+00 0.  1.
         23    2    1    2    0    0  0.14260234611E+04  0.56188141736E+01 -0.71507334578E+02  0.14308037573E+04  0.92258389863E+02 0.  0.
        254    2    1    2    0    0 -0.14260234611E+04 -0.56188141736E+01  0.22152610533E+04  0.27851795459E+04  0.90347611272E+03 0.  0.
        -24    2    4    4    0    0 -0.72631139852E+03 -0.95048032019E+02  0.18408852780E+04  0.19828636856E+04  0.79545035475E+02 0.  0.
         24    2    4    4    0    0 -0.69971206255E+03  0.89429217845E+02  0.37437577522E+03  0.80231586033E+03  0.77194320931E+02 0.  0.
         11    1    3    3    0    0  0.94278825246E+03 -0.18210441472E+02 -0.85050176449E+02  0.94679186819E+03  0.00000000000E+00 0.  1.
        -11    1    3    3    0    0  0.48323520861E+03  0.23829255646E+02  0.13542841871E+02  0.48401188914E+03  0.00000000000E+00 0. -1.
          2    1    6    6  502    0 -0.54937869415E+03  0.37922004831E+02  0.29283233132E+03  0.62370329669E+03  0.00000000000E+00 0. -1.
          3    1    5    5  503    0 -0.47645174633E+03 -0.76680113142E+02  0.13029765896E+04  0.13894725976E+04  0.00000000000E+00 0. -1.
         -4    1    5    5    0  503 -0.24985965219E+03 -0.18367918877E+02  0.53790868843E+03  0.59339108801E+03  0.00000000000E+00 0.  1.
         -1    1    6    6    0  502 -0.15033336840E+03  0.51507213015E+02  0.81543443900E+02  0.17861256364E+03  0.00000000000E+00 0.  1.
<mgrwt>
<rscale>  0 0.36302665E+04</rscale>
<asrwt>0</asrwt>
<pdfrwt beam="1">  1        1 0.48921054E+00 0.36302665E+04</pdfrwt>
<pdfrwt beam="2">  1       -1 0.15940228E+00 0.36302665E+04</pdfrwt>
<totfact> 0.10478173E-01</totfact>
</mgrwt>
</event>
<event>
12    1  0.1599266E-007  0.1548000E+04  0.7818608E-02  0.8853146E-01
         -2   -1    0    0    0  501 -0.00000000000E+00  0.00000000000E+00  0.34723181066E+03  0.34723181066E+03  0.00000000000E+00 0. -1.
          2   -1    0    0  501    0  0.00000000000E+00 -0.00000000000E+00 -0.17252907375E+04  0.17252907375E+04  0.00000000000E+00 0.  1.
         23    2    1    2    0    0  0.32727960692E+03  0.37889785277E+03 -0.32915876457E+03  0.60596709581E+03  0.90416287145E+02 0.  0.
        254    2    1    2    0    0 -0.32727960692E+03 -0.37889785277E+03 -0.10489001623E+04  0.14665554523E+04  0.89438125006E+03 0.  0.
        -24    2    4    4    0    0  0.17558326196E+03 -0.79345400537E+02 -0.79774582299E+03  0.82461317670E+03  0.80394767426E+02 0.  0.
         24    2    4    4    0    0 -0.50286286888E+03 -0.29955245223E+03 -0.25115433927E+03  0.64194227563E+03  0.80054022875E+02 0.  0.
         11    1    3    3    0    0  0.22618799745E+02  0.11723165886E+01 -0.79061496141E+01  0.23989406617E+02  0.00000000000E+00 0.  1.
        -11    1    3    3    0    0  0.30466080717E+03  0.37772553618E+03 -0.32125261496E+03  0.58197768920E+03  0.00000000000E+00 0. -1.
          4    1    6    6  502    0 -0.19523323501E+03 -0.15289155377E+03 -0.79882459304E+02  0.26052456808E+03  0.00000000000E+00 0. -1.
          3    1    5    5  503    0  0.94426093347E+02 -0.29806140963E+02 -0.55770057414E+03  0.56642265451E+03  0.00000000000E+00 0. -1.
         -4    1    5    5    0  503  0.81157168613E+02 -0.49539259574E+02 -0.24004524885E+03  0.25819052219E+03  0.00000000000E+00 0.  1.
         -3    1    6    6    0  502 -0.30762963387E+03 -0.14666089845E+03 -0.17127187996E+03  0.38141770756E+03  0.00000000000E+00 0.  1.
<mgrwt>
<rscale>  0 0.15479998E+04</rscale>
<asrwt>0</asrwt>
<pdfrwt beam="1">  1        2 0.26542934E+00 0.15479998E+04</pdfrwt>
<pdfrwt beam="2">  1       -2 0.53420279E-01 0.15479998E+04</pdfrwt>
<totfact> 0.30185535E+01</totfact>
</mgrwt>
</event>
<event>
12    1  0.1599266E-007  0.2674148E+04  0.7818608E-02  0.8343442E-01
          2   -1    0    0  501    0  0.00000000000E+00  0.00000000000E+00  0.25577229194E+04  0.25577229194E+04  0.00000000000E+00 0. -1.
         -2   -1    0    0    0  501 -0.00000000000E+00 -0.00000000000E+00 -0.69896829456E+03  0.69896829456E+03  0.00000000000E+00 0.  1.
         23    2    1    2    0    0  0.94500036029E+03 -0.29628748772E+03  0.41138573692E+02  0.99547511570E+03  0.92012865390E+02 0.  0.
        254    2    1    2    0    0 -0.94500036029E+03  0.29628748772E+03  0.18176160511E+04  0.22612160983E+04  0.91025171095E+03 0.  0.
        -24    2    4    4    0    0 -0.65591315555E+03 -0.56617555942E+02  0.16332724414E+04  0.17627924810E+04  0.80192568065E+02 0.  0.
         24    2    4    4    0    0 -0.28908720474E+03  0.35290504366E+03  0.18434360978E+03  0.49842361729E+03  0.79562265024E+02 0.  0.
         13    1    3    3    0    0  0.22623524900E+03 -0.50154472082E+02 -0.23895707264E+02  0.23295678523E+03  0.00000000000E+00 0.  1.
        -13    1    3    3    0    0  0.71876511129E+03 -0.24613301563E+03  0.65034280956E+02  0.76251833047E+03  0.00000000000E+00 0. -1.
          4    1    6    6  502    0 -0.12498996323E+03  0.21508873298E+03  0.10133140819E+03  0.26861442301E+03  0.00000000000E+00 0. -1.
          1    1    5    5  503    0 -0.64854634883E+03 -0.56266300125E+02  0.16290272875E+04  0.17542828069E+04  0.00000000000E+00 0. -1.
         -2    1    5    5    0  503 -0.73668067234E+01 -0.35125581671E+00  0.42451538984E+01  0.85096741165E+01  0.00000000000E+00 0.  1.
         -3    1    6    6    0  502 -0.16409724151E+03  0.13781631068E+03  0.83012201589E+02  0.22980919428E+03  0.00000000000E+00 0.  1.
<mgrwt>
<rscale>  0 0.26741483E+04</rscale>
<asrwt>0</asrwt>
<pdfrwt beam="1">  1        2 0.39349583E+00 0.26741483E+04</pdfrwt>
<pdfrwt beam="2">  1       -2 0.10753359E+00 0.26741483E+04</pdfrwt>
<totfact> 0.19654564E+00</totfact>
</mgrwt>
</event>
<event>
12    1  0.1599266E-007  0.1230604E+04  0.7818608E-02  0.9086483E-01
         -1   -1    0    0    0  501 -0.00000000000E+00  0.00000000000E+00  0.58961219558E+03  0.58961219558E+03  0.00000000000E+00 0.  1.
          1   -1    0    0  501    0  0.00000000000E+00 -0.00000000000E+00 -0.64211105458E+03  0.64211105458E+03  0.00000000000E+00 0. -1.
         23    2    1    2    0    0  0.89872906581E+02  0.20839513844E+02  0.23852045903E+03  0.27165192495E+03  0.91604226311E+02 0.  0.
        254    2    1    2    0    0 -0.89872906581E+02 -0.20839513844E+02 -0.29101931803E+03  0.96007132522E+03  0.91023803555E+03 0.  0.
        -24    2    4    4    0    0  0.34042837637E+03  0.22201831968E+03 -0.13599511056E+03  0.43600114660E+03  0.80116889800E+02 0.  0.
         24    2    4    4    0    0 -0.43030128295E+03 -0.24285783352E+03 -0.15502420748E+03  0.52407017862E+03  0.80485562713E+02 0.  0.
         13    1    3    3    0    0  0.43744332064E+02 -0.94120293248E+01  0.19855050216E+03  0.20352998499E+03  0.00000000000E+00 0.  1.
        -13    1    3    3    0    0  0.46128574517E+02  0.30251543169E+02  0.39969956871E+02  0.68121939955E+02  0.00000000000E+00 0. -1.
          2    1    6    6  502    0 -0.26062342549E+03 -0.14162621607E+03 -0.13364309466E+03  0.32533526053E+03  0.00000000000E+00 0. -1.
          3    1    5    5  503    0  0.32484129255E+03  0.22795289653E+03 -0.12516084963E+03  0.41611251683E+03  0.00000000000E+00 0. -1.
         -2    1    5    5    0  503  0.15587083818E+02 -0.59345768516E+01 -0.10834260921E+02  0.19888629768E+02  0.00000000000E+00 0.  1.
         -1    1    6    6    0  502 -0.16967785746E+03 -0.10123161745E+03 -0.21381112813E+02  0.19873491809E+03  0.00000000000E+00 0.  1.
<mgrwt>
<rscale>  0 0.12306039E+04</rscale>
<asrwt>0</asrwt>
<pdfrwt beam="1">  1        1 0.98786316E-01 0.12306039E+04</pdfrwt>
<pdfrwt beam="2">  1       -1 0.90709569E-01 0.12306039E+04</pdfrwt>
<totfact> 0.36377577E+01</totfact>
</mgrwt>
</event>
<event>
12    1  0.1632745E-007  0.2551442E+04  0.7818608E-02  0.8384885E-01
          2   -1    0    0  501    0  0.00000000000E+00  0.00000000000E+00  0.23209592386E+04  0.23209592386E+04  0.00000000000E+00 0. -1.
         -2   -1    0    0    0  501 -0.00000000000E+00 -0.00000000000E+00 -0.70120347419E+03  0.70120347419E+03  0.00000000000E+00 0.  1.
         23    2    1    2    0    0  0.10846282567E+03  0.60537348520E+03 -0.38958927512E+03  0.73387068403E+03  0.92439907320E+02 0.  0.
        254    2    1    2    0    0 -0.10846282567E+03 -0.60537348520E+03  0.20093450396E+04  0.22882920288E+04  0.90585411622E+03 0.  0.
        -24    2    4    4    0    0 -0.73009442373E+02 -0.83740940696E+03  0.15837031958E+04  0.17946461822E+04  0.77808827203E+02 0.  0.
         24    2    4    4    0    0 -0.35453383295E+02  0.23203592177E+03  0.42564184379E+03  0.49364584655E+03  0.86125671264E+02 0.  0.
         11    1    3    3    0    0  0.11107830610E+03  0.48647562594E+03 -0.28018836430E+03  0.57227829262E+03  0.00000000000E+00 0. -1.
        -11    1    3    3    0    0 -0.26154804292E+01  0.11889785925E+03 -0.10940091082E+03  0.16159239141E+03  0.00000000000E+00 0.  1.
          2    1    6    6  502    0 -0.28606421517E+02  0.21902821683E+03  0.33142460805E+03  0.39828878712E+03  0.00000000000E+00 0. -1.
          1    1    5    5  503    0 -0.47259759964E+02 -0.77695931294E+03  0.14537482592E+04  0.16490249422E+04  0.00000000000E+00 0. -1.
         -2    1    5    5    0  503 -0.25749682409E+02 -0.60450094026E+02  0.12995493654E+03  0.14562124001E+03  0.00000000000E+00 0.  1.
         -1    1    6    6    0  502 -0.68469617778E+01  0.13007704937E+02  0.94217235735E+02  0.95357059429E+02  0.00000000000E+00 0.  1.
<mgrwt>
<rscale>  0 0.25514425E+04</rscale>
<asrwt>0</asrwt>
<pdfrwt beam="1">  1        2 0.35707065E+00 0.25514425E+04</pdfrwt>
<pdfrwt beam="2">  1       -2 0.10787746E+00 0.25514425E+04</pdfrwt>
<totfact> 0.26976083E+00</totfact>
</mgrwt>
</event>
<event>
12    1  0.1599266E-007  0.2313166E+04  0.7818608E-02  0.8472748E-01
          1   -1    0    0  501    0  0.00000000000E+00  0.00000000000E+00  0.84260812852E+03  0.84260812852E+03  0.00000000000E+00 0. -1.
         -1   -1    0    0    0  501 -0.00000000000E+00 -0.00000000000E+00 -0.15875525555E+04  0.15875525555E+04  0.00000000000E+00 0.  1.
         23    2    1    2    0    0 -0.86736696808E+03  0.29763746935E+03  0.44079763112E+02  0.92580794675E+03  0.11943118641E+03 0.  0.
        254    2    1    2    0    0  0.86736696808E+03 -0.29763746935E+03 -0.78902419013E+03  0.15043527373E+04  0.89420605296E+03 0.  0.
        -24    2    4    4    0    0  0.82286567900E+01  0.98065785064E+02 -0.49565166775E+03  0.51080804759E+03  0.74630266950E+02 0.  0.
         24    2    4    4    0    0  0.85913831129E+03 -0.39570325441E+03 -0.29337252238E+03  0.99354468971E+03  0.79774119242E+02 0.  0.
         11    1    3    3    0    0 -0.22291695498E+03  0.71778334511E+02  0.63517645731E+02  0.24264910764E+03  0.00000000000E+00 0.  1.
        -11    1    3    3    0    0 -0.64445001310E+03  0.22585913483E+03 -0.19437882619E+02  0.68315883911E+03  0.00000000000E+00 0. -1.
          4    1    6    6  502    0  0.64825321315E+03 -0.27421663872E+03 -0.24589862242E+03  0.74558240713E+03  0.00000000000E+00 0. -1.
          3    1    5    5  503    0 -0.29511711069E+02  0.70847059161E+02 -0.32340593272E+03  0.33238779190E+03  0.00000000000E+00 0. -1.
         -4    1    5    5    0  503  0.37740367859E+02  0.27218725904E+02 -0.17224573503E+03  0.17842025570E+03  0.00000000000E+00 0.  1.
         -3    1    6    6    0  502  0.21088509813E+03 -0.12148661569E+03 -0.47473899958E+02  0.24796228258E+03  0.00000000000E+00 0.  1.
<mgrwt>
<rscale>  0 0.23131664E+04</rscale>
<asrwt>0</asrwt>
<pdfrwt beam="1">  1        1 0.12963202E+00 0.23131664E+04</pdfrwt>
<pdfrwt beam="2">  1       -1 0.24423885E+00 0.23131664E+04</pdfrwt>
<totfact> 0.13949133E+00</totfact>
</mgrwt>
</event>
<event>
12    1  0.1599266E-007  0.1378673E+04  0.7818608E-02  0.8969402E-01
         -1   -1    0    0    0  501 -0.00000000000E+00  0.00000000000E+00  0.36795992774E+03  0.36795992774E+03  0.00000000000E+00 0.  1.
          1   -1    0    0  501    0  0.00000000000E+00 -0.00000000000E+00 -0.12914039118E+04  0.12914039118E+04  0.00000000000E+00 0. -1.
         23    2    1    2    0    0  0.34042775000E+03  0.73803510598E+02 -0.49589022646E+02  0.36244216799E+03  0.86989900703E+02 0.  0.
        254    2    1    2    0    0 -0.34042775000E+03 -0.73803510598E+02 -0.87385496141E+03  0.12969216716E+04  0.89277394530E+03 0.  0.
        -24    2    4    4    0    0 -0.10535814862E+03 -0.25503807211E+03  0.75301695129E+02  0.29926036682E+03  0.87986727144E+02 0.  0.
         24    2    4    4    0    0 -0.23506960138E+03  0.18123456151E+03 -0.94915665654E+03  0.99766130473E+03  0.79536384967E+02 0.  0.
         13    1    3    3    0    0  0.12561492250E+03  0.43758513449E+02  0.20296212859E+02  0.13455798940E+03  0.00000000000E+00 0. -1.
        -13    1    3    3    0    0  0.21481282750E+03  0.30044997148E+02 -0.69885235504E+02  0.22788417859E+03  0.00000000000E+00 0.  1.
          4    1    6    6  502    0 -0.14155062928E+03  0.94020178991E+02 -0.65936406981E+03  0.68090920927E+03  0.00000000000E+00 0. -1.
          1    1    5    5  503    0 -0.91064188823E+02 -0.11203305197E+03  0.53140891678E+02  0.15384422507E+03  0.00000000000E+00 0. -1.
         -2    1    5    5    0  503 -0.14293959802E+02 -0.14300502013E+03  0.22160803451E+02  0.14541614174E+03  0.00000000000E+00 0.  1.
         -3    1    6    6    0  502 -0.93518972096E+02  0.87214382516E+02 -0.28979258673E+03  0.31675209547E+03  0.00000000000E+00 0.  1.
<mgrwt>
<rscale>  0 0.13786731E+04</rscale>
<asrwt>0</asrwt>
<pdfrwt beam="1">  1        1 0.19867753E+00 0.13786731E+04</pdfrwt>
<pdfrwt beam="2">  1       -1 0.56609219E-01 0.13786731E+04</pdfrwt>
<totfact> 0.28299376E+01</totfact>
</mgrwt>
</event>
<event>
12    1  0.1599266E-007  0.1432636E+04  0.7818608E-02  0.8930528E-01
          2   -1    0    0  501    0  0.00000000000E+00  0.00000000000E+00  0.80914533484E+03  0.80914533484E+03  0.00000000000E+00 0. -1.
         -2   -1    0    0    0  501 -0.00000000000E+00 -0.00000000000E+00 -0.63414023902E+03  0.63414023902E+03  0.00000000000E+00 0.  1.
         23    2    1    2    0    0 -0.26211149970E+01  0.36604616172E+03  0.31431164936E+03  0.49094788552E+03  0.90781884868E+02 0.  0.
        254    2    1    2    0    0  0.26211149970E+01 -0.36604616172E+03 -0.13930655354E+03  0.95233768835E+03  0.86806917584E+03 0.  0.
        -24    2    4    4    0    0 -0.37223113519E+03 -0.44787208053E+02 -0.22512982716E+03  0.44476495673E+03  0.81058717313E+02 0.  0.
         24    2    4    4    0    0  0.37485225018E+03 -0.32125895366E+03  0.85823273615E+02  0.50757273162E+03  0.80888310716E+02 0.  0.
         13    1    3    3    0    0  0.95016482809E+00  0.36969007098E+03  0.30113019290E+03  0.47681342731E+03  0.00000000000E+00 0. -1.
        -13    1    3    3    0    0 -0.35712798251E+01 -0.36439092591E+01  0.13181456464E+02  0.14134458206E+02  0.00000000000E+00 0.  1.
          2    1    6    6  502    0  0.53055300354E+02 -0.14214283330E+02  0.20022921466E+01  0.54962895849E+02  0.00000000000E+00 0. -1.
          1    1    5    5  503    0 -0.14249553494E+03 -0.51559094321E+02 -0.11303675056E+03  0.18905190996E+03  0.00000000000E+00 0. -1.
         -2    1    5    5    0  503 -0.22973560025E+03  0.67718862683E+01 -0.11209307660E+03  0.25571304677E+03  0.00000000000E+00 0.  1.
         -1    1    6    6    0  502  0.32179694983E+03 -0.30704467033E+03  0.83820981469E+02  0.45260983577E+03  0.00000000000E+00 0.  1.
<mgrwt>
<rscale>  0 0.14326362E+04</rscale>
<asrwt>0</asrwt>
<pdfrwt beam="1">  1        2 0.12448390E+00 0.14326362E+04</pdfrwt>
<pdfrwt beam="2">  1       -2 0.97560037E-01 0.14326362E+04</pdfrwt>
<totfact> 0.28853336E+01</totfact>
</mgrwt>
</event>
<event>
12    1  0.1599266E-007  0.2414475E+04  0.7818608E-02  0.8434104E-01
         -2   -1    0    0    0  501 -0.00000000000E+00  0.00000000000E+00  0.23206762978E+04  0.23206762978E+04  0.00000000000E+00 0. -1.
          2   -1    0    0  501    0  0.00000000000E+00 -0.00000000000E+00 -0.62801630327E+03  0.62801630327E+03  0.00000000000E+00 0.  1.
         23    2    1    2    0    0  0.86336395647E+03 -0.45099027103E+02  0.14122688748E+04  0.16584236749E+04  0.91839354308E+02 0.  0.
        254    2    1    2    0    0 -0.86336395647E+03  0.45099027103E+02  0.28039111972E+03  0.12902689262E+04  0.91582939368E+03 0.  0.
        -24    2    4    4    0    0 -0.62350945157E+03 -0.39046009849E+03  0.26922501970E+03  0.78748956990E+03  0.80215875978E+02 0.  0.
         24    2    4    4    0    0 -0.23985450490E+03  0.43555912560E+03  0.11166100023E+02  0.50277935631E+03  0.73623799985E+02 0.  0.
         11    1    3    3    0    0  0.17883820148E+03  0.27797493920E+02  0.29897261406E+03  0.34948594669E+03  0.00000000000E+00 0.  1.
        -11    1    3    3    0    0  0.68452575499E+03 -0.72896521023E+02  0.11132962608E+04  0.13089377282E+04  0.00000000000E+00 0. -1.
          2    1    6    6  502    0 -0.32186727562E+02  0.64546246735E+02 -0.24336816787E+02  0.76121508459E+02  0.00000000000E+00 0. -1.
          3    1    5    5  503    0 -0.63151457177E+02 -0.40561770955E+02  0.54804751941E+02  0.92935056044E+02  0.00000000000E+00 0. -1.
         -4    1    5    5    0  503 -0.56035799439E+03 -0.34989832754E+03  0.21442026776E+03  0.69455451386E+03  0.00000000000E+00 0.  1.
         -1    1    6    6    0  502 -0.20766777734E+03  0.37101287886E+03  0.35502916810E+02  0.42665784785E+03  0.00000000000E+00 0.  1.
<mgrwt>
<rscale>  0 0.24144751E+04</rscale>
<asrwt>0</asrwt>
<pdfrwt beam="1">  1        2 0.96617894E-01 0.24144751E+04</pdfrwt>
<pdfrwt beam="2">  1       -2 0.35702712E+00 0.24144751E+04</pdfrwt>
<totfact> 0.59221936E-01</totfact>
</mgrwt>
</event>
<event>
12    1  0.1599266E-007  0.2170201E+04  0.7818608E-02  0.8530934E-01
          1   -1    0    0  501    0  0.00000000000E+00  0.00000000000E+00  0.85089968688E+03  0.85089968688E+03  0.00000000000E+00 0. -1.
         -1   -1    0    0    0  501 -0.00000000000E+00 -0.00000000000E+00 -0.13837628497E+04  0.13837628497E+04  0.00000000000E+00 0.  1.
         23    2    1    2    0    0 -0.14859624815E+03  0.52338312269E+03  0.50992065697E+03  0.75126742407E+03  0.91503704779E+02 0.  0.
        254    2    1    2    0    0  0.14859624815E+03 -0.52338312269E+03 -0.10427838198E+04  0.14833951126E+04  0.90390941303E+03 0.  0.
        -24    2    4    4    0    0  0.51645060231E+03 -0.35074587730E+03 -0.52034959075E+03  0.81680045626E+03  0.81580596252E+02 0.  0.
         24    2    4    4    0    0 -0.36785435417E+03 -0.17263724539E+03 -0.52243422909E+03  0.66659465629E+03  0.79312468776E+02 0.  0.
         11    1    3    3    0    0 -0.46425180780E+02  0.31816653034E+03  0.31903419830E+03  0.45295480803E+03  0.00000000000E+00 0. -1.
        -11    1    3    3    0    0 -0.10217106737E+03  0.20521659236E+03  0.19088645867E+03  0.29831261604E+03  0.00000000000E+00 0.  1.
          4    1    6    6  502    0  0.41217952814E+01 -0.34077627017E+01 -0.63010994091E+01  0.82647381529E+01  0.00000000000E+00 0. -1.
          1    1    5    5  503    0  0.76637304233E+02 -0.88589381015E+02 -0.85128618284E+02  0.14480413143E+03  0.00000000000E+00 0. -1.
         -2    1    5    5    0  503  0.43981329808E+03 -0.26215649629E+03 -0.43522097246E+03  0.67199632483E+03  0.00000000000E+00 0.  1.
         -3    1    6    6    0  502 -0.37197614945E+03 -0.16922948269E+03 -0.51613312968E+03  0.65832991814E+03  0.00000000000E+00 0.  1.
<mgrwt>
<rscale>  0 0.21702013E+04</rscale>
<asrwt>0</asrwt>
<pdfrwt beam="1">  1        1 0.13090764E+00 0.21702013E+04</pdfrwt>
<pdfrwt beam="2">  1       -1 0.21288659E+00 0.21702013E+04</pdfrwt>
<totfact> 0.22456586E+00</totfact>
</mgrwt>
</event>
<event>
12    1  0.1599266E-007  0.1499987E+04  0.7818608E-02  0.8884461E-01
          2   -1    0    0  501    0  0.00000000000E+00  0.00000000000E+00  0.31300660558E+04  0.31300660558E+04  0.00000000000E+00 0. -1.
         -2   -1    0    0    0  501 -0.00000000000E+00 -0.00000000000E+00 -0.17970559879E+03  0.17970559879E+03  0.00000000000E+00 0.  1.
         23    2    1    2    0    0 -0.39437305751E+03  0.22736644247E+03  0.64480940518E+03  0.79459767001E+03  0.91546056892E+02 0.  0.
        254    2    1    2    0    0  0.39437305751E+03 -0.22736644247E+03  0.23055510518E+04  0.25151739845E+04  0.89627502054E+03 0.  0.
        -24    2    4    4    0    0  0.33397835061E+02 -0.29030338908E+02 -0.62143418816E+02  0.11050240175E+03  0.79942481367E+02 0.  0.
         24    2    4    4    0    0  0.36097522244E+03 -0.19833610356E+03  0.23676944706E+04  0.24046715828E+04  0.82631675051E+02 0.  0.
         13    1    3    3    0    0 -0.97410035770E+02  0.43933831285E+02  0.93008727791E+02  0.14166693349E+03  0.00000000000E+00 0. -1.
        -13    1    3    3    0    0 -0.29696302174E+03  0.18343261118E+03  0.55180067739E+03  0.65293073652E+03  0.00000000000E+00 0.  1.
          2    1    6    6  502    0  0.14577173417E+03 -0.36447896950E+02  0.90649240995E+03  0.91886143513E+03  0.00000000000E+00 0. -1.
          1    1    5    5  503    0  0.39328212223E+02 -0.45069512036E+02 -0.16934000073E+02  0.62166949019E+02  0.00000000000E+00 0. -1.
         -2    1    5    5    0  503 -0.59303771622E+01  0.16039173128E+02 -0.45209418743E+02  0.48335452734E+02  0.00000000000E+00 0.  1.
         -1    1    6    6    0  502  0.21520348827E+03 -0.16188820661E+03  0.14612020606E+04  0.14858101476E+04  0.00000000000E+00 0.  1.
<mgrwt>
<rscale>  0 0.14999872E+04</rscale>
<asrwt>0</asrwt>
<pdfrwt beam="1">  1        2 0.48154858E+00 0.14999872E+04</pdfrwt>
<pdfrwt beam="2">  1       -2 0.27647017E-01 0.14999872E+04</pdfrwt>
<totfact> 0.16745234E+01</totfact>
</mgrwt>
</event>
<event>
12    1  0.1599266E-007  0.2241130E+04  0.7818608E-02  0.8501501E-01
         -1   -1    0    0    0  501 -0.00000000000E+00  0.00000000000E+00  0.11895492099E+04  0.11895492099E+04  0.00000000000E+00 0.  1.
          1   -1    0    0  501    0  0.00000000000E+00 -0.00000000000E+00 -0.10555817172E+04  0.10555817172E+04  0.00000000000E+00 0. -1.
         23    2    1    2    0    0 -0.74581153261E+03 -0.23370667415E+03  0.57262694282E+03  0.97376513582E+03  0.97279352231E+02 0.  0.
        254    2    1    2    0    0  0.74581153261E+03  0.23370667415E+03 -0.43865945013E+03  0.12713657913E+04  0.90171792171E+03 0.  0.
        -24    2    4    4    0    0  0.31062396674E+02  0.31784891099E+03  0.12563616425E+03  0.35331552144E+03  0.83991721129E+02 0.  0.
         24    2    4    4    0    0  0.71474913594E+03 -0.84142236835E+02 -0.56429561437E+03  0.91805026984E+03  0.80252814346E+02 0.  0.
         13    1    3    3    0    0 -0.57017981829E+03 -0.20956194300E+03  0.47677976831E+03  0.77223065247E+03  0.00000000000E+00 0.  1.
        -13    1    3    3    0    0 -0.17563171432E+03 -0.24144731148E+02  0.95847174513E+02  0.20153448335E+03  0.00000000000E+00 0. -1.
          2    1    6    6  502    0  0.70794877974E+03 -0.84343579028E+02 -0.56679445422E+03  0.91080254028E+03  0.00000000000E+00 0. -1.
          3    1    5    5  503    0 -0.16656623067E+02  0.22609952457E+03  0.82352816854E+02  0.24120618679E+03  0.00000000000E+00 0. -1.
         -4    1    5    5    0  503  0.47719019741E+02  0.91749386419E+02  0.43283347394E+02  0.11210933465E+03  0.00000000000E+00 0.  1.
         -1    1    6    6    0  502  0.68003562031E+01  0.20134219331E+00  0.24988398466E+01  0.72477295581E+01  0.00000000000E+00 0.  1.
<mgrwt>
<rscale>  0 0.22411304E+04</rscale>
<asrwt>0</asrwt>
<pdfrwt beam="1">  1        1 0.16239719E+00 0.22411304E+04</pdfrwt>
<pdfrwt beam="2">  1       -1 0.18300757E+00 0.22411304E+04</pdfrwt>
<totfact> 0.24654887E+00</totfact>
</mgrwt>
</event>
<event>
12    1  0.1599266E-007  0.2037405E+04  0.7818608E-02  0.8589330E-01
         -2   -1    0    0    0  501 -0.00000000000E+00  0.00000000000E+00  0.57842739498E+03  0.57842739498E+03  0.00000000000E+00 0. -1.
          2   -1    0    0  501    0  0.00000000000E+00 -0.00000000000E+00 -0.17940968659E+04  0.17940968659E+04  0.00000000000E+00 0.  1.
         23    2    1    2    0    0  0.24836842717E+02  0.74135728743E+01 -0.14996796221E+04  0.15026310689E+04  0.90494919913E+02 0.  0.
        254    2    1    2    0    0 -0.24836842717E+02 -0.74135728743E+01  0.28401015121E+03  0.86989319194E+03  0.82181541089E+03 0.  0.
        -24    2    4    4    0    0  0.37374068126E+03 -0.11087053239E+03  0.86295004364E+02  0.40717563914E+03  0.79817301068E+02 0.  0.
         24    2    4    4    0    0 -0.39857752398E+03  0.10345695951E+03  0.19771514684E+03  0.46271755280E+03  0.73816456720E+02 0.  0.
         11    1    3    3    0    0  0.25156419571E+02 -0.25490602332E+02 -0.25352492078E+03  0.25604199208E+03  0.00000000000E+00 0. -1.
        -11    1    3    3    0    0 -0.31957685422E+00  0.32904175206E+02 -0.12461547013E+04  0.12465890769E+04  0.00000000000E+00 0.  1.
          4    1    6    6  502    0 -0.18030054665E+03  0.83407277527E+02  0.82767597214E+02  0.21521044634E+03  0.00000000000E+00 0. -1.
          3    1    5    5  503    0  0.33688714299E+03 -0.12336162477E+03  0.82100172027E+02  0.36803732939E+03  0.00000000000E+00 0. -1.
         -4    1    5    5    0  503  0.36853538274E+02  0.12491092377E+02  0.41948323362E+01  0.39138309754E+02  0.00000000000E+00 0.  1.
         -3    1    6    6    0  502 -0.21827697733E+03  0.20049681988E+02  0.11494754963E+03  0.24750710646E+03  0.00000000000E+00 0.  1.
<mgrwt>
<rscale>  0 0.20374050E+04</rscale>
<asrwt>0</asrwt>
<pdfrwt beam="1">  1        2 0.27601490E+00 0.20374050E+04</pdfrwt>
<pdfrwt beam="2">  1       -2 0.88988829E-01 0.20374050E+04</pdfrwt>
<totfact> 0.87348532E+00</totfact>
</mgrwt>
</event>
<event>
12    1  0.1599266E-007  0.1114534E+04  0.7818608E-02  0.9191141E-01
          1   -1    0    0  501    0  0.00000000000E+00  0.00000000000E+00  0.92207434511E+03  0.92207434511E+03  0.00000000000E+00 0. -1.
         -1   -1    0    0    0  501 -0.00000000000E+00 -0.00000000000E+00 -0.33679095260E+03  0.33679095260E+03  0.00000000000E+00 0.  1.
         23    2    1    2    0    0 -0.12808358258E+03  0.31403445881E+02  0.21392216934E+03  0.26763260852E+03  0.92048563631E+02 0.  0.
        254    2    1    2    0    0  0.12808358258E+03 -0.31403445881E+02  0.37136122317E+03  0.99123268920E+03  0.90952817742E+03 0.  0.
        -24    2    4    4    0    0  0.14028184083E+03 -0.45657656183E+03  0.16601116627E+03  0.51191225519E+03  0.79707578091E+02 0.  0.
         24    2    4    4    0    0 -0.12198258251E+02  0.42517311595E+03  0.20535005690E+03  0.47932043401E+03  0.81599366149E+02 0.  0.
         13    1    3    3    0    0 -0.47712078104E+02  0.73225798885E+01  0.13142920159E+02  0.50027981405E+02  0.00000000000E+00 0.  1.
        -13    1    3    3    0    0 -0.80371504479E+02  0.24080865993E+02  0.20077924918E+03  0.21760462711E+03  0.00000000000E+00 0. -1.
          4    1    6    6  502    0  0.21144284642E+02  0.11176753249E+03  0.84791041672E+02  0.14187523688E+03  0.00000000000E+00 0. -1.
          3    1    5    5  503    0  0.31883916451E+02 -0.33434016001E+02  0.54018232909E+01  0.46514484294E+02  0.00000000000E+00 0. -1.
         -4    1    5    5    0  503  0.10839792438E+03 -0.42314254583E+03  0.16060934298E+03  0.46539777090E+03  0.00000000000E+00 0.  1.
         -3    1    6    6    0  502 -0.33342542894E+02  0.31340558346E+03  0.12055901523E+03  0.33744519713E+03  0.00000000000E+00 0.  1.
<mgrwt>
<rscale>  0 0.11145336E+04</rscale>
<asrwt>0</asrwt>
<pdfrwt beam="1">  1        1 0.14185759E+00 0.11145336E+04</pdfrwt>
<pdfrwt beam="2">  1       -1 0.51813993E-01 0.11145336E+04</pdfrwt>
<totfact> 0.65141274E+01</totfact>
</mgrwt>
</event>
<event>
12    1  0.1599266E-007  0.2677718E+04  0.7818608E-02  0.8342271E-01
         -2   -1    0    0    0  501 -0.00000000000E+00  0.00000000000E+00  0.17415854887E+04  0.17415854887E+04  0.00000000000E+00 0.  1.
          2   -1    0    0  501    0  0.00000000000E+00 -0.00000000000E+00 -0.10292594644E+04  0.10292594644E+04  0.00000000000E+00 0. -1.
         23    2    1    2    0    0  0.23495611029E+03  0.10399906411E+04  0.85231985258E+03  0.13679843286E+04  0.90261204525E+02 0.  0.
        254    2    1    2    0    0 -0.23495611029E+03 -0.10399906411E+04 -0.13999382829E+03  0.14028606244E+04  0.90090773787E+03 0.  0.
        -24    2    4    4    0    0 -0.20733567344E+03 -0.90100521611E+02  0.27335641459E+03  0.36353399620E+03  0.79542765356E+02 0.  0.
         24    2    4    4    0    0 -0.27620436858E+02 -0.94989011946E+03 -0.41335024288E+03  0.10393266282E+04  0.79292428110E+02 0.  0.
         13    1    3    3    0    0 -0.21180235053E+01  0.20433578167E+02  0.32270304614E+02  0.38254276888E+02  0.00000000000E+00 0. -1.
        -13    1    3    3    0    0  0.23707413380E+03  0.10195570629E+04  0.82004954796E+03  0.13297300518E+04  0.00000000000E+00 0.  1.
          2    1    6    6  502    0 -0.43613273425E+02 -0.71869650637E+03 -0.33993170741E+03  0.79622883117E+03  0.00000000000E+00 0. -1.
          3    1    5    5  503    0 -0.17781511281E+03 -0.92647586469E+02  0.26582142737E+03  0.33296068968E+03  0.00000000000E+00 0. -1.
         -4    1    5    5    0  503 -0.29520560624E+02  0.25470648579E+01  0.75349872160E+01  0.30573306515E+02  0.00000000000E+00 0.  1.
         -1    1    6    6    0  502  0.15992836566E+02 -0.23119361309E+03 -0.73418535473E+02  0.24309779700E+03  0.00000000000E+00 0.  1.
<mgrwt>
<rscale>  0 0.26777179E+04</rscale>
<asrwt>0</asrwt>
<pdfrwt beam="1">  1        2 0.15834761E+00 0.26777179E+04</pdfrwt>
<pdfrwt beam="2">  1       -2 0.26793623E+00 0.26777179E+04</pdfrwt>
<totfact> 0.10579536E+00</totfact>
</mgrwt>
</event>
<event>
12    1  0.1599266E-007  0.2163046E+04  0.7818608E-02  0.8533968E-01
          2   -1    0    0  501    0  0.00000000000E+00  0.00000000000E+00  0.26221720406E+04  0.26221720406E+04  0.00000000000E+00 0. -1.
         -2   -1    0    0    0  501 -0.00000000000E+00 -0.00000000000E+00 -0.44607769886E+03  0.44607769886E+03  0.00000000000E+00 0.  1.
         23    2    1    2    0    0 -0.61188655789E+03  0.75310566080E+02  0.17895058038E+04  0.18950085672E+04  0.93003262582E+02 0.  0.
        254    2    1    2    0    0  0.61188655789E+03 -0.75310566080E+02  0.38658853796E+03  0.11732411723E+04  0.92030826878E+03 0.  0.
        -24    2    4    4    0    0  0.32814865733E+03  0.38701391386E+03  0.20829660880E+02  0.51407715917E+03  0.79875778411E+02 0.  0.
         24    2    4    4    0    0  0.28373790055E+03 -0.46232447994E+03  0.36575887708E+03  0.65916401312E+03  0.80414669466E+02 0.  0.
         11    1    3    3    0    0 -0.53100375947E+03  0.81322115310E+02  0.14607566678E+04  0.15564023650E+04  0.00000000000E+00 0. -1.
        -11    1    3    3    0    0 -0.80882798420E+02 -0.60115492304E+01  0.32874913595E+03  0.33860620224E+03  0.00000000000E+00 0.  1.
          2    1    6    6  502    0  0.54324728279E+02 -0.42913413111E+02  0.32947969726E+02  0.76670110450E+02  0.00000000000E+00 0. -1.
          3    1    5    5  503    0  0.88370214460E+02  0.15737316225E+03  0.23852944526E+02  0.18205650211E+03  0.00000000000E+00 0. -1.
         -4    1    5    5    0  503  0.23977844287E+03  0.22964075161E+03 -0.30232836462E+01  0.33202065706E+03  0.00000000000E+00 0.  1.
         -1    1    6    6    0  502  0.22941317227E+03 -0.41941106683E+03  0.33281090735E+03  0.58249390267E+03  0.00000000000E+00 0.  1.
<mgrwt>
<rscale>  0 0.21630464E+04</rscale>
<asrwt>0</asrwt>
<pdfrwt beam="1">  1        2 0.40341108E+00 0.21630464E+04</pdfrwt>
<pdfrwt beam="2">  1       -2 0.68627340E-01 0.21630464E+04</pdfrwt>
<totfact> 0.52572602E+00</totfact>
</mgrwt>
</event>
<event>
12    1  0.1599266E-007  0.1371218E+04  0.7818608E-02  0.8974920E-01
          2   -1    0    0  501    0  0.00000000000E+00  0.00000000000E+00  0.13375001679E+04  0.13375001679E+04  0.00000000000E+00 0. -1.
         -2   -1    0    0    0  501 -0.00000000000E+00 -0.00000000000E+00 -0.35144655969E+03  0.35144655969E+03  0.00000000000E+00 0.  1.
         23    2    1    2    0    0  0.18517648542E+03  0.22981287821E+03  0.60731167565E+03  0.68153192110E+03  0.92487828136E+02 0.  0.
        254    2    1    2    0    0 -0.18517648542E+03 -0.22981287821E+03  0.37874193259E+03  0.10074148065E+04  0.88562681257E+03 0.  0.
        -24    2    4    4    0    0  0.35155798871E+03 -0.85387299919E+02  0.13255757728E+03  0.39423853483E+03  0.83477545705E+02 0.  0.
         24    2    4    4    0    0 -0.53673447412E+03 -0.14442557829E+03  0.24618435530E+03  0.61317627168E+03  0.80223188581E+02 0.  0.
         13    1    3    3    0    0  0.11440727230E+03  0.69751803442E+02  0.24893252339E+03  0.28270433184E+03  0.00000000000E+00 0. -1.
        -13    1    3    3    0    0  0.70769213114E+02  0.16006107476E+03  0.35837915226E+03  0.39882758926E+03  0.00000000000E+00 0.  1.
          2    1    6    6  502    0 -0.15774131128E+03 -0.22600672146E+02  0.37509253972E+02  0.16370722586E+03  0.00000000000E+00 0. -1.
          1    1    5    5  503    0  0.14685180755E+02 -0.61898577208E+01  0.28878612298E+02  0.32983982789E+02  0.00000000000E+00 0. -1.
         -2    1    5    5    0  503  0.33687280795E+03 -0.79197442198E+02  0.10367896499E+03  0.36125455204E+03  0.00000000000E+00 0.  1.
         -1    1    6    6    0  502 -0.37899316284E+03 -0.12182490614E+03  0.20867510133E+03  0.44946904582E+03  0.00000000000E+00 0.  1.
<mgrwt>
<rscale>  0 0.13712182E+04</rscale>
<asrwt>0</asrwt>
<pdfrwt beam="1">  1        2 0.20576925E+00 0.13712182E+04</pdfrwt>
<pdfrwt beam="2">  1       -2 0.54068702E-01 0.13712182E+04</pdfrwt>
<totfact> 0.49385266E+01</totfact>
</mgrwt>
</event>
<event>
12    1  0.1599266E-007  0.2955736E+04  0.7818608E-02  0.8256485E-01
         -2   -1    0    0    0  501 -0.00000000000E+00  0.00000000000E+00  0.86451653612E+03  0.86451653612E+03  0.00000000000E+00 0. -1.
          2   -1    0    0  501    0  0.00000000000E+00 -0.00000000000E+00 -0.25263764053E+04  0.25263764053E+04  0.00000000000E+00 0.  1.
         23    2    1    2    0    0 -0.68158097256E+03  0.62480566388E+03  0.35458634930E+03  0.99404397981E+03  0.86355167259E+02 0.  0.
        254    2    1    2    0    0  0.68158097256E+03 -0.62480566388E+03 -0.20164462185E+04  0.23968489616E+04  0.90768653894E+03 0.  0.
        -24    2    4    4    0    0 -0.15696564130E+03 -0.27018821293E+03 -0.25050058982E+03  0.40841939682E+03  0.80099783052E+02 0.  0.
         24    2    4    4    0    0  0.83854661386E+03 -0.35461745096E+03 -0.17659456286E+04  0.19884295648E+04  0.79838653718E+02 0.  0.
         11    1    3    3    0    0 -0.34429129939E+03  0.36745626498E+03  0.17127527686E+03  0.53187952204E+03  0.00000000000E+00 0. -1.
        -11    1    3    3    0    0 -0.33728967317E+03  0.25734939891E+03  0.18331107244E+03  0.46216445777E+03  0.00000000000E+00 0.  1.
          4    1    6    6  502    0  0.23776267003E+03 -0.14022149686E+03 -0.53900172178E+03  0.60557081462E+03  0.00000000000E+00 0. -1.
          1    1    5    5  503    0 -0.11664331589E+03 -0.12150997096E+03 -0.12593891059E+03  0.21031154363E+03  0.00000000000E+00 0. -1.
         -2    1    5    5    0  503 -0.40322325402E+02 -0.14867824197E+03 -0.12456167924E+03  0.19810785319E+03  0.00000000000E+00 0.  1.
         -3    1    6    6    0  502  0.60078394383E+03 -0.21439595410E+03 -0.12269439069E+04  0.13828587502E+04  0.00000000000E+00 0.  1.
<mgrwt>
<rscale>  0 0.29557362E+04</rscale>
<asrwt>0</asrwt>
<pdfrwt beam="1">  1        2 0.38867329E+00 0.29557362E+04</pdfrwt>
<pdfrwt beam="2">  1       -2 0.13300255E+00 0.29557362E+04</pdfrwt>
<totfact> 0.11828736E+00</totfact>
</mgrwt>
</event>
<event>
12    1  0.1599266E-007  0.1306011E+04  0.7818608E-02  0.9024812E-01
          2   -1    0    0  501    0  0.00000000000E+00  0.00000000000E+00  0.46325922957E+03  0.46325922957E+03  0.00000000000E+00 0. -1.
         -2   -1    0    0    0  501 -0.00000000000E+00 -0.00000000000E+00 -0.92046924448E+03  0.92046924448E+03  0.00000000000E+00 0.  1.
         23    2    1    2    0    0 -0.23024089490E+02 -0.23422426534E+03  0.10804668572E+03  0.27405614092E+03  0.89674784139E+02 0.  0.
        254    2    1    2    0    0  0.23024089490E+02  0.23422426534E+03 -0.56525670063E+03  0.11096723331E+04  0.92545471750E+03 0.  0.
        -24    2    4    4    0    0 -0.12495471093E+03  0.35119477808E+03  0.11581648876E+03  0.39840657357E+03  0.79767705600E+02 0.  0.
         24    2    4    4    0    0  0.14797880042E+03 -0.11697051274E+03 -0.68107318939E+03  0.71126575956E+03  0.80364576708E+02 0.  0.
         13    1    3    3    0    0  0.30238591962E+02 -0.14248716851E+03  0.66681284567E+02  0.16019787560E+03  0.00000000000E+00 0. -1.
        -13    1    3    3    0    0 -0.53262681452E+02 -0.91737096827E+02  0.41365401156E+02  0.11385826532E+03  0.00000000000E+00 0.  1.
          4    1    6    6  502    0  0.39965075207E+02  0.54698955597E+01 -0.17120548904E+03  0.17589328148E+03  0.00000000000E+00 0. -1.
          1    1    5    5  503    0 -0.57786512585E+01  0.57364169946E+02 -0.76039701683E+01  0.58153771729E+02  0.00000000000E+00 0. -1.
         -2    1    5    5    0  503 -0.11917605967E+03  0.29383060814E+03  0.12342045893E+03  0.34025280184E+03  0.00000000000E+00 0.  1.
         -3    1    6    6    0  502  0.10801372521E+03 -0.12244040830E+03 -0.50986770035E+03  0.53537247808E+03  0.00000000000E+00 0.  1.
<mgrwt>
<rscale>  0 0.13060105E+04</rscale>
<asrwt>0</asrwt>
<pdfrwt beam="1">  1        2 0.71270652E-01 0.13060105E+04</pdfrwt>
<pdfrwt beam="2">  1       -2 0.14161065E+00 0.13060105E+04</pdfrwt>
<totfact> 0.22957274E+01</totfact>
</mgrwt>
</event>
<event>
12    1  0.1599266E-007  0.1180178E+04  0.7818608E-02  0.9130385E-01
          2   -1    0    0  501    0  0.00000000000E+00  0.00000000000E+00  0.45222123431E+03  0.45222123431E+03  0.00000000000E+00 0. -1.
         -2   -1    0    0    0  501 -0.00000000000E+00 -0.00000000000E+00 -0.76998882157E+03  0.76998882157E+03  0.00000000000E+00 0.  1.
         23    2    1    2    0    0  0.23940077604E+03 -0.45642013315E+01 -0.13582592852E+03  0.29015731457E+03  0.91700713413E+02 0.  0.
        254    2    1    2    0    0 -0.23940077604E+03  0.45642013315E+01 -0.18194165875E+03  0.93205274131E+03  0.88220518129E+03 0.  0.
        -24    2    4    4    0    0  0.44794468579E+02 -0.27886274774E+03  0.21327517380E+03  0.36305515036E+03  0.80942979597E+02 0.  0.
         24    2    4    4    0    0 -0.28419524462E+03  0.28342694907E+03 -0.39521683255E+03  0.56899759095E+03  0.80399883412E+02 0.  0.
         13    1    3    3    0    0  0.24659851109E+03  0.11282691583E+01 -0.12682214939E+03  0.27730120129E+03  0.00000000000E+00 0.  1.
        -13    1    3    3    0    0 -0.71977350490E+01 -0.56924704898E+01 -0.90037791260E+01  0.12856113280E+02  0.00000000000E+00 0. -1.
          4    1    6    6  502    0 -0.22890318592E+03  0.26432390784E+03 -0.35294491588E+03  0.49682382232E+03  0.00000000000E+00 0. -1.
          3    1    5    5  503    0  0.41033622964E+01 -0.22718821301E+03  0.15382473297E+03  0.27439637423E+03  0.00000000000E+00 0. -1.
         -4    1    5    5    0  503  0.40691106282E+02 -0.51674534727E+02  0.59450440832E+02  0.88658776130E+02  0.00000000000E+00 0.  1.
         -3    1    6    6    0  502 -0.55292058696E+02  0.19103041234E+02 -0.42271916673E+02  0.72173768631E+02  0.00000000000E+00 0.  1.
<mgrwt>
<rscale>  0 0.11801785E+04</rscale>
<asrwt>0</asrwt>
<pdfrwt beam="1">  1        2 0.69572498E-01 0.11801785E+04</pdfrwt>
<pdfrwt beam="2">  1       -2 0.11845982E+00 0.11801785E+04</pdfrwt>
<totfact> 0.37453097E+01</totfact>
</mgrwt>
</event>
<event>
12    1  0.1599266E-007  0.1152388E+04  0.7818608E-02  0.9155583E-01
          2   -1    0    0  501    0  0.00000000000E+00  0.00000000000E+00  0.56015027723E+03  0.56015027723E+03  0.00000000000E+00 0. -1.
         -2   -1    0    0    0  501 -0.00000000000E+00 -0.00000000000E+00 -0.59269756492E+03  0.59269756492E+03  0.00000000000E+00 0.  1.
         23    2    1    2    0    0 -0.14091313159E+03 -0.64315573506E+02  0.13632523256E+03  0.22588228977E+03  0.91897965981E+02 0.  0.
        254    2    1    2    0    0  0.14091313159E+03  0.64315573506E+02 -0.16887252025E+03  0.92696555238E+03  0.89819496967E+03 0.  0.
        -24    2    4    4    0    0 -0.94028751234E+02  0.13898167130E+03  0.32232028891E+03  0.37199705204E+03  0.79587229288E+02 0.  0.
         24    2    4    4    0    0  0.23494188282E+03 -0.74666097789E+02 -0.49119280916E+03  0.55496850034E+03  0.77116445266E+02 0.  0.
         13    1    3    3    0    0 -0.70897861259E+02 -0.77866566067E+02  0.10248828732E+03  0.14694746639E+03  0.00000000000E+00 0. -1.
        -13    1    3    3    0    0 -0.70015270330E+02  0.13550992561E+02  0.33836945242E+02  0.78934823381E+02  0.00000000000E+00 0.  1.
          4    1    6    6  502    0  0.22975955427E+03 -0.54196565282E+02 -0.43476598176E+03  0.49472030418E+03  0.00000000000E+00 0. -1.
          1    1    5    5  503    0 -0.92363961080E+02  0.13282573523E+03  0.32649157514E+03  0.36437690086E+03  0.00000000000E+00 0. -1.
         -2    1    5    5    0  503 -0.16647901532E+01  0.61559360692E+01 -0.41712862276E+01  0.76201511753E+01  0.00000000000E+00 0.  1.
         -3    1    6    6    0  502  0.51823285548E+01 -0.20469532507E+02 -0.56426827400E+02  0.60248196162E+02  0.00000000000E+00 0.  1.
<mgrwt>
<rscale>  0 0.11523883E+04</rscale>
<asrwt>0</asrwt>
<pdfrwt beam="1">  1        2 0.86176966E-01 0.11523883E+04</pdfrwt>
<pdfrwt beam="2">  1       -2 0.91184241E-01 0.11523883E+04</pdfrwt>
<totfact> 0.54687722E+01</totfact>
</mgrwt>
</event>
<event>
12    1  0.1599266E-007  0.2046397E+04  0.7818608E-02  0.8585231E-01
          1   -1    0    0  501    0  0.00000000000E+00  0.00000000000E+00  0.19567992345E+04  0.19567992345E+04  0.00000000000E+00 0. -1.
         -1   -1    0    0    0  501 -0.00000000000E+00 -0.00000000000E+00 -0.53502439506E+03  0.53502439506E+03  0.00000000000E+00 0.  1.
         23    2    1    2    0    0 -0.27776523311E+03  0.29863778931E+03  0.14383166995E+04  0.14979061505E+04  0.92897006341E+02 0.  0.
        254    2    1    2    0    0  0.27776523311E+03 -0.29863778931E+03 -0.16541860082E+02  0.99391747902E+03  0.90623411326E+03 0.  0.
        -24    2    4    4    0    0 -0.29811997372E+03  0.50646197450E+02  0.29089260175E+02  0.31406997540E+03  0.79707015644E+02 0.  0.
         24    2    4    4    0    0  0.57588520683E+03 -0.34928398676E+03 -0.45631120257E+02  0.67984750362E+03  0.80419861924E+02 0.  0.
         13    1    3    3    0    0 -0.10168755360E+03  0.49437594146E+02  0.40311245355E+03  0.41866942148E+03  0.00000000000E+00 0.  1.
        -13    1    3    3    0    0 -0.17607767951E+03  0.24920019517E+03  0.10352042460E+04  0.10792367291E+04  0.00000000000E+00 0. -1.
          4    1    6    6  502    0  0.53313620353E+02 -0.27803196870E+02  0.18639480679E+02  0.62950695876E+02  0.00000000000E+00 0. -1.
          3    1    5    5  503    0 -0.16378337809E+03 -0.99221312968E+01  0.11640680937E+01  0.16408777737E+03  0.00000000000E+00 0. -1.
         -4    1    5    5    0  503 -0.13433659563E+03  0.60568328747E+02  0.27925192081E+02  0.14998219803E+03  0.00000000000E+00 0.  1.
         -3    1    6    6    0  502  0.52257158648E+03 -0.32148078989E+03 -0.64270600936E+02  0.61689680774E+03  0.00000000000E+00 0.  1.
<mgrwt>
<rscale>  0 0.20463972E+04</rscale>
<asrwt>0</asrwt>
<pdfrwt beam="1">  1        1 0.30104603E+00 0.20463972E+04</pdfrwt>
<pdfrwt beam="2">  1       -1 0.82311446E-01 0.20463972E+04</pdfrwt>
<totfact> 0.43225642E+00</totfact>
</mgrwt>
</event>
<event>
12    1  0.2625654E-007  0.2600262E+04  0.7818608E-02  0.8368112E-01
         -1   -1    0    0    0  501 -0.00000000000E+00  0.00000000000E+00  0.11722131277E+04  0.11722131277E+04  0.00000000000E+00 0.  1.
          1   -1    0    0  501    0  0.00000000000E+00 -0.00000000000E+00 -0.14420078698E+04  0.14420078698E+04  0.00000000000E+00 0. -1.
         23    2    1    2    0    0 -0.12679010030E+03 -0.59057254806E+03  0.84961986233E+03  0.10487362934E+04  0.11463960326E+03 0.  0.
        254    2    1    2    0    0  0.12679010030E+03  0.59057254806E+03 -0.11194146044E+04  0.15654847041E+04  0.91257966122E+03 0.  0.
        -24    2    4    4    0    0  0.49597100397E+03  0.20253990097E+03 -0.67158195664E+03  0.86284247395E+03  0.80406231703E+02 0.  0.
         24    2    4    4    0    0 -0.36918090366E+03  0.38803264709E+03 -0.44783264776E+03  0.70264223012E+03  0.79297845574E+02 0.  0.
         11    1    3    3    0    0 -0.66084487155E+01 -0.44329600205E+02  0.22208965588E+02  0.50020227921E+02  0.00000000000E+00 0. -1.
        -11    1    3    3    0    0 -0.12018165159E+03 -0.54624294785E+03  0.82741089674E+03  0.99871606551E+03  0.00000000000E+00 0.  1.
          4    1    6    6  502    0 -0.27903588286E+03  0.33795503704E+03 -0.36629915931E+03  0.57118272479E+03  0.00000000000E+00 0. -1.
          1    1    5    5  503    0  0.49618371549E+03  0.20467677288E+03 -0.67256138115E+03  0.86048223241E+03  0.00000000000E+00 0. -1.
         -2    1    5    5    0  503 -0.21271152271E+00 -0.21368719092E+01  0.97942450917E+00  0.23602415380E+01  0.00000000000E+00 0.  1.
         -3    1    6    6    0  502 -0.90145020802E+02  0.50077610050E+02 -0.81533488458E+02  0.13145950534E+03  0.00000000000E+00 0.  1.
<mgrwt>
<rscale>  0 0.26002620E+04</rscale>
<asrwt>0</asrwt>
<pdfrwt beam="1">  1        1 0.22184736E+00 0.26002620E+04</pdfrwt>
<pdfrwt beam="2">  1       -1 0.18034048E+00 0.26002620E+04</pdfrwt>
<totfact> 0.13085305E+00</totfact>
</mgrwt>
</event>
<event>
12    1  0.1599266E-007  0.2410229E+04  0.7818608E-02  0.8435684E-01
         -4   -1    0    0    0  501 -0.00000000000E+00  0.00000000000E+00  0.11915635638E+04  0.11915635638E+04  0.00000000000E+00 0.  1.
          4   -1    0    0  501    0  0.00000000000E+00 -0.00000000000E+00 -0.12188190769E+04  0.12188190769E+04  0.00000000000E+00 0. -1.
         23    2    1    2    0    0  0.33106379268E+03 -0.68622698545E+03  0.68072611140E+03  0.10255294054E+04  0.88384457203E+02 0.  0.
        254    2    1    2    0    0 -0.33106379268E+03  0.68622698545E+03 -0.70798162447E+03  0.13848532352E+04  0.91436852094E+03 0.  0.
        -24    2    4    4    0    0  0.79602932572E+02  0.75663564781E+03 -0.47941305394E+03  0.90287612630E+03  0.80711168704E+02 0.  0.
         24    2    4    4    0    0 -0.41066672525E+03 -0.70408662357E+02 -0.22856857054E+03  0.48197710890E+03  0.80335565647E+02 0.  0.
         13    1    3    3    0    0  0.10852009817E+03 -0.14015151069E+03  0.16385442830E+03  0.24138626997E+03  0.00000000000E+00 0. -1.
        -13    1    3    3    0    0  0.22254369451E+03 -0.54607547476E+03  0.51687168309E+03  0.78414313546E+03  0.00000000000E+00 0.  1.
          2    1    6    6  502    0 -0.30633515493E+03 -0.47339547750E+02 -0.12839094617E+03  0.33550930685E+03  0.00000000000E+00 0. -1.
          3    1    5    5  503    0  0.69836774511E+02  0.72900104897E+03 -0.44213218906E+03  0.85545343361E+03  0.00000000000E+00 0. -1.
         -4    1    5    5    0  503  0.97661580610E+01  0.27634598843E+02 -0.37280864879E+02  0.47422692696E+02  0.00000000000E+00 0.  1.
         -1    1    6    6    0  502 -0.10433157032E+03 -0.23069114607E+02 -0.10017762436E+03  0.14646780205E+03  0.00000000000E+00 0.  1.
<mgrwt>
<rscale>  0 0.24102285E+04</rscale>
<asrwt>0</asrwt>
<pdfrwt beam="1">  1        4 0.18751063E+00 0.24102285E+04</pdfrwt>
<pdfrwt beam="2">  1       -4 0.18331747E+00 0.24102285E+04</pdfrwt>
<totfact> 0.48795861E-02</totfact>
</mgrwt>
</event>
<event>
12    1  0.1599266E-007  0.2794591E+04  0.7818608E-02  0.8304950E-01
         -1   -1    0    0    0  501 -0.00000000000E+00  0.00000000000E+00  0.61759989842E+03  0.61759989842E+03  0.00000000000E+00 0.  1.
          1   -1    0    0  501    0  0.00000000000E+00 -0.00000000000E+00 -0.31613260322E+04  0.31613260322E+04  0.00000000000E+00 0. -1.
         23    2    1    2    0    0  0.80484696922E+03 -0.34903803279E+03  0.52709493823E+02  0.88389044148E+03  0.94222235234E+02 0.  0.
        254    2    1    2    0    0 -0.80484696922E+03  0.34903803279E+03 -0.25964356276E+04  0.28950354892E+04  0.93281633931E+03 0.  0.
        -24    2    4    4    0    0 -0.74859385507E+03  0.58740037825E+03 -0.23584736837E+04  0.25444605744E+04  0.80308987083E+02 0.  0.
         24    2    4    4    0    0 -0.56253114147E+02 -0.23836234546E+03 -0.23796194389E+03  0.35057491479E+03  0.79346477927E+02 0.  0.
         11    1    3    3    0    0  0.66937334867E+03 -0.25555202381E+03  0.60958537650E+02  0.71908515497E+03  0.00000000000E+00 0.  1.
        -11    1    3    3    0    0  0.13547362055E+03 -0.93486008978E+02 -0.82490438263E+01  0.16480528652E+03  0.00000000000E+00 0. -1.
          4    1    6    6  502    0 -0.22378897458E+02 -0.19335978039E+02 -0.57909891894E+02  0.65025000403E+02  0.00000000000E+00 0. -1.
          3    1    5    5  503    0 -0.16704118503E+03  0.15927169252E+03 -0.50363169969E+03  0.55399920439E+03  0.00000000000E+00 0. -1.
         -4    1    5    5    0  503 -0.58155267004E+03  0.42812868573E+03 -0.18548419840E+04  0.19904613700E+04  0.00000000000E+00 0.  1.
         -3    1    6    6    0  502 -0.33874216689E+02 -0.21902636742E+03 -0.18005205199E+03  0.28554991439E+03  0.00000000000E+00 0.  1.
<mgrwt>
<rscale>  0 0.27945909E+04</rscale>
<asrwt>0</asrwt>
<pdfrwt beam="1">  1        1 0.48635786E+00 0.27945909E+04</pdfrwt>
<pdfrwt beam="2">  1       -1 0.95015368E-01 0.27945909E+04</pdfrwt>
<totfact> 0.42101660E-01</totfact>
</mgrwt>
</event>
<event>
12    1  0.1599266E-007  0.1812052E+04  0.7818608E-02  0.8699917E-01
          2   -1    0    0  501    0  0.00000000000E+00  0.00000000000E+00  0.11636916224E+04  0.11636916224E+04  0.00000000000E+00 0.  1.
         -2   -1    0    0    0  501 -0.00000000000E+00 -0.00000000000E+00 -0.70541256158E+03  0.70541256158E+03  0.00000000000E+00 0. -1.
         23    2    1    2    0    0  0.16036753708E+03 -0.65773996673E+03  0.20988756456E+03  0.71440176191E+03  0.89316722254E+02 0.  0.
        254    2    1    2    0    0 -0.16036753708E+03  0.65773996673E+03  0.24839149624E+03  0.11547024220E+04  0.90183132419E+03 0.  0.
        -24    2    4    4    0    0  0.92919292894E+02 -0.84093741243E+01 -0.25213492858E+03  0.28043630270E+03  0.79798402848E+02 0.  0.
         24    2    4    4    0    0 -0.25328682997E+03  0.66614934086E+03  0.50052642482E+03  0.87426611935E+03  0.76846489390E+02 0.  0.
         13    1    3    3    0    0  0.14509966745E+03 -0.46902975508E+03  0.12325928671E+03  0.50619727025E+03  0.00000000000E+00 0. -1.
        -13    1    3    3    0    0  0.15267869633E+02 -0.18871021165E+03  0.86628277855E+02  0.20820449167E+03  0.00000000000E+00 0.  1.
          4    1    6    6  502    0 -0.80280787994E+02  0.13232245444E+03  0.90759407211E+02  0.17941991770E+03  0.00000000000E+00 0. -1.
          3    1    5    5  503    0 -0.87766238280E+01  0.14723919438E+02 -0.23022957714E+02  0.28703301401E+02  0.00000000000E+00 0. -1.
         -4    1    5    5    0  503  0.10169591672E+03 -0.23133293562E+02 -0.22911197087E+03  0.25173300130E+03  0.00000000000E+00 0.  1.
         -1    1    6    6    0  502 -0.17300604198E+03  0.53382688641E+03  0.40976701761E+03  0.69484620165E+03  0.00000000000E+00 0.  1.
<mgrwt>
<rscale>  0 0.18120515E+04</rscale>
<asrwt>0</asrwt>
<pdfrwt beam="1">  1        2 0.17902948E+00 0.18120515E+04</pdfrwt>
<pdfrwt beam="2">  1       -2 0.10852501E+00 0.18120515E+04</pdfrwt>
<totfact> 0.12754961E+01</totfact>
</mgrwt>
</event>
<event>
12    1  0.1599266E-007  0.1994928E+04  0.7818608E-02  0.8608996E-01
          1   -1    0    0  501    0  0.00000000000E+00  0.00000000000E+00  0.77076383319E+03  0.77076383319E+03  0.00000000000E+00 0. -1.
         -1   -1    0    0    0  501 -0.00000000000E+00 -0.00000000000E+00 -0.12908418051E+04  0.12908418051E+04  0.00000000000E+00 0.  1.
         23    2    1    2    0    0  0.71939949163E+03  0.10514788593E+03  0.12434844066E+03  0.74317160031E+03  0.90828334429E+02 0.  0.
        254    2    1    2    0    0 -0.71939949163E+03 -0.10514788593E+03 -0.64442641253E+03  0.13184340379E+04  0.89128626421E+03 0.  0.
        -24    2    4    4    0    0 -0.12534047430E+02  0.90960765934E+02  0.17674953968E+03  0.21478103226E+03  0.80371193572E+02 0.  0.
         24    2    4    4    0    0 -0.70686544420E+03 -0.19610865187E+03 -0.82117595221E+03  0.11036530057E+04  0.74850871209E+02 0.  0.
         13    1    3    3    0    0  0.68338427080E+03  0.10509316650E+03  0.13726238817E+03  0.70491105710E+03  0.00000000000E+00 0. -1.
        -13    1    3    3    0    0  0.36015220835E+02  0.54719432751E-01 -0.12913947517E+02  0.38260543207E+02  0.00000000000E+00 0.  1.
          4    1    6    6  502    0 -0.55825689277E+03 -0.15286659173E+03 -0.69122177965E+03  0.90155781948E+03  0.00000000000E+00 0. -1.
          1    1    5    5  503    0 -0.23943351644E+01  0.89602659536E+02  0.18229827063E+03  0.20314287807E+03  0.00000000000E+00 0. -1.
         -2    1    5    5    0  503 -0.10139712266E+02  0.13581063984E+01 -0.55487309453E+01  0.11638154189E+02  0.00000000000E+00 0.  1.
         -3    1    6    6    0  502 -0.14860855143E+03 -0.43242060131E+02 -0.12995417257E+03  0.20209518621E+03  0.00000000000E+00 0.  1.
<mgrwt>
<rscale>  0 0.19949277E+04</rscale>
<asrwt>0</asrwt>
<pdfrwt beam="1">  1        1 0.11857905E+00 0.19949277E+04</pdfrwt>
<pdfrwt beam="2">  1       -1 0.19859105E+00 0.19949277E+04</pdfrwt>
<totfact> 0.33511581E+00</totfact>
</mgrwt>
</event>
<event>
12    1  0.1599266E-007  0.1442213E+04  0.7818608E-02  0.8923817E-01
         -1   -1    0    0    0  501 -0.00000000000E+00  0.00000000000E+00  0.42841756721E+03  0.42841756721E+03  0.00000000000E+00 0.  1.
          1   -1    0    0  501    0  0.00000000000E+00 -0.00000000000E+00 -0.12137566311E+04  0.12137566311E+04  0.00000000000E+00 0. -1.
         23    2    1    2    0    0 -0.39939449441E+03  0.98735729255E+02 -0.34530073300E+03  0.54475627260E+03  0.90896061192E+02 0.  0.
        254    2    1    2    0    0  0.39939449441E+03 -0.98735729255E+02 -0.44003833089E+03  0.10974179257E+04  0.91729366324E+03 0.  0.
        -24    2    4    4    0    0  0.42248338515E+03  0.34616943841E+03 -0.22872473507E+03  0.59774362040E+03  0.81590075849E+02 0.  0.
         24    2    4    4    0    0 -0.23088890740E+02 -0.44490516767E+03 -0.21131359582E+03  0.49967430531E+03  0.80915205718E+02 0.  0.
         13    1    3    3    0    0 -0.26240987168E+02  0.13554994585E+01  0.12056923194E+01  0.26303621049E+02  0.00000000000E+00 0. -1.
        -13    1    3    3    0    0 -0.37315350724E+03  0.97380229797E+02 -0.34650642532E+03  0.51845265155E+03  0.00000000000E+00 0.  1.
          4    1    6    6  502    0  0.46042631760E+01 -0.39176465152E+03 -0.19462925878E+03  0.43747147312E+03  0.00000000000E+00 0. -1.
          3    1    5    5  503    0  0.11184942212E+03  0.11610205228E+03 -0.33378555523E+02  0.16463325223E+03  0.00000000000E+00 0. -1.
         -4    1    5    5    0  503  0.31063396303E+03  0.23006738613E+03 -0.19534617955E+03  0.43311036817E+03  0.00000000000E+00 0.  1.
         -3    1    6    6    0  502 -0.27693153916E+02 -0.53140516146E+02 -0.16684337046E+02  0.62202832192E+02  0.00000000000E+00 0.  1.
<mgrwt>
<rscale>  0 0.14422131E+04</rscale>
<asrwt>0</asrwt>
<pdfrwt beam="1">  1        1 0.18673179E+00 0.14422131E+04</pdfrwt>
<pdfrwt beam="2">  1       -1 0.65910396E-01 0.14422131E+04</pdfrwt>
<totfact> 0.23674238E+01</totfact>
</mgrwt>
</event>
<event>
12    1  0.1599266E-007  0.1321639E+04  0.7818608E-02  0.9012579E-01
         -2   -1    0    0    0  501 -0.00000000000E+00  0.00000000000E+00  0.32840292608E+03  0.32840292608E+03  0.00000000000E+00 0. -1.
          2   -1    0    0  501    0  0.00000000000E+00 -0.00000000000E+00 -0.13297162644E+04  0.13297162644E+04  0.00000000000E+00 0.  1.
         23    2    1    2    0    0  0.80796410973E+02  0.21181375400E+03 -0.59475273284E+03  0.64302622172E+03  0.91426375808E+02 0.  0.
        254    2    1    2    0    0 -0.80796410973E+02 -0.21181375400E+03 -0.40656060547E+03  0.10150929687E+04  0.90206933373E+03 0.  0.
        -24    2    4    4    0    0  0.14855729866E+03  0.38480877380E+01  0.23831369702E+03  0.29191747286E+03  0.79613529062E+02 0.  0.
         24    2    4    4    0    0 -0.22935370964E+03 -0.21566184174E+03 -0.64487430249E+03  0.72317549588E+03  0.89480599674E+02 0.  0.
         13    1    3    3    0    0  0.81613361876E+02  0.21137330665E+03 -0.59808541757E+03  0.63956671451E+03  0.00000000000E+00 0.  1.
        -13    1    3    3    0    0 -0.81695090236E+00  0.44044734688E+00  0.33326847294E+01  0.34595072117E+01  0.00000000000E+00 0. -1.
          2    1    6    6  502    0 -0.16046868923E+03 -0.90757371540E+02 -0.37873449654E+03  0.42122074922E+03  0.00000000000E+00 0. -1.
          1    1    5    5  503    0  0.12113975907E+03 -0.29847170196E+02  0.16785328760E+03  0.20914210708E+03  0.00000000000E+00 0. -1.
         -2    1    5    5    0  503  0.27417539594E+02  0.33695257934E+02  0.70460409420E+02  0.82775365781E+02  0.00000000000E+00 0.  1.
         -1    1    6    6    0  502 -0.68885020411E+02 -0.12490447020E+03 -0.26613980595E+03  0.30195474665E+03  0.00000000000E+00 0.  1.
<mgrwt>
<rscale>  0 0.13216395E+04</rscale>
<asrwt>0</asrwt>
<pdfrwt beam="1">  1        2 0.20457173E+00 0.13216395E+04</pdfrwt>
<pdfrwt beam="2">  1       -2 0.50523527E-01 0.13216395E+04</pdfrwt>
<totfact> 0.57581804E+01</totfact>
</mgrwt>
</event>
<event>
12    1  0.1599266E-007  0.1276388E+04  0.7818608E-02  0.9048502E-01
         -1   -1    0    0    0  501 -0.00000000000E+00  0.00000000000E+00  0.60742127595E+03  0.60742127595E+03  0.00000000000E+00 0.  1.
          1   -1    0    0  501    0  0.00000000000E+00 -0.00000000000E+00 -0.67052555195E+03  0.67052555195E+03  0.00000000000E+00 0. -1.
         23    2    1    2    0    0 -0.66191492079E+02 -0.31563506302E+03 -0.11950567872E+03  0.35583513202E+03  0.91270078899E+02 0.  0.
        254    2    1    2    0    0  0.66191492079E+02  0.31563506302E+03  0.56401402723E+02  0.92211169588E+03  0.86203367382E+03 0.  0.
        -24    2    4    4    0    0  0.36031164757E+02  0.55132097933E+03 -0.17072265746E+03  0.58394872255E+03  0.81220796045E+02 0.  0.
         24    2    4    4    0    0  0.30160327322E+02 -0.23568591631E+03  0.22712406018E+03  0.33816297333E+03  0.79444076711E+02 0.  0.
         13    1    3    3    0    0 -0.89366403982E+02 -0.25419681487E+03 -0.98638128159E+02  0.28693528047E+03  0.00000000000E+00 0. -1.
        -13    1    3    3    0    0  0.23174911903E+02 -0.61438248150E+02 -0.20867550565E+02  0.68899851554E+02  0.00000000000E+00 0.  1.
          4    1    6    6  502    0  0.36423485055E+01 -0.21006259816E+03  0.17041656802E+03  0.27052055098E+03  0.00000000000E+00 0. -1.
          1    1    5    5  503    0  0.45858726354E+01  0.41743748894E+03 -0.99865297582E+02  0.42924138321E+03  0.00000000000E+00 0. -1.
         -2    1    5    5    0  503  0.31445292122E+02  0.13388349040E+03 -0.70857359874E+02  0.15470733934E+03  0.00000000000E+00 0.  1.
         -3    1    6    6    0  502  0.26517978816E+02 -0.25623318154E+02  0.56707492158E+02  0.67642422344E+02  0.00000000000E+00 0.  1.
<mgrwt>
<rscale>  0 0.12763879E+04</rscale>
<asrwt>0</asrwt>
<pdfrwt beam="1">  1        1 0.10315778E+00 0.12763879E+04</pdfrwt>
<pdfrwt beam="2">  1       -1 0.93449428E-01 0.12763879E+04</pdfrwt>
<totfact> 0.31810990E+01</totfact>
</mgrwt>
</event>
<event>
12    1  0.1599266E-007  0.2064181E+04  0.7818608E-02  0.8577188E-01
         -2   -1    0    0    0  501 -0.00000000000E+00  0.00000000000E+00  0.89866731291E+03  0.89866731291E+03  0.00000000000E+00 0. -1.
          2   -1    0    0  501    0  0.00000000000E+00 -0.00000000000E+00 -0.11853231416E+04  0.11853231416E+04  0.00000000000E+00 0.  1.
         23    2    1    2    0    0 -0.20696110373E+03 -0.46965166901E+03 -0.77873679217E+03  0.93686665038E+03  0.88783672243E+02 0.  0.
        254    2    1    2    0    0  0.20696110373E+03  0.46965166901E+03  0.49208096349E+03  0.11471238041E+04  0.90019095680E+03 0.  0.
        -24    2    4    4    0    0 -0.34830357800E+02 -0.20505009820E+03  0.34565140874E+03  0.41112273823E+03  0.79298883506E+02 0.  0.
         24    2    4    4    0    0  0.24179146153E+03  0.67470176721E+03  0.14642955475E+03  0.73600106590E+03  0.81057812377E+02 0.  0.
         13    1    3    3    0    0  0.41544050053E+01 -0.48952928979E+02 -0.92097711247E+02  0.10438216684E+03  0.00000000000E+00 0. -1.
        -13    1    3    3    0    0 -0.21111550874E+03 -0.42069874003E+03 -0.68663908092E+03  0.83248448354E+03  0.00000000000E+00 0.  1.
          2    1    6    6  502    0  0.18545747848E+03  0.55953529647E+03  0.91523046073E+02  0.59653222234E+03  0.00000000000E+00 0. -1.
          3    1    5    5  503    0 -0.13137168870E+02 -0.79841360993E+02  0.21097344580E+03  0.22595801151E+03  0.00000000000E+00 0. -1.
         -4    1    5    5    0  503 -0.21693188930E+02 -0.12520873721E+03  0.13467796294E+03  0.18516472672E+03  0.00000000000E+00 0.  1.
         -1    1    6    6    0  502  0.56333983052E+02  0.11516647074E+03  0.54906508673E+02  0.13946884356E+03  0.00000000000E+00 0.  1.
<mgrwt>
<rscale>  0 0.20641814E+04</rscale>
<asrwt>0</asrwt>
<pdfrwt beam="1">  1        2 0.18235741E+00 0.20641814E+04</pdfrwt>
<pdfrwt beam="2">  1       -2 0.13825651E+00 0.20641814E+04</pdfrwt>
<totfact> 0.66290711E+00</totfact>
</mgrwt>
</event>
<event>
12    1  0.1599266E-007  0.1279097E+04  0.7818608E-02  0.9046307E-01
         -1   -1    0    0    0  501 -0.00000000000E+00  0.00000000000E+00  0.13259963567E+04  0.13259963567E+04  0.00000000000E+00 0.  1.
          1   -1    0    0  501    0  0.00000000000E+00 -0.00000000000E+00 -0.30846426875E+03  0.30846426875E+03  0.00000000000E+00 0. -1.
         23    2    1    2    0    0  0.12233409218E+03  0.88363325154E+02 -0.95911098737E+02  0.19836595480E+03  0.85886004812E+02 0.  0.
        254    2    1    2    0    0 -0.12233409218E+03 -0.88363325154E+02  0.11134431867E+04  0.14360946707E+04  0.89433688606E+03 0.  0.
        -24    2    4    4    0    0 -0.37506935933E+03 -0.12058588515E+03  0.10971279335E+04  0.11684582574E+04  0.79918813185E+02 0.  0.
         24    2    4    4    0    0  0.25273526715E+03  0.32222559996E+02  0.16315253204E+02  0.26763641332E+03  0.80309735466E+02 0.  0.
         11    1    3    3    0    0  0.62626283448E+02 -0.13343850381E+01 -0.54157385767E+02  0.82806125347E+02  0.00000000000E+00 0.  1.
        -11    1    3    3    0    0  0.59707808733E+02  0.89697710192E+02 -0.41753712969E+02  0.11555982946E+03  0.00000000000E+00 0. -1.
          4    1    6    6  502    0  0.23368648243E+02 -0.19823942858E+02 -0.65283790854E+01  0.31332126717E+02  0.00000000000E+00 0. -1.
          1    1    5    5  503    0  0.18964297258E+01  0.25178749733E+01  0.27603676634E+02  0.27783072252E+02  0.00000000000E+00 0. -1.
         -2    1    5    5    0  503 -0.37696578906E+03 -0.12310376012E+03  0.10695242569E+04  0.11406751851E+04  0.00000000000E+00 0.  1.
         -3    1    6    6    0  502  0.22936661891E+03  0.52046502854E+02  0.22843632289E+02  0.23630428660E+03  0.00000000000E+00 0.  1.
<mgrwt>
<rscale>  0 0.12790973E+04</rscale>
<asrwt>0</asrwt>
<pdfrwt beam="1">  1        1 0.47456042E-01 0.12790973E+04</pdfrwt>
<pdfrwt beam="2">  1       -1 0.20399944E+00 0.12790973E+04</pdfrwt>
<totfact> 0.11754138E+01</totfact>
</mgrwt>
</event>
<event>
12    1  0.1599266E-007  0.1632412E+04  0.7818608E-02  0.8800880E-01
         -2   -1    0    0    0  501 -0.00000000000E+00  0.00000000000E+00  0.22342652553E+03  0.22342652553E+03  0.00000000000E+00 0. -1.
          2   -1    0    0  501    0  0.00000000000E+00 -0.00000000000E+00 -0.29817054301E+04  0.29817054301E+04  0.00000000000E+00 0.  1.
         23    2    1    2    0    0 -0.34928505793E+03 -0.69036427230E+02 -0.12787485649E+03  0.38919069227E+03  0.91385644671E+02 0.  0.
        254    2    1    2    0    0  0.34928505793E+03  0.69036427230E+02 -0.26304040481E+04  0.28159412634E+04  0.94007109445E+03 0.  0.
        -24    2    4    4    0    0  0.45473250700E+02 -0.28390748442E+03 -0.24902393899E+03  0.38810835497E+03  0.77096671579E+02 0.  0.
         24    2    4    4    0    0  0.30381180723E+03  0.35294391164E+03 -0.23813801091E+04  0.24278329084E+04  0.80810817253E+02 0.  0.
         13    1    3    3    0    0 -0.70613316193E+01 -0.50297322219E+01  0.11302888731E+02  0.14244855357E+02  0.00000000000E+00 0.  1.
        -13    1    3    3    0    0 -0.34222372631E+03 -0.64006695008E+02 -0.13917774523E+03  0.37494583692E+03  0.00000000000E+00 0. -1.
          4    1    6    6  502    0  0.26678041271E+03  0.31183368908E+03 -0.22088237662E+04  0.22466229030E+04  0.00000000000E+00 0. -1.
          1    1    5    5  503    0  0.32119512756E+02 -0.34542675267E+02 -0.29645808902E+02  0.55711161357E+02  0.00000000000E+00 0. -1.
         -2    1    5    5    0  503  0.13353737944E+02 -0.24936480915E+03 -0.21937813009E+03  0.33239719361E+03  0.00000000000E+00 0.  1.
         -1    1    6    6    0  502  0.37031394521E+02  0.41110222563E+02 -0.17255634288E+03  0.18121000538E+03  0.00000000000E+00 0.  1.
<mgrwt>
<rscale>  0 0.16324118E+04</rscale>
<asrwt>0</asrwt>
<pdfrwt beam="1">  1        2 0.45872392E+00 0.16324118E+04</pdfrwt>
<pdfrwt beam="2">  1       -2 0.34373311E-01 0.16324118E+04</pdfrwt>
<totfact> 0.13634599E+01</totfact>
</mgrwt>
</event>
<event>
12    1  0.1599266E-007  0.1806054E+04  0.7818608E-02  0.8703087E-01
         -1   -1    0    0    0  501 -0.00000000000E+00  0.00000000000E+00  0.91469886847E+03  0.91469886847E+03  0.00000000000E+00 0.  1.
          1   -1    0    0  501    0  0.00000000000E+00 -0.00000000000E+00 -0.89150360654E+03  0.89150360654E+03  0.00000000000E+00 0. -1.
         23    2    1    2    0    0  0.10609970202E+03 -0.41842254826E+03 -0.50884706291E+03  0.67346889803E+03  0.91106791881E+02 0.  0.
        254    2    1    2    0    0 -0.10609970202E+03  0.41842254826E+03  0.53204232484E+03  0.11327335770E+04  0.90204309504E+03 0.  0.
        -24    2    4    4    0    0 -0.16778489201E+03  0.11674390630E+03 -0.22330423266E+03  0.31316282575E+03  0.80157753614E+02 0.  0.
         24    2    4    4    0    0  0.61685189986E+02  0.30167864196E+03  0.75534655751E+03  0.81957075122E+03  0.79578443320E+02 0.  0.
         13    1    3    3    0    0  0.11322555507E+03 -0.35860211281E+03 -0.39966406548E+03  0.54876850025E+03  0.00000000000E+00 0. -1.
        -13    1    3    3    0    0 -0.71258530529E+01 -0.59820435448E+02 -0.10918299743E+03  0.12470039778E+03  0.00000000000E+00 0.  1.
          4    1    6    6  502    0 -0.19460115083E+02  0.54021099401E+02  0.13449189063E+03  0.14623626057E+03  0.00000000000E+00 0. -1.
          1    1    5    5  503    0 -0.24409577819E+02  0.22208778302E+02 -0.20297121106E+01  0.33063228128E+02  0.00000000000E+00 0. -1.
         -2    1    5    5    0  503 -0.14337531419E+03  0.94535127994E+02 -0.22127452055E+03  0.28009959762E+03  0.00000000000E+00 0.  1.
         -3    1    6    6    0  502  0.81145305069E+02  0.24765754256E+03  0.62085466688E+03  0.67333449066E+03  0.00000000000E+00 0.  1.
<mgrwt>
<rscale>  0 0.18060535E+04</rscale>
<asrwt>0</asrwt>
<pdfrwt beam="1">  1        1 0.13715440E+00 0.18060535E+04</pdfrwt>
<pdfrwt beam="2">  1       -1 0.14072290E+00 0.18060535E+04</pdfrwt>
<totfact> 0.72131250E+00</totfact>
</mgrwt>
</event>
<event>
12    1  0.1599266E-007  0.1489931E+04  0.7818608E-02  0.8891176E-01
         -3   -1    0    0    0  501 -0.00000000000E+00  0.00000000000E+00  0.56482318922E+03  0.56482318922E+03  0.00000000000E+00 0.  1.
          3   -1    0    0  501    0  0.00000000000E+00 -0.00000000000E+00 -0.98256170129E+03  0.98256170129E+03  0.00000000000E+00 0. -1.
         23    2    1    2    0    0 -0.17795232102E+03 -0.37113758112E+03 -0.32181914019E+03  0.53034695252E+03  0.91050526525E+02 0.  0.
        254    2    1    2    0    0  0.17795232102E+03  0.37113758112E+03 -0.95919371876E+02  0.10170379380E+04  0.92507054258E+03 0.  0.
        -24    2    4    4    0    0  0.27873075618E+03 -0.40627866611E+02  0.30876515739E+03  0.42547485641E+03  0.79696129323E+02 0.  0.
         24    2    4    4    0    0 -0.10077843516E+03  0.41176544773E+03 -0.40468452927E+03  0.59156308159E+03  0.80437766837E+02 0.  0.
         13    1    3    3    0    0 -0.76282859741E+02 -0.24837392903E+03 -0.22603377101E+03  0.34438343303E+03  0.00000000000E+00 0. -1.
        -13    1    3    3    0    0 -0.10166946128E+03 -0.12276365209E+03 -0.95785369183E+02  0.18596351949E+03  0.00000000000E+00 0.  1.
          2    1    6    6  502    0 -0.29465098855E+02  0.27968913812E+03 -0.27116431567E+03  0.39067159114E+03  0.00000000000E+00 0. -1.
          1    1    5    5  503    0  0.23030974324E+03 -0.45812982171E+02  0.29032339630E+03  0.37340203749E+03  0.00000000000E+00 0. -1.
         -2    1    5    5    0  503  0.48421012936E+02  0.51851155600E+01  0.18441761096E+02  0.52072818912E+02  0.00000000000E+00 0.  1.
         -1    1    6    6    0  502 -0.71313336305E+02  0.13207630961E+03 -0.13352021360E+03  0.20089149045E+03  0.00000000000E+00 0.  1.
<mgrwt>
<rscale>  0 0.14899311E+04</rscale>
<asrwt>0</asrwt>
<pdfrwt beam="1">  1        3 0.15116334E+00 0.14899311E+04</pdfrwt>
<pdfrwt beam="2">  1       -3 0.86895875E-01 0.14899311E+04</pdfrwt>
<totfact> 0.96982488E-01</totfact>
</mgrwt>
</event>
<event>
12    1  0.1599266E-007  0.1303039E+04  0.7818608E-02  0.9027158E-01
          2   -1    0    0  501    0  0.00000000000E+00  0.00000000000E+00  0.41591772776E+03  0.41591772776E+03  0.00000000000E+00 0. -1.
         -2   -1    0    0    0  501 -0.00000000000E+00 -0.00000000000E+00 -0.10205813609E+04  0.10205813609E+04  0.00000000000E+00 0.  1.
         23    2    1    2    0    0  0.11531781522E+02  0.14549869543E+02 -0.52444682524E+03  0.53270251070E+03  0.91557696075E+02 0.  0.
        254    2    1    2    0    0 -0.11531781522E+02 -0.14549869543E+02 -0.80216807923E+02  0.90379657798E+03  0.90003824219E+03 0.  0.
        -24    2    4    4    0    0  0.37191581274E+03 -0.22031105975E+03  0.50582423050E+02  0.44281167174E+03  0.81641045390E+02 0.  0.
         24    2    4    4    0    0 -0.38344759426E+03  0.20576119021E+03 -0.13079923097E+03  0.46098490624E+03  0.77646120385E+02 0.  0.
         11    1    3    3    0    0  0.47538265708E+02  0.24111328278E+02 -0.37035590460E+03  0.37417207129E+03  0.00000000000E+00 0.  1.
        -11    1    3    3    0    0 -0.36006484187E+02 -0.95614587352E+01 -0.15409092064E+03  0.15853043941E+03  0.00000000000E+00 0. -1.
          2    1    6    6  502    0 -0.32076712541E+03  0.15296777015E+03 -0.13180018401E+03  0.37902767175E+03  0.00000000000E+00 0. -1.
          3    1    5    5  503    0  0.28196013825E+03 -0.17513864076E+03  0.72595270206E+02  0.33977218295E+03  0.00000000000E+00 0. -1.
         -4    1    5    5    0  503  0.89955674491E+02 -0.45172418996E+02 -0.22012847156E+02  0.10303948879E+03  0.00000000000E+00 0.  1.
         -1    1    6    6    0  502 -0.62680468858E+02  0.52793420063E+02  0.10009530350E+01  0.81957234489E+02  0.00000000000E+00 0.  1.
<mgrwt>
<rscale>  0 0.13030393E+04</rscale>
<asrwt>0</asrwt>
<pdfrwt beam="1">  1        2 0.63987343E-01 0.13030393E+04</pdfrwt>
<pdfrwt beam="2">  1       -2 0.15701252E+00 0.13030393E+04</pdfrwt>
<totfact> 0.19745351E+01</totfact>
</mgrwt>
</event>
<event>
12    1  0.1599266E-007  0.1597479E+04  0.7818608E-02  0.8822098E-01
         -2   -1    0    0    0  501 -0.00000000000E+00  0.00000000000E+00  0.19540610594E+03  0.19540610594E+03  0.00000000000E+00 0.  1.
          2   -1    0    0  501    0  0.00000000000E+00 -0.00000000000E+00 -0.32649168320E+04  0.32649168320E+04  0.00000000000E+00 0. -1.
         23    2    1    2    0    0  0.45115652354E+02 -0.35874514819E+03 -0.18297247968E+03  0.41582179555E+03  0.93248774241E+02 0.  0.
        254    2    1    2    0    0 -0.45115652354E+02  0.35874514819E+03 -0.28865382464E+04  0.30445011424E+04  0.89785892810E+03 0.  0.
        -24    2    4    4    0    0 -0.14380276929E+03 -0.84024930474E+02 -0.84892842351E+02  0.20524138657E+03  0.84721937427E+02 0.  0.
         24    2    4    4    0    0  0.98687116939E+02  0.44277007866E+03 -0.28016454040E+04  0.28392597558E+04  0.79965626980E+02 0.  0.
         13    1    3    3    0    0  0.59086113758E+02 -0.26301467870E+03 -0.16876377690E+03  0.31803946680E+03  0.00000000000E+00 0.  1.
        -13    1    3    3    0    0 -0.13970461404E+02 -0.95730469488E+02 -0.14208702778E+02  0.97782328745E+02  0.00000000000E+00 0. -1.
          4    1    6    6  502    0 -0.33996774992E+01  0.14267789669E+03 -0.95537621862E+03  0.96597735952E+03  0.00000000000E+00 0. -1.
          3    1    5    5  503    0 -0.85774814139E+02 -0.92497277407E+02 -0.43401902296E+02  0.13340461083E+03  0.00000000000E+00 0. -1.
         -4    1    5    5    0  503 -0.58027955154E+02  0.84723469326E+01 -0.41490940055E+02  0.71836775739E+02  0.00000000000E+00 0.  1.
         -3    1    6    6    0  502  0.10208679444E+03  0.30009218197E+03 -0.18462691854E+04  0.18732823963E+04  0.00000000000E+00 0.  1.
<mgrwt>
<rscale>  0 0.15974789E+04</rscale>
<asrwt>0</asrwt>
<pdfrwt beam="1">  1        2 0.50229489E+00 0.15974789E+04</pdfrwt>
<pdfrwt beam="2">  1       -2 0.30062478E-01 0.15974789E+04</pdfrwt>
<totfact> 0.11617422E+01</totfact>
</mgrwt>
</event>
<event>
12    1  0.1599266E-007  0.2583113E+04  0.7818608E-02  0.8373960E-01
         -1   -1    0    0    0  501 -0.00000000000E+00  0.00000000000E+00  0.68195084963E+03  0.68195084963E+03  0.00000000000E+00 0.  1.
          1   -1    0    0  501    0  0.00000000000E+00 -0.00000000000E+00 -0.24460974635E+04  0.24460974635E+04  0.00000000000E+00 0. -1.
         23    2    1    2    0    0  0.45943581853E+03  0.30137716159E+03 -0.19758194877E+04  0.20525369916E+04  0.84474781418E+02 0.  0.
        254    2    1    2    0    0 -0.45943581853E+03 -0.30137716159E+03  0.21167287390E+03  0.10755113215E+04  0.90000540684E+03 0.  0.
        -24    2    4    4    0    0  0.18418249111E+03  0.73690356543E+02 -0.13024751498E+03  0.25201992164E+03  0.84830224984E+02 0.  0.
         24    2    4    4    0    0 -0.64361830964E+03 -0.37506751813E+03  0.34192038888E+03  0.82349139989E+03  0.79425195699E+02 0.  0.
         11    1    3    3    0    0  0.16040188053E+02  0.21859708233E+01 -0.25567551324E+02  0.30261622262E+02  0.00000000000E+00 0.  1.
        -11    1    3    3    0    0  0.44339563048E+03  0.29919119076E+03 -0.19502519364E+04  0.20222753693E+04  0.00000000000E+00 0. -1.
          2    1    6    6  502    0 -0.56613657056E+03 -0.34301805467E+03  0.32706000541E+03  0.73833613584E+03  0.00000000000E+00 0. -1.
          1    1    5    5  503    0  0.10150236187E+03  0.84801362067E+02 -0.82882884087E+02  0.15608834982E+03  0.00000000000E+00 0. -1.
         -2    1    5    5    0  503  0.82680129237E+02 -0.11111005524E+02 -0.47364630889E+02  0.95931571829E+02  0.00000000000E+00 0.  1.
         -1    1    6    6    0  502 -0.77481739079E+02 -0.32049463459E+02  0.14860383470E+02  0.85155264051E+02  0.00000000000E+00 0.  1.
<mgrwt>
<rscale>  0 0.25831130E+04</rscale>
<asrwt>0</asrwt>
<pdfrwt beam="1">  1        1 0.37632269E+00 0.25831130E+04</pdfrwt>
<pdfrwt beam="2">  1       -1 0.10491552E+00 0.25831130E+04</pdfrwt>
<totfact> 0.11103493E+00</totfact>
</mgrwt>
</event>
<event>
12    1  0.1599266E-007  0.1390914E+04  0.7818608E-02  0.8960422E-01
         -3   -1    0    0    0  501 -0.00000000000E+00  0.00000000000E+00  0.58312884327E+03  0.58312884327E+03  0.00000000000E+00 0.  1.
          3   -1    0    0  501    0  0.00000000000E+00 -0.00000000000E+00 -0.82942308656E+03  0.82942308656E+03  0.00000000000E+00 0. -1.
         23    2    1    2    0    0  0.19454796107E+03  0.40960950298E+02 -0.42316387136E+03  0.47537407294E+03  0.85942647135E+02 0.  0.
        254    2    1    2    0    0 -0.19454796107E+03 -0.40960950298E+02  0.17686962807E+03  0.93717785689E+03  0.89860601016E+03 0.  0.
        -24    2    4    4    0    0 -0.46819368260E+03  0.21938941433E+03  0.29945179288E+02  0.52404465913E+03  0.79931542235E+02 0.  0.
         24    2    4    4    0    0  0.27364572154E+03 -0.26035036463E+03  0.14692444879E+03  0.41313319776E+03  0.80174510683E+02 0.  0.
         13    1    3    3    0    0  0.19309014386E+03  0.29980523476E+02 -0.34554227020E+03  0.39696611435E+03  0.00000000000E+00 0. -1.
        -13    1    3    3    0    0  0.14578172018E+01  0.10980426822E+02 -0.77621601162E+02  0.78407958596E+02  0.00000000000E+00 0.  1.
          2    1    6    6  502    0  0.20822835842E+03 -0.16697839035E+03  0.13320633380E+03  0.29830313351E+03  0.00000000000E+00 0. -1.
          3    1    5    5  503    0 -0.76440471236E+02  0.54128210878E+02  0.31617643102E+02  0.98856887524E+02  0.00000000000E+00 0. -1.
         -4    1    5    5    0  503 -0.39175321137E+03  0.16526120346E+03 -0.16724638143E+01  0.42518777160E+03  0.00000000000E+00 0.  1.
         -1    1    6    6    0  502  0.65417363114E+02 -0.93371974281E+02  0.13718114982E+02  0.11483006425E+03  0.00000000000E+00 0.  1.
<mgrwt>
<rscale>  0 0.13909141E+04</rscale>
<asrwt>0</asrwt>
<pdfrwt beam="1">  1        3 0.12760355E+00 0.13909141E+04</pdfrwt>
<pdfrwt beam="2">  1       -3 0.89712130E-01 0.13909141E+04</pdfrwt>
<totfact> 0.13958273E+00</totfact>
</mgrwt>
</event>
<event>
12    1  0.1599266E-007  0.1413835E+04  0.7818608E-02  0.8943865E-01
         -2   -1    0    0    0  501 -0.00000000000E+00  0.00000000000E+00  0.28799148544E+03  0.28799148544E+03  0.00000000000E+00 0.  1.
          2   -1    0    0  501    0  0.00000000000E+00 -0.00000000000E+00 -0.17352324494E+04  0.17352324494E+04  0.00000000000E+00 0. -1.
         23    2    1    2    0    0  0.77472348226E+01  0.37902521709E+03 -0.66987319362E+03  0.77523097679E+03  0.92373356564E+02 0.  0.
        254    2    1    2    0    0 -0.77472348226E+01 -0.37902521709E+03 -0.77736777038E+03  0.12479929581E+04  0.89970308334E+03 0.  0.
        -24    2    4    4    0    0  0.25157397103E+03 -0.12536464640E+02 -0.74541975292E+03  0.79091875554E+03  0.80344532904E+02 0.  0.
         24    2    4    4    0    0 -0.25932120585E+03 -0.36648875245E+03 -0.31948017460E+02  0.45707420255E+03  0.79590560639E+02 0.  0.
         11    1    3    3    0    0  0.24310346193E+02  0.27688736082E+03 -0.55443966529E+03  0.62021040459E+03  0.00000000000E+00 0. -1.
        -11    1    3    3    0    0 -0.16563111371E+02  0.10213785627E+03 -0.11543352833E+03  0.15502057220E+03  0.00000000000E+00 0.  1.
          4    1    6    6  502    0 -0.16267507602E+03 -0.20655669313E+03  0.18333313360E+02  0.26356205761E+03  0.00000000000E+00 0. -1.
          1    1    5    5  503    0  0.18594260321E+03  0.91656261655E+01 -0.43982178951E+03  0.47760011194E+03  0.00000000000E+00 0. -1.
         -2    1    5    5    0  503  0.65631367817E+02 -0.21702090806E+02 -0.30559796341E+03  0.31331864360E+03  0.00000000000E+00 0.  1.
         -3    1    6    6    0  502 -0.96646129830E+02 -0.15993205932E+03 -0.50281330820E+02  0.19351214494E+03  0.00000000000E+00 0.  1.
<mgrwt>
<rscale>  0 0.14138347E+04</rscale>
<asrwt>0</asrwt>
<pdfrwt beam="1">  1        2 0.26695883E+00 0.14138347E+04</pdfrwt>
<pdfrwt beam="2">  1       -2 0.44306384E-01 0.14138347E+04</pdfrwt>
<totfact> 0.44029782E+01</totfact>
</mgrwt>
</event>
<event>
12    1  0.1599266E-007  0.1528659E+04  0.7818608E-02  0.8865616E-01
          2   -1    0    0  501    0  0.00000000000E+00  0.00000000000E+00  0.51346330417E+03  0.51346330417E+03  0.00000000000E+00 0. -1.
         -2   -1    0    0    0  501 -0.00000000000E+00 -0.00000000000E+00 -0.11377626625E+04  0.11377626625E+04  0.00000000000E+00 0.  1.
         23    2    1    2    0    0 -0.38881001339E+02  0.30583012492E+03  0.21205251999E+03  0.38523545441E+03  0.91631252982E+02 0.  0.
        254    2    1    2    0    0  0.38881001339E+02 -0.30583012492E+03 -0.83635187834E+03  0.12659905123E+04  0.89900151014E+03 0.  0.
        -24    2    4    4    0    0 -0.35057989375E+02 -0.60891172943E+03 -0.64593002272E+03  0.89195924412E+03  0.79769305264E+02 0.  0.
         24    2    4    4    0    0  0.73938990714E+02  0.30308160451E+03 -0.19042185562E+03  0.37403126817E+03  0.79457366761E+02 0.  0.
         11    1    3    3    0    0 -0.51504644254E+02  0.17668223148E+03  0.16509802322E+03  0.24723813737E+03  0.00000000000E+00 0.  1.
        -11    1    3    3    0    0  0.12623642915E+02  0.12914789345E+03  0.46954496765E+02  0.13799731703E+03  0.00000000000E+00 0. -1.
          2    1    6    6  502    0  0.65065909734E+02  0.24388222027E+03 -0.11401662339E+03  0.27696913255E+03  0.00000000000E+00 0. -1.
          1    1    5    5  503    0 -0.19420032368E+02 -0.56371121372E+03 -0.61743366587E+03  0.83628452208E+03  0.00000000000E+00 0. -1.
         -2    1    5    5    0  503 -0.15637957008E+02 -0.45200515712E+02 -0.28496356853E+02  0.55674722037E+02  0.00000000000E+00 0.  1.
         -1    1    6    6    0  502  0.88730809808E+01  0.59199384239E+02 -0.76405232230E+02  0.97062135627E+02  0.00000000000E+00 0.  1.
<mgrwt>
<rscale>  0 0.15286587E+04</rscale>
<asrwt>0</asrwt>
<pdfrwt beam="1">  1        2 0.78994355E-01 0.15286587E+04</pdfrwt>
<pdfrwt beam="2">  1       -2 0.17504041E+00 0.15286587E+04</pdfrwt>
<totfact> 0.11289165E+01</totfact>
</mgrwt>
</event>
<event>
12    1  0.1599266E-007  0.3114607E+04  0.7818608E-02  0.8211741E-01
          2   -1    0    0  501    0  0.00000000000E+00  0.00000000000E+00  0.33837563777E+04  0.33837563777E+04  0.00000000000E+00 0. -1.
         -2   -1    0    0    0  501 -0.00000000000E+00 -0.00000000000E+00 -0.71671641097E+03  0.71671641097E+03  0.00000000000E+00 0.  1.
         23    2    1    2    0    0  0.10962695479E+04 -0.28108277981E+03  0.23775610097E+04  0.26347231223E+04  0.90305734446E+02 0.  0.
        254    2    1    2    0    0 -0.10962695479E+04  0.28108277981E+03  0.28947895701E+03  0.14657496663E+04  0.88533020232E+03 0.  0.
        -24    2    4    4    0    0 -0.43289364778E+03  0.71613945671E+02  0.55972733254E+03  0.71518289276E+03  0.75275598967E+02 0.  0.
         24    2    4    4    0    0 -0.66337590009E+03  0.20946883414E+03 -0.27024837553E+03  0.75056677358E+03  0.79821800462E+02 0.  0.
         13    1    3    3    0    0  0.96145880097E+03 -0.26959787312E+03  0.20477043961E+04  0.22781965088E+04  0.00000000000E+00 0. -1.
        -13    1    3    3    0    0  0.13481074690E+03 -0.11484906684E+02  0.32985661366E+03  0.35652661350E+03  0.00000000000E+00 0.  1.
          2    1    6    6  502    0 -0.19286954788E+03  0.99425559759E+02 -0.80357331962E+02  0.23139015803E+03  0.00000000000E+00 0. -1.
          1    1    5    5  503    0 -0.27310439495E+03  0.51884326519E+02  0.29502167038E+03  0.40535882854E+03  0.00000000000E+00 0. -1.
         -2    1    5    5    0  503 -0.15978925284E+03  0.19729619152E+02  0.26470566216E+03  0.30982406423E+03  0.00000000000E+00 0.  1.
         -1    1    6    6    0  502 -0.47050635221E+03  0.11004327438E+03 -0.18989104357E+03  0.51917661555E+03  0.00000000000E+00 0.  1.
<mgrwt>
<rscale>  0 0.31146067E+04</rscale>
<asrwt>0</asrwt>
<pdfrwt beam="1">  1        2 0.52057790E+00 0.31146067E+04</pdfrwt>
<pdfrwt beam="2">  1       -2 0.11026407E+00 0.31146067E+04</pdfrwt>
<totfact> 0.54120724E-01</totfact>
</mgrwt>
</event>
<event>
12    1  0.1599266E-007  0.2830748E+04  0.7818608E-02  0.8293786E-01
         -1   -1    0    0    0  501 -0.00000000000E+00  0.00000000000E+00  0.14150602970E+04  0.14150602970E+04  0.00000000000E+00 0.  1.
          1   -1    0    0  501    0  0.00000000000E+00 -0.00000000000E+00 -0.14156873775E+04  0.14156873775E+04  0.00000000000E+00 0. -1.
         23    2    1    2    0    0 -0.31673594843E+03  0.12325660067E+04 -0.38030393848E+02  0.12764192590E+04  0.90880097239E+02 0.  0.
        254    2    1    2    0    0  0.31673594843E+03 -0.12325660067E+04  0.37403313308E+02  0.15543284154E+04  0.89162615114E+03 0.  0.
        -24    2    4    4    0    0  0.11546736705E+02 -0.12106728178E+04 -0.83212411400E+02  0.12157707364E+04  0.72884697745E+02 0.  0.
         24    2    4    4    0    0  0.30518921172E+03 -0.21893188874E+02  0.12061572471E+03  0.33855767906E+03  0.80332946761E+02 0.  0.
         13    1    3    3    0    0 -0.24964902556E+03  0.89831076673E+03 -0.63728172004E+02  0.93453097835E+03  0.00000000000E+00 0. -1.
        -13    1    3    3    0    0 -0.67086922869E+02  0.33425523993E+03  0.25697778156E+02  0.34188828065E+03  0.00000000000E+00 0.  1.
          2    1    6    6  502    0  0.80898196390E+02  0.28052691922E+02  0.21332203964E+02  0.88241343083E+02  0.00000000000E+00 0. -1.
          1    1    5    5  503    0  0.25459397195E+01 -0.34941542779E+03  0.90272083291E+01  0.34954129009E+03  0.00000000000E+00 0. -1.
         -2    1    5    5    0  503  0.90007969853E+01 -0.86125739000E+03 -0.92239619730E+02  0.86622944629E+03  0.00000000000E+00 0.  1.
         -1    1    6    6    0  502  0.22429101533E+03 -0.49945880796E+02  0.99283520745E+02  0.25031633598E+03  0.00000000000E+00 0.  1.
<mgrwt>
<rscale>  0 0.28307476E+04</rscale>
<asrwt>0</asrwt>
<pdfrwt beam="1">  1        1 0.21779806E+00 0.28307476E+04</pdfrwt>
<pdfrwt beam="2">  1       -1 0.21770158E+00 0.28307476E+04</pdfrwt>
<totfact> 0.73753579E-01</totfact>
</mgrwt>
</event>
<event>
12    1  0.1599266E-007  0.2519295E+04  0.7818608E-02  0.8396144E-01
          2   -1    0    0  501    0  0.00000000000E+00  0.00000000000E+00  0.24721450318E+04  0.24721450318E+04  0.00000000000E+00 0. -1.
         -2   -1    0    0    0  501 -0.00000000000E+00 -0.00000000000E+00 -0.64183605384E+03  0.64183605384E+03  0.00000000000E+00 0.  1.
         23    2    1    2    0    0  0.11412699705E+03 -0.80064041577E+03  0.17259933794E+04  0.19084878015E+04  0.96033825275E+02 0.  0.
        254    2    1    2    0    0 -0.11412699705E+03  0.80064041577E+03  0.10431559856E+03  0.12054932842E+04  0.88785261582E+03 0.  0.
        -24    2    4    4    0    0 -0.46213039280E+03  0.64077454828E+03  0.16005511605E+03  0.81001206794E+03  0.79657946047E+02 0.  0.
         24    2    4    4    0    0  0.34800339575E+03  0.15986586749E+03 -0.55739517497E+02  0.39548121629E+03  0.81455752320E+02 0.  0.
         11    1    3    3    0    0  0.65159447174E+02 -0.60841674457E+03  0.12160091834E+04  0.13612843284E+04  0.00000000000E+00 0. -1.
        -11    1    3    3    0    0  0.48967549879E+02 -0.19222367119E+03  0.50998419603E+03  0.54720347304E+03  0.00000000000E+00 0.  1.
          4    1    6    6  502    0  0.31023236562E+03  0.13604454712E+03 -0.74827965070E+02  0.34691708496E+03  0.00000000000E+00 0. -1.
          3    1    5    5  503    0 -0.11924680264E+03  0.21854524669E+03  0.30007750876E+02  0.25076341420E+03  0.00000000000E+00 0. -1.
         -4    1    5    5    0  503 -0.34288359016E+03  0.42222930159E+03  0.13004736518E+03  0.55924865374E+03  0.00000000000E+00 0.  1.
         -3    1    6    6    0  502  0.37771030129E+02  0.23821320375E+02  0.19088447573E+02  0.48564131333E+02  0.00000000000E+00 0.  1.
<mgrwt>
<rscale>  0 0.25192950E+04</rscale>
<asrwt>0</asrwt>
<pdfrwt beam="1">  1        2 0.38033000E+00 0.25192950E+04</pdfrwt>
<pdfrwt beam="2">  1       -2 0.98744009E-01 0.25192950E+04</pdfrwt>
<totfact> 0.27375264E+00</totfact>
</mgrwt>
</event>
<event>
12    1  0.1599266E-007  0.1413541E+04  0.7818608E-02  0.8944074E-01
          2   -1    0    0  501    0  0.00000000000E+00  0.00000000000E+00  0.71181139191E+03  0.71181139191E+03  0.00000000000E+00 0. -1.
         -2   -1    0    0    0  501 -0.00000000000E+00 -0.00000000000E+00 -0.70176578759E+03  0.70176578759E+03  0.00000000000E+00 0.  1.
         23    2    1    2    0    0  0.23377543347E+03  0.32926203166E+03  0.60022557429E+02  0.41837514220E+03  0.91491056492E+02 0.  0.
        254    2    1    2    0    0 -0.23377543347E+03 -0.32926203166E+03 -0.49976953106E+02  0.99520203730E+03  0.90822076634E+03 0.  0.
        -24    2    4    4    0    0  0.78590233906E+02 -0.20164385955E+03 -0.42540743120E+03  0.48404380011E+03  0.80562068889E+02 0.  0.
         24    2    4    4    0    0 -0.31236566738E+03 -0.12761817211E+03  0.37543047809E+03  0.51115823719E+03  0.80473545687E+02 0.  0.
         11    1    3    3    0    0  0.41437909790E+02  0.73137740392E+02  0.50227089017E+02  0.97923387955E+02  0.00000000000E+00 0. -1.
        -11    1    3    3    0    0  0.19233752368E+03  0.25612429127E+03  0.97954684111E+01  0.32045175424E+03  0.00000000000E+00 0.  1.
          4    1    6    6  502    0 -0.16173958504E+03 -0.25119346143E+02  0.19729771988E+03  0.25635339902E+03  0.00000000000E+00 0. -1.
          3    1    5    5  503    0  0.59190169171E+02 -0.14923167158E+03 -0.22781100901E+03  0.27869593423E+03  0.00000000000E+00 0. -1.
         -4    1    5    5    0  503  0.19400064735E+02 -0.52412187971E+02 -0.19759642219E+03  0.20534786588E+03  0.00000000000E+00 0.  1.
         -1    1    6    6    0  502 -0.15062608234E+03 -0.10249882597E+03  0.17813275822E+03  0.25480483817E+03  0.00000000000E+00 0.  1.
<mgrwt>
<rscale>  0 0.14135415E+04</rscale>
<asrwt>0</asrwt>
<pdfrwt beam="1">  1        2 0.10950945E+00 0.14135415E+04</pdfrwt>
<pdfrwt beam="2">  1       -2 0.10796397E+00 0.14135415E+04</pdfrwt>
<totfact> 0.26812315E+01</totfact>
</mgrwt>
</event>
<event>
12    1  0.1599266E-007  0.2393119E+04  0.7818608E-02  0.8442084E-01
         -1   -1    0    0    0  501 -0.00000000000E+00  0.00000000000E+00  0.22727397722E+04  0.22727397722E+04  0.00000000000E+00 0.  1.
          1   -1    0    0  501    0  0.00000000000E+00 -0.00000000000E+00 -0.62996879195E+03  0.62996879195E+03  0.00000000000E+00 0. -1.
         23    2    1    2    0    0  0.44213785966E+03  0.36378452449E+03  0.17446848304E+04  0.18385285593E+04  0.91853354903E+02 0.  0.
        254    2    1    2    0    0 -0.44213785966E+03 -0.36378452449E+03 -0.10191385011E+03  0.10641800049E+04  0.89121691115E+03 0.  0.
        -24    2    4    4    0    0 -0.32102233513E+03 -0.22750039179E+03  0.37293904769E+03  0.54880928586E+03  0.85418563809E+02 0.  0.
         24    2    4    4    0    0 -0.12111552453E+03 -0.13628413270E+03 -0.47485289780E+03  0.51537071901E+03  0.82941957779E+02 0.  0.
         11    1    3    3    0    0  0.29492804505E+03  0.24632087969E+03  0.13001387292E+04  0.13557349456E+04  0.00000000000E+00 0.  1.
        -11    1    3    3    0    0  0.14720981461E+03  0.11746364480E+03  0.44454610120E+03  0.48279361373E+03  0.00000000000E+00 0. -1.
          2    1    6    6  502    0 -0.89222582272E+02 -0.13457606120E+03 -0.33452898063E+03  0.37145797113E+03  0.00000000000E+00 0. -1.
          3    1    5    5  503    0 -0.23985033967E+03 -0.12563106012E+03  0.27426484022E+03  0.38539921028E+03  0.00000000000E+00 0. -1.
         -4    1    5    5    0  503 -0.81171995458E+02 -0.10186933167E+03  0.98674207470E+02  0.16341007558E+03  0.00000000000E+00 0.  1.
         -1    1    6    6    0  502 -0.31892942261E+02 -0.17080715094E+01 -0.14032391717E+03  0.14391274789E+03  0.00000000000E+00 0.  1.
<mgrwt>
<rscale>  0 0.23931194E+04</rscale>
<asrwt>0</asrwt>
<pdfrwt beam="1">  1        1 0.96918277E-01 0.23931194E+04</pdfrwt>
<pdfrwt beam="2">  1       -1 0.34965227E+00 0.23931194E+04</pdfrwt>
<totfact> 0.44697569E-01</totfact>
</mgrwt>
</event>
<event>
12    1  0.1599266E-007  0.1268908E+04  0.7818608E-02  0.9054592E-01
         -2   -1    0    0    0  501 -0.00000000000E+00  0.00000000000E+00  0.15947008710E+03  0.15947008710E+03  0.00000000000E+00 0. -1.
          2   -1    0    0  501    0  0.00000000000E+00 -0.00000000000E+00 -0.25241826009E+04  0.25241826009E+04  0.00000000000E+00 0.  1.
         23    2    1    2    0    0  0.15805508261E+03  0.10161572072E+03 -0.10129722713E+04  0.10343509978E+04  0.91989131479E+02 0.  0.
        254    2    1    2    0    0 -0.15805508261E+03 -0.10161572072E+03 -0.13517402425E+04  0.16493016903E+04  0.92611404180E+03 0.  0.
        -24    2    4    4    0    0 -0.11647854018E+03 -0.45493570839E+03 -0.37391013183E+03  0.60563586763E+03  0.80326013083E+02 0.  0.
         24    2    4    4    0    0 -0.41576542431E+02  0.35331998767E+03 -0.97783011069E+03  0.10436658226E+04  0.80765100132E+02 0.  0.
         11    1    3    3    0    0  0.11070930668E+03  0.43013423565E+02 -0.79276417430E+03  0.80161196426E+03  0.00000000000E+00 0.  1.
        -11    1    3    3    0    0  0.47345775935E+02  0.58602297156E+02 -0.22020809701E+03  0.23273903351E+03  0.00000000000E+00 0. -1.
          4    1    6    6  502    0 -0.81314223895E+01  0.79016851969E+02 -0.13437341846E+03  0.15609611947E+03  0.00000000000E+00 0. -1.
          3    1    5    5  503    0 -0.34856755643E+02 -0.43842334703E+02 -0.59343798720E+02  0.81601655453E+02  0.00000000000E+00 0. -1.
         -4    1    5    5    0  503 -0.81621784540E+02 -0.41109337369E+03 -0.31456633311E+03  0.52403421217E+03  0.00000000000E+00 0.  1.
         -3    1    6    6    0  502 -0.33445120042E+02  0.27430313570E+03 -0.84345669223E+03  0.88756970317E+03  0.00000000000E+00 0.  1.
<mgrwt>
<rscale>  0 0.12689076E+04</rscale>
<asrwt>0</asrwt>
<pdfrwt beam="1">  1        2 0.38833579E+00 0.12689076E+04</pdfrwt>
<pdfrwt beam="2">  1       -2 0.24533859E-01 0.12689076E+04</pdfrwt>
<totfact> 0.49411029E+01</totfact>
</mgrwt>
</event>
<event>
12    1  0.1599266E-007  0.1224093E+04  0.7818608E-02  0.9092026E-01
         -2   -1    0    0    0  501 -0.00000000000E+00  0.00000000000E+00  0.27830030217E+03  0.27830030217E+03  0.00000000000E+00 0.  1.
          2   -1    0    0  501    0  0.00000000000E+00 -0.00000000000E+00 -0.13460310226E+04  0.13460310226E+04  0.00000000000E+00 0. -1.
         23    2    1    2    0    0 -0.27055602945E+02 -0.24005537076E+03 -0.82719383356E+02  0.27058897143E+03  0.89539423712E+02 0.  0.
        254    2    1    2    0    0  0.27055602945E+02  0.24005537076E+03 -0.98501133709E+03  0.13537423533E+04  0.89666740677E+03 0.  0.
        -24    2    4    4    0    0  0.41557313899E+03  0.14379640851E+03 -0.77319539865E+03  0.89309077783E+03  0.80009824435E+02 0.  0.
         24    2    4    4    0    0 -0.38851753605E+03  0.96258962248E+02 -0.21181593844E+03  0.46065157551E+03  0.84393237951E+02 0.  0.
         13    1    3    3    0    0  0.22576574217E+02 -0.95091702463E+02 -0.62562843268E+02  0.11604414220E+03  0.00000000000E+00 0. -1.
        -13    1    3    3    0    0 -0.49632177162E+02 -0.14496366829E+03 -0.20156540087E+02  0.15454482923E+03  0.00000000000E+00 0.  1.
          4    1    6    6  502    0 -0.82669590030E+02 -0.14198834325E+02 -0.43971144784E+02  0.94706544576E+02  0.00000000000E+00 0. -1.
          1    1    5    5  503    0  0.12059946293E+03  0.73364199971E+02 -0.29148941561E+03  0.32387129498E+03  0.00000000000E+00 0. -1.
         -2    1    5    5    0  503  0.29497367606E+03  0.70432208537E+02 -0.48170598304E+03  0.56921948286E+03  0.00000000000E+00 0.  1.
         -1    1    6    6    0  502 -0.30584794602E+03  0.11045779657E+03 -0.16784479365E+03  0.36594503093E+03  0.00000000000E+00 0.  1.
<mgrwt>
<rscale>  0 0.12240929E+04</rscale>
<asrwt>0</asrwt>
<pdfrwt beam="1">  1        2 0.20708169E+00 0.12240929E+04</pdfrwt>
<pdfrwt beam="2">  1       -2 0.42815431E-01 0.12240929E+04</pdfrwt>
<totfact> 0.79156323E+01</totfact>
</mgrwt>
</event>
<event>
12    1  0.1599266E-007  0.1724133E+04  0.7818608E-02  0.8747719E-01
          1   -1    0    0  501    0  0.00000000000E+00  0.00000000000E+00  0.26493523066E+04  0.26493523066E+04  0.00000000000E+00 0. -1.
         -1   -1    0    0    0  501 -0.00000000000E+00 -0.00000000000E+00 -0.28050571821E+03  0.28050571821E+03  0.00000000000E+00 0.  1.
         23    2    1    2    0    0  0.22306525424E+03 -0.44114033574E+03  0.14961468505E+04  0.15784799338E+04  0.93704853936E+02 0.  0.
        254    2    1    2    0    0 -0.22306525424E+03  0.44114033574E+03  0.87269973796E+03  0.13513780911E+04  0.90567930800E+03 0.  0.
        -24    2    4    4    0    0  0.27945139633E+03  0.10814919735E+03  0.62020322513E+03  0.69360515186E+03  0.81527507130E+02 0.  0.
         24    2    4    4    0    0 -0.50251665058E+03  0.33299113840E+03  0.25249651282E+03  0.65777293922E+03  0.74193451317E+02 0.  0.
         11    1    3    3    0    0  0.10071884235E+03 -0.26572372021E+03  0.96246877349E+03  0.10035434822E+04  0.00000000000E+00 0. -1.
        -11    1    3    3    0    0  0.12234641189E+03 -0.17541661553E+03  0.53367807700E+03  0.57493645160E+03  0.00000000000E+00 0.  1.
          4    1    6    6  502    0 -0.89145491377E+02  0.62131534697E+02  0.77623706318E+02  0.13353908049E+03  0.00000000000E+00 0. -1.
          1    1    5    5  503    0  0.11211180423E+03  0.10266961075E+02  0.28418794568E+03  0.30567508175E+03  0.00000000000E+00 0. -1.
         -2    1    5    5    0  503  0.16733959210E+03  0.97882236271E+02  0.33601527946E+03  0.38793007010E+03  0.00000000000E+00 0.  1.
         -3    1    6    6    0  502 -0.41337115920E+03  0.27085960370E+03  0.17487280651E+03  0.52423385872E+03  0.00000000000E+00 0.  1.
<mgrwt>
<rscale>  0 0.17241328E+04</rscale>
<asrwt>0</asrwt>
<pdfrwt beam="1">  1        1 0.40759265E+00 0.17241328E+04</pdfrwt>
<pdfrwt beam="2">  1       -1 0.43154728E-01 0.17241328E+04</pdfrwt>
<totfact> 0.53682256E+00</totfact>
</mgrwt>
</event>
<event>
12    1  0.1599266E-007  0.3755051E+04  0.7818608E-02  0.8055870E-01
          1   -1    0    0  501    0  0.00000000000E+00  0.00000000000E+00  0.16513189690E+04  0.16513189690E+04  0.00000000000E+00 0. -1.
         -1   -1    0    0    0  501 -0.00000000000E+00 -0.00000000000E+00 -0.21347188055E+04  0.21347188055E+04  0.00000000000E+00 0.  1.
         23    2    1    2    0    0  0.36963921493E+02  0.56231609395E+03 -0.19190398239E+04  0.20021467359E+04  0.91170090760E+02 0.  0.
        254    2    1    2    0    0 -0.36963921493E+02 -0.56231609395E+03  0.14356399873E+04  0.17838910386E+04  0.89645933730E+03 0.  0.
        -24    2    4    4    0    0  0.34354360263E+03  0.24592520057E+02  0.45682141961E+03  0.57821424599E+03  0.83778910831E+02 0.  0.
         24    2    4    4    0    0 -0.38050752412E+03 -0.58690861401E+03  0.97881856768E+03  0.12056767926E+04  0.79517562056E+02 0.  0.
         13    1    3    3    0    0  0.38451639835E+02  0.26370720754E+03 -0.10475662358E+04  0.10809324855E+04  0.00000000000E+00 0. -1.
        -13    1    3    3    0    0 -0.14877183422E+01  0.29860888642E+03 -0.87147358812E+03  0.92121425040E+03  0.00000000000E+00 0.  1.
          2    1    6    6  502    0 -0.71274335614E+02 -0.16106305017E+03  0.21172093739E+03  0.27540350829E+03  0.00000000000E+00 0. -1.
          3    1    5    5  503    0  0.12488249743E+03  0.49577023004E+02  0.17031731432E+03  0.21693664267E+03  0.00000000000E+00 0. -1.
         -4    1    5    5    0  503  0.21866110519E+03 -0.24984502947E+02  0.28650410529E+03  0.36127760332E+03  0.00000000000E+00 0.  1.
         -1    1    6    6    0  502 -0.30923318850E+03 -0.42584556383E+03  0.76709763029E+03  0.93027328431E+03  0.00000000000E+00 0.  1.
<mgrwt>
<rscale>  0 0.37550508E+04</rscale>
<asrwt>0</asrwt>
<pdfrwt beam="1">  1        1 0.25404907E+00 0.37550508E+04</pdfrwt>
<pdfrwt beam="2">  1       -1 0.32841828E+00 0.37550508E+04</pdfrwt>
<totfact> 0.88579906E-02</totfact>
</mgrwt>
</event>
<event>
12    1  0.1599266E-007  0.1595144E+04  0.7818608E-02  0.8823537E-01
         -2   -1    0    0    0  501 -0.00000000000E+00  0.00000000000E+00  0.28722021971E+03  0.28722021971E+03  0.00000000000E+00 0.  1.
          2   -1    0    0  501    0  0.00000000000E+00 -0.00000000000E+00 -0.22147505175E+04  0.22147505175E+04  0.00000000000E+00 0. -1.
         23    2    1    2    0    0  0.44893039645E+03 -0.26107781612E+03 -0.54799543830E+03  0.76193873473E+03  0.10272053426E+03 0.  0.
        254    2    1    2    0    0 -0.44893039645E+03  0.26107781612E+03 -0.13795348594E+04  0.17400320024E+04  0.92460522069E+03 0.  0.
        -24    2    4    4    0    0  0.19465978302E+03  0.32134362012E+03 -0.33916262945E+03  0.51262649755E+03  0.81243359412E+02 0.  0.
         24    2    4    4    0    0 -0.64359017947E+03 -0.60265804007E+02 -0.10403722300E+04  0.12274055049E+04  0.79433055115E+02 0.  0.
         13    1    3    3    0    0  0.51983707730E+02 -0.85090449469E+01 -0.24518292959E+02  0.58102120485E+02  0.00000000000E+00 0. -1.
        -13    1    3    3    0    0  0.39694668872E+03 -0.25256877117E+03 -0.52347714534E+03  0.70383661425E+03  0.00000000000E+00 0.  1.
          4    1    6    6  502    0 -0.50697269474E+03 -0.16734051270E+02 -0.83298102909E+03  0.97527367262E+03  0.00000000000E+00 0. -1.
          3    1    5    5  503    0  0.34278969166E+02  0.13129494417E+03 -0.11756603181E+03  0.17954158829E+03  0.00000000000E+00 0. -1.
         -4    1    5    5    0  503  0.16038081385E+03  0.19004867596E+03 -0.22159659764E+03  0.33308490925E+03  0.00000000000E+00 0.  1.
         -3    1    6    6    0  502 -0.13661748472E+03 -0.43531752736E+02 -0.20739120091E+03  0.25213183227E+03  0.00000000000E+00 0.  1.
<mgrwt>
<rscale>  0 0.15951440E+04</rscale>
<asrwt>0</asrwt>
<pdfrwt beam="1">  1        2 0.34073085E+00 0.15951440E+04</pdfrwt>
<pdfrwt beam="2">  1       -2 0.44187726E-01 0.15951440E+04</pdfrwt>
<totfact> 0.23622878E+01</totfact>
</mgrwt>
</event>
<event>
12    1  0.1599266E-007  0.1150379E+04  0.7818608E-02  0.9157434E-01
         -2   -1    0    0    0  501 -0.00000000000E+00  0.00000000000E+00  0.14436204422E+03  0.14436204422E+03  0.00000000000E+00 0.  1.
          2   -1    0    0  501    0  0.00000000000E+00 -0.00000000000E+00 -0.22917595875E+04  0.22917595875E+04  0.00000000000E+00 0. -1.
         23    2    1    2    0    0 -0.71713523450E+02  0.17607314726E+03 -0.27779493039E+03  0.35246628493E+03  0.10448864067E+03 0.  0.
        254    2    1    2    0    0  0.71713523450E+02 -0.17607314726E+03 -0.18696026129E+04  0.20836553468E+04  0.90003393906E+03 0.  0.
        -24    2    4    4    0    0  0.31854991656E+03 -0.67363863861E+02 -0.17439494496E+04  0.17757517284E+04  0.76958291904E+02 0.  0.
         24    2    4    4    0    0 -0.24683639311E+03 -0.10870928340E+03 -0.12565316330E+03  0.30790361840E+03  0.79183379040E+02 0.  0.
         11    1    3    3    0    0 -0.25253096256E+02  0.16761500266E+03 -0.21074035809E+03  0.27045148644E+03  0.00000000000E+00 0.  1.
        -11    1    3    3    0    0 -0.46460427193E+02  0.84581445956E+01 -0.67054572303E+02  0.82014798492E+02  0.00000000000E+00 0. -1.
          4    1    6    6  502    0 -0.13347158920E+03 -0.20790095103E+02 -0.81669413842E+02  0.15785051896E+03  0.00000000000E+00 0. -1.
          3    1    5    5  503    0  0.24746651047E+02 -0.44176662098E+01 -0.57653532249E+02  0.62895487068E+02  0.00000000000E+00 0. -1.
         -4    1    5    5    0  503  0.29380326551E+03 -0.62946197651E+02 -0.16862959173E+04  0.17128562413E+04  0.00000000000E+00 0.  1.
         -3    1    6    6    0  502 -0.11336480391E+03 -0.87919188295E+02 -0.43983749462E+02  0.15005309944E+03  0.00000000000E+00 0.  1.
<mgrwt>
<rscale>  0 0.11503792E+04</rscale>
<asrwt>0</asrwt>
<pdfrwt beam="1">  1        2 0.35257837E+00 0.11503792E+04</pdfrwt>
<pdfrwt beam="2">  1       -2 0.22209547E-01 0.11503792E+04</pdfrwt>
<totfact> 0.80905998E+01</totfact>
</mgrwt>
</event>
<event>
12    1  0.1599266E-007  0.4005025E+04  0.7818608E-02  0.8003534E-01
          2   -1    0    0  501    0  0.00000000000E+00  0.00000000000E+00  0.25065403092E+04  0.25065403092E+04  0.00000000000E+00 0. -1.
         -2   -1    0    0    0  501 -0.00000000000E+00 -0.00000000000E+00 -0.15998368330E+04  0.15998368330E+04  0.00000000000E+00 0.  1.
         23    2    1    2    0    0  0.13491136153E+04  0.13260236727E+04  0.62717994152E+03  0.19949246366E+04  0.89012915414E+02 0.  0.
        254    2    1    2    0    0 -0.13491136153E+04 -0.13260236727E+04  0.27952353471E+03  0.21114525056E+04  0.89535018256E+03 0.  0.
        -24    2    4    4    0    0 -0.84896833411E+03 -0.79445962902E+03  0.59962131817E+03  0.13107098318E+04  0.80630040461E+02 0.  0.
         24    2    4    4    0    0 -0.50014528119E+03 -0.53156404366E+03 -0.32009778345E+03  0.80074267382E+03  0.77592550576E+02 0.  0.
         13    1    3    3    0    0  0.11707766624E+04  0.11781406812E+04  0.52729320757E+03  0.17426335199E+04  0.00000000000E+00 0. -1.
        -13    1    3    3    0    0  0.17833695291E+03  0.14788299146E+03  0.99886733955E+02  0.25229111668E+03  0.00000000000E+00 0.  1.
          4    1    6    6  502    0 -0.32463892301E+03 -0.39682903971E+03 -0.22107354679E+03  0.55833433548E+03  0.00000000000E+00 0. -1.
          1    1    5    5  503    0 -0.36444129164E+03 -0.28976794659E+03  0.25375450669E+03  0.53025867988E+03  0.00000000000E+00 0. -1.
         -2    1    5    5    0  503 -0.48452704247E+03 -0.50469168243E+03  0.34586681148E+03  0.78045115188E+03  0.00000000000E+00 0.  1.
         -3    1    6    6    0  502 -0.17550635818E+03 -0.13473500395E+03 -0.99024236661E+02  0.24240833834E+03  0.00000000000E+00 0.  1.
<mgrwt>
<rscale>  0 0.40050246E+04</rscale>
<asrwt>0</asrwt>
<pdfrwt beam="1">  1        2 0.38562159E+00 0.40050246E+04</pdfrwt>
<pdfrwt beam="2">  1       -2 0.24612874E+00 0.40050246E+04</pdfrwt>
<totfact> 0.18474194E-01</totfact>
</mgrwt>
</event>
<event>
12    1  0.1599266E-007  0.1540242E+04  0.7818608E-02  0.8858125E-01
          2   -1    0    0  501    0  0.00000000000E+00  0.00000000000E+00  0.98359629539E+03  0.98359629539E+03  0.00000000000E+00 0.  1.
         -2   -1    0    0    0  501 -0.00000000000E+00 -0.00000000000E+00 -0.60297761274E+03  0.60297761274E+03  0.00000000000E+00 0. -1.
         23    2    1    2    0    0 -0.27198161056E+03 -0.30674266344E+03  0.49098826569E+03  0.64639618275E+03  0.93238886573E+02 0.  0.
        254    2    1    2    0    0  0.27198161056E+03  0.30674266344E+03 -0.11036958304E+03  0.94017772538E+03  0.83886092553E+03 0.  0.
        -24    2    4    4    0    0  0.49172457936E+03  0.19586370336E+02 -0.23241811178E+03  0.55002251577E+03  0.79560676981E+02 0.  0.
         24    2    4    4    0    0 -0.21974296879E+03  0.28715629311E+03  0.12204852874E+03  0.39015520961E+03  0.81114334224E+02 0.  0.
         13    1    3    3    0    0 -0.22447023751E+03 -0.19671557758E+03  0.37854967378E+03  0.48206198928E+03  0.00000000000E+00 0.  1.
        -13    1    3    3    0    0 -0.47511373053E+02 -0.11002708586E+03  0.11243859191E+03  0.16433419347E+03  0.00000000000E+00 0. -1.
          2    1    6    6  502    0 -0.57059900712E+02  0.44598652657E+02  0.53819869558E+02  0.90229986409E+02  0.00000000000E+00 0. -1.
          3    1    5    5  503    0  0.63012542304E+02  0.22260856579E+02 -0.52909526336E+02  0.85238161643E+02  0.00000000000E+00 0. -1.
         -4    1    5    5    0  503  0.42871203705E+03 -0.26744862427E+01 -0.17950858544E+03  0.46478435412E+03  0.00000000000E+00 0.  1.
         -1    1    6    6    0  502 -0.16268306808E+03  0.24255764045E+03  0.68228659179E+02  0.29992522320E+03  0.00000000000E+00 0.  1.
<mgrwt>
<rscale>  0 0.15402422E+04</rscale>
<asrwt>0</asrwt>
<pdfrwt beam="1">  1        2 0.15132251E+00 0.15402422E+04</pdfrwt>
<pdfrwt beam="2">  1       -2 0.92765787E-01 0.15402422E+04</pdfrwt>
<totfact> 0.24500907E+01</totfact>
</mgrwt>
</event>
<event>
12    1  0.1599266E-007  0.1202360E+04  0.7818608E-02  0.9110793E-01
         -1   -1    0    0    0  501 -0.00000000000E+00  0.00000000000E+00  0.27539495047E+04  0.27539495047E+04  0.00000000000E+00 0.  1.
          1   -1    0    0  501    0  0.00000000000E+00 -0.00000000000E+00 -0.13123600477E+03  0.13123600477E+03  0.00000000000E+00 0. -1.
         23    2    1    2    0    0  0.11220116369E+03  0.21482933497E+03  0.71747606310E+03  0.76276213191E+03  0.91068240658E+02 0.  0.
        254    2    1    2    0    0 -0.11220116369E+03 -0.21482933497E+03  0.19052374369E+04  0.21224233776E+04  0.90333302755E+03 0.  0.
        -24    2    4    4    0    0  0.24878349895E+03 -0.10027553505E+03  0.13478164102E+03  0.31030533030E+03  0.78580499992E+02 0.  0.
         24    2    4    4    0    0 -0.36098466264E+03 -0.11455379992E+03  0.17704557959E+04  0.18121180473E+04  0.76325569573E+02 0.  0.
         13    1    3    3    0    0  0.12554884076E+03  0.19494738407E+03  0.67838578328E+03  0.71691998502E+03  0.00000000000E+00 0.  1.
        -13    1    3    3    0    0 -0.13347677069E+02  0.19881950896E+02  0.39090279829E+02  0.45842146892E+02  0.00000000000E+00 0. -1.
          4    1    6    6  502    0 -0.75599939813E+02  0.68916962584E+01  0.32170354337E+03  0.33053897833E+03  0.00000000000E+00 0. -1.
          3    1    5    5  503    0  0.68761520914E+02 -0.25298323574E+02  0.32419595833E-01  0.73267680359E+02  0.00000000000E+00 0. -1.
         -4    1    5    5    0  503  0.18002197803E+03 -0.74977211478E+02  0.13474922142E+03  0.23703764994E+03  0.00000000000E+00 0.  1.
         -3    1    6    6    0  502 -0.28538472282E+03 -0.12144549617E+03  0.14487522525E+04  0.14815790690E+04  0.00000000000E+00 0.  1.
<mgrwt>
<rscale>  0 0.12023599E+04</rscale>
<asrwt>0</asrwt>
<pdfrwt beam="1">  1        1 0.20190157E-01 0.12023599E+04</pdfrwt>
<pdfrwt beam="2">  1       -1 0.42368450E+00 0.12023599E+04</pdfrwt>
<totfact> 0.12813663E+00</totfact>
</mgrwt>
</event>
<event>
12    1  0.1599266E-007  0.2209110E+04  0.7818608E-02  0.8514646E-01
          1   -1    0    0  501    0  0.00000000000E+00  0.00000000000E+00  0.11399318599E+04  0.11399318599E+04  0.00000000000E+00 0. -1.
         -1   -1    0    0    0  501 -0.00000000000E+00 -0.00000000000E+00 -0.10702758155E+04  0.10702758155E+04  0.00000000000E+00 0.  1.
         23    2    1    2    0    0 -0.77994858242E+03 -0.48438710409E+03  0.69883442463E+02  0.92523109120E+03  0.90654391833E+02 0.  0.
        254    2    1    2    0    0  0.77994858242E+03  0.48438710409E+03 -0.22739805128E+00  0.12849765843E+04  0.89900729285E+03 0.  0.
        -24    2    4    4    0    0  0.50602989735E+02  0.22430341289E+03  0.35412864767E+03  0.42968775262E+03  0.79698067979E+02 0.  0.
         24    2    4    4    0    0  0.72934559269E+03  0.26008369120E+03 -0.35435604573E+03  0.85528883166E+03  0.79763766359E+02 0.  0.
         13    1    3    3    0    0 -0.68114316949E+03 -0.45596906211E+03  0.66465177166E+02  0.82236331553E+03  0.00000000000E+00 0. -1.
        -13    1    3    3    0    0 -0.98805412926E+02 -0.28418041981E+02  0.34182652975E+01  0.10286777567E+03  0.00000000000E+00 0.  1.
          4    1    6    6  502    0  0.45444003225E+02 -0.21270657383E+01 -0.28051506021E+02  0.53446878560E+02  0.00000000000E+00 0. -1.
          3    1    5    5  503    0 -0.32881181819E+00  0.55339751822E+02  0.36395749558E+02  0.66236295449E+02  0.00000000000E+00 0. -1.
         -4    1    5    5    0  503  0.50931801553E+02  0.16896366107E+03  0.31773289812E+03  0.36345145717E+03  0.00000000000E+00 0.  1.
         -3    1    6    6    0  502  0.68390158946E+03  0.26221075694E+03 -0.32630453971E+03  0.80184195310E+03  0.00000000000E+00 0.  1.
<mgrwt>
<rscale>  0 0.22091098E+04</rscale>
<asrwt>0</asrwt>
<pdfrwt beam="1">  1        1 0.17537413E+00 0.22091098E+04</pdfrwt>
<pdfrwt beam="2">  1       -1 0.16465782E+00 0.22091098E+04</pdfrwt>
<totfact> 0.29064938E+00</totfact>
</mgrwt>
</event>
<event>
12    1  0.1599266E-007  0.2036739E+04  0.7818608E-02  0.8589634E-01
         -1   -1    0    0    0  501 -0.00000000000E+00  0.00000000000E+00  0.49077471890E+03  0.49077471890E+03  0.00000000000E+00 0.  1.
          1   -1    0    0  501    0  0.00000000000E+00 -0.00000000000E+00 -0.21131407710E+04  0.21131407710E+04  0.00000000000E+00 0. -1.
         23    2    1    2    0    0 -0.36590685691E+03  0.48136528141E+03 -0.13561826666E+04  0.14875245845E+04  0.88868454591E+02 0.  0.
        254    2    1    2    0    0  0.36590685691E+03 -0.48136528141E+03 -0.26618338544E+03  0.11163909053E+04  0.89993038439E+03 0.  0.
        -24    2    4    4    0    0  0.43375152542E+03 -0.25962279682E+02  0.17326411492E+03  0.47462819325E+03  0.80231181819E+02 0.  0.
         24    2    4    4    0    0 -0.67844668511E+02 -0.45540300173E+03 -0.43944750036E+03  0.64176271209E+03  0.82161304890E+02 0.  0.
         11    1    3    3    0    0 -0.97410985089E+02  0.70246195621E+02 -0.26190710592E+03  0.28812976269E+03  0.00000000000E+00 0.  1.
        -11    1    3    3    0    0 -0.26849587182E+03  0.41111908579E+03 -0.10942755607E+04  0.11993948218E+04  0.00000000000E+00 0. -1.
          2    1    6    6  502    0 -0.36430599212E+02 -0.39757491962E+03 -0.35155170958E+03  0.53196015807E+03  0.00000000000E+00 0. -1.
          1    1    5    5  503    0  0.35352773240E+03  0.15161951675E+01  0.11509051464E+03  0.37179293025E+03  0.00000000000E+00 0. -1.
         -2    1    5    5    0  503  0.80223793024E+02 -0.27478474850E+02  0.58173600277E+02  0.10283526300E+03  0.00000000000E+00 0.  1.
         -1    1    6    6    0  502 -0.31414069299E+02 -0.57828082110E+02 -0.87895790787E+02  0.10980255402E+03  0.00000000000E+00 0.  1.
<mgrwt>
<rscale>  0 0.20367386E+04</rscale>
<asrwt>0</asrwt>
<pdfrwt beam="1">  1        1 0.32509857E+00 0.20367386E+04</pdfrwt>
<pdfrwt beam="2">  1       -1 0.75503805E-01 0.20367386E+04</pdfrwt>
<totfact> 0.40698435E+00</totfact>
</mgrwt>
</event>
<event>
12    1  0.1599266E-007  0.1473549E+04  0.7818608E-02  0.8902235E-01
          2   -1    0    0  501    0  0.00000000000E+00  0.00000000000E+00  0.26261828555E+04  0.26261828555E+04  0.00000000000E+00 0. -1.
         -2   -1    0    0    0  501 -0.00000000000E+00 -0.00000000000E+00 -0.20670185567E+03  0.20670185567E+03  0.00000000000E+00 0.  1.
         23    2    1    2    0    0 -0.29848385116E+03 -0.15548356710E+03  0.13744029266E+04  0.14180353585E+04  0.92591167364E+02 0.  0.
        254    2    1    2    0    0  0.29848385116E+03  0.15548356710E+03  0.10450780733E+04  0.14148493527E+04  0.89238039119E+03 0.  0.
        -24    2    4    4    0    0 -0.21282212242E+03  0.14135033542E+03  0.22747183735E+02  0.26878657581E+03  0.80346847181E+02 0.  0.
         24    2    4    4    0    0  0.51130597358E+03  0.14133231680E+02  0.10223308895E+04  0.11460627769E+04  0.81644926565E+02 0.  0.
         13    1    3    3    0    0 -0.60803799296E+02 -0.77093387710E+02  0.35096630181E+03  0.36444181626E+03  0.00000000000E+00 0.  1.
        -13    1    3    3    0    0 -0.23768005186E+03 -0.78390179390E+02  0.10234366248E+04  0.10535935422E+04  0.00000000000E+00 0. -1.
          2    1    6    6  502    0  0.46503071973E+03 -0.10703840859E+02  0.92998355545E+03  0.10398257334E+04  0.00000000000E+00 0. -1.
          3    1    5    5  503    0 -0.10533970157E+03  0.73065000437E+02  0.51642811026E+02  0.13820972088E+03  0.00000000000E+00 0. -1.
         -4    1    5    5    0  503 -0.10748242086E+03  0.68285334983E+02 -0.28895627292E+02  0.13057685493E+03  0.00000000000E+00 0.  1.
         -1    1    6    6    0  502  0.46275253851E+02  0.24837072539E+02  0.92347334066E+02  0.10623704345E+03  0.00000000000E+00 0.  1.
<mgrwt>
<rscale>  0 0.14735493E+04</rscale>
<asrwt>0</asrwt>
<pdfrwt beam="1">  1        2 0.40402811E+00 0.14735493E+04</pdfrwt>
<pdfrwt beam="2">  1       -2 0.31800287E-01 0.14735493E+04</pdfrwt>
<totfact> 0.26241431E+01</totfact>
</mgrwt>
</event>
<event>
12    1  0.1599266E-007  0.1407461E+04  0.7818608E-02  0.8948435E-01
          2   -1    0    0  501    0  0.00000000000E+00  0.00000000000E+00  0.95754141348E+03  0.95754141348E+03  0.00000000000E+00 0. -1.
         -2   -1    0    0    0  501 -0.00000000000E+00 -0.00000000000E+00 -0.51719626197E+03  0.51719626197E+03  0.00000000000E+00 0.  1.
         23    2    1    2    0    0  0.35501444796E+03  0.16739228329E+02  0.35201519986E+03  0.50833315435E+03  0.90401520210E+02 0.  0.
        254    2    1    2    0    0 -0.35501444796E+03 -0.16739228329E+02  0.88329951654E+02  0.96640452109E+03  0.89432659471E+03 0.  0.
        -24    2    4    4    0    0 -0.38968230890E+03  0.90689893894E+02 -0.33068192247E+03  0.52515404011E+03  0.79745051689E+02 0.  0.
         24    2    4    4    0    0  0.34667860931E+02 -0.10742912222E+03  0.41901187413E+03  0.44125048099E+03  0.79925962162E+02 0.  0.
         11    1    3    3    0    0  0.13949175352E+02  0.16726330198E+02  0.62483953023E+01  0.22658156562E+02  0.00000000000E+00 0.  1.
        -11    1    3    3    0    0  0.34106527261E+03  0.12898130323E-01  0.34576680456E+03  0.48567499779E+03  0.00000000000E+00 0. -1.
          2    1    6    6  502    0  0.57743262431E+02 -0.97208247846E+02  0.34026645038E+03  0.35855959764E+03  0.00000000000E+00 0. -1.
          1    1    5    5  503    0 -0.17117359599E+03  0.39214699626E+01 -0.11631200924E+03  0.20698855375E+03  0.00000000000E+00 0. -1.
         -2    1    5    5    0  503 -0.21850871290E+03  0.86768423931E+02 -0.21436991324E+03  0.31816548635E+03  0.00000000000E+00 0.  1.
         -1    1    6    6    0  502 -0.23075401500E+02 -0.10220874377E+02  0.78745423746E+02  0.82690883345E+02  0.00000000000E+00 0.  1.
<mgrwt>
<rscale>  0 0.14074613E+04</rscale>
<asrwt>0</asrwt>
<pdfrwt beam="1">  1        2 0.14731406E+00 0.14074613E+04</pdfrwt>
<pdfrwt beam="2">  1       -2 0.79568656E-01 0.14074613E+04</pdfrwt>
<totfact> 0.36545234E+01</totfact>
</mgrwt>
</event>
<event>
12    1  0.1599266E-007  0.1171454E+04  0.7818608E-02  0.9138216E-01
         -2   -1    0    0    0  501 -0.00000000000E+00  0.00000000000E+00  0.10131075442E+03  0.10131075442E+03  0.00000000000E+00 0.  1.
          2   -1    0    0  501    0  0.00000000000E+00 -0.00000000000E+00 -0.33863766000E+04  0.33863766000E+04  0.00000000000E+00 0. -1.
         23    2    1    2    0    0 -0.14034604742E+03 -0.22770027413E+03 -0.57437653073E+03  0.64000718617E+03  0.90312631605E+02 0.  0.
        254    2    1    2    0    0  0.14034604742E+03  0.22770027413E+03 -0.27106893148E+04  0.28476801682E+04  0.83060300454E+03 0.  0.
        -24    2    4    4    0    0  0.39025626186E+03  0.70601910393E+02 -0.65923458334E+03  0.77357978733E+03  0.80937456277E+02 0.  0.
         24    2    4    4    0    0 -0.24991021443E+03  0.15709836374E+03 -0.20514547315E+04  0.20741003809E+04  0.79314964078E+02 0.  0.
         13    1    3    3    0    0 -0.38481018208E+01  0.85198999111E+01 -0.15643098496E+02  0.18223696460E+02  0.00000000000E+00 0. -1.
        -13    1    3    3    0    0 -0.13649794560E+03 -0.23622017404E+03 -0.55873343224E+03  0.62178348971E+03  0.00000000000E+00 0.  1.
          4    1    6    6  502    0 -0.11579607225E+02  0.23795247451E+02 -0.33664234338E+03  0.33768086778E+03  0.00000000000E+00 0. -1.
          1    1    5    5  503    0  0.97814512251E+02 -0.17391019930E+02 -0.16548743709E+03  0.19301869913E+03  0.00000000000E+00 0. -1.
         -2    1    5    5    0  503  0.29244174961E+03  0.87992930324E+02 -0.49374714625E+03  0.58056108820E+03  0.00000000000E+00 0.  1.
         -3    1    6    6    0  502 -0.23833060721E+03  0.13330311628E+03 -0.17148123881E+04  0.17364195131E+04  0.00000000000E+00 0.  1.
<mgrwt>
<rscale>  0 0.11714544E+04</rscale>
<asrwt>0</asrwt>
<pdfrwt beam="1">  1        2 0.52098097E+00 0.11714544E+04</pdfrwt>
<pdfrwt beam="2">  1       -2 0.15586271E-01 0.11714544E+04</pdfrwt>
<totfact> 0.32463095E+01</totfact>
</mgrwt>
</event>
<event>
12    1  0.1599266E-007  0.1561748E+04  0.7818608E-02  0.8844398E-01
          1   -1    0    0  501    0  0.00000000000E+00  0.00000000000E+00  0.25098199824E+03  0.25098199824E+03  0.00000000000E+00 0. -1.
         -1   -1    0    0    0  501 -0.00000000000E+00 -0.00000000000E+00 -0.24295144090E+04  0.24295144090E+04  0.00000000000E+00 0.  1.
         23    2    1    2    0    0 -0.31675122551E+03 -0.39369015839E+03 -0.75653899778E+03  0.91522306301E+03  0.99793387668E+02 0.  0.
        254    2    1    2    0    0  0.31675122551E+03  0.39369015839E+03 -0.14219934130E+04  0.17652733443E+04  0.91586103402E+03 0.  0.
        -24    2    4    4    0    0  0.43716910676E+03  0.23730932404E+03 -0.14639527966E+04  0.15483092669E+04  0.81677732452E+02 0.  0.
         24    2    4    4    0    0 -0.12041788125E+03  0.15638083435E+03  0.41959383614E+02  0.21696407738E+03  0.79733239758E+02 0.  0.
         11    1    3    3    0    0 -0.22797419422E+03 -0.26771472909E+03 -0.60070607161E+03  0.69605401649E+03  0.00000000000E+00 0. -1.
        -11    1    3    3    0    0 -0.88777031290E+02 -0.12597542931E+03 -0.15583292617E+03  0.21916904652E+03  0.00000000000E+00 0.  1.
          2    1    6    6  502    0 -0.35256592326E+01  0.49553249760E+01 -0.15971725157E+02  0.17090392714E+02  0.00000000000E+00 0. -1.
          1    1    5    5  503    0  0.29045261875E+03  0.15370729414E+03 -0.10793984043E+04  0.11283127099E+04  0.00000000000E+00 0. -1.
         -2    1    5    5    0  503  0.14671648801E+03  0.83602029904E+02 -0.38455439232E+03  0.41999655703E+03  0.00000000000E+00 0.  1.
         -1    1    6    6    0  502 -0.11689222202E+03  0.15142550938E+03  0.57931108771E+02  0.19987368467E+03  0.00000000000E+00 0.  1.
<mgrwt>
<rscale>  0 0.15617482E+04</rscale>
<asrwt>0</asrwt>
<pdfrwt beam="1">  1        1 0.38612616E-01 0.15617482E+04</pdfrwt>
<pdfrwt beam="2">  1       -1 0.37377144E+00 0.15617482E+04</pdfrwt>
<totfact> 0.11538767E+00</totfact>
</mgrwt>
</event>
<event>
12    1  0.1599266E-007  0.3180063E+04  0.7818608E-02  0.8194102E-01
         -2   -1    0    0    0  501 -0.00000000000E+00  0.00000000000E+00  0.17037935796E+04  0.17037935796E+04  0.00000000000E+00 0.  1.
          2   -1    0    0  501    0  0.00000000000E+00 -0.00000000000E+00 -0.14838653794E+04  0.14838653794E+04  0.00000000000E+00 0. -1.
         23    2    1    2    0    0  0.97711098800E+03  0.56128779128E+03  0.10295156896E+04  0.15291710089E+04  0.93121166496E+02 0.  0.
        254    2    1    2    0    0 -0.97711098800E+03 -0.56128779128E+03 -0.80958748946E+03  0.16584879501E+04  0.90849353879E+03 0.  0.
        -24    2    4    4    0    0 -0.11180713814E+04 -0.36492836045E+03 -0.74839462831E+03  0.13964272397E+04  0.81597756881E+02 0.  0.
         24    2    4    4    0    0  0.14096039335E+03 -0.19635943083E+03 -0.61192861147E+02  0.26206071044E+03  0.80649805509E+02 0.  0.
         13    1    3    3    0    0  0.14432727126E+03  0.48301234068E+02  0.12511445406E+03  0.19702029605E+03  0.00000000000E+00 0. -1.
        -13    1    3    3    0    0  0.83278371675E+03  0.51298655721E+03  0.90440123557E+03  0.13321507128E+04  0.00000000000E+00 0.  1.
          4    1    6    6  502    0  0.80850652178E+02 -0.15984615610E+03 -0.19221867741E+02  0.18015854622E+03  0.00000000000E+00 0. -1.
          3    1    5    5  503    0 -0.79940811134E+03 -0.28778032604E+03 -0.50858391137E+03  0.99021635991E+03  0.00000000000E+00 0. -1.
         -4    1    5    5    0  503 -0.31866327002E+03 -0.77148034407E+02 -0.23981071695E+03  0.40621087976E+03  0.00000000000E+00 0.  1.
         -3    1    6    6    0  502  0.60109741174E+02 -0.36513274734E+02 -0.41970993406E+02  0.81902164216E+02  0.00000000000E+00 0.  1.
<mgrwt>
<rscale>  0 0.31800631E+04</rscale>
<asrwt>0</asrwt>
<pdfrwt beam="1">  1        2 0.22828698E+00 0.31800631E+04</pdfrwt>
<pdfrwt beam="2">  1       -2 0.26212209E+00 0.31800631E+04</pdfrwt>
<totfact> 0.59207078E-01</totfact>
</mgrwt>
</event>
<event>
12    1  0.1599266E-007  0.1218477E+04  0.7818608E-02  0.9096836E-01
          2   -1    0    0  501    0  0.00000000000E+00  0.00000000000E+00  0.15329564210E+04  0.15329564210E+04  0.00000000000E+00 0. -1.
         -2   -1    0    0    0  501 -0.00000000000E+00 -0.00000000000E+00 -0.24212790134E+03  0.24212790134E+03  0.00000000000E+00 0.  1.
         23    2    1    2    0    0  0.88772996940E+02 -0.60015485033E+02  0.63792253905E+03  0.65333511320E+03  0.91755658619E+02 0.  0.
        254    2    1    2    0    0 -0.88772996940E+02  0.60015485033E+02  0.65290598065E+03  0.11217492092E+04  0.90584356558E+03 0.  0.
        -24    2    4    4    0    0 -0.10747074803E+03 -0.14118459080E+02 -0.21116506855E+03  0.25068169885E+03  0.80630858799E+02 0.  0.
         24    2    4    4    0    0  0.18697751088E+02  0.74133944113E+02  0.86407104921E+03  0.87106751034E+03  0.79337140868E+02 0.  0.
         11    1    3    3    0    0  0.25953456863E+02  0.24137461555E+02  0.13582557342E+03  0.14037373461E+03  0.00000000000E+00 0.  1.
        -11    1    3    3    0    0  0.62819540078E+02 -0.84152946588E+02  0.50209696562E+03  0.51296137859E+03  0.00000000000E+00 0. -1.
          4    1    6    6  502    0  0.73403566797E+01 -0.10218090030E+02  0.28261454709E+02  0.30935416957E+02  0.00000000000E+00 0. -1.
          3    1    5    5  503    0 -0.12092467471E+02 -0.30572319378E+02 -0.88637339115E+02  0.94538205860E+02  0.00000000000E+00 0. -1.
         -4    1    5    5    0  503 -0.95378280558E+02  0.16453860299E+02 -0.12252772944E+03  0.15614349299E+03  0.00000000000E+00 0.  1.
         -3    1    6    6    0  502  0.11357394408E+02  0.84352034142E+02  0.83580959450E+03  0.84013209338E+03  0.00000000000E+00 0.  1.
<mgrwt>
<rscale>  0 0.12184770E+04</rscale>
<asrwt>0</asrwt>
<pdfrwt beam="1">  1        2 0.23583944E+00 0.12184770E+04</pdfrwt>
<pdfrwt beam="2">  1       -2 0.37250448E-01 0.12184770E+04</pdfrwt>
<totfact> 0.81398539E+01</totfact>
</mgrwt>
</event>
<event>
12    1  0.1599266E-007  0.1781098E+04  0.7818608E-02  0.8716416E-01
          1   -1    0    0  501    0  0.00000000000E+00  0.00000000000E+00  0.40018051264E+04  0.40018051264E+04  0.00000000000E+00 0. -1.
         -1   -1    0    0    0  501 -0.00000000000E+00 -0.00000000000E+00 -0.19817990925E+03  0.19817990925E+03  0.00000000000E+00 0.  1.
         23    2    1    2    0    0 -0.38681139289E+02  0.47254056759E+03  0.25000593289E+04  0.25462602431E+04  0.91398900869E+02 0.  0.
        254    2    1    2    0    0  0.38681139289E+02 -0.47254056759E+03  0.13035658883E+04  0.16537247926E+04  0.90040593398E+03 0.  0.
        -24    2    4    4    0    0  0.77010229133E+02  0.15808620667E+03  0.85013010966E+03  0.87195048912E+03  0.81575903294E+02 0.  0.
         24    2    4    4    0    0 -0.38329089844E+02 -0.63062677425E+03  0.45343577861E+03  0.78177430345E+03  0.80048789347E+02 0.  0.
         11    1    3    3    0    0  0.14137274504E+02  0.38485911189E+02  0.33404976695E+03  0.33655649554E+03  0.00000000000E+00 0.  1.
        -11    1    3    3    0    0 -0.52818413793E+02  0.43405465640E+03  0.21660095619E+04  0.22097037475E+04  0.00000000000E+00 0. -1.
          2    1    6    6  502    0 -0.17541950290E+02 -0.99708537755E+02  0.10798709215E+03  0.14802271647E+03  0.00000000000E+00 0. -1.
          1    1    5    5  503    0  0.31734010696E+02  0.12371308372E+03  0.44896551475E+03  0.46677832850E+03  0.00000000000E+00 0. -1.
         -2    1    5    5    0  503  0.45276218437E+02  0.34373122949E+02  0.40116459491E+03  0.40517216062E+03  0.00000000000E+00 0.  1.
         -1    1    6    6    0  502 -0.20787139555E+02 -0.53091823650E+03  0.34544868646E+03  0.63375158698E+03  0.00000000000E+00 0.  1.
<mgrwt>
<rscale>  0 0.17810978E+04</rscale>
<asrwt>0</asrwt>
<pdfrwt beam="1">  1        1 0.61566227E+00 0.17810978E+04</pdfrwt>
<pdfrwt beam="2">  1       -1 0.30489220E-01 0.17810978E+04</pdfrwt>
<totfact> 0.90696704E-01</totfact>
</mgrwt>
</event>
<event>
12    1  0.1599266E-007  0.1902159E+04  0.7818608E-02  0.8653783E-01
         -2   -1    0    0    0  501 -0.00000000000E+00  0.00000000000E+00  0.24277051604E+03  0.24277051604E+03  0.00000000000E+00 0. -1.
          2   -1    0    0  501    0  0.00000000000E+00 -0.00000000000E+00 -0.37259545410E+04  0.37259545410E+04  0.00000000000E+00 0.  1.
         23    2    1    2    0    0  0.57048694554E+03  0.44391822951E+03 -0.13151838595E+04  0.15030108787E+04  0.82549183938E+02 0.  0.
        254    2    1    2    0    0 -0.57048694554E+03 -0.44391822951E+03 -0.21680001655E+04  0.24657141784E+04  0.92574453396E+03 0.  0.
        -24    2    4    4    0    0 -0.45753214892E+03 -0.69287114992E+03 -0.18988895681E+04  0.20740468215E+04  0.80514149360E+02 0.  0.
         24    2    4    4    0    0 -0.11295479661E+03  0.24895292041E+03 -0.26911059744E+03  0.39166735688E+03  0.79034562913E+02 0.  0.
         13    1    3    3    0    0  0.28595946842E+03  0.24490123795E+03 -0.76089590118E+03  0.84894758752E+03  0.00000000000E+00 0.  1.
        -13    1    3    3    0    0  0.28452747711E+03  0.19901699157E+03 -0.55428795829E+03  0.65406329118E+03  0.00000000000E+00 0. -1.
          4    1    6    6  502    0 -0.43915434925E+02  0.25930973903E+02 -0.52520048241E+02  0.73207488001E+02  0.00000000000E+00 0. -1.
          3    1    5    5  503    0 -0.16790494308E+02 -0.64470540574E+02 -0.15590883823E+03  0.16954626843E+03  0.00000000000E+00 0. -1.
         -4    1    5    5    0  503 -0.44074165462E+03 -0.62840060934E+03 -0.17429807299E+04  0.19045005531E+04  0.00000000000E+00 0.  1.
         -3    1    6    6    0  502 -0.69039361686E+02  0.22302194650E+03 -0.21659054920E+03  0.31845986888E+03  0.00000000000E+00 0.  1.
<mgrwt>
<rscale>  0 0.19021587E+04</rscale>
<asrwt>0</asrwt>
<pdfrwt beam="1">  1        2 0.57322379E+00 0.19021587E+04</pdfrwt>
<pdfrwt beam="2">  1       -2 0.37349309E-01 0.19021587E+04</pdfrwt>
<totfact> 0.35667643E+00</totfact>
</mgrwt>
</event>
<event>
12    1  0.1599266E-007  0.3506030E+04  0.7818608E-02  0.8112362E-01
         -1   -1    0    0    0  501 -0.00000000000E+00  0.00000000000E+00  0.15615542950E+04  0.15615542950E+04  0.00000000000E+00 0.  1.
          1   -1    0    0  501    0  0.00000000000E+00 -0.00000000000E+00 -0.19679504634E+04  0.19679504634E+04  0.00000000000E+00 0. -1.
         23    2    1    2    0    0  0.13895523629E+04 -0.83575235206E+03 -0.40577927600E+03  0.16740211848E+04  0.91391154744E+02 0.  0.
        254    2    1    2    0    0 -0.13895523629E+04  0.83575235206E+03 -0.61689243952E+00  0.18554835735E+04  0.90193189759E+03 0.  0.
        -24    2    4    4    0    0 -0.14194438512E+03  0.39237054334E+03 -0.26787433637E+03  0.50233630006E+03  0.80512399795E+02 0.  0.
         24    2    4    4    0    0 -0.12476079778E+04  0.44338180871E+03  0.26725744393E+03  0.13531472735E+04  0.80423304275E+02 0.  0.
         13    1    3    3    0    0  0.59655628369E+03 -0.33490154619E+03 -0.12976953634E+03  0.69633223235E+03  0.00000000000E+00 0.  1.
        -13    1    3    3    0    0  0.79299607921E+03 -0.50085080586E+03 -0.27600973965E+03  0.97768895246E+03  0.00000000000E+00 0. -1.
          2    1    6    6  502    0 -0.16015491037E+03  0.69575751255E+02  0.60511825994E+02  0.18480276395E+03  0.00000000000E+00 0. -1.
          1    1    5    5  503    0 -0.47652011387E+02  0.21941182605E+03 -0.17434704502E+03  0.28426951244E+03  0.00000000000E+00 0. -1.
         -2    1    5    5    0  503 -0.94292373737E+02  0.17295871730E+03 -0.93527291352E+02  0.21806678762E+03  0.00000000000E+00 0.  1.
         -1    1    6    6    0  502 -0.10874530674E+04  0.37380605746E+03  0.20674561794E+03  0.11683445095E+04  0.00000000000E+00 0.  1.
<mgrwt>
<rscale>  0 0.35060299E+04</rscale>
<asrwt>0</asrwt>
<pdfrwt beam="1">  1        1 0.30276161E+00 0.35060299E+04</pdfrwt>
<pdfrwt beam="2">  1       -1 0.24023912E+00 0.35060299E+04</pdfrwt>
<totfact> 0.20639502E-01</totfact>
</mgrwt>
</event>
<event>
12    1  0.1599266E-007  0.1641448E+04  0.7818608E-02  0.8795482E-01
          2   -1    0    0  501    0  0.00000000000E+00  0.00000000000E+00  0.29995889384E+04  0.29995889384E+04  0.00000000000E+00 0. -1.
         -2   -1    0    0    0  501 -0.00000000000E+00 -0.00000000000E+00 -0.22456011158E+03  0.22456011158E+03  0.00000000000E+00 0.  1.
         23    2    1    2    0    0  0.55984622734E+02  0.33389571912E+03  0.18731649397E+04  0.19057013434E+04  0.91269325446E+02 0.  0.
        254    2    1    2    0    0 -0.55984622734E+02 -0.33389571912E+03  0.90186388708E+03  0.13184477065E+04  0.90018067897E+03 0.  0.
        -24    2    4    4    0    0 -0.29997168984E+03 -0.36022267604E+03  0.11259493838E+03  0.48872157785E+03  0.80173371279E+02 0.  0.
         24    2    4    4    0    0  0.24398706711E+03  0.26326956924E+02  0.78926894870E+03  0.82972612867E+03  0.72644185235E+02 0.  0.
         13    1    3    3    0    0  0.66214841492E+02  0.31048216434E+03  0.18088438227E+04  0.18364910984E+04  0.00000000000E+00 0. -1.
        -13    1    3    3    0    0 -0.10230218758E+02  0.23413554774E+02  0.64321117035E+02  0.69210245048E+02  0.00000000000E+00 0.  1.
          4    1    6    6  502    0  0.86958289181E+02  0.43465778625E+02  0.27037216800E+03  0.28731885980E+03  0.00000000000E+00 0. -1.
          3    1    5    5  503    0 -0.42402991396E+02 -0.63582580531E+02  0.48910327156E+02  0.90735761025E+02  0.00000000000E+00 0. -1.
         -4    1    5    5    0  503 -0.25756869845E+03 -0.29664009551E+03  0.63684611223E+02  0.39798581682E+03  0.00000000000E+00 0.  1.
         -3    1    6    6    0  502  0.15702877793E+03 -0.17138821701E+02  0.51889678070E+03  0.54240726887E+03  0.00000000000E+00 0.  1.
<mgrwt>
<rscale>  0 0.16414482E+04</rscale>
<asrwt>0</asrwt>
<pdfrwt beam="1">  1        2 0.46147519E+00 0.16414482E+04</pdfrwt>
<pdfrwt beam="2">  1       -2 0.34547712E-01 0.16414482E+04</pdfrwt>
<totfact> 0.13151245E+01</totfact>
</mgrwt>
</event>
<event>
12    1  0.2057131E-007  0.1778241E+04  0.7818608E-02  0.8717957E-01
         -2   -1    0    0    0  501 -0.00000000000E+00  0.00000000000E+00  0.57122913634E+03  0.57122913634E+03  0.00000000000E+00 0.  1.
          2   -1    0    0  501    0  0.00000000000E+00 -0.00000000000E+00 -0.13839191661E+04  0.13839191661E+04  0.00000000000E+00 0. -1.
         23    2    1    2    0    0  0.39125087591E+03 -0.49319220535E+03 -0.51173637133E+03  0.81808929791E+03  0.10526246389E+03 0.  0.
        254    2    1    2    0    0 -0.39125087591E+03  0.49319220535E+03 -0.30095365843E+03  0.11370590045E+04  0.89778297819E+03 0.  0.
        -24    2    4    4    0    0 -0.50857851520E+03  0.68456998495E+03 -0.20853214670E+03  0.88157562789E+03  0.80011005914E+02 0.  0.
         24    2    4    4    0    0  0.11732763929E+03 -0.19137777960E+03 -0.92421511737E+02  0.25548337663E+03  0.79616521131E+02 0.  0.
         13    1    3    3    0    0  0.28248204833E+03 -0.34986551730E+03 -0.42346651024E+03  0.61767780689E+03  0.00000000000E+00 0. -1.
        -13    1    3    3    0    0  0.10876882758E+03 -0.14332668805E+03 -0.88269861089E+02  0.20041149103E+03  0.00000000000E+00 0.  1.
          2    1    6    6  502    0  0.32128925868E+02 -0.13320846505E+02  0.53759446087E+01  0.35193942796E+02  0.00000000000E+00 0. -1.
          1    1    5    5  503    0 -0.84425018550E+02  0.69659566004E+02 -0.31065430260E+02  0.11377653471E+03  0.00000000000E+00 0. -1.
         -2    1    5    5    0  503 -0.42415349665E+03  0.61491041895E+03 -0.17746671644E+03  0.76779909318E+03  0.00000000000E+00 0.  1.
         -1    1    6    6    0  502  0.85198713424E+02 -0.17805693309E+03 -0.97797456345E+02  0.22028943384E+03  0.00000000000E+00 0.  1.
<mgrwt>
<rscale>  0 0.17782406E+04</rscale>
<asrwt>0</asrwt>
<pdfrwt beam="1">  1        2 0.21291064E+00 0.17782406E+04</pdfrwt>
<pdfrwt beam="2">  1       -2 0.87881405E-01 0.17782406E+04</pdfrwt>
<totfact> 0.15607395E+01</totfact>
</mgrwt>
</event>
<event>
12    1  0.1599266E-007  0.1601517E+04  0.7818608E-02  0.8819617E-01
         -2   -1    0    0    0  501 -0.00000000000E+00  0.00000000000E+00  0.94890578523E+03  0.94890578523E+03  0.00000000000E+00 0.  1.
          2   -1    0    0  501    0  0.00000000000E+00 -0.00000000000E+00 -0.67574020252E+03  0.67574020252E+03  0.00000000000E+00 0. -1.
         23    2    1    2    0    0 -0.17139936238E+03  0.25203503034E+03  0.54404439285E+03  0.63037468167E+03  0.92133272812E+02 0.  0.
        254    2    1    2    0    0  0.17139936238E+03 -0.25203503034E+03 -0.27087881014E+03  0.99427130609E+03  0.90680797437E+03 0.  0.
        -24    2    4    4    0    0  0.49116847205E+03  0.16882352056E+02 -0.27646403227E+03  0.56952586262E+03  0.79974153945E+02 0.  0.
         24    2    4    4    0    0 -0.31976910967E+03 -0.26891738239E+03  0.55852221323E+01  0.42474544347E+03  0.76214532663E+02 0.  0.
         11    1    3    3    0    0 -0.83842975575E+02  0.75913613398E+02  0.27286522692E+03  0.29537764525E+03  0.00000000000E+00 0. -1.
        -11    1    3    3    0    0 -0.87556386807E+02  0.17612141694E+03  0.27117916592E+03  0.33499703642E+03  0.00000000000E+00 0.  1.
          4    1    6    6  502    0 -0.31221031656E+03 -0.24195751417E+03  0.14798326221E+02  0.39526916258E+03  0.00000000000E+00 0. -1.
          1    1    5    5  503    0  0.20864750097E+03 -0.27859099369E+02 -0.13827505675E+03  0.25185293406E+03  0.00000000000E+00 0. -1.
         -2    1    5    5    0  503  0.28252097109E+03  0.44741451425E+02 -0.13818897552E+03  0.31767292855E+03  0.00000000000E+00 0.  1.
         -3    1    6    6    0  502 -0.75587931116E+01 -0.26959868228E+02 -0.92131040889E+01  0.29476280891E+02  0.00000000000E+00 0.  1.
<mgrwt>
<rscale>  0 0.16015165E+04</rscale>
<asrwt>0</asrwt>
<pdfrwt beam="1">  1        2 0.10396003E+00 0.16015165E+04</pdfrwt>
<pdfrwt beam="2">  1       -2 0.14598551E+00 0.16015165E+04</pdfrwt>
<totfact> 0.13213766E+01</totfact>
</mgrwt>
</event>
<event>
12    1  0.1599266E-007  0.2277516E+04  0.7818608E-02  0.8486839E-01
         -1   -1    0    0    0  501 -0.00000000000E+00  0.00000000000E+00  0.77310568384E+03  0.77310568384E+03  0.00000000000E+00 0.  1.
          1   -1    0    0  501    0  0.00000000000E+00 -0.00000000000E+00 -0.16773515042E+04  0.16773515042E+04  0.00000000000E+00 0. -1.
         23    2    1    2    0    0  0.43478958570E+03  0.52309181228E+03  0.34460187788E+03  0.76793176488E+03  0.91113738603E+02 0.  0.
        254    2    1    2    0    0 -0.43478958570E+03 -0.52309181228E+03 -0.12488476982E+04  0.16825254231E+04  0.89922422024E+03 0.  0.
        -24    2    4    4    0    0 -0.22817011256E+03  0.18551517000E+03 -0.11226704645E+03  0.32494890997E+03  0.80687209665E+02 0.  0.
         24    2    4    4    0    0 -0.20661947314E+03 -0.70860698228E+03 -0.11365806518E+04  0.13575765132E+04  0.79893360984E+02 0.  0.
         13    1    3    3    0    0  0.13415922326E+03  0.17276287582E+03  0.64861555197E+02  0.22815067344E+03  0.00000000000E+00 0. -1.
        -13    1    3    3    0    0  0.30063036244E+03  0.35032893646E+03  0.27974032268E+03  0.53978109144E+03  0.00000000000E+00 0.  1.
          2    1    6    6  502    0 -0.56560960919E+02 -0.18360618423E+03 -0.23496536850E+03  0.30351128081E+03  0.00000000000E+00 0. -1.
          3    1    5    5  503    0 -0.64897360646E+02  0.38520313236E+02 -0.66393588438E+02  0.10051661821E+03  0.00000000000E+00 0. -1.
         -4    1    5    5    0  503 -0.16327275192E+03  0.14699485676E+03 -0.45873458008E+02  0.22443229176E+03  0.00000000000E+00 0.  1.
         -1    1    6    6    0  502 -0.15005851222E+03 -0.52500079805E+03 -0.90161528328E+03  0.10540652324E+04  0.00000000000E+00 0.  1.
<mgrwt>
<rscale>  0 0.22775162E+04</rscale>
<asrwt>0</asrwt>
<pdfrwt beam="1">  1        1 0.25805408E+00 0.22775162E+04</pdfrwt>
<pdfrwt beam="2">  1       -1 0.11893934E+00 0.22775162E+04</pdfrwt>
<totfact> 0.28297652E+00</totfact>
</mgrwt>
</event>
<event>
12    1  0.1599266E-007  0.3061016E+04  0.7818608E-02  0.8226519E-01
          2   -1    0    0  501    0  0.00000000000E+00  0.00000000000E+00  0.23539829052E+04  0.23539829052E+04  0.00000000000E+00 0. -1.
         -2   -1    0    0    0  501 -0.00000000000E+00 -0.00000000000E+00 -0.99510291497E+03  0.99510291497E+03  0.00000000000E+00 0.  1.
         23    2    1    2    0    0 -0.59202010823E+03 -0.84477753031E+03 -0.36614161738E+03  0.10983625916E+04  0.90574909995E+02 0.  0.
        254    2    1    2    0    0  0.59202010823E+03  0.84477753031E+03  0.17250216076E+04  0.22507232286E+04  0.10128764095E+04 0.  0.
        -24    2    4    4    0    0 -0.13912813282E+03  0.61924828291E+03  0.53891608425E+03  0.83691974578E+03  0.84729226255E+02 0.  0.
         24    2    4    4    0    0  0.73114824105E+03  0.22552924740E+03  0.11861055234E+04  0.14138034828E+04  0.80949266213E+02 0.  0.
         11    1    3    3    0    0 -0.17458783542E+03 -0.19613465112E+03 -0.66669988137E+02  0.27091437940E+03  0.00000000000E+00 0. -1.
        -11    1    3    3    0    0 -0.41743227281E+03 -0.64864287919E+03 -0.29947162924E+03  0.82744821217E+03  0.00000000000E+00 0.  1.
          2    1    6    6  502    0  0.62247553913E+03  0.18328361315E+03  0.10527021613E+04  0.12366286913E+04  0.00000000000E+00 0. -1.
          1    1    5    5  503    0 -0.11390941111E+03  0.55982001009E+03  0.45105184381E+03  0.72788842788E+03  0.00000000000E+00 0. -1.
         -2    1    5    5    0  503 -0.25218721709E+02  0.59428272826E+02  0.87864240440E+02  0.10903131790E+03  0.00000000000E+00 0.  1.
         -1    1    6    6    0  502  0.10867270192E+03  0.42245634243E+02  0.13340336203E+03  0.17717479153E+03  0.00000000000E+00 0.  1.
<mgrwt>
<rscale>  0 0.30610163E+04</rscale>
<asrwt>0</asrwt>
<pdfrwt beam="1">  1        2 0.36215121E+00 0.30610163E+04</pdfrwt>
<pdfrwt beam="2">  1       -2 0.15309276E+00 0.30610163E+04</pdfrwt>
<totfact> 0.10208218E+00</totfact>
</mgrwt>
</event>
<event>
12    1  0.1599266E-007  0.2085843E+04  0.7818608E-02  0.8567506E-01
         -2   -1    0    0    0  501 -0.00000000000E+00  0.00000000000E+00  0.10052108924E+04  0.10052108924E+04  0.00000000000E+00 0.  1.
          2   -1    0    0  501    0  0.00000000000E+00 -0.00000000000E+00 -0.10820463917E+04  0.10820463917E+04  0.00000000000E+00 0. -1.
         23    2    1    2    0    0 -0.59510933998E+02  0.73415009962E+03 -0.46690911893E+03  0.87652482045E+03  0.88168676340E+02 0.  0.
        254    2    1    2    0    0  0.59510933998E+02 -0.73415009962E+03  0.39007361970E+03  0.12107324637E+04  0.87817865481E+03 0.  0.
        -24    2    4    4    0    0  0.44840704309E+03 -0.35779340220E+03  0.31332966293E+03  0.65839726362E+03  0.78908073870E+02 0.  0.
         24    2    4    4    0    0 -0.38889610910E+03 -0.37635669742E+03  0.76743956774E+02  0.55233520005E+03  0.79372482322E+02 0.  0.
         11    1    3    3    0    0 -0.11057807523E+02  0.35215277817E+03 -0.17542567379E+03  0.39358356331E+03  0.00000000000E+00 0. -1.
        -11    1    3    3    0    0 -0.48453126476E+02  0.38199732145E+03 -0.29148344515E+03  0.48294125715E+03  0.00000000000E+00 0.  1.
          4    1    6    6  502    0 -0.50118546746E+02 -0.24136062189E+02  0.24717272921E+02  0.60871683126E+02  0.00000000000E+00 0. -1.
          3    1    5    5  503    0  0.26290302811E+03 -0.24426935389E+03  0.16389081044E+03  0.39451960304E+03  0.00000000000E+00 0. -1.
         -4    1    5    5    0  503  0.18550401499E+03 -0.11352404831E+03  0.14943885249E+03  0.26387766058E+03  0.00000000000E+00 0.  1.
         -3    1    6    6    0  502 -0.33877756235E+03 -0.35222063524E+03  0.52026683852E+02  0.49146351693E+03  0.00000000000E+00 0.  1.
<mgrwt>
<rscale>  0 0.20858426E+04</rscale>
<asrwt>0</asrwt>
<pdfrwt beam="1">  1        2 0.16646867E+00 0.20858426E+04</pdfrwt>
<pdfrwt beam="2">  1       -2 0.15464783E+00 0.20858426E+04</pdfrwt>
<totfact> 0.56956747E+00</totfact>
</mgrwt>
</event>
<event>
12    1  0.1599266E-007  0.1486679E+04  0.7818608E-02  0.8893360E-01
          2   -1    0    0  501    0  0.00000000000E+00  0.00000000000E+00  0.17904855481E+04  0.17904855481E+04  0.00000000000E+00 0. -1.
         -2   -1    0    0    0  501 -0.00000000000E+00 -0.00000000000E+00 -0.30860537459E+03  0.30860537459E+03  0.00000000000E+00 0.  1.
         23    2    1    2    0    0 -0.95826585845E+02 -0.37020966575E+03  0.11332828874E+03  0.40884993939E+03  0.89872358046E+02 0.  0.
        254    2    1    2    0    0  0.95826585845E+02  0.37020966575E+03  0.13685518848E+04  0.16902409833E+04  0.91528268264E+03 0.  0.
        -24    2    4    4    0    0 -0.82463885359E+02  0.44102593245E+03  0.14051000331E+04  0.14772454322E+04  0.81509499190E+02 0.  0.
         24    2    4    4    0    0  0.17829047120E+03 -0.70816266704E+02 -0.36548148292E+02  0.21299555113E+03  0.85022949289E+02 0.  0.
         13    1    3    3    0    0 -0.34306435430E+02 -0.22821687964E+03  0.28939680484E+02  0.23258843646E+03  0.00000000000E+00 0.  1.
        -13    1    3    3    0    0 -0.61520150415E+02 -0.14199278610E+03  0.84388608253E+02  0.17626150293E+03  0.00000000000E+00 0. -1.
          2    1    6    6  502    0  0.51916369940E+01 -0.23481342934E+02  0.12300583147E+02  0.27011680926E+02  0.00000000000E+00 0. -1.
          1    1    5    5  503    0 -0.44985636631E+01  0.22613990713E+03  0.64450919209E+03  0.68304582084E+03  0.00000000000E+00 0. -1.
         -2    1    5    5    0  503 -0.77965321696E+02  0.21488602532E+03  0.76059084097E+03  0.79419961132E+03  0.00000000000E+00 0.  1.
         -1    1    6    6    0  502  0.17309883421E+03 -0.47334923770E+02 -0.48848731439E+02  0.18598387021E+03  0.00000000000E+00 0.  1.
<mgrwt>
<rscale>  0 0.14866788E+04</rscale>
<asrwt>0</asrwt>
<pdfrwt beam="1">  1        2 0.27545931E+00 0.14866788E+04</pdfrwt>
<pdfrwt beam="2">  1       -2 0.47477751E-01 0.14866788E+04</pdfrwt>
<totfact> 0.35513957E+01</totfact>
</mgrwt>
</event>
<event>
12    1  0.1599266E-007  0.1923605E+04  0.7818608E-02  0.8643195E-01
          2   -1    0    0  501    0  0.00000000000E+00  0.00000000000E+00  0.13231974936E+04  0.13231974936E+04  0.00000000000E+00 0.  1.
         -2   -1    0    0    0  501 -0.00000000000E+00 -0.00000000000E+00 -0.69911224898E+03  0.69911224898E+03  0.00000000000E+00 0. -1.
         23    2    1    2    0    0 -0.17770561060E+02 -0.24789555567E+03 -0.49443337149E+03  0.56085972250E+03  0.91275791549E+02 0.  0.
        254    2    1    2    0    0  0.17770561060E+02  0.24789555567E+03  0.11185186161E+04  0.14614500201E+04  0.90718480325E+03 0.  0.
        -24    2    4    4    0    0 -0.34520760387E+03 -0.14260359344E+03  0.61330106860E+03  0.72254092840E+03  0.80144356258E+02 0.  0.
         24    2    4    4    0    0  0.36297816493E+03  0.39049914911E+03  0.50521754749E+03  0.73890909166E+03  0.80617254832E+02 0.  0.
         11    1    3    3    0    0 -0.26649543040E+02 -0.24736766986E+03 -0.43801141030E+03  0.50374096298E+03  0.00000000000E+00 0. -1.
        -11    1    3    3    0    0  0.88789819798E+01 -0.52788580852E+00 -0.56421961186E+02  0.57118759515E+02  0.00000000000E+00 0.  1.
          4    1    6    6  502    0  0.28328978147E+02  0.56991282705E+02  0.87990071612E+02  0.10859461317E+03  0.00000000000E+00 0. -1.
          1    1    5    5  503    0  0.33640157776E+01 -0.42559267136E+01  0.29326997632E+01  0.61668664851E+01  0.00000000000E+00 0. -1.
         -2    1    5    5    0  503 -0.34857161965E+03 -0.13834766673E+03  0.61036836883E+03  0.71637406192E+03  0.00000000000E+00 0.  1.
         -3    1    6    6    0  502  0.33464918679E+03  0.33350786640E+03  0.41722747588E+03  0.63031447850E+03  0.00000000000E+00 0.  1.
<mgrwt>
<rscale>  0 0.19236045E+04</rscale>
<asrwt>0</asrwt>
<pdfrwt beam="1">  1        2 0.20356884E+00 0.19236045E+04</pdfrwt>
<pdfrwt beam="2">  1       -2 0.10755573E+00 0.19236045E+04</pdfrwt>
<totfact> 0.10393739E+01</totfact>
</mgrwt>
</event>
<event>
12    1  0.1599266E-007  0.1425403E+04  0.7818608E-02  0.8935633E-01
          2   -1    0    0  501    0  0.00000000000E+00  0.00000000000E+00  0.20429571382E+04  0.20429571382E+04  0.00000000000E+00 0.  1.
         -2   -1    0    0    0  501 -0.00000000000E+00 -0.00000000000E+00 -0.24863130916E+03  0.24863130916E+03  0.00000000000E+00 0. -1.
         23    2    1    2    0    0 -0.47362195005E+02 -0.32017238948E+03  0.98097111226E+02  0.35019575360E+03  0.90887216397E+02 0.  0.
        254    2    1    2    0    0  0.47362195005E+02  0.32017238948E+03  0.16962287178E+04  0.19413926938E+04  0.88716412898E+03 0.  0.
        -24    2    4    4    0    0 -0.22401247954E+03  0.49613785792E+03  0.13608176709E+04  0.14684002021E+04  0.89666353703E+02 0.  0.
         24    2    4    4    0    0  0.27137467454E+03 -0.17596546844E+03  0.33541104697E+03  0.47299249172E+03  0.81321994156E+02 0.  0.
         13    1    3    3    0    0  0.22833871850E+02 -0.11528325138E+03  0.16134407876E+02  0.11862517806E+03  0.00000000000E+00 0. -1.
        -13    1    3    3    0    0 -0.70196066855E+02 -0.20488913810E+03  0.81962703349E+02  0.23157057554E+03  0.00000000000E+00 0.  1.
          4    1    6    6  502    0  0.11850962540E+03 -0.99806112813E+02  0.21063070535E+03  0.26147865210E+03  0.00000000000E+00 0. -1.
          3    1    5    5  503    0 -0.12048293084E+03  0.24166268213E+03  0.55859632607E+03  0.62044084654E+03  0.00000000000E+00 0. -1.
         -4    1    5    5    0  503 -0.10352954870E+03  0.25447517579E+03  0.80222134480E+03  0.84795935552E+03  0.00000000000E+00 0.  1.
         -3    1    6    6    0  502  0.15286504915E+03 -0.76159355627E+02  0.12478034162E+03  0.21151383963E+03  0.00000000000E+00 0.  1.
<mgrwt>
<rscale>  0 0.14254026E+04</rscale>
<asrwt>0</asrwt>
<pdfrwt beam="1">  1        2 0.31430109E+00 0.14254026E+04</pdfrwt>
<pdfrwt beam="2">  1       -2 0.38250972E-01 0.14254026E+04</pdfrwt>
<totfact> 0.39673458E+01</totfact>
</mgrwt>
</event>
<event>
12    1  0.1599266E-007  0.1952712E+04  0.7818608E-02  0.8629054E-01
          1   -1    0    0  501    0  0.00000000000E+00  0.00000000000E+00  0.22740756155E+04  0.22740756155E+04  0.00000000000E+00 0. -1.
         -1   -1    0    0    0  501 -0.00000000000E+00 -0.00000000000E+00 -0.41919054011E+03  0.41919054011E+03  0.00000000000E+00 0.  1.
         23    2    1    2    0    0  0.74466499392E+03  0.51766948634E+02  0.94357242216E+03  0.12067257565E+04  0.93018091530E+02 0.  0.
        254    2    1    2    0    0 -0.74466499392E+03 -0.51766948634E+02  0.91131265325E+03  0.14865403991E+04  0.90670052177E+03 0.  0.
        -24    2    4    4    0    0 -0.49094240473E+03 -0.18439504667E+03  0.28877776614E+01  0.53081528810E+03  0.82039946478E+02 0.  0.
         24    2    4    4    0    0 -0.25372258919E+03  0.13262809804E+03  0.90842487559E+03  0.95572511105E+03  0.78799547244E+02 0.  0.
         11    1    3    3    0    0  0.47566252698E+02  0.26960253441E+02  0.66320920173E+02  0.85952708590E+02  0.00000000000E+00 0. -1.
        -11    1    3    3    0    0  0.69709874122E+03  0.24806695193E+02  0.87725150198E+03  0.11207730479E+04  0.00000000000E+00 0.  1.
          4    1    6    6  502    0  0.43933979953E+01  0.71045834141E+00  0.40038172251E+01  0.59864220844E+01  0.00000000000E+00 0. -1.
          1    1    5    5  503    0 -0.17214973019E+03 -0.69470964469E+02  0.40046241822E+02  0.18990904664E+03  0.00000000000E+00 0. -1.
         -2    1    5    5    0  503 -0.31879267454E+03 -0.11492408221E+03 -0.37158464161E+02  0.34090624147E+03  0.00000000000E+00 0.  1.
         -3    1    6    6    0  502 -0.25811598718E+03  0.13191763970E+03  0.90442105836E+03  0.94973868896E+03  0.00000000000E+00 0.  1.
<mgrwt>
<rscale>  0 0.19527119E+04</rscale>
<asrwt>0</asrwt>
<pdfrwt beam="1">  1        1 0.34985778E+00 0.19527119E+04</pdfrwt>
<pdfrwt beam="2">  1       -1 0.64490854E-01 0.19527119E+04</pdfrwt>
<totfact> 0.44038097E+00</totfact>
</mgrwt>
</event>
<event>
12    1  0.1599266E-007  0.1342852E+04  0.7818608E-02  0.8996257E-01
          2   -1    0    0  501    0  0.00000000000E+00  0.00000000000E+00  0.40942568754E+04  0.40942568754E+04  0.00000000000E+00 0. -1.
         -2   -1    0    0    0  501 -0.00000000000E+00 -0.00000000000E+00 -0.11010852929E+03  0.11010852929E+03  0.00000000000E+00 0.  1.
         23    2    1    2    0    0 -0.10229478691E+03 -0.15512119197E+03  0.20782890119E+04  0.20896038509E+04  0.11239318846E+03 0.  0.
        254    2    1    2    0    0  0.10229478691E+03  0.15512119197E+03  0.19058593342E+04  0.21147615538E+04  0.89743513425E+03 0.  0.
        -24    2    4    4    0    0 -0.14238267080E+03 -0.13343573142E+03  0.16177100247E+04  0.16314800848E+04  0.81631022058E+02 0.  0.
         24    2    4    4    0    0  0.24467745771E+03  0.28855692340E+03  0.28814930945E+03  0.48328146898E+03  0.86016262222E+02 0.  0.
         13    1    3    3    0    0 -0.75302411301E+02 -0.22096966063E+02  0.60336406926E+03  0.60844632395E+03  0.00000000000E+00 0. -1.
        -13    1    3    3    0    0 -0.26992375613E+02 -0.13302422591E+03  0.14749249427E+04  0.14811575269E+04  0.00000000000E+00 0.  1.
          2    1    6    6  502    0  0.24339956963E+03  0.29435095062E+03  0.28231861311E+03  0.47496276900E+03  0.00000000000E+00 0. -1.
          1    1    5    5  503    0 -0.10429502393E+03 -0.82273664851E+02  0.13385866097E+04  0.13451618934E+04  0.00000000000E+00 0. -1.
         -4    1    5    5    0  503 -0.38087646867E+02 -0.51162066570E+02  0.27912341505E+03  0.28631819140E+03  0.00000000000E+00 0.  1.
         -1    1    6    6    0  502  0.12778880795E+01 -0.57940272261E+01  0.58306963443E+01  0.83186999766E+01  0.00000000000E+00 0.  1.
<mgrwt>
<rscale>  0 0.13428516E+04</rscale>
<asrwt>0</asrwt>
<pdfrwt beam="1">  1        2 0.62988556E+00 0.13428516E+04</pdfrwt>
<pdfrwt beam="2">  1       -2 0.16939777E-01 0.13428516E+04</pdfrwt>
<totfact> 0.82522470E+00</totfact>
</mgrwt>
</event>
<event>
12    1  0.1599266E-007  0.1548969E+04  0.7818608E-02  0.8852527E-01
          1   -1    0    0  501    0  0.00000000000E+00  0.00000000000E+00  0.23136302648E+04  0.23136302648E+04  0.00000000000E+00 0. -1.
         -1   -1    0    0    0  501 -0.00000000000E+00 -0.00000000000E+00 -0.25925761690E+03  0.25925761690E+03  0.00000000000E+00 0.  1.
         23    2    1    2    0    0 -0.22038484980E+03  0.28993827025E+03  0.12510338799E+04  0.13060560263E+04  0.89793612116E+02 0.  0.
        254    2    1    2    0    0  0.22038484980E+03 -0.28993827025E+03  0.80333876800E+03  0.12668318553E+04  0.90932727384E+03 0.  0.
        -24    2    4    4    0    0  0.39434859044E+03 -0.25249418493E+03  0.36348019887E+02  0.47551914881E+03  0.74385201030E+02 0.  0.
         24    2    4    4    0    0 -0.17396374065E+03 -0.37444085323E+02  0.76699074812E+03  0.79131270653E+03  0.78965493889E+02 0.  0.
         11    1    3    3    0    0 -0.11596514363E+03  0.17130903789E+03  0.85460957557E+03  0.87929075263E+03  0.00000000000E+00 0. -1.
        -11    1    3    3    0    0 -0.10441970616E+03  0.11862923236E+03  0.39642430429E+03  0.42676527370E+03  0.00000000000E+00 0.  1.
          2    1    6    6  502    0 -0.38914022343E+02  0.24569069136E+02  0.18936353617E+03  0.19487557344E+03  0.00000000000E+00 0. -1.
          3    1    5    5  503    0  0.22741013405E+03 -0.18746803656E+03  0.15078347546E+02  0.29510504971E+03  0.00000000000E+00 0. -1.
         -4    1    5    5    0  503  0.16693845639E+03 -0.65026148375E+02  0.21269672341E+02  0.18041409910E+03  0.00000000000E+00 0.  1.
         -1    1    6    6    0  502 -0.13504971830E+03 -0.62013154459E+02  0.57762721195E+03  0.59643713309E+03  0.00000000000E+00 0.  1.
<mgrwt>
<rscale>  0 0.15489690E+04</rscale>
<asrwt>0</asrwt>
<pdfrwt beam="1">  1        1 0.35594310E+00 0.15489690E+04</pdfrwt>
<pdfrwt beam="2">  1       -1 0.39885789E-01 0.15489690E+04</pdfrwt>
<totfact> 0.10762307E+01</totfact>
</mgrwt>
</event>
<event>
12    1  0.1599266E-007  0.2293226E+04  0.7818608E-02  0.8480597E-01
         -1   -1    0    0    0  501 -0.00000000000E+00  0.00000000000E+00  0.73193233051E+03  0.73193233051E+03  0.00000000000E+00 0.  1.
          1   -1    0    0  501    0  0.00000000000E+00 -0.00000000000E+00 -0.17962341696E+04  0.17962341696E+04  0.00000000000E+00 0. -1.
         23    2    1    2    0    0  0.23563843759E+03  0.74416309710E+03 -0.10891301245E+04  0.13427689566E+04  0.86717093883E+02 0.  0.
        254    2    1    2    0    0 -0.23563843759E+03 -0.74416309710E+03  0.24828285387E+02  0.11853975435E+04  0.89176605906E+03 0.  0.
        -24    2    4    4    0    0 -0.37314869792E+03 -0.84545930864E+03  0.17496434684E+03  0.94399644045E+03  0.80469643818E+02 0.  0.
         24    2    4    4    0    0  0.13751026034E+03  0.10129621154E+03 -0.15013606145E+03  0.24140110308E+03  0.81016427031E+02 0.  0.
         13    1    3    3    0    0  0.17557148764E+03  0.50194705886E+03 -0.80287036541E+03  0.96300416449E+03  0.00000000000E+00 0. -1.
        -13    1    3    3    0    0  0.60066949947E+02  0.24221603824E+03 -0.28625975911E+03  0.37976479213E+03  0.00000000000E+00 0.  1.
          2    1    6    6  502    0  0.10657284979E+03  0.96230090370E+02 -0.15311551799E+03  0.20991037243E+03  0.00000000000E+00 0. -1.
          3    1    5    5  503    0 -0.35761157964E+03 -0.78539212422E+03  0.18068865401E+03  0.88168884555E+03  0.00000000000E+00 0. -1.
         -4    1    5    5    0  503 -0.15537118284E+02 -0.60067184421E+02 -0.57243071723E+01  0.62307594893E+02  0.00000000000E+00 0.  1.
         -1    1    6    6    0  502  0.30937410552E+02  0.50661211708E+01  0.29794565421E+01  0.31490730647E+02  0.00000000000E+00 0.  1.
<mgrwt>
<rscale>  0 0.22932264E+04</rscale>
<asrwt>0</asrwt>
<pdfrwt beam="1">  1        1 0.27634372E+00 0.22932264E+04</pdfrwt>
<pdfrwt beam="2">  1       -1 0.11260498E+00 0.22932264E+04</pdfrwt>
<totfact> 0.26752533E+00</totfact>
</mgrwt>
</event>
<event>
12    1  0.1599266E-007  0.1290031E+04  0.7818608E-02  0.9037508E-01
         -2   -1    0    0    0  501 -0.00000000000E+00  0.00000000000E+00  0.46578240938E+03  0.46578240938E+03  0.00000000000E+00 0.  1.
          2   -1    0    0  501    0  0.00000000000E+00 -0.00000000000E+00 -0.89321764899E+03  0.89321764899E+03  0.00000000000E+00 0. -1.
         23    2    1    2    0    0 -0.18715675376E+03  0.12715567636E+03  0.13805969834E+03  0.28131182687E+03  0.94231879547E+02 0.  0.
        254    2    1    2    0    0  0.18715675376E+03 -0.12715567636E+03 -0.56549493795E+03  0.10776882315E+04  0.88906196801E+03 0.  0.
        -24    2    4    4    0    0  0.27962162622E+03  0.23675354765E+03 -0.58319002585E+03  0.69343591392E+03  0.80636618744E+02 0.  0.
         24    2    4    4    0    0 -0.92464872464E+02 -0.36390922400E+03  0.17695087896E+02  0.38425231759E+03  0.79731119910E+02 0.  0.
         13    1    3    3    0    0 -0.89157557105E+02  0.11164502861E+02  0.29218312620E+02  0.94485056519E+02  0.00000000000E+00 0. -1.
        -13    1    3    3    0    0 -0.97999196654E+02  0.11599117350E+03  0.10884138572E+03  0.18682677035E+03  0.00000000000E+00 0.  1.
          2    1    6    6  502    0 -0.52763411931E+02 -0.80837687317E+02  0.19109542974E+02  0.98406727219E+02  0.00000000000E+00 0. -1.
          3    1    5    5  503    0  0.72396216096E+02  0.50183158024E+02 -0.20877799757E+03  0.22660055985E+03  0.00000000000E+00 0. -1.
         -4    1    5    5    0  503  0.20722541013E+03  0.18657038962E+03 -0.37441202828E+03  0.46683535407E+03  0.00000000000E+00 0.  1.
         -1    1    6    6    0  502 -0.39701460533E+02 -0.28307153669E+03 -0.14144550783E+01  0.28584559037E+03  0.00000000000E+00 0.  1.
<mgrwt>
<rscale>  0 0.12900311E+04</rscale>
<asrwt>0</asrwt>
<pdfrwt beam="1">  1        2 0.13741810E+00 0.12900311E+04</pdfrwt>
<pdfrwt beam="2">  1       -2 0.71658833E-01 0.12900311E+04</pdfrwt>
<totfact> 0.51345974E+01</totfact>
</mgrwt>
</event>
<event>
12    1  0.1599266E-007  0.1502980E+04  0.7818608E-02  0.8882474E-01
         -2   -1    0    0    0  501 -0.00000000000E+00  0.00000000000E+00  0.79166961333E+03  0.79166961333E+03  0.00000000000E+00 0.  1.
          2   -1    0    0  501    0  0.00000000000E+00 -0.00000000000E+00 -0.71334955142E+03  0.71334955142E+03  0.00000000000E+00 0. -1.
         23    2    1    2    0    0 -0.21639998280E+03  0.12993968722E+03 -0.40762228001E+03  0.48805565065E+03  0.91264013157E+02 0.  0.
        254    2    1    2    0    0  0.21639998280E+03 -0.12993968722E+03  0.48594234192E+03  0.10169635141E+04  0.85694898009E+03 0.  0.
        -24    2    4    4    0    0  0.95177030706E+02 -0.41706870569E+03  0.10760088914E+01  0.43513191606E+03  0.79584258129E+02 0.  0.
         24    2    4    4    0    0  0.12122295209E+03  0.28712901846E+03  0.48486633303E+03  0.58183159805E+03  0.79338327581E+02 0.  0.
         11    1    3    3    0    0 -0.85256239507E+02  0.10302006008E+03 -0.22259472324E+03  0.25967319840E+03  0.00000000000E+00 0. -1.
        -11    1    3    3    0    0 -0.13114374329E+03  0.26919627148E+02 -0.18502755677E+03  0.22838245225E+03  0.00000000000E+00 0.  1.
          2    1    6    6  502    0  0.61323075960E+02  0.22545446980E+03  0.38175592403E+03  0.44757996283E+03  0.00000000000E+00 0. -1.
          3    1    5    5  503    0  0.70895684695E+02 -0.38514499773E+03 -0.15045185630E+02  0.39190461211E+03  0.00000000000E+00 0. -1.
         -4    1    5    5    0  503  0.24281346011E+02 -0.31923707960E+02  0.16121194521E+02  0.43227303950E+02  0.00000000000E+00 0.  1.
         -1    1    6    6    0  502  0.59899876134E+02  0.61674548660E+02  0.10311040900E+03  0.13425163521E+03  0.00000000000E+00 0.  1.
<mgrwt>
<rscale>  0 0.15029799E+04</rscale>
<asrwt>0</asrwt>
<pdfrwt beam="1">  1        2 0.10974608E+00 0.15029799E+04</pdfrwt>
<pdfrwt beam="2">  1       -2 0.12179533E+00 0.15029799E+04</pdfrwt>
<totfact> 0.19768826E+01</totfact>
</mgrwt>
</event>
<event>
12    1  0.1599266E-007  0.1720419E+04  0.7818608E-02  0.8749803E-01
         -2   -1    0    0    0  501 -0.00000000000E+00  0.00000000000E+00  0.14388542702E+04  0.14388542702E+04  0.00000000000E+00 0.  1.
          2   -1    0    0  501    0  0.00000000000E+00 -0.00000000000E+00 -0.51427074990E+03  0.51427074990E+03  0.00000000000E+00 0. -1.
         23    2    1    2    0    0  0.37952714880E+03  0.36879703005E+03 -0.23516462077E+02  0.53719076779E+03  0.89268084795E+02 0.  0.
        254    2    1    2    0    0 -0.37952714880E+03 -0.36879703005E+03  0.94809998241E+03  0.14159342523E+04  0.90880367752E+03 0.  0.
        -24    2    4    4    0    0 -0.52017441223E+03 -0.57428460716E+03  0.61765637402E+03  0.99422402680E+03  0.81226780931E+02 0.  0.
         24    2    4    4    0    0  0.14064726343E+03  0.20548757711E+03  0.33044360838E+03  0.42171022555E+03  0.81484593339E+02 0.  0.
         11    1    3    3    0    0  0.30989735842E+03  0.29945902308E+03  0.16090942108E+02  0.43124354798E+03  0.00000000000E+00 0. -1.
        -11    1    3    3    0    0  0.69629790380E+02  0.69338006968E+02 -0.39607404185E+02  0.10594721981E+03  0.00000000000E+00 0.  1.
          2    1    6    6  502    0  0.11770675247E+03  0.18564916116E+03  0.23599785168E+03  0.32251430452E+03  0.00000000000E+00 0. -1.
          1    1    5    5  503    0 -0.47686263785E+03 -0.54206840863E+03  0.54958516442E+03  0.90734777674E+03  0.00000000000E+00 0. -1.
         -2    1    5    5    0  503 -0.43311774378E+02 -0.32216198533E+02  0.68071209598E+02  0.86876250056E+02  0.00000000000E+00 0.  1.
         -1    1    6    6    0  502  0.22940510962E+02  0.19838415944E+02  0.94445756701E+02  0.99195921031E+02  0.00000000000E+00 0.  1.
<mgrwt>
<rscale>  0 0.17204193E+04</rscale>
<asrwt>0</asrwt>
<pdfrwt beam="1">  1        2 0.79118578E-01 0.17204193E+04</pdfrwt>
<pdfrwt beam="2">  1       -2 0.22136219E+00 0.17204193E+04</pdfrwt>
<totfact> 0.54813902E+00</totfact>
</mgrwt>
</event>
<event>
12    1  0.1599266E-007  0.1103036E+04  0.7818608E-02  0.9202237E-01
         -2   -1    0    0    0  501 -0.00000000000E+00  0.00000000000E+00  0.28924489081E+03  0.28924489081E+03  0.00000000000E+00 0.  1.
          2   -1    0    0  501    0  0.00000000000E+00 -0.00000000000E+00 -0.10516082262E+04  0.10516082262E+04  0.00000000000E+00 0. -1.
         23    2    1    2    0    0  0.19433186152E+03 -0.36009874194E+02 -0.78629582501E+02  0.23235484142E+03  0.93512446486E+02 0.  0.
        254    2    1    2    0    0 -0.19433186152E+03  0.36009874194E+02 -0.68373375285E+03  0.11084982756E+04  0.84983233563E+03 0.  0.
        -24    2    4    4    0    0  0.26551903466E+02 -0.31746469491E+02  0.18527374212E+03  0.20550736559E+03  0.78702451619E+02 0.  0.
         24    2    4    4    0    0 -0.22088376498E+03  0.67756343685E+02 -0.86900749497E+03  0.90299090997E+03  0.82692184826E+02 0.  0.
         13    1    3    3    0    0  0.16103907115E+02  0.23594440595E+02  0.18443399794E+00  0.28566894603E+02  0.00000000000E+00 0. -1.
        -13    1    3    3    0    0  0.17822795440E+03 -0.59604314789E+02 -0.78814016499E+02  0.20378794682E+03  0.00000000000E+00 0.  1.
          4    1    6    6  502    0  0.45058565782E+01 -0.14885425832E+01 -0.63659972807E+02  0.63836593270E+02  0.00000000000E+00 0. -1.
          1    1    5    5  503    0  0.12953967148E+02  0.25922424431E+02  0.73372101904E+02  0.78887531911E+02  0.00000000000E+00 0. -1.
         -2    1    5    5    0  503  0.13597936318E+02 -0.57668893923E+02  0.11190164021E+03  0.12661983368E+03  0.00000000000E+00 0.  1.
         -3    1    6    6    0  502 -0.22538962156E+03  0.69244886268E+02 -0.80534752216E+03  0.83915431670E+03  0.00000000000E+00 0.  1.
<mgrwt>
<rscale>  0 0.11030364E+04</rscale>
<asrwt>0</asrwt>
<pdfrwt beam="1">  1        2 0.16178588E+00 0.11030364E+04</pdfrwt>
<pdfrwt beam="2">  1       -2 0.44499215E-01 0.11030364E+04</pdfrwt>
<totfact> 0.11097219E+02</totfact>
</mgrwt>
</event>
<event>
12    1  0.1599266E-007  0.2087638E+04  0.7818608E-02  0.8566709E-01
         -1   -1    0    0    0  501 -0.00000000000E+00  0.00000000000E+00  0.10530348308E+04  0.10530348308E+04  0.00000000000E+00 0.  1.
          1   -1    0    0  501    0  0.00000000000E+00 -0.00000000000E+00 -0.10346836446E+04  0.10346836446E+04  0.00000000000E+00 0. -1.
         23    2    1    2    0    0  0.74855013120E+03  0.39315596610E+03  0.26032082754E+02  0.85113378897E+03  0.94085837438E+02 0.  0.
        254    2    1    2    0    0 -0.74855013120E+03 -0.39315596610E+03 -0.76808965752E+01  0.12365846865E+04  0.90232132747E+03 0.  0.
        -24    2    4    4    0    0 -0.23130260019E+03 -0.52907448522E+03  0.25452789087E+03  0.63596806404E+03  0.79058380234E+02 0.  0.
         24    2    4    4    0    0 -0.51724753101E+03  0.13591851912E+03 -0.26220878744E+03  0.60061662241E+03  0.77253004695E+02 0.  0.
         13    1    3    3    0    0  0.11981171243E+03  0.77131376310E+02 -0.28560521616E+02  0.14532652560E+03  0.00000000000E+00 0.  1.
        -13    1    3    3    0    0  0.62873841877E+03  0.31602458979E+03  0.54592604370E+02  0.70580726338E+03  0.00000000000E+00 0. -1.
          2    1    6    6  502    0 -0.44846069626E+03  0.14239112400E+03 -0.21782203159E+03  0.51849654360E+03  0.00000000000E+00 0. -1.
          1    1    5    5  503    0 -0.94369815949E+02 -0.25100498158E+03  0.78023739421E+02  0.27927919159E+03  0.00000000000E+00 0. -1.
         -2    1    5    5    0  503 -0.13693278424E+03 -0.27806950364E+03  0.17650415145E+03  0.35668887245E+03  0.00000000000E+00 0.  1.
         -1    1    6    6    0  502 -0.68786834749E+02 -0.64726048789E+01 -0.44386755854E+02  0.82120078811E+02  0.00000000000E+00 0.  1.
<mgrwt>
<rscale>  0 0.20876378E+04</rscale>
<asrwt>0</asrwt>
<pdfrwt beam="1">  1        1 0.15918210E+00 0.20876378E+04</pdfrwt>
<pdfrwt beam="2">  1       -1 0.16200536E+00 0.20876378E+04</pdfrwt>
<totfact> 0.36949318E+00</totfact>
</mgrwt>
</event>
<event>
12    1  0.1599266E-007  0.1427164E+04  0.7818608E-02  0.8934387E-01
          2   -1    0    0  501    0  0.00000000000E+00  0.00000000000E+00  0.22594623356E+04  0.22594623356E+04  0.00000000000E+00 0.  1.
         -2   -1    0    0    0  501 -0.00000000000E+00 -0.00000000000E+00 -0.22536314143E+03  0.22536314143E+03  0.00000000000E+00 0. -1.
         23    2    1    2    0    0 -0.32139731954E+03 -0.24745204877E+03  0.41584220485E+03  0.58805706457E+03  0.91420010942E+02 0.  0.
        254    2    1    2    0    0  0.32139731954E+03  0.24745204877E+03  0.16182569893E+04  0.18967684125E+04  0.90246660524E+03 0.  0.
        -24    2    4    4    0    0  0.12721389395E+03  0.79198830837E+02  0.16194315333E+04  0.16283551994E+04  0.80785732805E+02 0.  0.
         24    2    4    4    0    0  0.19418342559E+03  0.16825321793E+03 -0.11745439477E+01  0.26841321313E+03  0.77639714767E+02 0.  0.
         13    1    3    3    0    0 -0.23025557616E+03 -0.16497056393E+03  0.22822461524E+03  0.36375732614E+03  0.00000000000E+00 0. -1.
        -13    1    3    3    0    0 -0.91141743380E+02 -0.82481484842E+02  0.18761758961E+03  0.22429973843E+03  0.00000000000E+00 0.  1.
          4    1    6    6  502    0  0.57373696836E+02  0.53496775761E+02 -0.36280458289E+02  0.86428685974E+02  0.00000000000E+00 0. -1.
          1    1    5    5  503    0  0.99055224145E+02  0.90765241004E+02  0.11262645353E+04  0.11342495624E+04  0.00000000000E+00 0. -1.
         -2    1    5    5    0  503  0.28158669809E+02 -0.11566410167E+02  0.49316699799E+03  0.49410563692E+03  0.00000000000E+00 0.  1.
         -3    1    6    6    0  502  0.13680972875E+03  0.11475644217E+03  0.35105914341E+02  0.18198452715E+03  0.00000000000E+00 0.  1.
<mgrwt>
<rscale>  0 0.14271644E+04</rscale>
<asrwt>0</asrwt>
<pdfrwt beam="1">  1        2 0.34760957E+00 0.14271644E+04</pdfrwt>
<pdfrwt beam="2">  1       -2 0.34671254E-01 0.14271644E+04</pdfrwt>
<totfact> 0.36281866E+01</totfact>
</mgrwt>
</event>
<event>
12    1  0.1599266E-007  0.1739410E+04  0.7818608E-02  0.8739201E-01
         -2   -1    0    0    0  501 -0.00000000000E+00  0.00000000000E+00  0.54667502943E+03  0.54667502943E+03  0.00000000000E+00 0. -1.
          2   -1    0    0  501    0  0.00000000000E+00 -0.00000000000E+00 -0.13836131351E+04  0.13836131351E+04  0.00000000000E+00 0.  1.
         23    2    1    2    0    0 -0.44023058987E+03  0.37673826275E+03 -0.58254608314E+03  0.82669053886E+03  0.91228379293E+02 0.  0.
        254    2    1    2    0    0  0.44023058987E+03 -0.37673826275E+03 -0.25439202254E+03  0.11035976257E+04  0.90414474913E+03 0.  0.
        -24    2    4    4    0    0 -0.16987968450E+03  0.12900514204E+03  0.78111057740E+02  0.24047041644E+03  0.78887577996E+02 0.  0.
         24    2    4    4    0    0  0.61011027438E+03 -0.50574340479E+03 -0.33250308028E+03  0.86312720923E+03  0.80120799612E+02 0.  0.
         11    1    3    3    0    0 -0.42684037990E+03  0.36041666569E+03 -0.58022381503E+03  0.80545177283E+03  0.00000000000E+00 0.  1.
        -11    1    3    3    0    0 -0.13390209973E+02  0.16321597051E+02 -0.23222681051E+01  0.21238766032E+02  0.00000000000E+00 0. -1.
          4    1    6    6  502    0  0.17566853610E+03 -0.18496529474E+03 -0.13063199464E+03  0.28659433501E+03  0.00000000000E+00 0. -1.
          1    1    5    5  503    0 -0.10497405745E+03  0.12373405372E+03  0.57946861787E+02  0.17230063139E+03  0.00000000000E+00 0. -1.
         -2    1    5    5    0  503 -0.64905627057E+02  0.52710883255E+01  0.20164195952E+02  0.68169785053E+02  0.00000000000E+00 0.  1.
         -3    1    6    6    0  502  0.43444173828E+03 -0.32077811005E+03 -0.20187108563E+03  0.57653287422E+03  0.00000000000E+00 0.  1.
<mgrwt>
<rscale>  0 0.17394100E+04</rscale>
<asrwt>0</asrwt>
<pdfrwt beam="1">  1        2 0.21286356E+00 0.17394100E+04</pdfrwt>
<pdfrwt beam="2">  1       -2 0.84103851E-01 0.17394100E+04</pdfrwt>
<totfact> 0.17315702E+01</totfact>
</mgrwt>
</event>
<event>
12    1  0.1599266E-007  0.1274604E+04  0.7818608E-02  0.9049951E-01
          2   -1    0    0  501    0  0.00000000000E+00  0.00000000000E+00  0.18329861194E+04  0.18329861194E+04  0.00000000000E+00 0.  1.
         -2   -1    0    0    0  501 -0.00000000000E+00 -0.00000000000E+00 -0.22158036844E+03  0.22158036844E+03  0.00000000000E+00 0. -1.
         23    2    1    2    0    0  0.17895362060E+03  0.54117773642E+02  0.82045089386E+03  0.84640162413E+03  0.91120295981E+02 0.  0.
        254    2    1    2    0    0 -0.17895362060E+03 -0.54117773642E+02  0.79095485712E+03  0.12081648637E+04  0.89392372171E+03 0.  0.
        -24    2    4    4    0    0 -0.47984113011E+02  0.27523097602E+03 -0.47466377210E+02  0.29438571010E+03  0.79720286503E+02 0.  0.
         24    2    4    4    0    0 -0.13096950759E+03 -0.32934874966E+03  0.83842123433E+03  0.91377915365E+03  0.80115944967E+02 0.  0.
         11    1    3    3    0    0  0.56073295156E+02 -0.25459963498E+02  0.24402834215E+03  0.25167887465E+03  0.00000000000E+00 0. -1.
        -11    1    3    3    0    0  0.12288032544E+03  0.79577737140E+02  0.57642255171E+03  0.59472274948E+03  0.00000000000E+00 0.  1.
          2    1    6    6  502    0 -0.11646491924E+03 -0.32078913312E+03  0.75320344098E+03  0.82691303584E+03  0.00000000000E+00 0. -1.
          3    1    5    5  503    0 -0.10571519329E+02  0.22150250343E+03 -0.17682657331E+02  0.22245851841E+03  0.00000000000E+00 0. -1.
         -4    1    5    5    0  503 -0.37412593682E+02  0.53728472597E+02 -0.29783719879E+02  0.71927191683E+02  0.00000000000E+00 0.  1.
         -1    1    6    6    0  502 -0.14504588344E+02 -0.85596165393E+01  0.85217793350E+02  0.86866117800E+02  0.00000000000E+00 0.  1.
<mgrwt>
<rscale>  0 0.12746038E+04</rscale>
<asrwt>0</asrwt>
<pdfrwt beam="1">  1        2 0.28199785E+00 0.12746038E+04</pdfrwt>
<pdfrwt beam="2">  1       -2 0.34089289E-01 0.12746038E+04</pdfrwt>
<totfact> 0.65456242E+01</totfact>
</mgrwt>
</event>
<event>
12    1  0.1599266E-007  0.1270047E+04  0.7818608E-02  0.9053661E-01
         -1   -1    0    0    0  501 -0.00000000000E+00  0.00000000000E+00  0.53069552640E+03  0.53069552640E+03  0.00000000000E+00 0. -1.
          1   -1    0    0  501    0  0.00000000000E+00 -0.00000000000E+00 -0.75986096674E+03  0.75986096674E+03  0.00000000000E+00 0.  1.
         23    2    1    2    0    0  0.59020634468E+02  0.56229119656E+02  0.24414474936E+03  0.27290251672E+03  0.90686138988E+02 0.  0.
        254    2    1    2    0    0 -0.59020634468E+02 -0.56229119656E+02 -0.47331018969E+03  0.10176539764E+04  0.89719113397E+03 0.  0.
        -24    2    4    4    0    0  0.35557580959E+03 -0.17952584690E+03 -0.54130052670E+02  0.40982892240E+03  0.79787197986E+02 0.  0.
         24    2    4    4    0    0 -0.41459644406E+03  0.12329672725E+03 -0.41918013702E+03  0.60782505402E+03  0.81529225704E+02 0.  0.
         13    1    3    3    0    0 -0.25343472851E+01  0.41953104664E+02  0.17171286152E+03  0.17678176580E+03  0.00000000000E+00 0. -1.
        -13    1    3    3    0    0  0.61554981753E+02  0.14276014993E+02  0.72431887835E+02  0.96120750924E+02  0.00000000000E+00 0.  1.
          2    1    6    6  502    0 -0.45034109902E+02  0.31925242316E+02 -0.84518580595E+02  0.10094891093E+03  0.00000000000E+00 0. -1.
          1    1    5    5  503    0  0.14276937972E+02 -0.23301564584E+02 -0.18036624773E+02  0.32743147422E+02  0.00000000000E+00 0. -1.
         -2    1    5    5    0  503  0.34129887162E+03 -0.15622428232E+03 -0.36093427897E+02  0.37708577498E+03  0.00000000000E+00 0.  1.
         -1    1    6    6    0  502 -0.36956233416E+03  0.91371484931E+02 -0.33466155643E+03  0.50687614309E+03  0.00000000000E+00 0.  1.
<mgrwt>
<rscale>  0 0.12700470E+04</rscale>
<asrwt>0</asrwt>
<pdfrwt beam="1">  1        1 0.11690169E+00 0.12700470E+04</pdfrwt>
<pdfrwt beam="2">  1       -1 0.81645466E-01 0.12700470E+04</pdfrwt>
<totfact> 0.35303754E+01</totfact>
</mgrwt>
</event>
<event>
12    1  0.1599266E-007  0.1965988E+04  0.7818608E-02  0.8622689E-01
         -2   -1    0    0    0  501 -0.00000000000E+00  0.00000000000E+00  0.97288277873E+03  0.97288277873E+03  0.00000000000E+00 0.  1.
          2   -1    0    0  501    0  0.00000000000E+00 -0.00000000000E+00 -0.99321064105E+03  0.99321064105E+03  0.00000000000E+00 0. -1.
         23    2    1    2    0    0  0.25653800772E+03  0.53275120214E+03 -0.49883413917E+03  0.77908974724E+03  0.92248268632E+02 0.  0.
        254    2    1    2    0    0 -0.25653800772E+03 -0.53275120214E+03  0.47850627685E+03  0.11870036725E+04  0.91124852200E+03 0.  0.
        -24    2    4    4    0    0 -0.27255646074E+03 -0.44256670568E+03  0.73480442654E+03  0.90360786394E+03  0.80108134708E+02 0.  0.
         24    2    4    4    0    0  0.16018453028E+02 -0.90184496462E+02 -0.25629814969E+03  0.28339580860E+03  0.78959537474E+02 0.  0.
         13    1    3    3    0    0  0.17592213865E+03  0.43430480202E+03 -0.36109993065E+03  0.59157621642E+03  0.00000000000E+00 0. -1.
        -13    1    3    3    0    0  0.80615869064E+02  0.98446400129E+02 -0.13773420852E+03  0.18751353082E+03  0.00000000000E+00 0.  1.
          4    1    6    6  502    0  0.17809651226E+01 -0.15692213195E+02  0.32929310145E+00  0.15796386475E+02  0.00000000000E+00 0. -1.
          1    1    5    5  503    0 -0.15583681557E+03 -0.25142334874E+03  0.48516583258E+03  0.56822944176E+03  0.00000000000E+00 0. -1.
         -2    1    5    5    0  503 -0.11671964517E+03 -0.19114335694E+03  0.24963859396E+03  0.33537842218E+03  0.00000000000E+00 0.  1.
         -3    1    6    6    0  502  0.14237487906E+02 -0.74492283267E+02 -0.25662744279E+03  0.26759942212E+03  0.00000000000E+00 0.  1.
<mgrwt>
<rscale>  0 0.19659883E+04</rscale>
<asrwt>0</asrwt>
<pdfrwt beam="1">  1        2 0.15280164E+00 0.19659883E+04</pdfrwt>
<pdfrwt beam="2">  1       -2 0.14967427E+00 0.19659883E+04</pdfrwt>
<totfact> 0.71422936E+00</totfact>
</mgrwt>
</event>
<event>
12    1  0.1599266E-007  0.2174954E+04  0.7818608E-02  0.8528926E-01
          3   -1    0    0  501    0  0.00000000000E+00  0.00000000000E+00  0.12294433098E+04  0.12294433098E+04  0.00000000000E+00 0. -1.
         -3   -1    0    0    0  501 -0.00000000000E+00 -0.00000000000E+00 -0.96190350461E+03  0.96190350461E+03  0.00000000000E+00 0.  1.
         23    2    1    2    0    0  0.28502218433E+03 -0.78368970227E+03  0.45344457153E+03  0.95353677707E+03  0.90626766272E+02 0.  0.
        254    2    1    2    0    0 -0.28502218433E+03  0.78368970227E+03 -0.18590476637E+03  0.12378100373E+04  0.89565948402E+03 0.  0.
        -24    2    4    4    0    0 -0.39913379455E+03  0.79198836224E+03 -0.40610443098E+03  0.97855173165E+03  0.78034164167E+02 0.  0.
         24    2    4    4    0    0  0.11411161022E+03 -0.82986599674E+01  0.22019966461E+03  0.25925830567E+03  0.75077622621E+02 0.  0.
         13    1    3    3    0    0  0.88278827825E+02 -0.29890622254E+03  0.21463146801E+03  0.37842403251E+03  0.00000000000E+00 0. -1.
        -13    1    3    3    0    0  0.19674335650E+03 -0.48478347972E+03  0.23881310352E+03  0.57511274456E+03  0.00000000000E+00 0.  1.
          2    1    6    6  502    0  0.11566438915E+03 -0.20159927843E+02  0.21723706198E+03  0.24693443402E+03  0.00000000000E+00 0. -1.
          3    1    5    5  503    0 -0.27714057445E+03  0.56097821089E+03 -0.24711917654E+03  0.67273422576E+03  0.00000000000E+00 0. -1.
         -4    1    5    5    0  503 -0.12199322010E+03  0.23101015134E+03 -0.15898525444E+03  0.30581750588E+03  0.00000000000E+00 0.  1.
         -1    1    6    6    0  502 -0.15527789248E+01  0.11861267876E+02  0.29626026291E+01  0.12323871646E+02  0.00000000000E+00 0.  1.
<mgrwt>
<rscale>  0 0.21749536E+04</rscale>
<asrwt>0</asrwt>
<pdfrwt beam="1">  1        3 0.18914512E+00 0.21749536E+04</pdfrwt>
<pdfrwt beam="2">  1       -3 0.14798515E+00 0.21749536E+04</pdfrwt>
<totfact> 0.13803666E-01</totfact>
</mgrwt>
</event>
<event>
12    1  0.1599266E-007  0.3625730E+04  0.7818608E-02  0.8084623E-01
          2   -1    0    0  501    0  0.00000000000E+00  0.00000000000E+00  0.37962362892E+04  0.37962362892E+04  0.00000000000E+00 0. -1.
         -2   -1    0    0    0  501 -0.00000000000E+00 -0.00000000000E+00 -0.86572028512E+03  0.86572028512E+03  0.00000000000E+00 0.  1.
         23    2    1    2    0    0  0.71566427158E+02  0.16894803286E+04  0.15589018385E+04  0.23017999896E+04  0.92966207980E+02 0.  0.
        254    2    1    2    0    0 -0.71566427158E+02 -0.16894803286E+04  0.13716141656E+04  0.23601565847E+04  0.91079533978E+03 0.  0.
        -24    2    4    4    0    0 -0.41692460558E+03 -0.13984383384E+04  0.10204766447E+04  0.17824908288E+04  0.80281127421E+02 0.  0.
         24    2    4    4    0    0  0.34535817842E+03 -0.29104199019E+03  0.35113752090E+03  0.57766575590E+03  0.80140224008E+02 0.  0.
         11    1    3    3    0    0  0.87206832341E+02  0.14662548590E+04  0.13780335176E+04  0.20140716767E+04  0.00000000000E+00 0. -1.
        -11    1    3    3    0    0 -0.15640405183E+02  0.22322546963E+03  0.18086832084E+03  0.28772831291E+03  0.00000000000E+00 0.  1.
          2    1    6    6  502    0  0.26319165057E+03 -0.21843123713E+03  0.21976539297E+03  0.40654505068E+03  0.00000000000E+00 0. -1.
          1    1    5    5  503    0 -0.19147189594E+03 -0.71118285634E+03  0.55750085888E+03  0.92371518865E+03  0.00000000000E+00 0. -1.
         -2    1    5    5    0  503 -0.22545270964E+03 -0.68725548208E+03  0.46297578584E+03  0.85877564020E+03  0.00000000000E+00 0.  1.
         -1    1    6    6    0  502  0.82166527843E+02 -0.72610753053E+02  0.13137212794E+03  0.17112070522E+03  0.00000000000E+00 0.  1.
<mgrwt>
<rscale>  0 0.36257296E+04</rscale>
<asrwt>0</asrwt>
<pdfrwt beam="1">  1        2 0.58403634E+00 0.36257296E+04</pdfrwt>
<pdfrwt beam="2">  1       -2 0.13318774E+00 0.36257296E+04</pdfrwt>
<totfact> 0.16380034E-01</totfact>
</mgrwt>
</event>
<event>
12    1  0.1599266E-007  0.1462579E+04  0.7818608E-02  0.8909726E-01
         -1   -1    0    0    0  501 -0.00000000000E+00  0.00000000000E+00  0.30630882565E+03  0.30630882565E+03  0.00000000000E+00 0.  1.
          1   -1    0    0  501    0  0.00000000000E+00 -0.00000000000E+00 -0.17458995864E+04  0.17458995864E+04  0.00000000000E+00 0. -1.
         23    2    1    2    0    0  0.30285946031E+03 -0.20163480547E+03 -0.79800518524E+03  0.88169694210E+03  0.90536040202E+02 0.  0.
        254    2    1    2    0    0 -0.30285946031E+03  0.20163480547E+03 -0.64158557551E+03  0.11705114699E+04  0.90889196447E+03 0.  0.
        -24    2    4    4    0    0 -0.51660585916E+03  0.21840164145E+03 -0.88951777890E+02  0.57246115582E+03  0.72238946718E+02 0.  0.
         24    2    4    4    0    0  0.21374639885E+03 -0.16766835986E+02 -0.55263379762E+03  0.59805031412E+03  0.79318435036E+02 0.  0.
         13    1    3    3    0    0  0.66956073125E+02 -0.88741170374E+02 -0.28407032597E+03  0.30504763750E+03  0.00000000000E+00 0.  1.
        -13    1    3    3    0    0  0.23590338719E+03 -0.11289363509E+03 -0.51393485926E+03  0.57664930460E+03  0.00000000000E+00 0. -1.
          2    1    6    6  502    0  0.13061009323E+03  0.26763970657E+02 -0.35671199271E+03  0.38081327750E+03  0.00000000000E+00 0. -1.
          1    1    5    5  503    0 -0.88580415855E+02  0.35160343325E+02  0.11961128308E+02  0.96051071864E+02  0.00000000000E+00 0. -1.
         -2    1    5    5    0  503 -0.42802544331E+03  0.18324129813E+03 -0.10091290620E+03  0.47641008395E+03  0.00000000000E+00 0.  1.
         -1    1    6    6    0  502  0.83136305621E+02 -0.43530806643E+02 -0.19592180491E+03  0.21723703662E+03  0.00000000000E+00 0.  1.
<mgrwt>
<rscale>  0 0.14625792E+04</rscale>
<asrwt>0</asrwt>
<pdfrwt beam="1">  1        1 0.26859994E+00 0.14625792E+04</pdfrwt>
<pdfrwt beam="2">  1       -1 0.47124435E-01 0.14625792E+04</pdfrwt>
<totfact> 0.19326326E+01</totfact>
</mgrwt>
</event>
<event>
12    1  0.1599266E-007  0.3745250E+04  0.7818608E-02  0.8058007E-01
         -1   -1    0    0    0  501 -0.00000000000E+00  0.00000000000E+00  0.13151630449E+04  0.13151630449E+04  0.00000000000E+00 0.  1.
          1   -1    0    0  501    0  0.00000000000E+00 -0.00000000000E+00 -0.26663795695E+04  0.26663795695E+04  0.00000000000E+00 0. -1.
         23    2    1    2    0    0 -0.50005445608E+03 -0.15825273882E+04  0.13742994034E+02  0.16622704111E+04  0.92231535685E+02 0.  0.
        254    2    1    2    0    0  0.50005445608E+03  0.15825273882E+04 -0.13649595187E+04  0.23192722033E+04  0.87261771243E+03 0.  0.
        -24    2    4    4    0    0  0.55445604137E+03  0.52157721085E+03 -0.82597221511E+03  0.11259566599E+04  0.78000072102E+02 0.  0.
         24    2    4    4    0    0 -0.54401585296E+02  0.10609501774E+04 -0.53898730359E+03  0.11933155434E+04  0.70141723459E+02 0.  0.
         11    1    3    3    0    0 -0.40900901942E+03 -0.11675551301E+04 -0.22959699374E+01  0.12371251477E+04  0.00000000000E+00 0.  1.
        -11    1    3    3    0    0 -0.91045436658E+02 -0.41497225815E+03  0.16038963972E+02  0.42514526334E+03  0.00000000000E+00 0. -1.
          2    1    6    6  502    0 -0.47400021804E+02  0.30388758181E+03 -0.15557439588E+03  0.34467059216E+03  0.00000000000E+00 0. -1.
          1    1    5    5  503    0  0.18235753785E+03  0.22283593693E+03 -0.30263517845E+03  0.41772979021E+03  0.00000000000E+00 0. -1.
         -2    1    5    5    0  503  0.37209850352E+03  0.29874127393E+03 -0.52333703666E+03  0.70822686973E+03  0.00000000000E+00 0.  1.
         -1    1    6    6    0  502 -0.70015634919E+01  0.75706259555E+03 -0.38341290770E+03  0.84864495124E+03  0.00000000000E+00 0.  1.
<mgrwt>
<rscale>  0 0.37452497E+04</rscale>
<asrwt>0</asrwt>
<pdfrwt beam="1">  1        1 0.41021223E+00 0.37452497E+04</pdfrwt>
<pdfrwt beam="2">  1       -1 0.20233278E+00 0.37452497E+04</pdfrwt>
<totfact> 0.12012919E-01</totfact>
</mgrwt>
</event>
<event>
12    1  0.1599266E-007  0.2552259E+04  0.7818608E-02  0.8384601E-01
          2   -1    0    0  501    0  0.00000000000E+00  0.00000000000E+00  0.24593530381E+04  0.24593530381E+04  0.00000000000E+00 0.  1.
         -2   -1    0    0    0  501 -0.00000000000E+00 -0.00000000000E+00 -0.66216882439E+03  0.66216882439E+03  0.00000000000E+00 0. -1.
         23    2    1    2    0    0 -0.71215436403E+03 -0.35311192140E+03 -0.14948896207E+03  0.81403890033E+03  0.91981053631E+02 0.  0.
        254    2    1    2    0    0  0.71215436403E+03  0.35311192140E+03  0.19466731758E+04  0.23074829622E+04  0.95031010734E+03 0.  0.
        -24    2    4    4    0    0  0.33847492156E+03  0.90626205774E+02  0.17782520408E+04  0.18143278892E+04  0.82625585994E+02 0.  0.
         24    2    4    4    0    0  0.37367944247E+03  0.26248571562E+03  0.16842113504E+03  0.49315507295E+03  0.79379913171E+02 0.  0.
         11    1    3    3    0    0 -0.66490212109E+03 -0.32109893116E+03 -0.11479591325E+03  0.74724658308E+03  0.00000000000E+00 0. -1.
        -11    1    3    3    0    0 -0.47252242937E+02 -0.32012990240E+02 -0.34693048829E+02  0.66792317251E+02  0.00000000000E+00 0.  1.
          4    1    6    6  502    0  0.30711293546E+03  0.24019309972E+03  0.12022018745E+03  0.40799996783E+03  0.00000000000E+00 0. -1.
          1    1    5    5  503    0  0.21087151431E+03  0.18046518974E+02  0.11316707300E+04  0.11512910638E+04  0.00000000000E+00 0. -1.
         -2    1    5    5    0  503  0.12760340725E+03  0.72579686800E+02  0.64658131072E+03  0.66303682541E+03  0.00000000000E+00 0.  1.
         -3    1    6    6    0  502  0.66566507012E+02  0.22292615908E+02  0.48200947584E+02  0.85155105118E+02  0.00000000000E+00 0.  1.
<mgrwt>
<rscale>  0 0.25522593E+04</rscale>
<asrwt>0</asrwt>
<pdfrwt beam="1">  1        2 0.37836200E+00 0.25522593E+04</pdfrwt>
<pdfrwt beam="2">  1       -2 0.10187213E+00 0.25522593E+04</pdfrwt>
<totfact> 0.25786390E+00</totfact>
</mgrwt>
</event>
<event>
12    1  0.1599266E-007  0.1683695E+04  0.7818608E-02  0.8770718E-01
         -1   -1    0    0    0  501 -0.00000000000E+00  0.00000000000E+00  0.38696833446E+03  0.38696833446E+03  0.00000000000E+00 0.  1.
          1   -1    0    0  501    0  0.00000000000E+00 -0.00000000000E+00 -0.18314354133E+04  0.18314354133E+04  0.00000000000E+00 0. -1.
         23    2    1    2    0    0  0.22835828292E+03 -0.32122441051E+03 -0.10918072439E+04  0.11656763033E+04  0.10689040709E+03 0.  0.
        254    2    1    2    0    0 -0.22835828292E+03  0.32122441051E+03 -0.35265983500E+03  0.10527274444E+04  0.91023814783E+03 0.  0.
        -24    2    4    4    0    0 -0.20232312024E+03  0.29877833951E+03  0.24841782490E+03  0.44538736155E+03  0.80345161372E+02 0.  0.
         24    2    4    4    0    0 -0.26035162682E+02  0.22446071004E+02 -0.60107765990E+03  0.60734008290E+03  0.79912247267E+02 0.  0.
         13    1    3    3    0    0  0.15013829980E+03 -0.28381273330E+03 -0.83343683908E+03  0.89314508417E+03  0.00000000000E+00 0. -1.
        -13    1    3    3    0    0  0.78219983120E+02 -0.37411677211E+02 -0.25837040479E+03  0.27253121917E+03  0.00000000000E+00 0.  1.
          2    1    6    6  502    0 -0.27900744404E+02 -0.61457948067E+01 -0.52907544243E+03  0.52984624762E+03  0.00000000000E+00 0. -1.
          1    1    5    5  503    0 -0.98147921020E+02  0.19954170082E+03  0.12079016583E+03  0.25306159118E+03  0.00000000000E+00 0. -1.
         -2    1    5    5    0  503 -0.10417519922E+03  0.99236638691E+02  0.12762765906E+03  0.19232577037E+03  0.00000000000E+00 0.  1.
         -1    1    6    6    0  502  0.18655817218E+01  0.28591865810E+02 -0.72002217466E+02  0.77493835275E+02  0.00000000000E+00 0.  1.
<mgrwt>
<rscale>  0 0.16836954E+04</rscale>
<asrwt>0</asrwt>
<pdfrwt beam="1">  1        1 0.28175929E+00 0.16836954E+04</pdfrwt>
<pdfrwt beam="2">  1       -1 0.59533590E-01 0.16836954E+04</pdfrwt>
<totfact> 0.10572243E+01</totfact>
</mgrwt>
</event>
<event>
12    1  0.1599266E-007  0.1220747E+04  0.7818608E-02  0.9094888E-01
          1   -1    0    0  501    0  0.00000000000E+00  0.00000000000E+00  0.73582972735E+03  0.73582972735E+03  0.00000000000E+00 0. -1.
         -1   -1    0    0    0  501 -0.00000000000E+00 -0.00000000000E+00 -0.50630696709E+03  0.50630696709E+03  0.00000000000E+00 0.  1.
         23    2    1    2    0    0 -0.19527694785E+02 -0.26389994407E+03  0.14371826760E+02  0.28062995823E+03  0.92315289670E+02 0.  0.
        254    2    1    2    0    0  0.19527694785E+02  0.26389994407E+03  0.21515093350E+03  0.96150673621E+03  0.89898874756E+03 0.  0.
        -24    2    4    4    0    0  0.23023670947E+03  0.41705130051E+03  0.40406968048E+03  0.62980423803E+03  0.80251740853E+02 0.  0.
         24    2    4    4    0    0 -0.21070901469E+03 -0.15315135644E+03 -0.18891874698E+03  0.33170249818E+03  0.80514765669E+02 0.  0.
         13    1    3    3    0    0  0.28524436261E+02 -0.33374073126E+02  0.10389375120E+02  0.45115533206E+02  0.00000000000E+00 0. -1.
        -13    1    3    3    0    0 -0.48052131046E+02 -0.23052587094E+03  0.39824516407E+01  0.23551442502E+03  0.00000000000E+00 0.  1.
          4    1    6    6  502    0  0.20765114099E+01 -0.91004557657E+01  0.42271821847E+01  0.10246914853E+02  0.00000000000E+00 0. -1.
          3    1    5    5  503    0  0.41719776055E+01  0.56134845871E+02  0.60381686600E+02  0.82549829768E+02  0.00000000000E+00 0. -1.
         -4    1    5    5    0  503  0.22606473187E+03  0.36091645464E+03  0.34368799388E+03  0.54725440826E+03  0.00000000000E+00 0.  1.
         -3    1    6    6    0  502 -0.21278552610E+03 -0.14405090067E+03 -0.19314592917E+03  0.32145558333E+03  0.00000000000E+00 0.  1.
<mgrwt>
<rscale>  0 0.12207468E+04</rscale>
<asrwt>0</asrwt>
<pdfrwt beam="1">  1        1 0.11320457E+00 0.12207468E+04</pdfrwt>
<pdfrwt beam="2">  1       -1 0.77893380E-01 0.12207468E+04</pdfrwt>
<totfact> 0.41183708E+01</totfact>
</mgrwt>
</event>
<event>
12    1  0.1599266E-007  0.1487927E+04  0.7818608E-02  0.8892521E-01
          2   -1    0    0  501    0  0.00000000000E+00  0.00000000000E+00  0.20505086790E+04  0.20505086790E+04  0.00000000000E+00 0. -1.
         -2   -1    0    0    0  501 -0.00000000000E+00 -0.00000000000E+00 -0.26992416276E+03  0.26992416276E+03  0.00000000000E+00 0.  1.
         23    2    1    2    0    0  0.75814744800E+01 -0.26202208174E+03 -0.36396269455E+02  0.28039809623E+03  0.92657184644E+02 0.  0.
        254    2    1    2    0    0 -0.75814744800E+01  0.26202208174E+03  0.18169807857E+04  0.20400347455E+04  0.88972441650E+03 0.  0.
        -24    2    4    4    0    0  0.17040663368E+03  0.47113228813E+03  0.58069575860E+03  0.77113186877E+03  0.80204371772E+02 0.  0.
         24    2    4    4    0    0 -0.17798810816E+03 -0.20911020640E+03  0.12362850271E+04  0.12689028768E+04  0.79416606334E+02 0.  0.
         13    1    3    3    0    0 -0.26142656420E+02 -0.26202124777E+02 -0.18841414428E+02  0.41532983582E+02  0.00000000000E+00 0. -1.
        -13    1    3    3    0    0  0.33724130900E+02 -0.23581995696E+03 -0.17554855027E+02  0.23886511265E+03  0.00000000000E+00 0.  1.
          4    1    6    6  502    0 -0.39110632399E+02 -0.58409683682E+02  0.48901652746E+03  0.49404301112E+03  0.00000000000E+00 0. -1.
          1    1    5    5  503    0  0.22296554069E+00  0.17605612158E+02  0.47974832372E+02  0.51103736010E+02  0.00000000000E+00 0. -1.
         -2    1    5    5    0  503  0.17018366814E+03  0.45352667598E+03  0.53272092622E+03  0.72002813276E+03  0.00000000000E+00 0.  1.
         -3    1    6    6    0  502 -0.13887747576E+03 -0.15070052271E+03  0.74726849966E+03  0.77485986566E+03  0.00000000000E+00 0.  1.
<mgrwt>
<rscale>  0 0.14879272E+04</rscale>
<asrwt>0</asrwt>
<pdfrwt beam="1">  1        2 0.31546286E+00 0.14879272E+04</pdfrwt>
<pdfrwt beam="2">  1       -2 0.41526796E-01 0.14879272E+04</pdfrwt>
<totfact> 0.33289616E+01</totfact>
</mgrwt>
</event>
<event>
12    1  0.1599266E-007  0.1249953E+04  0.7818608E-02  0.9070223E-01
          2   -1    0    0  501    0  0.00000000000E+00  0.00000000000E+00  0.72385668110E+03  0.72385668110E+03  0.00000000000E+00 0. -1.
         -2   -1    0    0    0  501 -0.00000000000E+00 -0.00000000000E+00 -0.53960337728E+03  0.53960337728E+03  0.00000000000E+00 0.  1.
         23    2    1    2    0    0 -0.27968665279E+03 -0.90652321911E+01 -0.42825472353E+02  0.29768763626E+03  0.92071198082E+02 0.  0.
        254    2    1    2    0    0  0.27968665279E+03  0.90652321911E+01  0.22707877618E+03  0.96577242212E+03  0.89601607047E+03 0.  0.
        -24    2    4    4    0    0 -0.31297660807E+03  0.85341721887E+02  0.11018220560E+03  0.35158986090E+03  0.78979397086E+02 0.  0.
         24    2    4    4    0    0  0.59266326087E+03 -0.76276489696E+02  0.11689657057E+03  0.61418256121E+03  0.80545432062E+02 0.  0.
         11    1    3    3    0    0 -0.16998206702E+03  0.19382675885E+02 -0.63493076657E+02  0.18248551180E+03  0.00000000000E+00 0.  1.
        -11    1    3    3    0    0 -0.10970458577E+03 -0.28447908076E+02  0.20667604305E+02  0.11520212446E+03  0.00000000000E+00 0. -1.
          2    1    6    6  502    0  0.30942262781E+02  0.13439748144E+02  0.11634249120E+02  0.35684817622E+02  0.00000000000E+00 0. -1.
          1    1    5    5  503    0 -0.22542549106E+03  0.92131784435E+02  0.99730569344E+02  0.26315604531E+03  0.00000000000E+00 0. -1.
         -2    1    5    5    0  503 -0.87551117016E+02 -0.67900625482E+01  0.10451636259E+02  0.88433815595E+02  0.00000000000E+00 0.  1.
         -1    1    6    6    0  502  0.56172099808E+03 -0.89716237840E+02  0.10526232145E+03  0.57849774359E+03  0.00000000000E+00 0.  1.
<mgrwt>
<rscale>  0 0.12499528E+04</rscale>
<asrwt>0</asrwt>
<pdfrwt beam="1">  1        2 0.11136257E+00 0.12499528E+04</pdfrwt>
<pdfrwt beam="2">  1       -2 0.83015905E-01 0.12499528E+04</pdfrwt>
<totfact> 0.49111107E+01</totfact>
</mgrwt>
</event>
<event>
12    1  0.1599266E-007  0.1670358E+04  0.7818608E-02  0.8778453E-01
         -1   -1    0    0    0  501 -0.00000000000E+00  0.00000000000E+00  0.15778439632E+04  0.15778439632E+04  0.00000000000E+00 0.  1.
          1   -1    0    0  501    0  0.00000000000E+00 -0.00000000000E+00 -0.44207399800E+03  0.44207399800E+03  0.00000000000E+00 0. -1.
         23    2    1    2    0    0  0.50407994174E+03 -0.13242005286E+02  0.78730135097E+03  0.93930467823E+03  0.90431869047E+02 0.  0.
        254    2    1    2    0    0 -0.50407994174E+03  0.13242005286E+02  0.34846861419E+03  0.10806132829E+04  0.88995660220E+03 0.  0.
        -24    2    4    4    0    0 -0.37971806136E+03  0.21961108603E+03  0.58378534761E+03  0.73472882044E+03  0.81278978049E+02 0.  0.
         24    2    4    4    0    0 -0.12436188038E+03 -0.20636908074E+03 -0.23531673342E+03  0.34588446249E+03  0.78790999412E+02 0.  0.
         13    1    3    3    0    0  0.38958275387E+03 -0.33993964105E+02  0.65727074763E+03  0.76481053039E+03  0.00000000000E+00 0.  1.
        -13    1    3    3    0    0  0.11449718787E+03  0.20751958819E+02  0.13003060333E+03  0.17449414783E+03  0.00000000000E+00 0. -1.
          2    1    6    6  502    0 -0.95073854598E+02 -0.20275792313E+03 -0.20571676628E+03  0.30408748930E+03  0.00000000000E+00 0. -1.
          3    1    5    5  503    0 -0.36280862854E+03  0.22403173487E+03  0.57279446045E+03  0.71408249741E+03  0.00000000000E+00 0. -1.
         -4    1    5    5    0  503 -0.16909432815E+02 -0.44206488447E+01  0.10990887157E+02  0.20646323034E+02  0.00000000000E+00 0.  1.
         -1    1    6    6    0  502 -0.29288025780E+02 -0.36111576140E+01 -0.29599967139E+02  0.41796973192E+02  0.00000000000E+00 0.  1.
<mgrwt>
<rscale>  0 0.16703578E+04</rscale>
<asrwt>0</asrwt>
<pdfrwt beam="1">  1        1 0.68011385E-01 0.16703578E+04</pdfrwt>
<pdfrwt beam="2">  1       -1 0.24274522E+00 0.16703578E+04</pdfrwt>
<totfact> 0.38923562E+00</totfact>
</mgrwt>
</event>
<event>
12    1  0.1599266E-007  0.1712686E+04  0.7818608E-02  0.8754162E-01
         -2   -1    0    0    0  501 -0.00000000000E+00  0.00000000000E+00  0.40451690415E+03  0.40451690415E+03  0.00000000000E+00 0.  1.
          2   -1    0    0  501    0  0.00000000000E+00 -0.00000000000E+00 -0.18128381368E+04  0.18128381368E+04  0.00000000000E+00 0. -1.
         23    2    1    2    0    0 -0.55889078754E+03  0.70946672999E+02 -0.81667525321E+03  0.99639541941E+03  0.91940305704E+02 0.  0.
        254    2    1    2    0    0  0.55889078754E+03 -0.70946672999E+02 -0.59164597948E+03  0.12209596216E+04  0.90736160912E+03 0.  0.
        -24    2    4    4    0    0  0.14283959264E+03  0.37209040591E+03 -0.62481428924E+02  0.41094125258E+03  0.78194403322E+02 0.  0.
         24    2    4    4    0    0  0.41605119490E+03 -0.44303707891E+03 -0.52916455056E+03  0.81001836901E+03  0.82062089309E+02 0.  0.
         11    1    3    3    0    0 -0.98839304265E+02  0.24302216858E+01 -0.90523516022E+02  0.13405081498E+03  0.00000000000E+00 0.  1.
        -11    1    3    3    0    0 -0.46005148328E+03  0.68516451313E+02 -0.72615173719E+03  0.86234460443E+03  0.00000000000E+00 0. -1.
          2    1    6    6  502    0  0.35399510297E+03 -0.33964751087E+03 -0.39686167544E+03  0.63100883829E+03  0.00000000000E+00 0. -1.
          1    1    5    5  503    0  0.12434885670E+03  0.35599179417E+03 -0.73301359503E+02  0.38414305276E+03  0.00000000000E+00 0. -1.
         -2    1    5    5    0  503  0.18490735937E+02  0.16098611738E+02  0.10819930578E+02  0.26798199811E+02  0.00000000000E+00 0.  1.
         -1    1    6    6    0  502  0.62056091936E+02 -0.10338956804E+03 -0.13230287511E+03  0.17900953072E+03  0.00000000000E+00 0.  1.
<mgrwt>
<rscale>  0 0.17126864E+04</rscale>
<asrwt>0</asrwt>
<pdfrwt beam="1">  1        2 0.27889818E+00 0.17126864E+04</pdfrwt>
<pdfrwt beam="2">  1       -2 0.62233370E-01 0.17126864E+04</pdfrwt>
<totfact> 0.19335117E+01</totfact>
</mgrwt>
</event>
<event>
12    1  0.1599266E-007  0.1829122E+04  0.7818608E-02  0.8690964E-01
         -2   -1    0    0    0  501 -0.00000000000E+00  0.00000000000E+00  0.49097294786E+03  0.49097294786E+03  0.00000000000E+00 0.  1.
          2   -1    0    0  501    0  0.00000000000E+00 -0.00000000000E+00 -0.17036000091E+04  0.17036000091E+04  0.00000000000E+00 0. -1.
         23    2    1    2    0    0 -0.61648777504E+03  0.74641277032E+02 -0.81916042047E+03  0.10320227321E+04  0.91753081831E+02 0.  0.
        254    2    1    2    0    0  0.61648777504E+03 -0.74641277032E+02 -0.39346664080E+03  0.11625502249E+04  0.90059898458E+03 0.  0.
        -24    2    4    4    0    0 -0.95187655696E+02 -0.98906173310E+02 -0.41708275516E+03  0.44578176810E+03  0.76943090656E+02 0.  0.
         24    2    4    4    0    0  0.71167543074E+03  0.24264896278E+02  0.23616114358E+02  0.71676845682E+03  0.78285349413E+02 0.  0.
         13    1    3    3    0    0 -0.52228217496E+03  0.94738780175E+02 -0.70909090461E+03  0.88575618414E+03  0.00000000000E+00 0. -1.
        -13    1    3    3    0    0 -0.94205600082E+02 -0.20097503143E+02 -0.11006951586E+03  0.14626654792E+03  0.00000000000E+00 0.  1.
          4    1    6    6  502    0  0.25449282579E+03 -0.42955890315E+01 -0.26764689619E+02  0.25593241115E+03  0.00000000000E+00 0. -1.
          3    1    5    5  503    0 -0.53046239467E+02 -0.95905356096E+02 -0.34754064856E+03  0.36441218867E+03  0.00000000000E+00 0. -1.
         -4    1    5    5    0  503 -0.42141416229E+02 -0.30008172135E+01 -0.69542106599E+02  0.81369579426E+02  0.00000000000E+00 0.  1.
         -3    1    6    6    0  502  0.45718260494E+03  0.28560485309E+02  0.50380803977E+02  0.46083604567E+03  0.00000000000E+00 0.  1.
<mgrwt>
<rscale>  0 0.18291217E+04</rscale>
<asrwt>0</asrwt>
<pdfrwt beam="1">  1        2 0.26209231E+00 0.18291217E+04</pdfrwt>
<pdfrwt beam="2">  1       -2 0.75534300E-01 0.18291217E+04</pdfrwt>
<totfact> 0.14450642E+01</totfact>
</mgrwt>
</event>
<event>
12    1  0.1599266E-007  0.1472093E+04  0.7818608E-02  0.8903226E-01
         -2   -1    0    0    0  501 -0.00000000000E+00  0.00000000000E+00  0.27562353270E+04  0.27562353270E+04  0.00000000000E+00 0. -1.
          2   -1    0    0  501    0  0.00000000000E+00 -0.00000000000E+00 -0.19655955368E+03  0.19655955368E+03  0.00000000000E+00 0.  1.
         23    2    1    2    0    0 -0.25105363063E+03  0.79497743759E+02  0.15655982748E+04  0.15900284999E+04  0.88004862397E+02 0.  0.
        254    2    1    2    0    0  0.25105363063E+03 -0.79497743759E+02  0.99407749854E+03  0.13627663808E+04  0.89420037953E+03 0.  0.
        -24    2    4    4    0    0 -0.12709747348E+03  0.22608363362E+03  0.20295045440E+02  0.27186177562E+03  0.78926288517E+02 0.  0.
         24    2    4    4    0    0  0.37815110411E+03 -0.30558137738E+03  0.97378245310E+03  0.10909046052E+04  0.73772324370E+02 0.  0.
         11    1    3    3    0    0 -0.22701510189E+03  0.79675259612E+02  0.15152987731E+04  0.15342797578E+04  0.00000000000E+00 0. -1.
        -11    1    3    3    0    0 -0.24038528741E+02 -0.17751585234E+00  0.50299501709E+02  0.55748742121E+02  0.00000000000E+00 0.  1.
          4    1    6    6  502    0  0.12271144955E+03 -0.10174722147E+03  0.39983485624E+03  0.43043990195E+03  0.00000000000E+00 0. -1.
          1    1    5    5  503    0 -0.16440683894E+01  0.65590273664E+02  0.18413512720E+02  0.68145758568E+02  0.00000000000E+00 0. -1.
         -2    1    5    5    0  503 -0.12545340509E+03  0.16049335996E+03  0.18815327205E+01  0.20371601705E+03  0.00000000000E+00 0.  1.
         -3    1    6    6    0  502  0.25543965456E+03 -0.20383415591E+03  0.57394759686E+03  0.66046470320E+03  0.00000000000E+00 0.  1.
<mgrwt>
<rscale>  0 0.14720929E+04</rscale>
<asrwt>0</asrwt>
<pdfrwt beam="1">  1        2 0.30239933E-01 0.14720929E+04</pdfrwt>
<pdfrwt beam="2">  1       -2 0.42403618E+00 0.14720929E+04</pdfrwt>
<totfact> 0.89024335E-01</totfact>
</mgrwt>
</event>
<event>
12    1  0.1599266E-007  0.1295933E+04  0.7818608E-02  0.9032797E-01
         -1   -1    0    0    0  501 -0.00000000000E+00  0.00000000000E+00  0.63020526073E+03  0.63020526073E+03  0.00000000000E+00 0.  1.
          1   -1    0    0  501    0  0.00000000000E+00 -0.00000000000E+00 -0.66622812795E+03  0.66622812795E+03  0.00000000000E+00 0. -1.
         23    2    1    2    0    0  0.20211947920E+03  0.24753164438E+03 -0.87955524435E+02  0.34274099802E+03  0.87241152006E+02 0.  0.
        254    2    1    2    0    0 -0.20211947920E+03 -0.24753164438E+03  0.51932657217E+02  0.95369239066E+03  0.89705516903E+03 0.  0.
        -24    2    4    4    0    0 -0.40344303284E+03 -0.40692513881E+03  0.23856840193E+03  0.62590581848E+03  0.80553472143E+02 0.  0.
         24    2    4    4    0    0  0.20132355363E+03  0.15939349442E+03 -0.18663574471E+03  0.32778657218E+03  0.81692572408E+02 0.  0.
         13    1    3    3    0    0  0.78495718543E+02  0.73328159923E+02 -0.70352431417E+02  0.12840584673E+03  0.00000000000E+00 0. -1.
        -13    1    3    3    0    0  0.12362376066E+03  0.17420348446E+03 -0.17603093018E+02  0.21433515130E+03  0.00000000000E+00 0.  1.
          2    1    6    6  502    0  0.30753896290E+02  0.42637992821E+02 -0.53389851971E+01  0.52842268420E+02  0.00000000000E+00 0. -1.
          3    1    5    5  503    0 -0.93533232881E+01 -0.25956410234E+02 -0.12330522321E+01  0.27617753467E+02  0.00000000000E+00 0. -1.
         -4    1    5    5    0  503 -0.39408970955E+03 -0.38096872857E+03  0.23980145416E+03  0.59828806502E+03  0.00000000000E+00 0.  1.
         -1    1    6    6    0  502  0.17056965734E+03  0.11675550160E+03 -0.18129675951E+03  0.27494430376E+03  0.00000000000E+00 0.  1.
<mgrwt>
<rscale>  0 0.12959328E+04</rscale>
<asrwt>0</asrwt>
<pdfrwt beam="1">  1        1 0.10249663E+00 0.12959328E+04</pdfrwt>
<pdfrwt beam="2">  1       -1 0.96954656E-01 0.12959328E+04</pdfrwt>
<totfact> 0.29521315E+01</totfact>
</mgrwt>
</event>
<event>
12    1  0.1599266E-007  0.2614093E+04  0.7818608E-02  0.8363430E-01
         -2   -1    0    0    0  501 -0.00000000000E+00  0.00000000000E+00  0.66657847666E+03  0.66657847666E+03  0.00000000000E+00 0.  1.
          2   -1    0    0  501    0  0.00000000000E+00 -0.00000000000E+00 -0.25628956925E+04  0.25628956925E+04  0.00000000000E+00 0. -1.
         23    2    1    2    0    0  0.46314887337E+03  0.98158698167E+02  0.46538973271E+03  0.67008684536E+03  0.91031687207E+02 0.  0.
        254    2    1    2    0    0 -0.46314887337E+03 -0.98158698167E+02 -0.23617069485E+04  0.25593873238E+04  0.86525242178E+03 0.  0.
        -24    2    4    4    0    0  0.22456042771E+03  0.98256997314E+02 -0.78737699722E+03  0.82834838705E+03  0.78209279222E+02 0.  0.
         24    2    4    4    0    0 -0.68770930108E+03 -0.19641569548E+03 -0.15743299513E+04  0.17310389367E+04  0.80360417047E+02 0.  0.
         13    1    3    3    0    0  0.32645127828E+02 -0.12836920271E+02  0.18251216263E+02  0.39542354356E+02  0.00000000000E+00 0. -1.
        -13    1    3    3    0    0  0.43050374554E+03  0.11099561844E+03  0.44713851645E+03  0.63054449100E+03  0.00000000000E+00 0.  1.
          2    1    6    6  502    0 -0.57856513052E+03 -0.16702852764E+03 -0.13896068131E+04  0.15144778751E+04  0.00000000000E+00 0. -1.
          3    1    5    5  503    0  0.10819958225E+03  0.88622932203E+02 -0.45870589869E+03  0.47955424636E+03  0.00000000000E+00 0. -1.
         -4    1    5    5    0  503  0.11636084546E+03  0.96340651113E+01 -0.32867109853E+03  0.34879414069E+03  0.00000000000E+00 0.  1.
         -1    1    6    6    0  502 -0.10914417056E+03 -0.29387167845E+02 -0.18472313826E+03  0.21656106162E+03  0.00000000000E+00 0.  1.
<mgrwt>
<rscale>  0 0.26140934E+04</rscale>
<asrwt>0</asrwt>
<pdfrwt beam="1">  1        2 0.39429164E+00 0.26140934E+04</pdfrwt>
<pdfrwt beam="2">  1       -2 0.10255054E+00 0.26140934E+04</pdfrwt>
<totfact> 0.21984472E+00</totfact>
</mgrwt>
</event>
<event>
12    1  0.1599266E-007  0.3326384E+04  0.7818608E-02  0.8156214E-01
         -1   -1    0    0    0  501 -0.00000000000E+00  0.00000000000E+00  0.14768297009E+04  0.14768297009E+04  0.00000000000E+00 0.  1.
          1   -1    0    0  501    0  0.00000000000E+00 -0.00000000000E+00 -0.18730714351E+04  0.18730714351E+04  0.00000000000E+00 0. -1.
         23    2    1    2    0    0  0.10027479669E+04  0.11472479500E+04 -0.39121001137E+03  0.15754827368E+04  0.86134992186E+02 0.  0.
        254    2    1    2    0    0 -0.10027479669E+04 -0.11472479500E+04 -0.50317229012E+01  0.17744183992E+04  0.90931512316E+03 0.  0.
        -24    2    4    4    0    0 -0.58236312468E+03 -0.11018527779E+04  0.25062503267E+03  0.12737844166E+04  0.80544894464E+02 0.  0.
         24    2    4    4    0    0 -0.42038484224E+03 -0.45395172167E+02 -0.25565675557E+03  0.50063398256E+03  0.80559733024E+02 0.  0.
         11    1    3    3    0    0  0.94433529775E+03  0.10464965479E+04 -0.35663348511E+03  0.14539984945E+04  0.00000000000E+00 0.  1.
        -11    1    3    3    0    0  0.58412669170E+02  0.10075140212E+03 -0.34576526260E+02  0.12148424226E+03  0.00000000000E+00 0. -1.
          4    1    6    6  502    0 -0.37568946921E+03 -0.65618063563E+02 -0.22633714648E+03  0.44348259427E+03  0.00000000000E+00 0. -1.
          1    1    5    5  503    0 -0.54702614580E+03 -0.10675940708E+04  0.24364945837E+03  0.12240750642E+04  0.00000000000E+00 0. -1.
         -2    1    5    5    0  503 -0.35336978876E+02 -0.34258707085E+02  0.69755742968E+01  0.49709352480E+02  0.00000000000E+00 0.  1.
         -3    1    6    6    0  502 -0.44695373032E+02  0.20222891397E+02 -0.29319609094E+02  0.57151388298E+02  0.00000000000E+00 0.  1.
<mgrwt>
<rscale>  0 0.33263839E+04</rscale>
<asrwt>0</asrwt>
<pdfrwt beam="1">  1        1 0.28816483E+00 0.33263839E+04</pdfrwt>
<pdfrwt beam="2">  1       -1 0.22720457E+00 0.33263839E+04</pdfrwt>
<totfact> 0.29636426E-01</totfact>
</mgrwt>
</event>
<event>
12    1  0.1599266E-007  0.1916113E+04  0.7818608E-02  0.8646877E-01
          1   -1    0    0  501    0  0.00000000000E+00  0.00000000000E+00  0.12694603381E+04  0.12694603381E+04  0.00000000000E+00 0. -1.
         -1   -1    0    0    0  501 -0.00000000000E+00 -0.00000000000E+00 -0.72304138136E+03  0.72304138136E+03  0.00000000000E+00 0.  1.
         23    2    1    2    0    0  0.32799986914E+03 -0.66687294025E+03  0.29996088238E+03  0.80662584367E+03  0.91461949111E+02 0.  0.
        254    2    1    2    0    0 -0.32799986914E+03  0.66687294025E+03  0.24645807433E+03  0.11858758758E+04  0.89064952575E+03 0.  0.
        -24    2    4    4    0    0 -0.93173576690E+02  0.37804076362E+03  0.56426845645E+03  0.68997179080E+03  0.77884830305E+02 0.  0.
         24    2    4    4    0    0 -0.23482629245E+03  0.28883217663E+03 -0.31781038212E+03  0.49590408496E+03  0.79686941341E+02 0.  0.
         11    1    3    3    0    0  0.71731529601E+02 -0.15055281900E+03  0.10971581944E+03  0.19962245535E+03  0.00000000000E+00 0. -1.
        -11    1    3    3    0    0  0.25626833953E+03 -0.51632012125E+03  0.19024506294E+03  0.60700338832E+03  0.00000000000E+00 0.  1.
          2    1    6    6  502    0 -0.23525254635E+03  0.29313768114E+03 -0.31653408185E+03  0.49139320879E+03  0.00000000000E+00 0. -1.
          3    1    5    5  503    0 -0.72332188667E+02  0.18515044280E+03  0.33597357202E+03  0.39037273609E+03  0.00000000000E+00 0. -1.
         -4    1    5    5    0  503 -0.20841388023E+02  0.19289032083E+03  0.22829488444E+03  0.29959905471E+03  0.00000000000E+00 0.  1.
         -1    1    6    6    0  502  0.42625390347E+00 -0.43055045130E+01 -0.12763002692E+01  0.45108761764E+01  0.00000000000E+00 0.  1.
<mgrwt>
<rscale>  0 0.19161131E+04</rscale>
<asrwt>0</asrwt>
<pdfrwt beam="1">  1        1 0.19530159E+00 0.19161131E+04</pdfrwt>
<pdfrwt beam="2">  1       -1 0.11123714E+00 0.19161131E+04</pdfrwt>
<totfact> 0.66069803E+00</totfact>
</mgrwt>
</event>
<event>
12    1  0.1599266E-007  0.1551215E+04  0.7818608E-02  0.8851092E-01
         -2   -1    0    0    0  501 -0.00000000000E+00  0.00000000000E+00  0.31780750531E+04  0.31780750531E+04  0.00000000000E+00 0.  1.
          2   -1    0    0  501    0  0.00000000000E+00 -0.00000000000E+00 -0.18928660414E+03  0.18928660414E+03  0.00000000000E+00 0. -1.
         23    2    1    2    0    0 -0.28349675313E+02  0.26456992991E+03  0.19490363754E+04  0.19692371312E+04  0.91384541932E+02 0.  0.
        254    2    1    2    0    0  0.28349675313E+02 -0.26456992991E+03  0.10397520736E+04  0.13981245260E+04  0.89602838340E+03 0.  0.
        -24    2    4    4    0    0  0.20628187516E+03 -0.49680239314E+03  0.35547469644E+03  0.64963587157E+03  0.79370498154E+02 0.  0.
         24    2    4    4    0    0 -0.17793219984E+03  0.23223246323E+03  0.68427737712E+03  0.74848865444E+03  0.80049686259E+02 0.  0.
         13    1    3    3    0    0 -0.21523388101E+01 -0.71938126362E+01  0.82103520456E+02  0.82446173798E+02  0.00000000000E+00 0. -1.
        -13    1    3    3    0    0 -0.26197336503E+02  0.27176374255E+03  0.18669328549E+04  0.18867909574E+04  0.00000000000E+00 0.  1.
          4    1    6    6  502    0 -0.46644192380E+01  0.91069591150E+01  0.25480361441E+01  0.10544477196E+02  0.00000000000E+00 0. -1.
          1    1    5    5  503    0  0.62685493402E+02 -0.19388095153E+03  0.17672698243E+03  0.26972526905E+03  0.00000000000E+00 0. -1.
         -2    1    5    5    0  503  0.14359638175E+03 -0.30292144161E+03  0.17874771401E+03  0.37991060252E+03  0.00000000000E+00 0.  1.
         -3    1    6    6    0  502 -0.17326778061E+03  0.22312550411E+03  0.68172934097E+03  0.73794417724E+03  0.00000000000E+00 0.  1.
<mgrwt>
<rscale>  0 0.15512151E+04</rscale>
<asrwt>0</asrwt>
<pdfrwt beam="1">  1        2 0.29121018E-01 0.15512151E+04</pdfrwt>
<pdfrwt beam="2">  1       -2 0.48893459E+00 0.15512151E+04</pdfrwt>
<totfact> 0.34442407E-01</totfact>
</mgrwt>
</event>
<event>
12    1  0.1599266E-007  0.1387313E+04  0.7818608E-02  0.8963053E-01
          2   -1    0    0  501    0  0.00000000000E+00  0.00000000000E+00  0.13474417101E+04  0.13474417101E+04  0.00000000000E+00 0.  1.
         -2   -1    0    0    0  501 -0.00000000000E+00 -0.00000000000E+00 -0.35709123569E+03  0.35709123569E+03  0.00000000000E+00 0. -1.
         23    2    1    2    0    0  0.78443577742E+02  0.21131273797E+03  0.67879183471E+03  0.72133992034E+03  0.93629363397E+02 0.  0.
        254    2    1    2    0    0 -0.78443577742E+02 -0.21131273797E+03  0.31155863973E+03  0.98319302548E+03  0.90487196401E+03 0.  0.
        -24    2    4    4    0    0  0.36149490884E+03 -0.26704645992E+03  0.27371296791E+03  0.53231693039E+03  0.80312792943E+02 0.  0.
         24    2    4    4    0    0 -0.43993848658E+03  0.55733721945E+02  0.37845671820E+02  0.45087609509E+03  0.72144566763E+02 0.  0.
         13    1    3    3    0    0  0.84953153082E+02  0.14160019902E+03  0.37778665099E+03  0.41229893069E+03  0.00000000000E+00 0.  1.
        -13    1    3    3    0    0 -0.65095753405E+01  0.69712538947E+02  0.30100518372E+03  0.30904098965E+03  0.00000000000E+00 0. -1.
          2    1    6    6  502    0 -0.17292910508E+03  0.13343263593E+02 -0.19411676160E+02  0.17452601880E+03  0.00000000000E+00 0. -1.
          3    1    5    5  503    0  0.26884901457E+03 -0.22078927574E+03  0.24283283531E+03  0.42425874513E+03  0.00000000000E+00 0. -1.
         -4    1    5    5    0  503  0.92645894262E+02 -0.46257184181E+02  0.30880132604E+02  0.10805818526E+03  0.00000000000E+00 0.  1.
         -1    1    6    6    0  502 -0.26700938150E+03  0.42390458352E+02  0.57257347980E+02  0.27635007629E+03  0.00000000000E+00 0.  1.
<mgrwt>
<rscale>  0 0.13873134E+04</rscale>
<asrwt>0</asrwt>
<pdfrwt beam="1">  1        2 0.20729872E+00 0.13873134E+04</pdfrwt>
<pdfrwt beam="2">  1       -2 0.54937114E-01 0.13873134E+04</pdfrwt>
<totfact> 0.47094592E+01</totfact>
</mgrwt>
</event>
<event>
12    1  0.1599266E-007  0.1645912E+04  0.7818608E-02  0.8792828E-01
          2   -1    0    0  501    0  0.00000000000E+00  0.00000000000E+00  0.29260978411E+04  0.29260978411E+04  0.00000000000E+00 0. -1.
         -2   -1    0    0    0  501 -0.00000000000E+00 -0.00000000000E+00 -0.23145392869E+03  0.23145392869E+03  0.00000000000E+00 0.  1.
         23    2    1    2    0    0 -0.35937069494E+03 -0.16209295233E+03  0.17269618919E+03  0.43991427188E+03  0.90989951476E+02 0.  0.
        254    2    1    2    0    0  0.35937069494E+03  0.16209295233E+03  0.25219477232E+04  0.27176374979E+04  0.93269063993E+03 0.  0.
        -24    2    4    4    0    0 -0.13286680143E+03  0.62130142751E+02  0.23699401600E+02  0.16814488550E+03  0.78722927552E+02 0.  0.
         24    2    4    4    0    0  0.49223749637E+03  0.99962809579E+02  0.24982483216E+04  0.25494926124E+04  0.79859803037E+02 0.  0.
         11    1    3    3    0    0 -0.28920726646E+03 -0.93035848956E+02  0.10952779584E+03  0.32294403575E+03  0.00000000000E+00 0.  1.
        -11    1    3    3    0    0 -0.70163428475E+02 -0.69057103374E+02  0.63168393358E+02  0.11697023613E+03  0.00000000000E+00 0. -1.
          2    1    6    6  502    0  0.33997679154E+03  0.41838286495E+02  0.15565273158E+04  0.15937728652E+04  0.00000000000E+00 0. -1.
          3    1    5    5  503    0 -0.13627837122E+03  0.46349686335E+02  0.58308292268E+01  0.14406278651E+03  0.00000000000E+00 0. -1.
         -4    1    5    5    0  503  0.34115697938E+01  0.15780456416E+02  0.17868572373E+02  0.24082098990E+02  0.00000000000E+00 0.  1.
         -1    1    6    6    0  502  0.15226070483E+03  0.58124523084E+02  0.94172100580E+03  0.95571974720E+03  0.00000000000E+00 0.  1.
<mgrwt>
<rscale>  0 0.16459123E+04</rscale>
<asrwt>0</asrwt>
<pdfrwt beam="1">  1        2 0.45016887E+00 0.16459123E+04</pdfrwt>
<pdfrwt beam="2">  1       -2 0.35608299E-01 0.16459123E+04</pdfrwt>
<totfact> 0.13776487E+01</totfact>
</mgrwt>
</event>
<event>
12    1  0.1599266E-007  0.1652035E+04  0.7818608E-02  0.8789204E-01
          2   -1    0    0  501    0  0.00000000000E+00  0.00000000000E+00  0.10434827438E+04  0.10434827438E+04  0.00000000000E+00 0. -1.
         -2   -1    0    0    0  501 -0.00000000000E+00 -0.00000000000E+00 -0.65387254338E+03  0.65387254338E+03  0.00000000000E+00 0.  1.
         23    2    1    2    0    0 -0.22989036411E+03 -0.34430327602E+03 -0.29085802646E+03  0.51376031732E+03  0.89201719169E+02 0.  0.
        254    2    1    2    0    0  0.22989036411E+03  0.34430327602E+03  0.68046822688E+03  0.11835949699E+04  0.87548027934E+03 0.  0.
        -24    2    4    4    0    0  0.37678124874E+03 -0.15867182837E+03  0.17702205207E+03  0.45267895696E+03  0.80253178328E+02 0.  0.
         24    2    4    4    0    0 -0.14689088464E+03  0.50297510439E+03  0.50344617481E+03  0.73091601290E+03  0.78862407797E+02 0.  0.
         11    1    3    3    0    0 -0.72647516662E+02 -0.50629524527E+02 -0.81272258263E+02  0.12019230589E+03  0.00000000000E+00 0. -1.
        -11    1    3    3    0    0 -0.15724284745E+03 -0.29367375149E+03 -0.20958576820E+03  0.39356801143E+03  0.00000000000E+00 0.  1.
          4    1    6    6  502    0 -0.11165656731E+03  0.42008465886E+03  0.45244177878E+03  0.62740885618E+03  0.00000000000E+00 0. -1.
          1    1    5    5  503    0  0.29084931396E+03 -0.87682610974E+02  0.11284221220E+03  0.32406006935E+03  0.00000000000E+00 0. -1.
         -2    1    5    5    0  503  0.85931934789E+02 -0.70989217397E+02  0.64179839875E+02  0.12861888761E+03  0.00000000000E+00 0.  1.
         -1    1    6    6    0  502 -0.35234317324E+02  0.82890445536E+02  0.51004396027E+02  0.10350715672E+03  0.00000000000E+00 0.  1.
<mgrwt>
<rscale>  0 0.16520348E+04</rscale>
<asrwt>0</asrwt>
<pdfrwt beam="1">  1        2 0.16053581E+00 0.16520348E+04</pdfrwt>
<pdfrwt beam="2">  1       -2 0.10059578E+00 0.16520348E+04</pdfrwt>
<totfact> 0.18385054E+01</totfact>
</mgrwt>
</event>
<event>
12    1  0.1599266E-007  0.1261113E+04  0.7818608E-02  0.9060984E-01
         -2   -1    0    0    0  501 -0.00000000000E+00  0.00000000000E+00  0.44313806221E+03  0.44313806221E+03  0.00000000000E+00 0.  1.
          2   -1    0    0  501    0  0.00000000000E+00 -0.00000000000E+00 -0.89724118680E+03  0.89724118680E+03  0.00000000000E+00 0. -1.
         23    2    1    2    0    0  0.21069467333E+03 -0.17298448356E+03 -0.23583825918E+03  0.37251264686E+03  0.93968668454E+02 0.  0.
        254    2    1    2    0    0 -0.21069467333E+03  0.17298448356E+03 -0.21826486541E+03  0.96786660215E+03  0.90266845030E+03 0.  0.
        -24    2    4    4    0    0 -0.26255834998E+03 -0.38113459924E+02  0.29528583430E+03  0.40447454764E+03  0.77565538649E+02 0.  0.
         24    2    4    4    0    0  0.51863676643E+02  0.21109794348E+03 -0.51355069970E+03  0.56339205450E+03  0.80150503527E+02 0.  0.
         11    1    3    3    0    0  0.40590344212E+02 -0.89938619947E+00 -0.63784622534E+02  0.75609939892E+02  0.00000000000E+00 0. -1.
        -11    1    3    3    0    0  0.17010432912E+03 -0.17208509736E+03 -0.17205363665E+03  0.29690270697E+03  0.00000000000E+00 0.  1.
          4    1    6    6  502    0  0.67285186274E+02  0.17888695343E+03 -0.38290655506E+03  0.42795475031E+03  0.00000000000E+00 0. -1.
          1    1    5    5  503    0 -0.18357564539E+03 -0.27171181567E+02  0.14948413020E+03  0.23829350782E+03  0.00000000000E+00 0. -1.
         -2    1    5    5    0  503 -0.78982704592E+02 -0.10942278357E+02  0.14580170410E+03  0.16618103983E+03  0.00000000000E+00 0.  1.
         -3    1    6    6    0  502 -0.15421509631E+02  0.32210990048E+02 -0.13064414464E+03  0.13543730420E+03  0.00000000000E+00 0.  1.
<mgrwt>
<rscale>  0 0.12611134E+04</rscale>
<asrwt>0</asrwt>
<pdfrwt beam="1">  1        2 0.13803710E+00 0.12611134E+04</pdfrwt>
<pdfrwt beam="2">  1       -2 0.68175088E-01 0.12611134E+04</pdfrwt>
<totfact> 0.57006690E+01</totfact>
</mgrwt>
</event>
<event>
12    1  0.1599266E-007  0.1435529E+04  0.7818608E-02  0.8928495E-01
         -2   -1    0    0    0  501 -0.00000000000E+00  0.00000000000E+00  0.15910741057E+03  0.15910741057E+03  0.00000000000E+00 0. -1.
          2   -1    0    0  501    0  0.00000000000E+00 -0.00000000000E+00 -0.32379764799E+04  0.32379764799E+04  0.00000000000E+00 0.  1.
         23    2    1    2    0    0 -0.40174997806E+03 -0.62679285746E+02 -0.60874682919E+03  0.73775188839E+03  0.91506333319E+02 0.  0.
        254    2    1    2    0    0  0.40174997806E+03  0.62679285746E+02 -0.24701222402E+04  0.26593320021E+04  0.89733554393E+03 0.  0.
        -24    2    4    4    0    0  0.47494746136E+03  0.27399494121E+03 -0.80509962736E+03  0.97740900096E+03  0.80589244362E+02 0.  0.
         24    2    4    4    0    0 -0.73197483305E+02 -0.21131565547E+03 -0.16650226128E+04  0.16819230012E+04  0.80947531624E+02 0.  0.
         11    1    3    3    0    0 -0.39614802088E+03 -0.75034601767E+02 -0.59024526681E+03  0.71480970957E+03  0.00000000000E+00 0. -1.
        -11    1    3    3    0    0 -0.56019571805E+01  0.12355316021E+02 -0.18501562383E+02  0.22942178817E+02  0.00000000000E+00 0.  1.
          2    1    6    6  502    0 -0.16511947476E+01  0.73035417245E+01 -0.39261338893E+02  0.39968999206E+02  0.00000000000E+00 0. -1.
          3    1    5    5  503    0  0.47432835111E+01  0.18098529569E+02 -0.23059197842E+02  0.29694816318E+02  0.00000000000E+00 0. -1.
         -4    1    5    5    0  503  0.47020417785E+03  0.25589641164E+03 -0.78204042952E+03  0.94771418464E+03  0.00000000000E+00 0.  1.
         -1    1    6    6    0  502 -0.71546288558E+02 -0.21861919719E+03 -0.16257612739E+04  0.16419540020E+04  0.00000000000E+00 0.  1.
<mgrwt>
<rscale>  0 0.14355292E+04</rscale>
<asrwt>0</asrwt>
<pdfrwt beam="1">  1        2 0.49815023E+00 0.14355292E+04</pdfrwt>
<pdfrwt beam="2">  1       -2 0.24478063E-01 0.14355292E+04</pdfrwt>
<totfact> 0.17928533E+01</totfact>
</mgrwt>
</event>
<event>
12    1  0.1599266E-007  0.3705189E+04  0.7818608E-02  0.8066813E-01
          1   -1    0    0  501    0  0.00000000000E+00  0.00000000000E+00  0.64729669450E+03  0.64729669450E+03  0.00000000000E+00 0. -1.
         -1   -1    0    0    0  501 -0.00000000000E+00 -0.00000000000E+00 -0.53022148445E+04  0.53022148445E+04  0.00000000000E+00 0.  1.
         23    2    1    2    0    0  0.34473846932E+03  0.10380461491E+04 -0.43620527418E+04  0.44984988331E+04  0.11226401827E+03 0.  0.
        254    2    1    2    0    0 -0.34473846932E+03 -0.10380461491E+04 -0.29286540820E+03  0.14510127058E+04  0.90734960481E+03 0.  0.
        -24    2    4    4    0    0 -0.46812729782E+03 -0.44845270394E+03  0.18438137594E+03  0.67862388349E+03  0.79252058785E+02 0.  0.
         24    2    4    4    0    0  0.12338882850E+03 -0.58959344514E+03 -0.47724678414E+03  0.77238882235E+03  0.77296612883E+02 0.  0.
         11    1    3    3    0    0  0.29454930108E+03  0.92876434179E+03 -0.37335873939E+04  0.38586315348E+04  0.00000000000E+00 0.  1.
        -11    1    3    3    0    0  0.50189168237E+02  0.10928180729E+03 -0.62846534784E+03  0.63986729831E+03  0.00000000000E+00 0. -1.
          2    1    6    6  502    0  0.23972248477E+02 -0.22534383246E+03 -0.14176159181E+03  0.26730293757E+03  0.00000000000E+00 0. -1.
          1    1    5    5  503    0 -0.20463298615E+03 -0.16283645673E+03  0.10612078217E+03  0.28222684329E+03  0.00000000000E+00 0. -1.
         -2    1    5    5    0  503 -0.26349431167E+03 -0.28561624720E+03  0.78260593772E+02  0.39639704021E+03  0.00000000000E+00 0.  1.
         -1    1    6    6    0  502  0.99416580022E+02 -0.36424961268E+03 -0.33548519233E+03  0.50508588477E+03  0.00000000000E+00 0.  1.
<mgrwt>
<rscale>  0 0.37051889E+04</rscale>
<asrwt>0</asrwt>
<pdfrwt beam="1">  1        1 0.99584112E-01 0.37051889E+04</pdfrwt>
<pdfrwt beam="2">  1       -1 0.81572532E+00 0.37051889E+04</pdfrwt>
<totfact> 0.13556044E-03</totfact>
</mgrwt>
</event>
<event>
12    1  0.1599266E-007  0.2850889E+04  0.7818608E-02  0.8287641E-01
         -2   -1    0    0    0  501 -0.00000000000E+00  0.00000000000E+00  0.17785915974E+04  0.17785915974E+04  0.00000000000E+00 0.  1.
          2   -1    0    0  501    0  0.00000000000E+00 -0.00000000000E+00 -0.11424159820E+04  0.11424159820E+04  0.00000000000E+00 0. -1.
         23    2    1    2    0    0  0.11533296952E+04 -0.40923506783E+03  0.67708080182E+03  0.14017693418E+04  0.94213315865E+02 0.  0.
        254    2    1    2    0    0 -0.11533296952E+04  0.40923506783E+03 -0.40905186429E+02  0.15192382376E+04  0.89931577409E+03 0.  0.
        -24    2    4    4    0    0 -0.81328644107E+03  0.40168214101E+03 -0.42093591923E+03  0.10032788763E+04  0.81228553076E+02 0.  0.
         24    2    4    4    0    0 -0.34004325416E+03  0.75529268251E+01  0.38003073280E+03  0.51595936129E+03  0.78129656492E+02 0.  0.
         13    1    3    3    0    0  0.83220124319E+03 -0.26276481988E+03  0.51557742701E+03  0.10136194271E+04  0.00000000000E+00 0. -1.
        -13    1    3    3    0    0  0.32112845205E+03 -0.14647024795E+03  0.16150337481E+03  0.38814991475E+03  0.00000000000E+00 0.  1.
          4    1    6    6  502    0 -0.30190234628E+03  0.32134432646E+02  0.33009920162E+03  0.44848983418E+03  0.00000000000E+00 0. -1.
          3    1    5    5  503    0 -0.44594519039E+03  0.26091790349E+03 -0.25768869055E+03  0.57736359985E+03  0.00000000000E+00 0. -1.
         -4    1    5    5    0  503 -0.36734125068E+03  0.14076423752E+03 -0.16324722868E+03  0.42591527642E+03  0.00000000000E+00 0.  1.
         -3    1    6    6    0  502 -0.38140907881E+02 -0.24581505820E+02  0.49931531181E+02  0.67469527110E+02  0.00000000000E+00 0.  1.
<mgrwt>
<rscale>  0 0.28508886E+04</rscale>
<asrwt>0</asrwt>
<pdfrwt beam="1">  1        2 0.17575630E+00 0.28508886E+04</pdfrwt>
<pdfrwt beam="2">  1       -2 0.27362948E+00 0.28508886E+04</pdfrwt>
<totfact> 0.81888005E-01</totfact>
</mgrwt>
</event>
<event>
12    1  0.1599266E-007  0.1282069E+04  0.7818608E-02  0.9043906E-01
         -1   -1    0    0    0  501 -0.00000000000E+00  0.00000000000E+00  0.26639434278E+03  0.26639434278E+03  0.00000000000E+00 0.  1.
          1   -1    0    0  501    0  0.00000000000E+00 -0.00000000000E+00 -0.15425455590E+04  0.15425455590E+04  0.00000000000E+00 0. -1.
         23    2    1    2    0    0 -0.77889601890E+02  0.24710966137E+03 -0.64000401055E+02  0.28217207420E+03  0.91624523460E+02 0.  0.
        254    2    1    2    0    0  0.77889601890E+02 -0.24710966137E+03 -0.12121508152E+04  0.15267678276E+04  0.89139240843E+03 0.  0.
        -24    2    4    4    0    0 -0.29324110490E+03  0.14376158906E+03 -0.24277435594E+03  0.41474975098E+03  0.80126324919E+02 0.  0.
         24    2    4    4    0    0  0.37113070679E+03 -0.39087125043E+03 -0.96937645923E+03  0.11120180766E+04  0.79844518011E+02 0.  0.
         11    1    3    3    0    0 -0.82127172266E+02  0.18844590682E+03 -0.15876413996E+02  0.20617660571E+03  0.00000000000E+00 0.  1.
        -11    1    3    3    0    0  0.42375703765E+01  0.58663754552E+02 -0.48123987058E+02  0.75995468492E+02  0.00000000000E+00 0. -1.
          4    1    6    6  502    0  0.31129756085E+03 -0.30208351296E+03 -0.71908089029E+03  0.83978446459E+03  0.00000000000E+00 0. -1.
          1    1    5    5  503    0 -0.13614287354E+03  0.52835792138E+02 -0.15557149429E+03  0.21337523938E+03  0.00000000000E+00 0. -1.
         -2    1    5    5    0  503 -0.15709823135E+03  0.90925796918E+02 -0.87202861658E+02  0.20137451160E+03  0.00000000000E+00 0.  1.
         -3    1    6    6    0  502  0.59833145935E+02 -0.88787737467E+02 -0.25029556894E+03  0.27223361201E+03  0.00000000000E+00 0.  1.
<mgrwt>
<rscale>  0 0.12820693E+04</rscale>
<asrwt>0</asrwt>
<pdfrwt beam="1">  1        1 0.23731471E+00 0.12820693E+04</pdfrwt>
<pdfrwt beam="2">  1       -1 0.40983744E-01 0.12820693E+04</pdfrwt>
<totfact> 0.35026958E+01</totfact>
</mgrwt>
</event>
<event>
12    1  0.1599266E-007  0.2705146E+04  0.7818608E-02  0.8333337E-01
          1   -1    0    0  501    0  0.00000000000E+00  0.00000000000E+00  0.20299214338E+04  0.20299214338E+04  0.00000000000E+00 0. -1.
         -1   -1    0    0    0  501 -0.00000000000E+00 -0.00000000000E+00 -0.90124350904E+03  0.90124350904E+03  0.00000000000E+00 0.  1.
         23    2    1    2    0    0 -0.94571662789E+03  0.40192686377E+03 -0.17080337308E+03  0.10456910417E+04  0.91492176155E+02 0.  0.
        254    2    1    2    0    0  0.94571662789E+03 -0.40192686377E+03  0.12994812978E+04  0.18854739011E+04  0.90024165889E+03 0.  0.
        -24    2    4    4    0    0  0.11535443605E+03  0.16274222188E+03  0.65598040943E+03  0.69015125168E+03  0.78783094300E+02 0.  0.
         24    2    4    4    0    0  0.83036219184E+03 -0.56466908565E+03  0.64350088840E+03  0.11953226495E+04  0.79688750861E+02 0.  0.
         13    1    3    3    0    0 -0.53104901785E+02  0.11735381030E+02  0.88312061202E+01  0.55098456994E+02  0.00000000000E+00 0. -1.
        -13    1    3    3    0    0 -0.89261172611E+03  0.39019148274E+03 -0.17963457920E+03  0.99059258468E+03  0.00000000000E+00 0.  1.
          2    1    6    6  502    0  0.28790450589E+03 -0.23950984653E+03  0.22367302202E+03  0.43621507525E+03  0.00000000000E+00 0. -1.
          3    1    5    5  503    0  0.11727564094E+03  0.12477317254E+03  0.46747026317E+03  0.49784572659E+03  0.00000000000E+00 0. -1.
         -4    1    5    5    0  503 -0.19212048907E+01  0.37969049340E+02  0.18851014626E+03  0.19230552509E+03  0.00000000000E+00 0.  1.
         -1    1    6    6    0  502  0.54245768595E+03 -0.32515923911E+03  0.41982786638E+03  0.75910757421E+03  0.00000000000E+00 0.  1.
<mgrwt>
<rscale>  0 0.27051458E+04</rscale>
<asrwt>0</asrwt>
<pdfrwt beam="1">  1        1 0.31229560E+00 0.27051458E+04</pdfrwt>
<pdfrwt beam="2">  1       -1 0.13865285E+00 0.27051458E+04</pdfrwt>
<totfact> 0.10668229E+00</totfact>
</mgrwt>
</event>
<event>
12    1  0.1599266E-007  0.1047285E+04  0.7818608E-02  0.9258152E-01
          3   -1    0    0  501    0  0.00000000000E+00  0.00000000000E+00  0.18886100778E+03  0.18886100778E+03  0.00000000000E+00 0. -1.
         -3   -1    0    0    0  501 -0.00000000000E+00 -0.00000000000E+00 -0.14518681609E+04  0.14518681609E+04  0.00000000000E+00 0.  1.
         23    2    1    2    0    0 -0.46616182294E+02 -0.36232557536E+02 -0.33228281538E+02  0.11416671088E+03  0.91891525739E+02 0.  0.
        254    2    1    2    0    0  0.46616182294E+02  0.36232557536E+02 -0.12297788716E+04  0.15265624578E+04  0.90252479072E+03 0.  0.
        -24    2    4    4    0    0  0.13958490262E+03  0.20032177872E+03 -0.12885934593E+04  0.13139192529E+04  0.79359561257E+02 0.  0.
         24    2    4    4    0    0 -0.92968720330E+02 -0.16408922119E+03  0.58814587690E+02  0.21264320483E+03  0.78673511200E+02 0.  0.
         11    1    3    3    0    0 -0.41310851002E+02  0.77907859895E+01 -0.51264265688E+02  0.66297116781E+02  0.00000000000E+00 0.  1.
        -11    1    3    3    0    0 -0.53053312917E+01 -0.44023343525E+02  0.18035984150E+02  0.47869594102E+02  0.00000000000E+00 0. -1.
          4    1    6    6  502    0 -0.51165814362E+02 -0.14377363004E+03  0.23798891607E+02  0.15445123662E+03  0.00000000000E+00 0. -1.
          1    1    5    5  503    0 -0.10476090117E+02  0.14114924569E+02 -0.85992998688E+02  0.87771153479E+02  0.00000000000E+00 0. -1.
         -2    1    5    5    0  503  0.15006099274E+03  0.18620685415E+03 -0.12026004606E+04  0.12261480995E+04  0.00000000000E+00 0.  1.
         -3    1    6    6    0  502 -0.41802905968E+02 -0.20315591150E+02  0.35015696082E+02  0.58191968202E+02  0.00000000000E+00 0.  1.
<mgrwt>
<rscale>  0 0.10472846E+04</rscale>
<asrwt>0</asrwt>
<pdfrwt beam="1">  1        3 0.29055540E-01 0.10472846E+04</pdfrwt>
<pdfrwt beam="2">  1       -3 0.22336433E+00 0.10472846E+04</pdfrwt>
<totfact> 0.31735723E+00</totfact>
</mgrwt>
</event>
<event>
12    1  0.1599266E-007  0.1396637E+04  0.7818608E-02  0.8956256E-01
          2   -1    0    0  501    0  0.00000000000E+00  0.00000000000E+00  0.15363485540E+04  0.15363485540E+04  0.00000000000E+00 0.  1.
         -2   -1    0    0    0  501 -0.00000000000E+00 -0.00000000000E+00 -0.31740759304E+03  0.31740759304E+03  0.00000000000E+00 0. -1.
         23    2    1    2    0    0  0.19221488252E+03  0.24371700377E+03  0.16485834963E+02  0.32416902789E+03  0.92028457009E+02 0.  0.
        254    2    1    2    0    0 -0.19221488252E+03 -0.24371700377E+03  0.12024551260E+04  0.15295871191E+04  0.89296914059E+03 0.  0.
        -24    2    4    4    0    0 -0.52210352753E+03 -0.24184103083E+03  0.58257172844E+03  0.82286605828E+03  0.81483455011E+02 0.  0.
         24    2    4    4    0    0  0.32988864501E+03 -0.18759729317E+01  0.61988339751E+03  0.70672106083E+03  0.79807229830E+02 0.  0.
         13    1    3    3    0    0  0.19535325643E+03  0.21211404724E+03  0.29450004112E+02  0.28986646336E+03  0.00000000000E+00 0. -1.
        -13    1    3    3    0    0 -0.31383739086E+01  0.31602956522E+02 -0.12964169149E+02  0.34302564531E+02  0.00000000000E+00 0.  1.
          2    1    6    6  502    0  0.23039172802E+02 -0.11381522683E+02  0.97288728608E+02  0.10062524165E+03  0.00000000000E+00 0. -1.
          3    1    5    5  503    0 -0.35810682548E+02 -0.12550750498E+02  0.14250999213E+02  0.40534149815E+02  0.00000000000E+00 0. -1.
         -4    1    5    5    0  503 -0.48629284498E+03 -0.22929028034E+03  0.56832072923E+03  0.78233190847E+03  0.00000000000E+00 0.  1.
         -1    1    6    6    0  502  0.30684947221E+03  0.95055497509E+01  0.52259466890E+03  0.60609581919E+03  0.00000000000E+00 0.  1.
<mgrwt>
<rscale>  0 0.13966370E+04</rscale>
<asrwt>0</asrwt>
<pdfrwt beam="1">  1        2 0.23636131E+00 0.13966370E+04</pdfrwt>
<pdfrwt beam="2">  1       -2 0.48831938E-01 0.13966370E+04</pdfrwt>
<totfact> 0.46800318E+01</totfact>
</mgrwt>
</event>
<event>
12    1  0.1599266E-007  0.2003510E+04  0.7818608E-02  0.8604981E-01
          1   -1    0    0  501    0  0.00000000000E+00  0.00000000000E+00  0.16555785439E+04  0.16555785439E+04  0.00000000000E+00 0. -1.
         -1   -1    0    0    0  501 -0.00000000000E+00 -0.00000000000E+00 -0.60614051621E+03  0.60614051621E+03  0.00000000000E+00 0.  1.
         23    2    1    2    0    0 -0.73612692295E+03 -0.11051233281E+03  0.83539944699E+02  0.75456064812E+03  0.91033108974E+02 0.  0.
        254    2    1    2    0    0  0.73612692295E+03  0.11051233281E+03  0.96589808294E+03  0.15071584119E+04  0.88570398536E+03 0.  0.
        -24    2    4    4    0    0 -0.81804434038E+01  0.22347132905E+03 -0.48362841136E+02  0.24149667856E+03  0.77300237971E+02 0.  0.
         24    2    4    4    0    0  0.74430736636E+03 -0.11295899624E+03  0.10142609241E+04  0.12656617334E+04  0.80132457917E+02 0.  0.
         13    1    3    3    0    0 -0.53446296116E+03 -0.60648979456E+02  0.96243350135E+02  0.54643548385E+03  0.00000000000E+00 0.  1.
        -13    1    3    3    0    0 -0.20166396179E+03 -0.49863353354E+02 -0.12703405436E+02  0.20812516427E+03  0.00000000000E+00 0. -1.
          2    1    6    6  502    0  0.38781288861E+03 -0.57263794612E+02  0.59478431234E+03  0.71235269140E+03  0.00000000000E+00 0. -1.
          1    1    5    5  503    0  0.11743089969E+02  0.11530109929E+03 -0.60676088779E+02  0.13081984333E+03  0.00000000000E+00 0. -1.
         -4    1    5    5    0  503 -0.19923533373E+02  0.10817022977E+03  0.12313247643E+02  0.11067683523E+03  0.00000000000E+00 0.  1.
         -1    1    6    6    0  502  0.35649447774E+03 -0.55695201629E+02  0.41947661174E+03  0.55330904198E+03  0.00000000000E+00 0.  1.
<mgrwt>
<rscale>  0 0.20035102E+04</rscale>
<asrwt>0</asrwt>
<pdfrwt beam="1">  1        1 0.25470439E+00 0.20035102E+04</pdfrwt>
<pdfrwt beam="2">  1       -1 0.93252388E-01 0.20035102E+04</pdfrwt>
<totfact> 0.52906711E+00</totfact>
</mgrwt>
</event>
<event>
12    1  0.1599266E-007  0.4068780E+04  0.7818608E-02  0.7990813E-01
         -1   -1    0    0    0  501 -0.00000000000E+00  0.00000000000E+00  0.13013575679E+04  0.13013575679E+04  0.00000000000E+00 0.  1.
          1   -1    0    0  501    0  0.00000000000E+00 -0.00000000000E+00 -0.31803268267E+04  0.31803268267E+04  0.00000000000E+00 0. -1.
         23    2    1    2    0    0 -0.99459003423E+03 -0.69785039113E+03  0.76445114961E+03  0.14383522623E+04  0.90923955006E+02 0.  0.
        254    2    1    2    0    0  0.99459003423E+03  0.69785039113E+03 -0.26434204085E+04  0.30433321324E+04  0.89330538307E+03 0.  0.
        -24    2    4    4    0    0  0.97097462454E+03  0.82651415373E+03 -0.25764086849E+04  0.28757643012E+04  0.78874815214E+02 0.  0.
         24    2    4    4    0    0  0.23615409694E+02 -0.12866376260E+03 -0.67011723569E+02  0.16756783119E+03  0.80475807383E+02 0.  0.
         11    1    3    3    0    0 -0.70971944779E+03 -0.53000990464E+03  0.59246640035E+03  0.10656587771E+04  0.00000000000E+00 0.  1.
        -11    1    3    3    0    0 -0.28487058644E+03 -0.16784048649E+03  0.17198474926E+03  0.37269348519E+03  0.00000000000E+00 0. -1.
          4    1    6    6  502    0 -0.14464839385E+02 -0.71737904427E+02 -0.66791528414E+02  0.99079093546E+02  0.00000000000E+00 0. -1.
          1    1    5    5  503    0  0.68407767309E+03  0.58130485088E+03 -0.17307804892E+04  0.19497381091E+04  0.00000000000E+00 0. -1.
         -2    1    5    5    0  503  0.28689695145E+03  0.24520930285E+03 -0.84562819570E+03  0.92602619202E+03  0.00000000000E+00 0.  1.
         -3    1    6    6    0  502  0.38080249079E+02 -0.56925858174E+02 -0.22019515473E+00  0.68488737648E+02  0.00000000000E+00 0.  1.
<mgrwt>
<rscale>  0 0.40687799E+04</rscale>
<asrwt>0</asrwt>
<pdfrwt beam="1">  1        1 0.48928104E+00 0.40687799E+04</pdfrwt>
<pdfrwt beam="2">  1       -1 0.20020886E+00 0.40687799E+04</pdfrwt>
<totfact> 0.51298229E-02</totfact>
</mgrwt>
</event>
<event>
12    1  0.1599266E-007  0.4565915E+04  0.7818608E-02  0.7899198E-01
         -2   -1    0    0    0  501 -0.00000000000E+00  0.00000000000E+00  0.30473315522E+04  0.30473315522E+04  0.00000000000E+00 0. -1.
          2   -1    0    0  501    0  0.00000000000E+00 -0.00000000000E+00 -0.17103142492E+04  0.17103142492E+04  0.00000000000E+00 0.  1.
         23    2    1    2    0    0 -0.11942112836E+04  0.10581564709E+04 -0.92488282787E+03  0.18465627279E+04  0.92465971711E+02 0.  0.
        254    2    1    2    0    0  0.11942112836E+04 -0.10581564709E+04  0.22619001310E+04  0.29110830735E+04  0.90131945048E+03 0.  0.
        -24    2    4    4    0    0  0.91154953650E+03 -0.80378490657E+03  0.95574367295E+03  0.15483435115E+04  0.83240181429E+02 0.  0.
         24    2    4    4    0    0  0.28266174712E+03 -0.25437156428E+03  0.13061564580E+04  0.13627395620E+04  0.80074122012E+02 0.  0.
         13    1    3    3    0    0 -0.10259442282E+04  0.87307569547E+03 -0.80285788158E+03  0.15682485477E+04  0.00000000000E+00 0.  1.
        -13    1    3    3    0    0 -0.16826705542E+03  0.18508077539E+03 -0.12202494629E+03  0.27831418016E+03  0.00000000000E+00 0. -1.
          4    1    6    6  502    0  0.58548378197E+02 -0.15178250139E+02  0.22498099697E+03  0.23296939899E+03  0.00000000000E+00 0. -1.
          3    1    5    5  503    0  0.19974063121E+03 -0.21509519289E+03  0.25667963467E+03  0.38993165634E+03  0.00000000000E+00 0. -1.
         -4    1    5    5    0  503  0.71180890529E+03 -0.58868971369E+03  0.69906403828E+03  0.11584118552E+04  0.00000000000E+00 0.  1.
         -3    1    6    6    0  502  0.22411336892E+03 -0.23919331414E+03  0.10811754610E+04  0.11297701630E+04  0.00000000000E+00 0.  1.
<mgrwt>
<rscale>  0 0.45659148E+04</rscale>
<asrwt>0</asrwt>
<pdfrwt beam="1">  1        2 0.26312527E+00 0.45659148E+04</pdfrwt>
<pdfrwt beam="2">  1       -2 0.46882024E+00 0.45659148E+04</pdfrwt>
<totfact> 0.19084066E-02</totfact>
</mgrwt>
</event>
<event>
12    1  0.1599266E-007  0.1679693E+04  0.7818608E-02  0.8773031E-01
          2   -1    0    0  501    0  0.00000000000E+00  0.00000000000E+00  0.23033451352E+04  0.23033451352E+04  0.00000000000E+00 0. -1.
         -2   -1    0    0    0  501 -0.00000000000E+00 -0.00000000000E+00 -0.30622525808E+03  0.30622525808E+03  0.00000000000E+00 0.  1.
         23    2    1    2    0    0 -0.40886580666E+02 -0.48732123152E+03  0.18599556091E+03  0.53112438884E+03  0.91351368800E+02 0.  0.
        254    2    1    2    0    0  0.40886580666E+02  0.48732123152E+03  0.18111243162E+04  0.20784460044E+04  0.89476969630E+03 0.  0.
        -24    2    4    4    0    0 -0.26420724802E+03 -0.14016245941E+03  0.45801735956E+03  0.55396102922E+03  0.87418163428E+02 0.  0.
         24    2    4    4    0    0  0.30509382869E+03  0.62748369093E+03  0.13531069567E+04  0.15244849752E+04  0.79611411483E+02 0.  0.
         11    1    3    3    0    0 -0.13533916053E+02 -0.45279054527E+03  0.17579157285E+03  0.48590649497E+03  0.00000000000E+00 0.  1.
        -11    1    3    3    0    0 -0.27352664613E+02 -0.34530686250E+02  0.10203988058E+02  0.45217893876E+02  0.00000000000E+00 0. -1.
          4    1    6    6  502    0  0.42169551983E+02  0.43584533528E+02  0.93479425941E+02  0.11142838845E+03  0.00000000000E+00 0. -1.
          3    1    5    5  503    0 -0.59030754356E+02 -0.53223211567E+02  0.67216952818E+02  0.10409351063E+03  0.00000000000E+00 0. -1.
         -4    1    5    5    0  503 -0.20517649367E+03 -0.86939247845E+02  0.39080040674E+03  0.44986751859E+03  0.00000000000E+00 0.  1.
         -3    1    6    6    0  502  0.26292427670E+03  0.58389915740E+03  0.12596275307E+04  0.14130565868E+04  0.00000000000E+00 0.  1.
<mgrwt>
<rscale>  0 0.16796934E+04</rscale>
<asrwt>0</asrwt>
<pdfrwt beam="1">  1        2 0.35436078E+00 0.16796934E+04</pdfrwt>
<pdfrwt beam="2">  1       -2 0.47111580E-01 0.16796934E+04</pdfrwt>
<totfact> 0.18388026E+01</totfact>
</mgrwt>
</event>
<event>
12    1  0.1599266E-007  0.1389166E+04  0.7818608E-02  0.8961699E-01
          2   -1    0    0  501    0  0.00000000000E+00  0.00000000000E+00  0.74067383114E+03  0.74067383114E+03  0.00000000000E+00 0.  1.
         -2   -1    0    0    0  501 -0.00000000000E+00 -0.00000000000E+00 -0.65135989369E+03  0.65135989369E+03  0.00000000000E+00 0. -1.
         23    2    1    2    0    0  0.29663362516E+03 -0.16974814565E+03  0.22799604615E+03  0.42081505015E+03  0.91088796498E+02 0.  0.
        254    2    1    2    0    0 -0.29663362516E+03  0.16974814565E+03 -0.13868210869E+03  0.97121867468E+03  0.89845814941E+03 0.  0.
        -24    2    4    4    0    0 -0.40411063818E+03 -0.16744833846E+03  0.18839791369E+03  0.48265579352E+03  0.78220759348E+02 0.  0.
         24    2    4    4    0    0  0.10747701301E+03  0.33719648412E+03 -0.32708002238E+03  0.48856288116E+03  0.80371453735E+02 0.  0.
         13    1    3    3    0    0  0.19524706222E+03 -0.83765603979E+02  0.94858543682E+02  0.23267194722E+03  0.00000000000E+00 0.  1.
        -13    1    3    3    0    0  0.10138656295E+03 -0.85982541675E+02  0.13313750246E+03  0.18814310293E+03  0.00000000000E+00 0. -1.
          2    1    6    6  502    0  0.96050914479E+02  0.32548470561E+03 -0.28412854306E+03  0.44260038493E+03  0.00000000000E+00 0. -1.
          1    1    5    5  503    0 -0.27841190233E+03 -0.90608016947E+02  0.15623130752E+03  0.33186024400E+03  0.00000000000E+00 0. -1.
         -2    1    5    5    0  503 -0.12569873584E+03 -0.76840321516E+02  0.32166606171E+02  0.15079554952E+03  0.00000000000E+00 0.  1.
         -1    1    6    6    0  502  0.11426098534E+02  0.11711778510E+02 -0.42951479325E+02  0.45962496231E+02  0.00000000000E+00 0.  1.
<mgrwt>
<rscale>  0 0.13891655E+04</rscale>
<asrwt>0</asrwt>
<pdfrwt beam="1">  1        2 0.11394982E+00 0.13891655E+04</pdfrwt>
<pdfrwt beam="2">  1       -2 0.10020921E+00 0.13891655E+04</pdfrwt>
<totfact> 0.30520684E+01</totfact>
</mgrwt>
</event>
<event>
12    1  0.1599266E-007  0.1136874E+04  0.7818608E-02  0.9169979E-01
          2   -1    0    0  501    0  0.00000000000E+00  0.00000000000E+00  0.19828327105E+04  0.19828327105E+04  0.00000000000E+00 0. -1.
         -2   -1    0    0    0  501 -0.00000000000E+00 -0.00000000000E+00 -0.16295915811E+03  0.16295915811E+03  0.00000000000E+00 0.  1.
         23    2    1    2    0    0  0.69255789520E+02  0.11695744372E+03  0.61754162836E+03  0.63931216354E+03  0.94270736005E+02 0.  0.
        254    2    1    2    0    0 -0.69255789520E+02 -0.11695744372E+03  0.12023319240E+04  0.15064797050E+04  0.89744283285E+03 0.  0.
        -24    2    4    4    0    0 -0.41452655167E+03 -0.12945233600E+03  0.10104831059E+04  0.11033857636E+04  0.88282879544E+02 0.  0.
         24    2    4    4    0    0  0.34527076215E+03  0.12494892277E+02  0.19184881812E+03  0.40309394140E+03  0.79440135021E+02 0.  0.
         13    1    3    3    0    0  0.16239136413E+02  0.69691236139E+02  0.14757988551E+03  0.16401341577E+03  0.00000000000E+00 0.  1.
        -13    1    3    3    0    0  0.53016653108E+02  0.47266207580E+02  0.46996174285E+03  0.47529874776E+03  0.00000000000E+00 0. -1.
          2    1    6    6  502    0  0.20713232602E+03 -0.28194280378E+02  0.95466782413E+02  0.22980997471E+03  0.00000000000E+00 0. -1.
          3    1    5    5  503    0 -0.38221614861E+03 -0.94305357541E+02  0.86764741779E+03  0.95278262280E+03  0.00000000000E+00 0. -1.
         -4    1    5    5    0  503 -0.32310403059E+02 -0.35146978454E+02  0.14283568809E+03  0.15060314084E+03  0.00000000000E+00 0.  1.
         -1    1    6    6    0  502  0.13813843612E+03  0.40689172655E+02  0.96382035706E+02  0.17328396669E+03  0.00000000000E+00 0.  1.
<mgrwt>
<rscale>  0 0.11368742E+04</rscale>
<asrwt>0</asrwt>
<pdfrwt beam="1">  1        2 0.30505117E+00 0.11368742E+04</pdfrwt>
<pdfrwt beam="2">  1       -2 0.25070641E-01 0.11368742E+04</pdfrwt>
<totfact> 0.96733443E+01</totfact>
</mgrwt>
</event>
<event>
12    1  0.1599266E-007  0.1515769E+04  0.7818608E-02  0.8874034E-01
         -3   -1    0    0    0  501 -0.00000000000E+00  0.00000000000E+00  0.16511476219E+04  0.16511476219E+04  0.00000000000E+00 0.  1.
          3   -1    0    0  501    0  0.00000000000E+00 -0.00000000000E+00 -0.34787259148E+03  0.34787259148E+03  0.00000000000E+00 0. -1.
         23    2    1    2    0    0  0.11097717364E+03  0.37937235742E+03  0.79547739320E+03  0.89327213084E+03  0.94400730935E+02 0.  0.
        254    2    1    2    0    0 -0.11097717364E+03 -0.37937235742E+03  0.50779763717E+03  0.11057480825E+04  0.89921135613E+03 0.  0.
        -24    2    4    4    0    0 -0.70483365089E+02 -0.51689102502E+03 -0.44626586181E+02  0.52950521288E+03  0.78993681875E+02 0.  0.
         24    2    4    4    0    0 -0.40493808548E+02  0.13751866760E+03  0.55242422335E+03  0.57624286962E+03  0.79575057450E+02 0.  0.
         11    1    3    3    0    0  0.30265847670E+02  0.24560480119E+02  0.11782527549E+03  0.12410493247E+03  0.00000000000E+00 0. -1.
        -11    1    3    3    0    0  0.80711325968E+02  0.35481187730E+03  0.67765211771E+03  0.76916719837E+03  0.00000000000E+00 0.  1.
          2    1    6    6  502    0 -0.14359177950E+02  0.13212186599E+03  0.39999801590E+03  0.42149826356E+03  0.00000000000E+00 0. -1.
          1    1    5    5  503    0 -0.60358834114E+02 -0.51276961860E+03 -0.46557502834E+02  0.51840473733E+03  0.00000000000E+00 0. -1.
         -2    1    5    5    0  503 -0.10124530976E+02 -0.41214064152E+01  0.19309166532E+01  0.11100475550E+02  0.00000000000E+00 0.  1.
         -1    1    6    6    0  502 -0.26134630598E+02  0.53968016147E+01  0.15242620746E+03  0.15474460606E+03  0.00000000000E+00 0.  1.
<mgrwt>
<rscale>  0 0.15157691E+04</rscale>
<asrwt>0</asrwt>
<pdfrwt beam="1">  1        3 0.53518861E-01 0.15157691E+04</pdfrwt>
<pdfrwt beam="2">  1       -3 0.25402271E+00 0.15157691E+04</pdfrwt>
<totfact> 0.60535452E-01</totfact>
</mgrwt>
</event>
<event>
12    1  0.1599266E-007  0.1766216E+04  0.7818608E-02  0.8724475E-01
         -1   -1    0    0    0  501 -0.00000000000E+00  0.00000000000E+00  0.44933064493E+03  0.44933064493E+03  0.00000000000E+00 0.  1.
          1   -1    0    0  501    0  0.00000000000E+00 -0.00000000000E+00 -0.17356477977E+04  0.17356477977E+04  0.00000000000E+00 0. -1.
         23    2    1    2    0    0  0.16119290046E+03  0.56941204020E+03 -0.10009261647E+02  0.59893634444E+03  0.91713339765E+02 0.  0.
        254    2    1    2    0    0 -0.16119290046E+03 -0.56941204020E+03 -0.12763078911E+04  0.15860420981E+04  0.73236226117E+03 0.  0.
        -24    2    4    4    0    0 -0.20911911032E+03 -0.72362922445E+03 -0.10821373850E+04  0.13208695982E+04  0.79404776664E+02 0.  0.
         24    2    4    4    0    0  0.47926209855E+02  0.15421718425E+03 -0.19417050607E+03  0.26517249998E+03  0.80835683997E+02 0.  0.
         11    1    3    3    0    0  0.31193681625E+02  0.23353202837E+03 -0.33671015786E+02  0.23799998184E+03  0.00000000000E+00 0.  1.
        -11    1    3    3    0    0  0.12999921884E+03  0.33588001182E+03  0.23661754139E+02  0.36093636260E+03  0.00000000000E+00 0. -1.
          4    1    6    6  502    0  0.59299670173E+02  0.14554561218E+03 -0.14453997927E+03  0.21352232135E+03  0.00000000000E+00 0. -1.
          1    1    5    5  503    0 -0.71266576684E+02 -0.37789412093E+03 -0.57731309929E+03  0.69366656702E+03  0.00000000000E+00 0. -1.
         -2    1    5    5    0  503 -0.13785253363E+03 -0.34573510351E+03 -0.50482428572E+03  0.62720303115E+03  0.00000000000E+00 0.  1.
         -3    1    6    6    0  502 -0.11373460318E+02  0.86715720752E+01 -0.49630526806E+02  0.51650178634E+02  0.00000000000E+00 0.  1.
<mgrwt>
<rscale>  0 0.17662160E+04</rscale>
<asrwt>0</asrwt>
<pdfrwt beam="1">  1        1 0.26702274E+00 0.17662160E+04</pdfrwt>
<pdfrwt beam="2">  1       -1 0.69127791E-01 0.17662160E+04</pdfrwt>
<totfact> 0.90279100E+00</totfact>
</mgrwt>
</event>
<event>
12    1  0.1599266E-007  0.1099371E+04  0.7818608E-02  0.9205805E-01
          2   -1    0    0  501    0  0.00000000000E+00  0.00000000000E+00  0.77583991781E+03  0.77583991781E+03  0.00000000000E+00 0.  1.
         -2   -1    0    0    0  501 -0.00000000000E+00 -0.00000000000E+00 -0.38945421700E+03  0.38945421700E+03  0.00000000000E+00 0. -1.
         23    2    1    2    0    0 -0.80925849769E+02 -0.69242611997E+02  0.24778799827E+03  0.28170191546E+03  0.81323702660E+02 0.  0.
        254    2    1    2    0    0  0.80925849769E+02  0.69242611997E+02  0.13859770254E+03  0.88359221935E+03  0.86613067978E+03 0.  0.
        -24    2    4    4    0    0  0.32501109148E+03  0.31954033307E+03 -0.70161791920E+02  0.46916466152E+03  0.86339843273E+02 0.  0.
         24    2    4    4    0    0 -0.24408524171E+03 -0.25029772107E+03  0.20875949446E+03  0.41442755782E+03  0.77091632255E+02 0.  0.
         11    1    3    3    0    0 -0.68805663987E+02 -0.11296337573E+02  0.94973307648E+02  0.11782086320E+03  0.00000000000E+00 0. -1.
        -11    1    3    3    0    0 -0.12120185782E+02 -0.57946274424E+02  0.15281469062E+03  0.16388105226E+03  0.00000000000E+00 0.  1.
          4    1    6    6  502    0 -0.87776046849E+02 -0.12184022201E+03  0.12527229335E+03  0.19555771931E+03  0.00000000000E+00 0. -1.
          1    1    5    5  503    0  0.38455950687E+02  0.30974092950E+02  0.18864511115E+02  0.52859477456E+02  0.00000000000E+00 0. -1.
         -2    1    5    5    0  503  0.28655514079E+03  0.28856624012E+03 -0.89026303035E+02  0.41630518407E+03  0.00000000000E+00 0.  1.
         -3    1    6    6    0  502 -0.15630919486E+03 -0.12845749906E+03  0.83487201107E+02  0.21886983852E+03  0.00000000000E+00 0.  1.
<mgrwt>
<rscale>  0 0.10993710E+04</rscale>
<asrwt>0</asrwt>
<pdfrwt beam="1">  1        2 0.11935999E+00 0.10993710E+04</pdfrwt>
<pdfrwt beam="2">  1       -2 0.59916033E-01 0.10993710E+04</pdfrwt>
<totfact> 0.92561861E+01</totfact>
</mgrwt>
</event>
<event>
12    1  0.1599266E-007  0.2965744E+04  0.7818608E-02  0.8253581E-01
          1   -1    0    0  501    0  0.00000000000E+00  0.00000000000E+00  0.10403139891E+04  0.10403139891E+04  0.00000000000E+00 0. -1.
         -1   -1    0    0    0  501 -0.00000000000E+00 -0.00000000000E+00 -0.21136979998E+04  0.21136979998E+04  0.00000000000E+00 0.  1.
         23    2    1    2    0    0  0.97476830411E+03 -0.72967389653E+03 -0.10903884060E+04  0.16370241113E+04  0.91125315194E+02 0.  0.
        254    2    1    2    0    0 -0.97476830411E+03  0.72967389653E+03  0.17004395245E+02  0.15169878776E+04  0.90463574398E+03 0.  0.
        -24    2    4    4    0    0 -0.64957369159E+03  0.47889429236E+03 -0.41901927771E+03  0.91279042641E+03  0.79520333164E+02 0.  0.
         24    2    4    4    0    0 -0.32519461252E+03  0.25077960416E+03  0.43602367296E+03  0.60419745117E+03  0.79347153329E+02 0.  0.
         11    1    3    3    0    0  0.47987675869E+02 -0.24164878514E+02 -0.28271609725E+02  0.60712785353E+02  0.00000000000E+00 0. -1.
        -11    1    3    3    0    0  0.92678062825E+03 -0.70550901801E+03 -0.10621167962E+04  0.15763113259E+04  0.00000000000E+00 0.  1.
          2    1    6    6  502    0 -0.29901695112E+03  0.20140244222E+03  0.35665098720E+03  0.50712326653E+03  0.00000000000E+00 0. -1.
          1    1    5    5  503    0 -0.33440996684E+03  0.21804293748E+03 -0.24351233043E+03  0.46762271500E+03  0.00000000000E+00 0. -1.
         -2    1    5    5    0  503 -0.31516372475E+03  0.26085135488E+03 -0.17550694728E+03  0.44516771142E+03  0.00000000000E+00 0.  1.
         -1    1    6    6    0  502 -0.26177661401E+02  0.49377161946E+02  0.79372685754E+02  0.97074184632E+02  0.00000000000E+00 0.  1.
<mgrwt>
<rscale>  0 0.29657442E+04</rscale>
<asrwt>0</asrwt>
<pdfrwt beam="1">  1        1 0.16004831E+00 0.29657442E+04</pdfrwt>
<pdfrwt beam="2">  1       -1 0.32518431E+00 0.29657442E+04</pdfrwt>
<totfact> 0.27198867E-01</totfact>
</mgrwt>
</event>
<event>
12    1  0.1599266E-007  0.1441707E+04  0.7818608E-02  0.8924170E-01
         -2   -1    0    0    0  501 -0.00000000000E+00  0.00000000000E+00  0.73114161296E+03  0.73114161296E+03  0.00000000000E+00 0.  1.
          2   -1    0    0  501    0  0.00000000000E+00 -0.00000000000E+00 -0.71071063645E+03  0.71071063645E+03  0.00000000000E+00 0. -1.
         23    2    1    2    0    0 -0.24446789380E+03 -0.10638130339E+02 -0.34470055396E+03  0.43477875915E+03  0.10166797231E+03 0.  0.
        254    2    1    2    0    0  0.24446789380E+03  0.10638130339E+02  0.36513153047E+03  0.10070734903E+04  0.90608954267E+03 0.  0.
        -24    2    4    4    0    0  0.49662337916E+03  0.11114363422E+03  0.47768040067E+03  0.70249988011E+03  0.79623038225E+02 0.  0.
         24    2    4    4    0    0 -0.25215548536E+03 -0.10050550388E+03 -0.11254887020E+03  0.30457361016E+03  0.80088018550E+02 0.  0.
         13    1    3    3    0    0 -0.72309664992E+02  0.42369822021E+02 -0.92046161637E+02  0.12448447832E+03  0.00000000000E+00 0.  1.
        -13    1    3    3    0    0 -0.17215822881E+03 -0.53007952360E+02 -0.25265439232E+03  0.31029428083E+03  0.00000000000E+00 0. -1.
          2    1    6    6  502    0 -0.67262690025E+02 -0.60796943184E+02 -0.58465976059E+02  0.10788330791E+03  0.00000000000E+00 0. -1.
          3    1    5    5  503    0  0.12191858460E+03  0.72216952033E+01  0.78235657890E+02  0.14504176060E+03  0.00000000000E+00 0. -1.
         -4    1    5    5    0  503  0.37470479456E+03  0.10392193902E+03  0.39944474278E+03  0.55745811951E+03  0.00000000000E+00 0.  1.
         -1    1    6    6    0  502 -0.18489279533E+03 -0.39708560699E+02 -0.54082894144E+02  0.19669030225E+03  0.00000000000E+00 0.  1.
<mgrwt>
<rscale>  0 0.14417075E+04</rscale>
<asrwt>0</asrwt>
<pdfrwt beam="1">  1        2 0.10934010E+00 0.14417075E+04</pdfrwt>
<pdfrwt beam="2">  1       -2 0.11248333E+00 0.14417075E+04</pdfrwt>
<totfact> 0.24270790E+01</totfact>
</mgrwt>
</event>
<event>
12    1  0.1599266E-007  0.1195461E+04  0.7818608E-02  0.9116839E-01
          1   -1    0    0  501    0  0.00000000000E+00  0.00000000000E+00  0.27058491624E+04  0.27058491624E+04  0.00000000000E+00 0. -1.
         -1   -1    0    0    0  501 -0.00000000000E+00 -0.00000000000E+00 -0.13204042819E+03  0.13204042819E+03  0.00000000000E+00 0.  1.
         23    2    1    2    0    0 -0.24396513261E+03 -0.35709678786E+01  0.71674931592E+03  0.76296110178E+03  0.94065526157E+02 0.  0.
        254    2    1    2    0    0  0.24396513261E+03  0.35709678786E+01  0.18570594183E+04  0.20749284888E+04  0.89281958586E+03 0.  0.
        -24    2    4    4    0    0 -0.20617889112E+03 -0.29389273892E+03  0.91851242477E+03  0.98933767537E+03  0.79001799429E+02 0.  0.
         24    2    4    4    0    0  0.45014402374E+03  0.29746370680E+03  0.93854699352E+03  0.10855908134E+04  0.80762963202E+02 0.  0.
         11    1    3    3    0    0 -0.23621466173E+03 -0.22395895822E+02  0.61477218311E+03  0.65897175941E+03  0.00000000000E+00 0.  1.
        -11    1    3    3    0    0 -0.77504708798E+01  0.18824927943E+02  0.10197713281E+03  0.10398934237E+03  0.00000000000E+00 0. -1.
          2    1    6    6  502    0  0.19653731370E+03  0.16374917767E+03  0.38564215636E+03  0.46277487143E+03  0.00000000000E+00 0. -1.
          1    1    5    5  503    0 -0.24444958510E+02 -0.95281181925E+02  0.24178362607E+03  0.26102754924E+03  0.00000000000E+00 0. -1.
         -2    1    5    5    0  503 -0.18173393262E+03 -0.19861155699E+03  0.67672879870E+03  0.72831012613E+03  0.00000000000E+00 0.  1.
         -1    1    6    6    0  502  0.25360671004E+03  0.13371452913E+03  0.55290483716E+03  0.62281594202E+03  0.00000000000E+00 0.  1.
<mgrwt>
<rscale>  0 0.11954606E+04</rscale>
<asrwt>0</asrwt>
<pdfrwt beam="1">  1        1 0.41628445E+00 0.11954606E+04</pdfrwt>
<pdfrwt beam="2">  1       -1 0.20313914E-01 0.11954606E+04</pdfrwt>
<totfact> 0.19351222E+01</totfact>
</mgrwt>
</event>
<event>
12    1  0.1599266E-007  0.1118049E+04  0.7818608E-02  0.9187776E-01
         -4   -1    0    0    0  501 -0.00000000000E+00  0.00000000000E+00  0.28716488202E+03  0.28716488202E+03  0.00000000000E+00 0.  1.
          4   -1    0    0  501    0  0.00000000000E+00 -0.00000000000E+00 -0.10882542149E+04  0.10882542149E+04  0.00000000000E+00 0. -1.
         23    2    1    2    0    0 -0.53669239250E+02  0.16560439383E+03 -0.18286885318E+03  0.26876161951E+03  0.92122679965E+02 0.  0.
        254    2    1    2    0    0  0.53669239250E+02 -0.16560439383E+03 -0.61822047971E+03  0.11066574774E+04  0.90121529519E+03 0.  0.
        -24    2    4    4    0    0 -0.60969948165E+02  0.33035011224E+03 -0.70357845938E+02  0.35443844884E+03  0.88475173297E+02 0.  0.
         24    2    4    4    0    0  0.11463918741E+03 -0.49595450607E+03 -0.54786263377E+03  0.75221902857E+03  0.81036942715E+02 0.  0.
         11    1    3    3    0    0 -0.74208299519E+02  0.83173660163E+02 -0.11355464655E+03  0.15912066872E+03  0.00000000000E+00 0. -1.
        -11    1    3    3    0    0  0.20539060270E+02  0.82430733664E+02 -0.69314206632E+02  0.10964095079E+03  0.00000000000E+00 0.  1.
          4    1    6    6  502    0  0.10738721684E+03 -0.47219861751E+03 -0.54176190500E+03  0.72664262910E+03  0.00000000000E+00 0. -1.
          3    1    5    5  503    0 -0.68075810988E+02  0.28211867177E+03 -0.31162517402E+02  0.29188416109E+03  0.00000000000E+00 0. -1.
         -4    1    5    5    0  503  0.71058628225E+01  0.48231440469E+02 -0.39195328536E+02  0.62554287745E+02  0.00000000000E+00 0.  1.
         -3    1    6    6    0  502  0.72519705703E+01 -0.23755888557E+02 -0.61007287707E+01  0.25576399470E+02  0.00000000000E+00 0.  1.
<mgrwt>
<rscale>  0 0.11180490E+04</rscale>
<asrwt>0</asrwt>
<pdfrwt beam="1">  1        4 0.16742373E+00 0.11180490E+04</pdfrwt>
<pdfrwt beam="2">  1       -4 0.44179212E-01 0.11180490E+04</pdfrwt>
<totfact> 0.21750228E+00</totfact>
</mgrwt>
</event>
<event>
12    1  0.1599266E-007  0.2556785E+04  0.7818608E-02  0.8383030E-01
          1   -1    0    0  501    0  0.00000000000E+00  0.00000000000E+00  0.11837467925E+04  0.11837467925E+04  0.00000000000E+00 0. -1.
         -1   -1    0    0    0  501 -0.00000000000E+00 -0.00000000000E+00 -0.13806052955E+04  0.13806052955E+04  0.00000000000E+00 0.  1.
         23    2    1    2    0    0 -0.37724741993E+03  0.89236907686E+03 -0.64566374950E+03  0.11679398580E+04  0.92539988005E+02 0.  0.
        254    2    1    2    0    0  0.37724741993E+03 -0.89236907686E+03  0.44880524654E+03  0.13964122299E+04  0.89994598802E+03 0.  0.
        -24    2    4    4    0    0 -0.19599705969E+03 -0.28805881696E+03 -0.12867569771E+03  0.37957015659E+03  0.78251767792E+02 0.  0.
         24    2    4    4    0    0  0.57324447962E+03 -0.60431025990E+03  0.57748094425E+03  0.10168420733E+04  0.81752293375E+02 0.  0.
         13    1    3    3    0    0 -0.32856815639E+03  0.78682837772E+03 -0.60204703641E+03  0.10437991011E+04  0.00000000000E+00 0.  1.
        -13    1    3    3    0    0 -0.48679263541E+02  0.10554069914E+03 -0.43616713083E+02  0.12414075694E+03  0.00000000000E+00 0. -1.
          4    1    6    6  502    0  0.39603865343E+03 -0.43395916156E+03  0.44930439972E+03  0.73962261493E+03  0.00000000000E+00 0. -1.
          1    1    5    5  503    0 -0.16716002851E+03 -0.18292110113E+03 -0.96216941809E+02  0.26582005993E+03  0.00000000000E+00 0. -1.
         -2    1    5    5    0  503 -0.28837031180E+02 -0.10513771583E+03 -0.32458755900E+02  0.11375009667E+03  0.00000000000E+00 0.  1.
         -3    1    6    6    0  502  0.17720582620E+03 -0.17035109835E+03  0.12817654452E+03  0.27721945839E+03  0.00000000000E+00 0.  1.
<mgrwt>
<rscale>  0 0.25567848E+04</rscale>
<asrwt>0</asrwt>
<pdfrwt beam="1">  1        1 0.18211489E+00 0.25567848E+04</pdfrwt>
<pdfrwt beam="2">  1       -1 0.21240082E+00 0.25567848E+04</pdfrwt>
<totfact> 0.12023134E+00</totfact>
</mgrwt>
</event>
<event>
12    1  0.1599266E-007  0.1399913E+04  0.7818608E-02  0.8953882E-01
          1   -1    0    0  501    0  0.00000000000E+00  0.00000000000E+00  0.37743293567E+03  0.37743293567E+03  0.00000000000E+00 0. -1.
         -1   -1    0    0    0  501 -0.00000000000E+00 -0.00000000000E+00 -0.12980817854E+04  0.12980817854E+04  0.00000000000E+00 0.  1.
         23    2    1    2    0    0 -0.17770624603E+03  0.26553064087E+03  0.16283006144E+02  0.33262270915E+03  0.91031309076E+02 0.  0.
        254    2    1    2    0    0  0.17770624603E+03 -0.26553064087E+03 -0.93693185585E+03  0.13428920119E+04  0.90743133183E+03 0.  0.
        -24    2    4    4    0    0 -0.32956431791E+03 -0.15952246130E+03 -0.16418930134E+03  0.40909305144E+03  0.79617477716E+02 0.  0.
         24    2    4    4    0    0  0.50727056394E+03 -0.10600817957E+03 -0.77274255451E+03  0.93379896046E+03  0.79298700049E+02 0.  0.
         13    1    3    3    0    0  0.80991055179E+01  0.35065215926E+02  0.53494970883E+01  0.36383815045E+02  0.00000000000E+00 0.  1.
        -13    1    3    3    0    0 -0.18580535155E+03  0.23046542495E+03  0.10933509056E+02  0.29623889411E+03  0.00000000000E+00 0. -1.
          2    1    6    6  502    0  0.24561552763E+03 -0.49451251475E+02 -0.44438324229E+03  0.51014593962E+03  0.00000000000E+00 0. -1.
          3    1    5    5  503    0 -0.24885186704E+03 -0.12339102062E+03 -0.85241940199E+02  0.29054910784E+03  0.00000000000E+00 0. -1.
         -4    1    5    5    0  503 -0.80712450874E+02 -0.36131440684E+02 -0.78947361145E+02  0.11854394360E+03  0.00000000000E+00 0.  1.
         -1    1    6    6    0  502  0.26165503631E+03 -0.56556928098E+02 -0.32835931221E+03  0.42365302083E+03  0.00000000000E+00 0.  1.
<mgrwt>
<rscale>  0 0.13999126E+04</rscale>
<asrwt>0</asrwt>
<pdfrwt beam="1">  1        1 0.58066606E-01 0.13999126E+04</pdfrwt>
<pdfrwt beam="2">  1       -1 0.19970489E+00 0.13999126E+04</pdfrwt>
<totfact> 0.95559630E+00</totfact>
</mgrwt>
</event>
<event>
12    1  0.1599266E-007  0.1274600E+04  0.7818608E-02  0.9049954E-01
          2   -1    0    0  501    0  0.00000000000E+00  0.00000000000E+00  0.62189522793E+03  0.62189522793E+03  0.00000000000E+00 0. -1.
         -2   -1    0    0    0  501 -0.00000000000E+00 -0.00000000000E+00 -0.65308602576E+03  0.65308602576E+03  0.00000000000E+00 0.  1.
         23    2    1    2    0    0 -0.26015264167E+03 -0.14308392869E+03  0.12711455579E+03  0.33471677343E+03  0.87890844232E+02 0.  0.
        254    2    1    2    0    0  0.26015264167E+03  0.14308392869E+03 -0.15830535361E+03  0.94026448026E+03  0.87800017098E+03 0.  0.
        -24    2    4    4    0    0 -0.29050878605E+03  0.16936269972E+03 -0.16499954510E+03  0.38304406893E+03  0.80117601227E+02 0.  0.
         24    2    4    4    0    0  0.55066142773E+03 -0.26278771026E+02  0.66941914867E+01  0.55722041134E+03  0.80815795594E+02 0.  0.
         11    1    3    3    0    0 -0.15700583123E+03 -0.77883470414E+02  0.27946201616E+02  0.17747579043E+03  0.00000000000E+00 0.  1.
        -11    1    3    3    0    0 -0.10314681044E+03 -0.65200458280E+02  0.99168354172E+02  0.15724098300E+03  0.00000000000E+00 0. -1.
          2    1    6    6  502    0  0.37894698784E+03  0.40407096596E+01 -0.25808770651E+02  0.37984633679E+03  0.00000000000E+00 0. -1.
          1    1    5    5  503    0 -0.23770752557E+03  0.10226612827E+03 -0.10812040640E+03  0.28045186928E+03  0.00000000000E+00 0. -1.
         -2    1    5    5    0  503 -0.52801260488E+02  0.67096571451E+02 -0.56879138698E+02  0.10259219965E+03  0.00000000000E+00 0.  1.
         -1    1    6    6    0  502  0.17171443988E+03 -0.30319480686E+02  0.32502962138E+02  0.17737407455E+03  0.00000000000E+00 0.  1.
<mgrwt>
<rscale>  0 0.12745997E+04</rscale>
<asrwt>0</asrwt>
<pdfrwt beam="1">  1        2 0.95676189E-01 0.12745997E+04</pdfrwt>
<pdfrwt beam="2">  1       -2 0.10047477E+00 0.12745997E+04</pdfrwt>
<totfact> 0.38084082E+01</totfact>
</mgrwt>
</event>
<event>
12    1  0.1599266E-007  0.1536053E+04  0.7818608E-02  0.8860826E-01
         -2   -1    0    0    0  501 -0.00000000000E+00  0.00000000000E+00  0.28838948362E+03  0.28838948362E+03  0.00000000000E+00 0.  1.
          2   -1    0    0  501    0  0.00000000000E+00 -0.00000000000E+00 -0.20453744411E+04  0.20453744411E+04  0.00000000000E+00 0. -1.
         23    2    1    2    0    0  0.33296501115E+03 -0.19295937439E+03 -0.10131663190E+03  0.40892501974E+03  0.94104160667E+02 0.  0.
        254    2    1    2    0    0 -0.33296501115E+03  0.19295937439E+03 -0.16556683255E+04  0.19248389049E+04  0.90314350297E+03 0.  0.
        -24    2    4    4    0    0  0.29645719970E+02 -0.23505171819E+03 -0.99763847427E+02  0.26901796124E+03  0.79307372143E+02 0.  0.
         24    2    4    4    0    0 -0.36261073112E+03  0.42801109258E+03 -0.15559044781E+04  0.16558209437E+04  0.78893693599E+02 0.  0.
         13    1    3    3    0    0  0.14780400287E+01 -0.12554391932E+02 -0.18728862235E+02  0.22595743841E+02  0.00000000000E+00 0. -1.
        -13    1    3    3    0    0  0.33148697112E+03 -0.18040498246E+03 -0.82587769668E+02  0.38632927590E+03  0.00000000000E+00 0.  1.
          4    1    6    6  502    0 -0.11664241155E+03  0.13960352158E+03 -0.40183276367E+03  0.44109428173E+03  0.00000000000E+00 0. -1.
          1    1    5    5  503    0  0.42555684990E+02 -0.64545856176E+02 -0.45069417711E+02  0.89489699336E+02  0.00000000000E+00 0. -1.
         -2    1    5    5    0  503 -0.12909965019E+02 -0.17050586202E+03 -0.54694429716E+02  0.17952826190E+03  0.00000000000E+00 0.  1.
         -3    1    6    6    0  502 -0.24596831957E+03  0.28840757100E+03 -0.11540717144E+04  0.12147266620E+04  0.00000000000E+00 0.  1.
<mgrwt>
<rscale>  0 0.15360527E+04</rscale>
<asrwt>0</asrwt>
<pdfrwt beam="1">  1        2 0.31467299E+00 0.15360527E+04</pdfrwt>
<pdfrwt beam="2">  1       -2 0.44367613E-01 0.15360527E+04</pdfrwt>
<totfact> 0.29274376E+01</totfact>
</mgrwt>
</event>
<event>
12    1  0.1599266E-007  0.1903856E+04  0.7818608E-02  0.8652939E-01
         -1   -1    0    0    0  501 -0.00000000000E+00  0.00000000000E+00  0.22057940022E+04  0.22057940022E+04  0.00000000000E+00 0.  1.
          1   -1    0    0  501    0  0.00000000000E+00 -0.00000000000E+00 -0.41081214531E+03  0.41081214531E+03  0.00000000000E+00 0. -1.
         23    2    1    2    0    0  0.41853510770E+03 -0.52783953693E+03  0.10854989004E+04  0.12808363164E+04  0.91910791073E+02 0.  0.
        254    2    1    2    0    0 -0.41853510770E+03  0.52783953693E+03  0.70948295645E+03  0.13357698311E+04  0.90946619672E+03 0.  0.
        -24    2    4    4    0    0 -0.49242007033E+03  0.41717538832E+03  0.88722271846E+03  0.11000250913E+04  0.79863752686E+02 0.  0.
         24    2    4    4    0    0  0.73884962625E+02  0.11066414861E+03 -0.17773976201E+03  0.23574473980E+03  0.79237729979E+02 0.  0.
         11    1    3    3    0    0  0.37798401422E+03 -0.49743873523E+03  0.95887952039E+03  0.11444505865E+04  0.00000000000E+00 0.  1.
        -11    1    3    3    0    0  0.40551093480E+02 -0.30400801703E+02  0.12661938003E+03  0.13638572992E+03  0.00000000000E+00 0. -1.
          4    1    6    6  502    0  0.65708241694E+02  0.11099230867E+03 -0.18450993516E+03  0.22512392539E+03  0.00000000000E+00 0. -1.
          3    1    5    5  503    0 -0.15171916586E+03  0.12596059973E+03  0.21145182567E+03  0.28913085715E+03  0.00000000000E+00 0. -1.
         -4    1    5    5    0  503 -0.34070090447E+03  0.29121478859E+03  0.67577089279E+03  0.81089423413E+03  0.00000000000E+00 0.  1.
         -3    1    6    6    0  502  0.81767209314E+01 -0.32816006559E+00  0.67701731459E+01  0.10620814406E+02  0.00000000000E+00 0.  1.
<mgrwt>
<rscale>  0 0.19038561E+04</rscale>
<asrwt>0</asrwt>
<pdfrwt beam="1">  1        1 0.63201870E-01 0.19038561E+04</pdfrwt>
<pdfrwt beam="2">  1       -1 0.33935292E+00 0.19038561E+04</pdfrwt>
<totfact> 0.99117607E-01</totfact>
</mgrwt>
</event>
<event>
12    1  0.1599266E-007  0.2674633E+04  0.7818608E-02  0.8343283E-01
         -2   -1    0    0    0  501 -0.00000000000E+00  0.00000000000E+00  0.55480436145E+03  0.55480436145E+03  0.00000000000E+00 0.  1.
          2   -1    0    0  501    0  0.00000000000E+00 -0.00000000000E+00 -0.32235054170E+04  0.32235054170E+04  0.00000000000E+00 0. -1.
         23    2    1    2    0    0  0.38821764648E+03  0.95094158389E+02 -0.27611709948E+04  0.27914438641E+04  0.91311245420E+02 0.  0.
        254    2    1    2    0    0 -0.38821764648E+03 -0.95094158389E+02  0.92469939323E+02  0.98686591435E+03  0.89755100313E+03 0.  0.
        -24    2    4    4    0    0 -0.48718435118E+03  0.25643944956E+03 -0.10263003561E+03  0.56534942332E+03  0.77312760354E+02 0.  0.
         24    2    4    4    0    0  0.98966704701E+02 -0.35153360795E+03  0.19509997493E+03  0.42151649102E+03  0.79005479729E+02 0.  0.
         13    1    3    3    0    0  0.86102226427E+02 -0.14093669055E+02 -0.69359173798E+03  0.69905774003E+03  0.00000000000E+00 0. -1.
        -13    1    3    3    0    0  0.30211542006E+03  0.10918782744E+03 -0.20675792569E+04  0.20923861240E+04  0.00000000000E+00 0.  1.
          2    1    6    6  502    0  0.90128807020E+02 -0.17525264114E+03  0.98717837745E+02  0.22041302496E+03  0.00000000000E+00 0. -1.
          1    1    5    5  503    0 -0.29356388843E+03  0.19231229600E+03 -0.81565993561E+02  0.36030096737E+03  0.00000000000E+00 0. -1.
         -2    1    5    5    0  503 -0.19362046276E+03  0.64127153562E+02 -0.21064042048E+02  0.20504845596E+03  0.00000000000E+00 0.  1.
         -1    1    6    6    0  502  0.88378976812E+01 -0.17628096681E+03  0.96382137187E+02  0.20110346607E+03  0.00000000000E+00 0.  1.
<mgrwt>
<rscale>  0 0.26746326E+04</rscale>
<asrwt>0</asrwt>
<pdfrwt beam="1">  1        2 0.49592390E+00 0.26746326E+04</pdfrwt>
<pdfrwt beam="2">  1       -2 0.85354519E-01 0.26746326E+04</pdfrwt>
<totfact> 0.13131631E+00</totfact>
</mgrwt>
</event>
<event>
12    1  0.1599266E-007  0.1919194E+04  0.7818608E-02  0.8645361E-01
          1   -1    0    0  501    0  0.00000000000E+00  0.00000000000E+00  0.83217532356E+03  0.83217532356E+03  0.00000000000E+00 0. -1.
         -1   -1    0    0    0  501 -0.00000000000E+00 -0.00000000000E+00 -0.11065289823E+04  0.11065289823E+04  0.00000000000E+00 0.  1.
         23    2    1    2    0    0 -0.26734663058E+03  0.71723043641E+02  0.60041814775E+03  0.66741449482E+03  0.91223570780E+02 0.  0.
        254    2    1    2    0    0  0.26734663058E+03 -0.71723043641E+02 -0.87477180647E+03  0.12712898110E+04  0.87996230279E+03 0.  0.
        -24    2    4    4    0    0 -0.26401788248E+03  0.14771262805E+03 -0.46490919563E+03  0.56046504158E+03  0.80349485980E+02 0.  0.
         24    2    4    4    0    0  0.53136451306E+03 -0.21943567169E+03 -0.40986261083E+03  0.71082476943E+03  0.82366457508E+02 0.  0.
         13    1    3    3    0    0 -0.20533971861E+03  0.14208981502E+02  0.39904852890E+03  0.44900559419E+03  0.00000000000E+00 0. -1.
        -13    1    3    3    0    0 -0.62006911963E+02  0.57514062139E+02  0.20136961885E+03  0.21840890062E+03  0.00000000000E+00 0.  1.
          4    1    6    6  502    0  0.47502584500E+03 -0.21845106818E+03 -0.35356243983E+03  0.63117099226E+03  0.00000000000E+00 0. -1.
          1    1    5    5  503    0 -0.26957475362E+03  0.14496083682E+03 -0.44910860318E+03  0.54349124137E+03  0.00000000000E+00 0. -1.
         -2    1    5    5    0  503  0.55568711320E+01  0.27517912291E+01 -0.15800592454E+02  0.16973800212E+02  0.00000000000E+00 0.  1.
         -3    1    6    6    0  502  0.56338668060E+02 -0.98460351317E+00 -0.56300171000E+02  0.79653777170E+02  0.00000000000E+00 0.  1.
<mgrwt>
<rscale>  0 0.19191937E+04</rscale>
<asrwt>0</asrwt>
<pdfrwt beam="1">  1        1 0.12802697E+00 0.19191937E+04</pdfrwt>
<pdfrwt beam="2">  1       -1 0.17023523E+00 0.19191937E+04</pdfrwt>
<totfact> 0.47476726E+00</totfact>
</mgrwt>
</event>
<event>
12    1  0.1599266E-007  0.1574064E+04  0.7818608E-02  0.8836642E-01
          1   -1    0    0  501    0  0.00000000000E+00  0.00000000000E+00  0.12799186880E+04  0.12799186880E+04  0.00000000000E+00 0. -1.
         -1   -1    0    0    0  501 -0.00000000000E+00 -0.00000000000E+00 -0.48395218671E+03  0.48395218671E+03  0.00000000000E+00 0.  1.
         23    2    1    2    0    0 -0.51488453829E+03  0.12137795235E+03  0.24860605044E+03  0.59157783009E+03  0.91217682738E+02 0.  0.
        254    2    1    2    0    0  0.51488453829E+03 -0.12137795235E+03  0.54736045086E+03  0.11722930446E+04  0.89153172924E+03 0.  0.
        -24    2    4    4    0    0 -0.72157492203E+02 -0.25877873355E+03  0.48587482386E+03  0.56104837307E+03  0.80794776099E+02 0.  0.
         24    2    4    4    0    0  0.58704203050E+03  0.13740078119E+03  0.61485626997E+02  0.61124467157E+03  0.79638219162E+02 0.  0.
         13    1    3    3    0    0 -0.74180549790E+02  0.39225152512E+02  0.69010950699E+02  0.10864565280E+03  0.00000000000E+00 0. -1.
        -13    1    3    3    0    0 -0.44070398850E+03  0.82152799840E+02  0.17959509974E+03  0.48293217728E+03  0.00000000000E+00 0.  1.
          4    1    6    6  502    0  0.37305811415E+03  0.12621014864E+03  0.36514940162E+02  0.39551826634E+03  0.00000000000E+00 0. -1.
          3    1    5    5  503    0 -0.60845687389E+02 -0.23871741014E+03  0.38123048722E+03  0.45389964085E+03  0.00000000000E+00 0. -1.
         -4    1    5    5    0  503 -0.11311804814E+02 -0.20061323402E+02  0.10464433664E+03  0.10714873221E+03  0.00000000000E+00 0.  1.
         -3    1    6    6    0  502  0.21398391634E+03  0.11190632552E+02  0.24970686835E+02  0.21572640522E+03  0.00000000000E+00 0.  1.
<mgrwt>
<rscale>  0 0.15740641E+04</rscale>
<asrwt>0</asrwt>
<pdfrwt beam="1">  1        1 0.19691057E+00 0.15740641E+04</pdfrwt>
<pdfrwt beam="2">  1       -1 0.74454183E-01 0.15740641E+04</pdfrwt>
<totfact> 0.16323658E+01</totfact>
</mgrwt>
</event>
<event>
12    1  0.1599266E-007  0.2422285E+04  0.7818608E-02  0.8431207E-01
         -1   -1    0    0    0  501 -0.00000000000E+00  0.00000000000E+00  0.80112469480E+03  0.80112469480E+03  0.00000000000E+00 0.  1.
          1   -1    0    0  501    0  0.00000000000E+00 -0.00000000000E+00 -0.18310092002E+04  0.18310092002E+04  0.00000000000E+00 0. -1.
         23    2    1    2    0    0 -0.88530553404E+03 -0.42856243143E+03 -0.78275920364E+03  0.12604761297E+04  0.93040079286E+02 0.  0.
        254    2    1    2    0    0  0.88530553404E+03  0.42856243143E+03 -0.24712530179E+03  0.13716577653E+04  0.92354884235E+03 0.  0.
        -24    2    4    4    0    0 -0.13713790560E+03 -0.90644036226E+02  0.37333146091E+02  0.18690448661E+03  0.80724078575E+02 0.  0.
         24    2    4    4    0    0  0.10224434396E+04  0.51920646765E+03 -0.28445844788E+03  0.11847532787E+04  0.88078258374E+02 0.  0.
         13    1    3    3    0    0 -0.67665516175E+03 -0.28523367345E+03 -0.56405957768E+03  0.92595014098E+03  0.00000000000E+00 0. -1.
        -13    1    3    3    0    0 -0.20865037229E+03 -0.14332875798E+03 -0.21869962595E+03  0.33452598870E+03  0.00000000000E+00 0.  1.
          2    1    6    6  502    0  0.10917473762E+03  0.42365946988E+02 -0.47710906322E+01  0.11720392529E+03  0.00000000000E+00 0. -1.
          1    1    5    5  503    0 -0.16363583837E+02  0.33990579330E+01 -0.17604241738E+02  0.24274056068E+02  0.00000000000E+00 0. -1.
         -2    1    5    5    0  503 -0.12077432176E+03 -0.94043094159E+02  0.54937387830E+02  0.16263043054E+03  0.00000000000E+00 0.  1.
         -1    1    6    6    0  502  0.91326870202E+03  0.47684052067E+03 -0.27968735724E+03  0.10675493534E+04  0.00000000000E+00 0.  1.
<mgrwt>
<rscale>  0 0.24222854E+04</rscale>
<asrwt>0</asrwt>
<pdfrwt beam="1">  1        1 0.28169372E+00 0.24222854E+04</pdfrwt>
<pdfrwt beam="2">  1       -1 0.12324995E+00 0.24222854E+04</pdfrwt>
<totfact> 0.20116335E+00</totfact>
</mgrwt>
</event>
<event>
12    1  0.1599266E-007  0.1389434E+04  0.7818608E-02  0.8961502E-01
         -2   -1    0    0    0  501 -0.00000000000E+00  0.00000000000E+00  0.43346642750E+03  0.43346642750E+03  0.00000000000E+00 0.  1.
          2   -1    0    0  501    0  0.00000000000E+00 -0.00000000000E+00 -0.11134237477E+04  0.11134237477E+04  0.00000000000E+00 0. -1.
         23    2    1    2    0    0  0.25458278744E+03  0.15156791453E+02  0.13794595227E+03  0.30376206124E+03  0.90554845899E+02 0.  0.
        254    2    1    2    0    0 -0.25458278744E+03 -0.15156791453E+02 -0.81790327247E+03  0.12431281140E+04  0.90075502808E+03 0.  0.
        -24    2    4    4    0    0 -0.10473314391E+03 -0.17066209614E+03  0.14071247913E+03  0.25734576475E+03  0.79575488419E+02 0.  0.
         24    2    4    4    0    0 -0.14984964353E+03  0.15550530469E+03 -0.95861575160E+03  0.98578234921E+03  0.78650272343E+02 0.  0.
         13    1    3    3    0    0  0.10841492587E+02 -0.21534146824E+02  0.10884944236E+02  0.26452588757E+02  0.00000000000E+00 0. -1.
        -13    1    3    3    0    0  0.24374129485E+03  0.36690938277E+02  0.12706100803E+03  0.27730947248E+03  0.00000000000E+00 0.  1.
          2    1    6    6  502    0 -0.89468081271E+02  0.70203939062E+02 -0.34307872294E+03  0.36143621949E+03  0.00000000000E+00 0. -1.
          3    1    5    5  503    0 -0.99423638802E+01 -0.43094914010E+02 -0.12502790699E+01  0.44244608833E+02  0.00000000000E+00 0. -1.
         -4    1    5    5    0  503 -0.94790780027E+02 -0.12756718213E+03  0.14196275820E+03  0.21310115591E+03  0.00000000000E+00 0.  1.
         -1    1    6    6    0  502 -0.60381562257E+02  0.85301365627E+02 -0.61553702867E+03  0.62434612972E+03  0.00000000000E+00 0.  1.
<mgrwt>
<rscale>  0 0.13894341E+04</rscale>
<asrwt>0</asrwt>
<pdfrwt beam="1">  1        2 0.17129596E+00 0.13894341E+04</pdfrwt>
<pdfrwt beam="2">  1       -2 0.66687143E-01 0.13894341E+04</pdfrwt>
<totfact> 0.43013206E+01</totfact>
</mgrwt>
</event>
<event>
12    1  0.1599266E-007  0.1720672E+04  0.7818608E-02  0.8749662E-01
          1   -1    0    0  501    0  0.00000000000E+00  0.00000000000E+00  0.20090462090E+04  0.20090462090E+04  0.00000000000E+00 0. -1.
         -1   -1    0    0    0  501 -0.00000000000E+00 -0.00000000000E+00 -0.36842246965E+03  0.36842246965E+03  0.00000000000E+00 0.  1.
         23    2    1    2    0    0  0.55142386734E+03 -0.13491364919E+03  0.25335891644E+03  0.62781179088E+03  0.87675139111E+02 0.  0.
        254    2    1    2    0    0 -0.55142386734E+03  0.13491364919E+03  0.13872648229E+04  0.17496568877E+04  0.90251069898E+03 0.  0.
        -24    2    4    4    0    0  0.21589987493E+03 -0.11191980480E+03  0.32851612006E+03  0.41635531884E+03  0.79310224394E+02 0.  0.
         24    2    4    4    0    0 -0.76732374227E+03  0.24683345398E+03  0.10587487028E+04  0.13333015689E+04  0.83855699944E+02 0.  0.
         13    1    3    3    0    0  0.39188105637E+03 -0.10312286515E+03  0.13681988267E+03  0.42769705161E+03  0.00000000000E+00 0.  1.
        -13    1    3    3    0    0  0.15954281097E+03 -0.31790784039E+02  0.11653903378E+03  0.20011473928E+03  0.00000000000E+00 0. -1.
          4    1    6    6  502    0 -0.36060877744E+03  0.88577674594E+02  0.54068644825E+03  0.65591655729E+03  0.00000000000E+00 0. -1.
          1    1    5    5  503    0  0.13773452543E+03 -0.51479523806E+02  0.13758043655E+03  0.20136861073E+03  0.00000000000E+00 0. -1.
         -2    1    5    5    0  503  0.78165349493E+02 -0.60440280992E+02  0.19093568351E+03  0.21498670811E+03  0.00000000000E+00 0.  1.
         -3    1    6    6    0  502 -0.40671496483E+03  0.15825577939E+03  0.51806225457E+03  0.67738501160E+03  0.00000000000E+00 0.  1.
<mgrwt>
<rscale>  0 0.17206717E+04</rscale>
<asrwt>0</asrwt>
<pdfrwt beam="1">  1        1 0.30908403E+00 0.17206717E+04</pdfrwt>
<pdfrwt beam="2">  1       -1 0.56680381E-01 0.17206717E+04</pdfrwt>
<totfact> 0.87961444E+00</totfact>
</mgrwt>
</event>
<event>
12    1  0.1599266E-007  0.1743715E+04  0.7818608E-02  0.8736818E-01
          2   -1    0    0  501    0  0.00000000000E+00  0.00000000000E+00  0.19065118407E+04  0.19065118407E+04  0.00000000000E+00 0.  1.
         -2   -1    0    0    0  501 -0.00000000000E+00 -0.00000000000E+00 -0.39870470418E+03  0.39870470418E+03  0.00000000000E+00 0. -1.
         23    2    1    2    0    0  0.34278816623E+03  0.40255687785E+03  0.10195344595E+04  0.11520191437E+04  0.90232071237E+02 0.  0.
        254    2    1    2    0    0 -0.34278816623E+03 -0.40255687785E+03  0.48827267704E+03  0.11531974011E+04  0.90105397841E+03 0.  0.
        -24    2    4    4    0    0  0.94257063766E+02 -0.13777551125E+03  0.59700084264E+03  0.62482669041E+03  0.78306457990E+02 0.  0.
         24    2    4    4    0    0 -0.43704523000E+03 -0.26478136660E+03 -0.10872816560E+03  0.52837071072E+03  0.78968910255E+02 0.  0.
         13    1    3    3    0    0  0.31344728261E+03  0.39571706259E+03  0.97927141433E+03  0.11017321342E+04  0.00000000000E+00 0.  1.
        -13    1    3    3    0    0  0.29340883621E+02  0.68398152542E+01  0.40263045146E+02  0.50287009544E+02  0.00000000000E+00 0. -1.
          4    1    6    6  502    0 -0.13150101059E+03 -0.58584324816E+02 -0.62241035162E+02  0.15683936163E+03  0.00000000000E+00 0. -1.
          3    1    5    5  503    0  0.53285442831E+02 -0.11823861758E+03  0.34093687780E+03  0.36477070024E+03  0.00000000000E+00 0. -1.
         -4    1    5    5    0  503  0.40971620936E+02 -0.19536893674E+02  0.25606396483E+03  0.26005599017E+03  0.00000000000E+00 0.  1.
         -3    1    6    6    0  502 -0.30554421941E+03 -0.20619704178E+03 -0.46487130436E+02  0.37153134908E+03  0.00000000000E+00 0.  1.
<mgrwt>
<rscale>  0 0.17437147E+04</rscale>
<asrwt>0</asrwt>
<pdfrwt beam="1">  1        2 0.29330951E+00 0.17437147E+04</pdfrwt>
<pdfrwt beam="2">  1       -2 0.61339187E-01 0.17437147E+04</pdfrwt>
<totfact> 0.17647964E+01</totfact>
</mgrwt>
</event>
<event>
12    1  0.1639890E-007  0.1548161E+04  0.7818608E-02  0.8853044E-01
          1   -1    0    0  501    0  0.00000000000E+00  0.00000000000E+00  0.87951526171E+03  0.87951526171E+03  0.00000000000E+00 0. -1.
         -1   -1    0    0    0  501 -0.00000000000E+00 -0.00000000000E+00 -0.68128471011E+03  0.68128471011E+03  0.00000000000E+00 0.  1.
         23    2    1    2    0    0 -0.47992100369E+03  0.14932881307E+03  0.25594430946E+03  0.57129472646E+03  0.90812503260E+02 0.  0.
        254    2    1    2    0    0  0.47992100369E+03 -0.14932881307E+03 -0.57713757864E+02  0.98950524535E+03  0.85039196171E+03 0.  0.
        -24    2    4    4    0    0  0.27304304575E+02 -0.34427361618E+03  0.22114164617E+03  0.41787480228E+03  0.80286205893E+02 0.  0.
         24    2    4    4    0    0  0.45261669911E+03  0.19494480311E+03 -0.27885540403E+03  0.57163044308E+03  0.78330546507E+02 0.  0.
         13    1    3    3    0    0 -0.18252568780E+02  0.18020770659E+02 -0.31636468276E+01  0.25844014848E+02  0.00000000000E+00 0. -1.
        -13    1    3    3    0    0 -0.46166843491E+03  0.13130804241E+03  0.25910795628E+03  0.54545071162E+03  0.00000000000E+00 0.  1.
          4    1    6    6  502    0  0.35236004865E+03  0.15049541904E+03 -0.25240054245E+03  0.45881642175E+03  0.00000000000E+00 0. -1.
          1    1    5    5  503    0  0.16932906779E+02 -0.34296680001E+03  0.21877982333E+03  0.40715790590E+03  0.00000000000E+00 0. -1.
         -2    1    5    5    0  503  0.10371397795E+02 -0.13068161712E+01  0.23618228427E+01  0.10716896373E+02  0.00000000000E+00 0.  1.
         -3    1    6    6    0  502  0.10025665046E+03  0.44449384074E+02 -0.26454861580E+02  0.11281402133E+03  0.00000000000E+00 0.  1.
<mgrwt>
<rscale>  0 0.15481606E+04</rscale>
<asrwt>0</asrwt>
<pdfrwt beam="1">  1        1 0.13531004E+00 0.15481606E+04</pdfrwt>
<pdfrwt beam="2">  1       -1 0.10481303E+00 0.15481606E+04</pdfrwt>
<totfact> 0.15590318E+01</totfact>
</mgrwt>
</event>
<event>
12    1  0.1599266E-007  0.1441689E+04  0.7818608E-02  0.8924183E-01
         -1   -1    0    0    0  501 -0.00000000000E+00  0.00000000000E+00  0.17794060743E+03  0.17794060743E+03  0.00000000000E+00 0.  1.
          1   -1    0    0  501    0  0.00000000000E+00 -0.00000000000E+00 -0.29201709045E+04  0.29201709045E+04  0.00000000000E+00 0. -1.
         23    2    1    2    0    0  0.39493939611E+03  0.16322437089E+03 -0.70236310718E+03  0.82795127963E+03  0.97826710363E+02 0.  0.
        254    2    1    2    0    0 -0.39493939611E+03 -0.16322437089E+03 -0.20398671899E+04  0.22701602323E+04  0.89997222517E+03 0.  0.
        -24    2    4    4    0    0 -0.65561649633E+03 -0.69956649752E+02 -0.10829025399E+04  0.12705527518E+04  0.83062994162E+02 0.  0.
         24    2    4    4    0    0  0.26067710022E+03 -0.93267721139E+02 -0.95696464998E+03  0.99960748053E+03  0.82355057065E+02 0.  0.
         11    1    3    3    0    0  0.37954029477E+03  0.14380142611E+03 -0.68934500050E+03  0.79995388318E+03  0.00000000000E+00 0. -1.
        -11    1    3    3    0    0  0.15399101346E+02  0.19422944784E+02 -0.13018106675E+02  0.27997396445E+02  0.00000000000E+00 0.  1.
          4    1    6    6  502    0  0.25809519340E+03 -0.80566958491E+02 -0.85268484249E+03  0.89452535138E+03  0.00000000000E+00 0. -1.
          1    1    5    5  503    0 -0.56906305982E+03 -0.84368359635E+02 -0.90857497149E+03  0.10753879602E+04  0.00000000000E+00 0. -1.
         -2    1    5    5    0  503 -0.86553436519E+02  0.14411709883E+02 -0.17432756846E+03  0.19516479160E+03  0.00000000000E+00 0.  1.
         -3    1    6    6    0  502  0.25819068224E+01 -0.12700762648E+02 -0.10427980750E+03  0.10508212915E+03  0.00000000000E+00 0.  1.
<mgrwt>
<rscale>  0 0.14416893E+04</rscale>
<asrwt>0</asrwt>
<pdfrwt beam="1">  1        1 0.44925703E+00 0.14416893E+04</pdfrwt>
<pdfrwt beam="2">  1       -1 0.27375480E-01 0.14416893E+04</pdfrwt>
<totfact> 0.80015939E+00</totfact>
</mgrwt>
</event>
<event>
12    1  0.1599266E-007  0.2276361E+04  0.7818608E-02  0.8487300E-01
          2   -1    0    0  501    0  0.00000000000E+00  0.00000000000E+00  0.12663832739E+04  0.12663832739E+04  0.00000000000E+00 0. -1.
         -2   -1    0    0    0  501 -0.00000000000E+00 -0.00000000000E+00 -0.10229562862E+04  0.10229562862E+04  0.00000000000E+00 0.  1.
         23    2    1    2    0    0  0.86309352088E+03 -0.14327002065E+03  0.48506802472E+03  0.10048640944E+04  0.94890120437E+02 0.  0.
        254    2    1    2    0    0 -0.86309352088E+03  0.14327002065E+03 -0.24164103702E+03  0.12844754658E+04  0.90886198444E+03 0.  0.
        -24    2    4    4    0    0 -0.51682424420E+03 -0.36344741040E+03 -0.17902400324E+03  0.66164713300E+03  0.80783756740E+02 0.  0.
         24    2    4    4    0    0 -0.34626927668E+03  0.50671743105E+03 -0.62617033778E+02  0.62282833275E+03  0.85611169033E+02 0.  0.
         11    1    3    3    0    0  0.66319646897E+03 -0.14869063255E+03  0.38742831184E+03  0.78232931523E+03  0.00000000000E+00 0. -1.
        -11    1    3    3    0    0  0.19989705191E+03  0.54206118970E+01  0.97639712888E+02  0.22253477914E+03  0.00000000000E+00 0.  1.
          4    1    6    6  502    0 -0.19489963435E+02  0.68388577385E+02 -0.22671222355E+02  0.74638063443E+02  0.00000000000E+00 0. -1.
          1    1    5    5  503    0 -0.23416072789E+02 -0.37898101661E+01 -0.19148808623E+02  0.30485275096E+02  0.00000000000E+00 0. -1.
         -2    1    5    5    0  503 -0.49340817141E+03 -0.35965760023E+03 -0.15987519462E+03  0.63116185790E+03  0.00000000000E+00 0.  1.
         -3    1    6    6    0  502 -0.32677931324E+03  0.43832885366E+03 -0.39945811423E+02  0.54819026931E+03  0.00000000000E+00 0.  1.
<mgrwt>
<rscale>  0 0.22763609E+04</rscale>
<asrwt>0</asrwt>
<pdfrwt beam="1">  1        2 0.19482820E+00 0.22763609E+04</pdfrwt>
<pdfrwt beam="2">  1       -2 0.15737789E+00 0.22763609E+04</pdfrwt>
<totfact> 0.41403127E+00</totfact>
</mgrwt>
</event>
<event>
12    1  0.1599266E-007  0.2620231E+04  0.7818608E-02  0.8361361E-01
          2   -1    0    0  501    0  0.00000000000E+00  0.00000000000E+00  0.29000534729E+04  0.29000534729E+04  0.00000000000E+00 0. -1.
         -2   -1    0    0    0  501 -0.00000000000E+00 -0.00000000000E+00 -0.59185210454E+03  0.59185210454E+03  0.00000000000E+00 0.  1.
         23    2    1    2    0    0  0.45402186943E+03  0.22002468942E+03 -0.35655222082E+03  0.62457467545E+03  0.91745938183E+02 0.  0.
        254    2    1    2    0    0 -0.45402186943E+03 -0.22002468942E+03  0.26647535891E+04  0.28673309020E+04  0.93066002848E+03 0.  0.
        -24    2    4    4    0    0  0.63044963175E+02  0.23590639860E+03  0.14120018865E+04  0.14352100198E+04  0.80324201519E+02 0.  0.
         24    2    4    4    0    0 -0.51706683261E+03 -0.45593108802E+03  0.12527517027E+04  0.14321208821E+04  0.79700226303E+02 0.  0.
         13    1    3    3    0    0  0.38425811638E+03  0.20532709585E+03 -0.33655087243E+03  0.55052702570E+03  0.00000000000E+00 0.  1.
        -13    1    3    3    0    0  0.69763753056E+02  0.14697593569E+02 -0.20001348389E+02  0.74047649757E+02  0.00000000000E+00 0. -1.
          4    1    6    6  502    0 -0.31205465211E+02 -0.51210866771E+02  0.13885936261E+03  0.15125559996E+03  0.00000000000E+00 0. -1.
          3    1    5    5  503    0 -0.12235317123E+02  0.39744860216E+02  0.14271352550E+03  0.14864893965E+03  0.00000000000E+00 0. -1.
         -4    1    5    5    0  503  0.75280280298E+02  0.19616153838E+03  0.12692883610E+04  0.12865610802E+04  0.00000000000E+00 0.  1.
         -3    1    6    6    0  502 -0.48586136740E+03 -0.40472022125E+03  0.11138923400E+04  0.12808652822E+04  0.00000000000E+00 0.  1.
<mgrwt>
<rscale>  0 0.26202311E+04</rscale>
<asrwt>0</asrwt>
<pdfrwt beam="1">  1        2 0.44616206E+00 0.26202311E+04</pdfrwt>
<pdfrwt beam="2">  1       -2 0.91054172E-01 0.26202311E+04</pdfrwt>
<totfact> 0.18246571E+00</totfact>
</mgrwt>
</event>
<event>
12    1  0.1599266E-007  0.1162958E+04  0.7818608E-02  0.9145911E-01
          2   -1    0    0  501    0  0.00000000000E+00  0.00000000000E+00  0.22276507945E+04  0.22276507945E+04  0.00000000000E+00 0. -1.
         -2   -1    0    0    0  501 -0.00000000000E+00 -0.00000000000E+00 -0.15178236659E+03  0.15178236659E+03  0.00000000000E+00 0.  1.
         23    2    1    2    0    0 -0.70281348690E+02 -0.20272301309E+03  0.32209132850E+03  0.39704162931E+03  0.88674367788E+02 0.  0.
        254    2    1    2    0    0  0.70281348690E+02  0.20272301309E+03  0.17537770994E+04  0.19823915318E+04  0.89894715242E+03 0.  0.
        -24    2    4    4    0    0 -0.21123487380E+03 -0.25304160095E+03  0.98932225132E+03  0.10456511235E+04  0.77314496858E+02 0.  0.
         24    2    4    4    0    0  0.28151622249E+03  0.45576461404E+03  0.76445484807E+03  0.93674040825E+03  0.78221549272E+02 0.  0.
         13    1    3    3    0    0  0.11309798082E+02 -0.10586547048E+02  0.30647911326E+01  0.15791752776E+02  0.00000000000E+00 0. -1.
        -13    1    3    3    0    0 -0.81591146772E+02 -0.19213646604E+03  0.31902653737E+03  0.38124987654E+03  0.00000000000E+00 0.  1.
          4    1    6    6  502    0  0.23624785546E+03  0.40582548347E+03  0.70373835791E+03  0.84602307808E+03  0.00000000000E+00 0. -1.
          3    1    5    5  503    0 -0.11768873903E+03 -0.18312746419E+03  0.56288246530E+03  0.60350888741E+03  0.00000000000E+00 0. -1.
         -4    1    5    5    0  503 -0.93546134770E+02 -0.69914136766E+02  0.42643978602E+03  0.44214223610E+03  0.00000000000E+00 0.  1.
         -3    1    6    6    0  502  0.45268367038E+02  0.49939130571E+02  0.60716490153E+02  0.90717330170E+02  0.00000000000E+00 0.  1.
<mgrwt>
<rscale>  0 0.11629585E+04</rscale>
<asrwt>0</asrwt>
<pdfrwt beam="1">  1        2 0.34271548E+00 0.11629585E+04</pdfrwt>
<pdfrwt beam="2">  1       -2 0.23351135E-01 0.11629585E+04</pdfrwt>
<totfact> 0.80261806E+01</totfact>
</mgrwt>
</event>
<event>
12    1  0.1599266E-007  0.2593123E+04  0.7818608E-02  0.8370541E-01
         -2   -1    0    0    0  501 -0.00000000000E+00  0.00000000000E+00  0.57883056911E+03  0.57883056911E+03  0.00000000000E+00 0.  1.
          2   -1    0    0  501    0  0.00000000000E+00 -0.00000000000E+00 -0.29042550106E+04  0.29042550106E+04  0.00000000000E+00 0. -1.
         23    2    1    2    0    0 -0.15949016245E+03 -0.88513718647E+03 -0.18293548415E+04  0.20405083804E+04  0.90721350474E+02 0.  0.
        254    2    1    2    0    0  0.15949016245E+03  0.88513718647E+03 -0.49606959999E+03  0.14425771993E+04  0.10129358209E+04 0.  0.
        -24    2    4    4    0    0  0.55854052680E+03  0.61131177340E+03 -0.46105619798E+03  0.95115023925E+03  0.80276743535E+02 0.  0.
         24    2    4    4    0    0 -0.39905036434E+03  0.27382541307E+03 -0.35013402001E+02  0.49142696009E+03  0.77800826872E+02 0.  0.
         13    1    3    3    0    0  0.10373114415E+02 -0.27894410406E+02 -0.69942042044E+02  0.76010452438E+02  0.00000000000E+00 0.  1.
        -13    1    3    3    0    0 -0.16986327687E+03 -0.85724277607E+03 -0.17594127995E+04  0.19644979279E+04  0.00000000000E+00 0. -1.
          2    1    6    6  502    0 -0.32079837240E+03  0.21951831637E+03 -0.59088674872E+02  0.39318107591E+03  0.00000000000E+00 0. -1.
          3    1    5    5  503    0  0.44984841693E+03  0.53155472334E+03 -0.37098452424E+03  0.78901428336E+03  0.00000000000E+00 0. -1.
         -4    1    5    5    0  503  0.10869210987E+03  0.79757050068E+02 -0.90071673746E+02  0.16213595590E+03  0.00000000000E+00 0.  1.
         -1    1    6    6    0  502 -0.78251991943E+02  0.54307096699E+02  0.24075272871E+02  0.98245884182E+02  0.00000000000E+00 0.  1.
<mgrwt>
<rscale>  0 0.25931229E+04</rscale>
<asrwt>0</asrwt>
<pdfrwt beam="1">  1        2 0.44680846E+00 0.25931229E+04</pdfrwt>
<pdfrwt beam="2">  1       -2 0.89050857E-01 0.25931229E+04</pdfrwt>
<totfact> 0.19138317E+00</totfact>
</mgrwt>
</event>
<event>
12    1  0.1599266E-007  0.1142774E+04  0.7818608E-02  0.9164476E-01
         -2   -1    0    0    0  501 -0.00000000000E+00  0.00000000000E+00  0.15292909638E+03  0.15292909638E+03  0.00000000000E+00 0.  1.
          2   -1    0    0  501    0  0.00000000000E+00 -0.00000000000E+00 -0.21348657837E+04  0.21348657837E+04  0.00000000000E+00 0. -1.
         23    2    1    2    0    0  0.17439181582E+03  0.46355468558E+00 -0.36622236928E+03  0.41593624357E+03  0.92040288186E+02 0.  0.
        254    2    1    2    0    0 -0.17439181582E+03 -0.46355468558E+00 -0.16157143181E+04  0.18718586365E+04  0.92892910239E+03 0.  0.
        -24    2    4    4    0    0 -0.11783288498E+03  0.22016106430E+03 -0.16100567219E+04  0.16313367267E+04  0.81371892919E+02 0.  0.
         24    2    4    4    0    0 -0.56558930835E+02 -0.22062461898E+03 -0.56575961475E+01  0.24052190987E+03  0.77101527700E+02 0.  0.
         13    1    3    3    0    0  0.97266474943E+02 -0.32525581045E+02 -0.13209833618E+03  0.16723830600E+03  0.00000000000E+00 0.  1.
        -13    1    3    3    0    0  0.77125340872E+02  0.32989135731E+02 -0.23412403309E+03  0.24869793757E+03  0.00000000000E+00 0. -1.
          2    1    6    6  502    0 -0.38310056467E+02 -0.19432121030E+03 -0.29978449100E+02  0.20031749951E+03  0.00000000000E+00 0. -1.
          3    1    5    5  503    0 -0.62524622403E+02  0.14913729823E+03 -0.79192756780E+03  0.80827008776E+03  0.00000000000E+00 0. -1.
         -4    1    5    5    0  503 -0.55308262579E+02  0.71023766065E+02 -0.81812915412E+03  0.82306663891E+03  0.00000000000E+00 0.  1.
         -1    1    6    6    0  502 -0.18248874368E+02 -0.26303408686E+02  0.24320852953E+02  0.40204410362E+02  0.00000000000E+00 0.  1.
<mgrwt>
<rscale>  0 0.11427740E+04</rscale>
<asrwt>0</asrwt>
<pdfrwt beam="1">  1        2 0.32844087E+00 0.11427740E+04</pdfrwt>
<pdfrwt beam="2">  1       -2 0.23527555E-01 0.11427740E+04</pdfrwt>
<totfact> 0.89336746E+01</totfact>
</mgrwt>
</event>
<event>
12    1  0.1599266E-007  0.1594520E+04  0.7818608E-02  0.8823922E-01
         -2   -1    0    0    0  501 -0.00000000000E+00  0.00000000000E+00  0.63881866867E+03  0.63881866867E+03  0.00000000000E+00 0. -1.
          2   -1    0    0  501    0  0.00000000000E+00 -0.00000000000E+00 -0.99499817889E+03  0.99499817889E+03  0.00000000000E+00 0.  1.
         23    2    1    2    0    0 -0.51439706909E+03 -0.10636124868E+03 -0.63199282558E+01  0.53277112847E+03  0.88814829451E+02 0.  0.
        254    2    1    2    0    0  0.51439706909E+03  0.10636124868E+03 -0.34985958196E+03  0.11010457191E+04  0.90221000244E+03 0.  0.
        -24    2    4    4    0    0  0.50117067851E+03  0.18042628457E+03  0.17370616072E+03  0.56583747795E+03  0.79199293056E+02 0.  0.
         24    2    4    4    0    0  0.13226390580E+02 -0.74065035882E+02 -0.52356574268E+03  0.53520824113E+03  0.81646846383E+02 0.  0.
         11    1    3    3    0    0 -0.69453215220E+02 -0.36270733437E+02 -0.24140119303E+02  0.81988173345E+02  0.00000000000E+00 0.  1.
        -11    1    3    3    0    0 -0.44494385387E+03 -0.70090515247E+02  0.17820191047E+02  0.45078295513E+03  0.00000000000E+00 0. -1.
          2    1    6    6  502    0 -0.22917025102E+00  0.17468415812E+02 -0.59572424819E+02  0.62081171613E+02  0.00000000000E+00 0. -1.
          3    1    5    5  503    0  0.34865273690E+03  0.91405098290E+02  0.96702933330E+02  0.37318236863E+03  0.00000000000E+00 0. -1.
         -4    1    5    5    0  503  0.15251794161E+03  0.89021186276E+02  0.77003227387E+02  0.19265510932E+03  0.00000000000E+00 0.  1.
         -1    1    6    6    0  502  0.13455560832E+02 -0.91533451694E+02 -0.46399331786E+03  0.47312706952E+03  0.00000000000E+00 0.  1.
<mgrwt>
<rscale>  0 0.15945199E+04</rscale>
<asrwt>0</asrwt>
<pdfrwt beam="1">  1        2 0.15307664E+00 0.15945199E+04</pdfrwt>
<pdfrwt beam="2">  1       -2 0.98279796E-01 0.15945199E+04</pdfrwt>
<totfact> 0.20954601E+01</totfact>
</mgrwt>
</event>
<event>
12    1  0.1599266E-007  0.2082264E+04  0.7818608E-02  0.8569097E-01
         -1   -1    0    0    0  501 -0.00000000000E+00  0.00000000000E+00  0.56052155720E+03  0.56052155720E+03  0.00000000000E+00 0.  1.
          1   -1    0    0  501    0  0.00000000000E+00 -0.00000000000E+00 -0.19338334723E+04  0.19338334723E+04  0.00000000000E+00 0. -1.
         23    2    1    2    0    0  0.35613970551E+03 -0.33095713528E+03 -0.13891802347E+04  0.14747232670E+04  0.92837894629E+02 0.  0.
        254    2    1    2    0    0 -0.35613970551E+03  0.33095713528E+03  0.15868319519E+02  0.10196317625E+04  0.89611886062E+03 0.  0.
        -24    2    4    4    0    0  0.18985181265E+03  0.27468027639E+03  0.24243612292E+03  0.42055403562E+03  0.81224738685E+02 0.  0.
         24    2    4    4    0    0 -0.54599151817E+03  0.56276858887E+02 -0.22656780340E+03  0.59907772691E+03  0.79292689391E+02 0.  0.
         13    1    3    3    0    0  0.34637006535E+03 -0.33507652754E+03 -0.13750633416E+04  0.14570681847E+04  0.00000000000E+00 0. -1.
        -13    1    3    3    0    0  0.97696401643E+01  0.41193922607E+01 -0.14116893031E+02  0.17655082282E+02  0.00000000000E+00 0.  1.
          4    1    6    6  502    0 -0.41356678126E+03  0.43545266072E+02 -0.13363514192E+03  0.43679746327E+03  0.00000000000E+00 0. -1.
          1    1    5    5  503    0  0.15395547981E+03  0.17838560348E+03  0.20110891664E+03  0.30978784618E+03  0.00000000000E+00 0. -1.
         -2    1    5    5    0  503  0.35896332842E+02  0.96294672915E+02  0.41327206278E+02  0.11076618944E+03  0.00000000000E+00 0.  1.
         -3    1    6    6    0  502 -0.13242473690E+03  0.12731592815E+02 -0.92932661475E+02  0.16228026364E+03  0.00000000000E+00 0.  1.
<mgrwt>
<rscale>  0 0.20822635E+04</rscale>
<asrwt>0</asrwt>
<pdfrwt beam="1">  1        1 0.29751284E+00 0.20822635E+04</pdfrwt>
<pdfrwt beam="2">  1       -1 0.86234085E-01 0.20822635E+04</pdfrwt>
<totfact> 0.40381289E+00</totfact>
</mgrwt>
</event>
<event>
12    1  0.1599266E-007  0.1698798E+04  0.7818608E-02  0.8762050E-01
         -2   -1    0    0    0  501 -0.00000000000E+00  0.00000000000E+00  0.69108735063E+03  0.69108735063E+03  0.00000000000E+00 0.  1.
          2   -1    0    0  501    0  0.00000000000E+00 -0.00000000000E+00 -0.10439759009E+04  0.10439759009E+04  0.00000000000E+00 0. -1.
         23    2    1    2    0    0 -0.79543628551E+02  0.16400486861E+03 -0.71164306341E+03  0.74020955870E+03  0.90827062711E+02 0.  0.
        254    2    1    2    0    0  0.79543628551E+02 -0.16400486861E+03  0.35875451309E+03  0.99485369287E+03  0.90983750405E+03 0.  0.
        -24    2    4    4    0    0 -0.14092250960E+03  0.29041715822E+03  0.34921345124E+03  0.48324369058E+03  0.85867051104E+02 0.  0.
         24    2    4    4    0    0  0.22046613815E+03 -0.45442202683E+03  0.95410618561E+01  0.51161000229E+03  0.80926300079E+02 0.  0.
         11    1    3    3    0    0 -0.34614974766E+02  0.10033997966E+03 -0.24354007618E+03  0.26566534720E+03  0.00000000000E+00 0. -1.
        -11    1    3    3    0    0 -0.44928653785E+02  0.63664888948E+02 -0.46810298723E+03  0.47454421150E+03  0.00000000000E+00 0.  1.
          4    1    6    6  502    0  0.10852390783E+03 -0.17236105951E+03 -0.28906951541E+02  0.20572162077E+03  0.00000000000E+00 0. -1.
          3    1    5    5  503    0 -0.85225550162E+01  0.38778074333E+02  0.90457987742E+02  0.98787755006E+02  0.00000000000E+00 0. -1.
         -4    1    5    5    0  503 -0.13239995458E+03  0.25163908388E+03  0.25875546349E+03  0.38445593557E+03  0.00000000000E+00 0.  1.
         -3    1    6    6    0  502  0.11194223032E+03 -0.28206096731E+03  0.38448013397E+02  0.30588838151E+03  0.00000000000E+00 0.  1.
<mgrwt>
<rscale>  0 0.16987979E+04</rscale>
<asrwt>0</asrwt>
<pdfrwt beam="1">  1        2 0.16061168E+00 0.16987979E+04</pdfrwt>
<pdfrwt beam="2">  1       -2 0.10632113E+00 0.16987979E+04</pdfrwt>
<totfact> 0.16031970E+01</totfact>
</mgrwt>
</event>
<event>
12    1  0.1599266E-007  0.1265292E+04  0.7818608E-02  0.9057551E-01
         -3   -1    0    0    0  501 -0.00000000000E+00  0.00000000000E+00  0.38796418836E+03  0.38796418836E+03  0.00000000000E+00 0.  1.
          3   -1    0    0  501    0  0.00000000000E+00 -0.00000000000E+00 -0.10316443379E+04  0.10316443379E+04  0.00000000000E+00 0. -1.
         23    2    1    2    0    0  0.26351563804E+03  0.10737454273E+03 -0.29535237162E+03  0.42032371284E+03  0.92028344719E+02 0.  0.
        254    2    1    2    0    0 -0.26351563804E+03 -0.10737454273E+03 -0.34832777791E+03  0.99928481342E+03  0.89233856442E+03 0.  0.
        -24    2    4    4    0    0  0.92715665396E+02 -0.40055133802E+03 -0.32547906745E+03  0.53042589718E+03  0.79858875828E+02 0.  0.
         24    2    4    4    0    0 -0.35623130343E+03  0.29317679529E+03 -0.22848710459E+02  0.46885891624E+03  0.80332091518E+02 0.  0.
         11    1    3    3    0    0  0.56188093603E+02 -0.12135255957E+02 -0.38037941494E+02  0.68929320996E+02  0.00000000000E+00 0.  1.
        -11    1    3    3    0    0  0.20732754443E+03  0.11950979869E+03 -0.25731443013E+03  0.35139439184E+03  0.00000000000E+00 0. -1.
          4    1    6    6  502    0 -0.36567961020E+01 -0.52101299436E+01 -0.10686546087E+01  0.64544275062E+01  0.00000000000E+00 0. -1.
          1    1    5    5  503    0  0.39604368980E+02 -0.90704591356E+02 -0.43448700047E+02  0.10809078810E+03  0.00000000000E+00 0. -1.
         -2    1    5    5    0  503  0.53111296417E+02 -0.30984674666E+03 -0.28203036741E+03  0.42233510908E+03  0.00000000000E+00 0.  1.
         -3    1    6    6    0  502 -0.35257450733E+03  0.29838692523E+03 -0.21780055850E+02  0.46240448873E+03  0.00000000000E+00 0.  1.
<mgrwt>
<rscale>  0 0.12652922E+04</rscale>
<asrwt>0</asrwt>
<pdfrwt beam="1">  1        3 0.15871451E+00 0.12652922E+04</pdfrwt>
<pdfrwt beam="2">  1       -3 0.59686798E-01 0.12652922E+04</pdfrwt>
<totfact> 0.19736830E+00</totfact>
</mgrwt>
</event>
<event>
12    1  0.1609103E-007  0.1785951E+04  0.7818608E-02  0.8713806E-01
         -2   -1    0    0    0  501 -0.00000000000E+00  0.00000000000E+00  0.55948327915E+03  0.55948327915E+03  0.00000000000E+00 0.  1.
          2   -1    0    0  501    0  0.00000000000E+00 -0.00000000000E+00 -0.14252537924E+04  0.14252537924E+04  0.00000000000E+00 0. -1.
         23    2    1    2    0    0  0.55479020184E+03  0.24885993416E+03 -0.61579329658E+03  0.87013908444E+03  0.90648812808E+02 0.  0.
        254    2    1    2    0    0 -0.55479020184E+03 -0.24885993416E+03 -0.24997721669E+03  0.11145979871E+04  0.90006479164E+03 0.  0.
        -24    2    4    4    0    0 -0.26409169985E+03  0.20007954904E+03  0.21316193608E+03  0.40264848900E+03  0.83135689269E+02 0.  0.
         24    2    4    4    0    0 -0.29069850199E+03 -0.44893948320E+03 -0.46313915277E+03  0.71194949812E+03  0.79510593060E+02 0.  0.
         11    1    3    3    0    0  0.41794458078E+03  0.16136462975E+03 -0.40427832857E+03  0.60345437548E+03  0.00000000000E+00 0. -1.
        -11    1    3    3    0    0  0.13684562106E+03  0.87495304413E+02 -0.21151496802E+03  0.26668470896E+03  0.00000000000E+00 0.  1.
          4    1    6    6  502    0 -0.27415111059E+03 -0.42741969532E+03 -0.41141892552E+03  0.65353803230E+03  0.00000000000E+00 0. -1.
          1    1    5    5  503    0 -0.25232162936E+03  0.17606403699E+03  0.21574391126E+03  0.37577943665E+03  0.00000000000E+00 0. -1.
         -2    1    5    5    0  503 -0.11770070484E+02  0.24015512057E+02 -0.25819751777E+01  0.26869052354E+02  0.00000000000E+00 0.  1.
         -3    1    6    6    0  502 -0.16547391402E+02 -0.21519787885E+02 -0.51720227255E+02  0.58411465827E+02  0.00000000000E+00 0.  1.
<mgrwt>
<rscale>  0 0.17859515E+04</rscale>
<asrwt>0</asrwt>
<pdfrwt beam="1">  1        2 0.21926981E+00 0.17859515E+04</pdfrwt>
<pdfrwt beam="2">  1       -2 0.86074351E-01 0.17859515E+04</pdfrwt>
<totfact> 0.15490251E+01</totfact>
</mgrwt>
</event>
<event>
12    1  0.1599266E-007  0.1343168E+04  0.7818608E-02  0.8996016E-01
          2   -1    0    0  501    0  0.00000000000E+00  0.00000000000E+00  0.12294263865E+04  0.12294263865E+04  0.00000000000E+00 0. -1.
         -2   -1    0    0    0  501 -0.00000000000E+00 -0.00000000000E+00 -0.36685828430E+03  0.36685828430E+03  0.00000000000E+00 0.  1.
         23    2    1    2    0    0 -0.26624512497E+03  0.22719943973E+03  0.13474044069E+03  0.38513817463E+03  0.87580678319E+02 0.  0.
        254    2    1    2    0    0  0.26624512497E+03 -0.22719943973E+03  0.72782766147E+03  0.12111464961E+04  0.90257225654E+03 0.  0.
        -24    2    4    4    0    0  0.39768983021E+03 -0.18161581767E+03 -0.21355829356E+02  0.44512667506E+03  0.80871373915E+02 0.  0.
         24    2    4    4    0    0 -0.13144470524E+03 -0.45583622064E+02  0.74918349083E+03  0.76601982106E+03  0.78453082760E+02 0.  0.
         11    1    3    3    0    0 -0.10407360700E+02 -0.22092916521E+01 -0.77235663716E+01  0.13147151929E+02  0.00000000000E+00 0. -1.
        -11    1    3    3    0    0 -0.25583776427E+03  0.22940873138E+03  0.14246400706E+03  0.37199102270E+03  0.00000000000E+00 0.  1.
          2    1    6    6  502    0  0.91108141246E+01 -0.22942779210E+01  0.97271452274E+02  0.97724132499E+02  0.00000000000E+00 0. -1.
          3    1    5    5  503    0  0.30635540116E+02  0.84809852667E+00 -0.17318362694E+02  0.35202006700E+02  0.00000000000E+00 0. -1.
         -4    1    5    5    0  503  0.36705429010E+03 -0.18246391619E+03 -0.40374666624E+01  0.40992466836E+03  0.00000000000E+00 0.  1.
         -1    1    6    6    0  502 -0.14055551937E+03 -0.43289344143E+02  0.65191203856E+03  0.66829568856E+03  0.00000000000E+00 0.  1.
<mgrwt>
<rscale>  0 0.13431683E+04</rscale>
<asrwt>0</asrwt>
<pdfrwt beam="1">  1        2 0.18914252E+00 0.13431683E+04</pdfrwt>
<pdfrwt beam="2">  1       -2 0.56439737E-01 0.13431683E+04</pdfrwt>
<totfact> 0.52361960E+01</totfact>
</mgrwt>
</event>
<event>
12    1  0.1599266E-007  0.1930194E+04  0.7818608E-02  0.8639971E-01
          2   -1    0    0  501    0  0.00000000000E+00  0.00000000000E+00  0.16797493421E+04  0.16797493421E+04  0.00000000000E+00 0. -1.
         -2   -1    0    0    0  501 -0.00000000000E+00 -0.00000000000E+00 -0.55449461225E+03  0.55449461225E+03  0.00000000000E+00 0.  1.
         23    2    1    2    0    0 -0.67943852252E+03 -0.30682445792E+03  0.44045828676E+03  0.87058041478E+03  0.90159871158E+02 0.  0.
        254    2    1    2    0    0  0.67943852252E+03  0.30682445792E+03  0.68479644306E+03  0.13636635395E+04  0.91370352235E+03 0.  0.
        -24    2    4    4    0    0  0.29000386024E+03  0.20026462313E+03 -0.18178705023E+03  0.40429133946E+03  0.78719738967E+02 0.  0.
         24    2    4    4    0    0  0.38943466229E+03  0.10655983479E+03  0.86658349329E+03  0.95937220007E+03  0.80085659378E+02 0.  0.
         11    1    3    3    0    0 -0.55831665310E+03 -0.24228964741E+03  0.31821904016E+03  0.68679335749E+03  0.00000000000E+00 0.  1.
        -11    1    3    3    0    0 -0.12112186942E+03 -0.64534810506E+02  0.12223924660E+03  0.18378705729E+03  0.00000000000E+00 0. -1.
          2    1    6    6  502    0  0.91752197955E+02  0.82687173226E+01  0.13485497643E+03  0.16331779506E+03  0.00000000000E+00 0. -1.
          1    1    5    5  503    0  0.25103866177E+02 -0.38952071648E+01 -0.46271594211E+01  0.25822225702E+02  0.00000000000E+00 0. -1.
         -2    1    5    5    0  503  0.26489999406E+03  0.20415983030E+03 -0.17715989081E+03  0.37846911376E+03  0.00000000000E+00 0.  1.
         -1    1    6    6    0  502  0.29768246433E+03  0.98291117463E+02  0.73172851686E+03  0.79605440500E+03  0.00000000000E+00 0.  1.
<mgrwt>
<rscale>  0 0.19301937E+04</rscale>
<asrwt>0</asrwt>
<pdfrwt beam="1">  1        2 0.25842297E+00 0.19301937E+04</pdfrwt>
<pdfrwt beam="2">  1       -2 0.85306864E-01 0.19301937E+04</pdfrwt>
<totfact> 0.11237500E+01</totfact>
</mgrwt>
</event>
<event>
12    1  0.1599266E-007  0.2675141E+04  0.7818608E-02  0.8343116E-01
          2   -1    0    0  501    0  0.00000000000E+00  0.00000000000E+00  0.13686005952E+04  0.13686005952E+04  0.00000000000E+00 0. -1.
         -2   -1    0    0    0  501 -0.00000000000E+00 -0.00000000000E+00 -0.13072434696E+04  0.13072434696E+04  0.00000000000E+00 0.  1.
         23    2    1    2    0    0 -0.12775281806E+03  0.11571372644E+04  0.26122101381E+03  0.11964944340E+04  0.89861455347E+02 0.  0.
        254    2    1    2    0    0  0.12775281806E+03 -0.11571372644E+04 -0.19986388817E+03  0.14793496308E+04  0.89064152450E+03 0.  0.
        -24    2    4    4    0    0 -0.55979720255E+02 -0.10784370108E+04 -0.43041291043E+03  0.11652119264E+04  0.79394235698E+02 0.  0.
         24    2    4    4    0    0  0.18373253832E+03 -0.78700253632E+02  0.23054902227E+03  0.31413770440E+03  0.74687817621E+02 0.  0.
         11    1    3    3    0    0 -0.11713706511E+03  0.89361489218E+03  0.16810613701E+03  0.91680332724E+03  0.00000000000E+00 0. -1.
        -11    1    3    3    0    0 -0.10615752946E+02  0.26352237226E+03  0.93114876796E+02  0.27969110671E+03  0.00000000000E+00 0.  1.
          2    1    6    6  502    0  0.14554645644E+03 -0.83266951808E+02  0.15044273476E+03  0.22527798979E+03  0.00000000000E+00 0. -1.
          1    1    5    5  503    0 -0.27093190802E+02 -0.83622491247E+03 -0.30162748269E+03  0.88937353431E+03  0.00000000000E+00 0. -1.
         -2    1    5    5    0  503 -0.28886529454E+02 -0.24221209834E+03 -0.12878542775E+03  0.27583839212E+03  0.00000000000E+00 0.  1.
         -1    1    6    6    0  502  0.38186081880E+02  0.45666981763E+01  0.80106287511E+02  0.88859714609E+02  0.00000000000E+00 0.  1.
<mgrwt>
<rscale>  0 0.26751405E+04</rscale>
<asrwt>0</asrwt>
<pdfrwt beam="1">  1        2 0.21055394E+00 0.26751405E+04</pdfrwt>
<pdfrwt beam="2">  1       -2 0.20111438E+00 0.26751405E+04</pdfrwt>
<totfact> 0.17343162E+00</totfact>
</mgrwt>
</event>
<event>
12    1  0.1599266E-007  0.1987011E+04  0.7818608E-02  0.8612718E-01
          1   -1    0    0  501    0  0.00000000000E+00  0.00000000000E+00  0.41248695506E+03  0.41248695506E+03  0.00000000000E+00 0. -1.
         -1   -1    0    0    0  501 -0.00000000000E+00 -0.00000000000E+00 -0.23929310890E+04  0.23929310890E+04  0.00000000000E+00 0.  1.
         23    2    1    2    0    0 -0.38118032486E+03 -0.21007800862E+03 -0.17125550731E+04  0.17693017280E+04  0.90291287663E+02 0.  0.
        254    2    1    2    0    0  0.38118032486E+03  0.21007800862E+03 -0.26788906084E+03  0.10361163160E+04  0.90129976237E+03 0.  0.
        -24    2    4    4    0    0  0.55254544642E+03  0.30043070229E+03 -0.43476304896E+03  0.76900964926E+03  0.82412709484E+02 0.  0.
         24    2    4    4    0    0 -0.17136512156E+03 -0.90352693669E+02  0.16687398812E+03  0.26710666676E+03  0.77262082397E+02 0.  0.
         11    1    3    3    0    0 -0.12656593388E+03 -0.81999634353E+02 -0.43691474473E+03  0.46220922731E+03  0.00000000000E+00 0. -1.
        -11    1    3    3    0    0 -0.25461439098E+03 -0.12807837427E+03 -0.12756403284E+04  0.13070925007E+04  0.00000000000E+00 0.  1.
          2    1    6    6  502    0 -0.16411139788E+03 -0.10133060126E+03  0.16498877492E+03  0.25381437610E+03  0.00000000000E+00 0. -1.
          3    1    5    5  503    0  0.54977301878E+03  0.28761560934E+03 -0.43064357159E+03  0.75526617604E+03  0.00000000000E+00 0. -1.
         -4    1    5    5    0  503  0.27724276349E+01  0.12815092958E+02 -0.41194773638E+01  0.13743473224E+02  0.00000000000E+00 0.  1.
         -1    1    6    6    0  502 -0.72537236815E+01  0.10977907588E+02  0.18852132019E+01  0.13292290663E+02  0.00000000000E+00 0.  1.
<mgrwt>
<rscale>  0 0.19870107E+04</rscale>
<asrwt>0</asrwt>
<pdfrwt beam="1">  1        1 0.63459530E-01 0.19870107E+04</pdfrwt>
<pdfrwt beam="2">  1       -1 0.36814325E+00 0.19870107E+04</pdfrwt>
<totfact> 0.62993815E-01</totfact>
</mgrwt>
</event>
<event>
12    1  0.1599266E-007  0.1575280E+04  0.7818608E-02  0.8835880E-01
         -1   -1    0    0    0  501 -0.00000000000E+00  0.00000000000E+00  0.29396613974E+03  0.29396613974E+03  0.00000000000E+00 0.  1.
          1   -1    0    0  501    0  0.00000000000E+00 -0.00000000000E+00 -0.21103689894E+04  0.21103689894E+04  0.00000000000E+00 0. -1.
         23    2    1    2    0    0  0.28291237138E+03 -0.23975356723E+03 -0.49388533136E+02  0.38519809969E+03  0.91745113851E+02 0.  0.
        254    2    1    2    0    0 -0.28291237138E+03  0.23975356723E+03 -0.17670143166E+04  0.20191370295E+04  0.90391015372E+03 0.  0.
        -24    2    4    4    0    0  0.22630342927E+03  0.29135353589E+03 -0.36551072921E+03  0.52496611174E+03  0.76754155184E+02 0.  0.
         24    2    4    4    0    0 -0.50921580065E+03 -0.51599968655E+02 -0.14015035873E+04  0.14941709177E+04  0.79819406463E+02 0.  0.
         11    1    3    3    0    0  0.18789515876E+03 -0.21145878704E+03 -0.36161366974E+02  0.28517898548E+03  0.00000000000E+00 0.  1.
        -11    1    3    3    0    0  0.95017212626E+02 -0.28294780195E+02 -0.13227166162E+02  0.10001911420E+03  0.00000000000E+00 0. -1.
          2    1    6    6  502    0 -0.20314605222E+03 -0.58572609601E+02 -0.54247057329E+03  0.58221421488E+03  0.00000000000E+00 0. -1.
          3    1    5    5  503    0  0.13719295615E+03  0.20267996553E+03 -0.19395782045E+03  0.31228306351E+03  0.00000000000E+00 0. -1.
         -4    1    5    5    0  503  0.89110473118E+02  0.88673570357E+02 -0.17155290876E+03  0.21268304823E+03  0.00000000000E+00 0.  1.
         -1    1    6    6    0  502 -0.30606974843E+03  0.69726409454E+01 -0.85903301406E+03  0.91195670285E+03  0.00000000000E+00 0.  1.
<mgrwt>
<rscale>  0 0.15752803E+04</rscale>
<asrwt>0</asrwt>
<pdfrwt beam="1">  1        1 0.32467214E+00 0.15752803E+04</pdfrwt>
<pdfrwt beam="2">  1       -1 0.45225561E-01 0.15752803E+04</pdfrwt>
<totfact> 0.11705388E+01</totfact>
</mgrwt>
</event>
<event>
12    1  0.1599266E-007  0.1871721E+04  0.7818608E-02  0.8669062E-01
          1   -1    0    0  501    0  0.00000000000E+00  0.00000000000E+00  0.13693638073E+04  0.13693638073E+04  0.00000000000E+00 0. -1.
         -1   -1    0    0    0  501 -0.00000000000E+00 -0.00000000000E+00 -0.63959222244E+03  0.63959222244E+03  0.00000000000E+00 0.  1.
         23    2    1    2    0    0 -0.24062749735E+03 -0.28454812149E+03 -0.37855052138E+03  0.53906765138E+03  0.91783493083E+02 0.  0.
        254    2    1    2    0    0  0.24062749735E+03  0.28454812149E+03  0.11083221062E+04  0.14698883783E+04  0.89068778351E+03 0.  0.
        -24    2    4    4    0    0 -0.48252231951E+02  0.74380472321E+02  0.10968947748E+04  0.11034506160E+04  0.81020875669E+02 0.  0.
         24    2    4    4    0    0  0.28887972930E+03  0.21016764917E+03  0.11427331361E+02  0.36643776234E+03  0.80771969173E+02 0.  0.
         11    1    3    3    0    0 -0.11822511789E+03 -0.10063807367E+03 -0.10491170526E+03  0.18738107235E+03  0.00000000000E+00 0. -1.
        -11    1    3    3    0    0 -0.12240237946E+03 -0.18391004782E+03 -0.27363881612E+03  0.35168657903E+03  0.00000000000E+00 0.  1.
          4    1    6    6  502    0  0.74854106022E+02  0.36798895130E+02 -0.28457490867E+02  0.88131292159E+02  0.00000000000E+00 0. -1.
          3    1    5    5  503    0 -0.14546449780E+02  0.77544935734E+02  0.91775043733E+03  0.92113553915E+03  0.00000000000E+00 0. -1.
         -4    1    5    5    0  503 -0.33705782172E+02 -0.31644634130E+01  0.17914433750E+03  0.18231507683E+03  0.00000000000E+00 0.  1.
         -3    1    6    6    0  502  0.21402562328E+03  0.17336875404E+03  0.39884822229E+02  0.27830647018E+03  0.00000000000E+00 0.  1.
<mgrwt>
<rscale>  0 0.18717205E+04</rscale>
<asrwt>0</asrwt>
<pdfrwt beam="1">  1        1 0.21067135E+00 0.18717205E+04</pdfrwt>
<pdfrwt beam="2">  1       -1 0.98398804E-01 0.18717205E+04</pdfrwt>
<totfact> 0.74889159E+00</totfact>
</mgrwt>
</event>
<event>
12    1  0.1599266E-007  0.2953666E+04  0.7818608E-02  0.8257087E-01
          2   -1    0    0  501    0  0.00000000000E+00  0.00000000000E+00  0.12393961919E+04  0.12393961919E+04  0.00000000000E+00 0. -1.
         -2   -1    0    0    0  501 -0.00000000000E+00 -0.00000000000E+00 -0.17597561362E+04  0.17597561362E+04  0.00000000000E+00 0.  1.
         23    2    1    2    0    0  0.24565960126E+03 -0.93038756185E+03  0.70946664359E+03  0.11988385419E+04  0.88889122918E+02 0.  0.
        254    2    1    2    0    0 -0.24565960126E+03  0.93038756185E+03 -0.12298265879E+04  0.18003137862E+04  0.89592780834E+03 0.  0.
        -24    2    4    4    0    0 -0.15593061471E+02  0.13476156589E+03 -0.88636043811E+03  0.90015876732E+03  0.79038958241E+02 0.  0.
         24    2    4    4    0    0 -0.23006653979E+03  0.79562599596E+03 -0.34346614977E+03  0.90015501893E+03  0.79741607042E+02 0.  0.
         11    1    3    3    0    0  0.15847594453E+02 -0.19005668144E+03  0.15524678990E+03  0.24591513614E+03  0.00000000000E+00 0.  1.
        -11    1    3    3    0    0  0.22981200681E+03 -0.74033088041E+03  0.55421985369E+03  0.95292340573E+03  0.00000000000E+00 0. -1.
          4    1    6    6  502    0 -0.82626840011E+02  0.16917233129E+03 -0.86230378534E+02  0.20708005830E+03  0.00000000000E+00 0. -1.
          1    1    5    5  503    0 -0.31184127720E+02  0.12899548252E+02 -0.21887344260E+03  0.22145977523E+03  0.00000000000E+00 0. -1.
         -2    1    5    5    0  503  0.15591066250E+02  0.12186201764E+03 -0.66748699551E+03  0.67869899209E+03  0.00000000000E+00 0.  1.
         -3    1    6    6    0  502 -0.14743969978E+03  0.62645366467E+03 -0.25723577124E+03  0.69307496063E+03  0.00000000000E+00 0.  1.
<mgrwt>
<rscale>  0 0.29536656E+04</rscale>
<asrwt>0</asrwt>
<pdfrwt beam="1">  1        2 0.19067634E+00 0.29536656E+04</pdfrwt>
<pdfrwt beam="2">  1       -2 0.27073171E+00 0.29536656E+04</pdfrwt>
<totfact> 0.73967780E-01</totfact>
</mgrwt>
</event>
<event>
12    1  0.1599266E-007  0.1930982E+04  0.7818608E-02  0.8639587E-01
         -2   -1    0    0    0  501 -0.00000000000E+00  0.00000000000E+00  0.20870367376E+04  0.20870367376E+04  0.00000000000E+00 0.  1.
          2   -1    0    0  501    0  0.00000000000E+00 -0.00000000000E+00 -0.44664889441E+03  0.44664889441E+03  0.00000000000E+00 0. -1.
         23    2    1    2    0    0  0.49860938571E+03  0.45506705456E+03  0.10999373980E+04  0.12937778867E+04  0.91113099975E+02 0.  0.
        254    2    1    2    0    0 -0.49860938571E+03 -0.45506705456E+03  0.54045044519E+03  0.12399077453E+04  0.88858718731E+03 0.  0.
        -24    2    4    4    0    0 -0.58484592086E+03 -0.61637755373E+03  0.25225552594E+03  0.88963437590E+03  0.76488120120E+02 0.  0.
         24    2    4    4    0    0  0.86236535150E+02  0.16131049917E+03  0.28819491925E+03  0.35027336939E+03  0.78595831246E+02 0.  0.
         13    1    3    3    0    0  0.36284541826E+03  0.35121250760E+03  0.88752314050E+03  0.10211289576E+04  0.00000000000E+00 0. -1.
        -13    1    3    3    0    0  0.13576396745E+03  0.10385454697E+03  0.21241425748E+03  0.27264892914E+03  0.00000000000E+00 0.  1.
          4    1    6    6  502    0 -0.74548648290E+01  0.43751367031E+02  0.10002109024E+03  0.10942566253E+03  0.00000000000E+00 0. -1.
          3    1    5    5  503    0 -0.22957378311E+03 -0.28404250071E+03  0.13363519940E+03  0.38889925510E+03  0.00000000000E+00 0. -1.
         -4    1    5    5    0  503 -0.35527213775E+03 -0.33233505302E+03  0.11862032654E+03  0.50073512079E+03  0.00000000000E+00 0.  1.
         -3    1    6    6    0  502  0.93691399979E+02  0.11755913214E+03  0.18817382900E+03  0.24084770686E+03  0.00000000000E+00 0.  1.
<mgrwt>
<rscale>  0 0.19309818E+04</rscale>
<asrwt>0</asrwt>
<pdfrwt beam="1">  1        2 0.68715216E-01 0.19309818E+04</pdfrwt>
<pdfrwt beam="2">  1       -2 0.32108257E+00 0.19309818E+04</pdfrwt>
<totfact> 0.15481161E+00</totfact>
</mgrwt>
</event>
<event>
12    1  0.1599266E-007  0.2632637E+04  0.7818608E-02  0.8357199E-01
          2   -1    0    0  501    0  0.00000000000E+00  0.00000000000E+00  0.72021273471E+03  0.72021273471E+03  0.00000000000E+00 0. -1.
         -2   -1    0    0    0  501 -0.00000000000E+00 -0.00000000000E+00 -0.24058083035E+04  0.24058083035E+04  0.00000000000E+00 0.  1.
         23    2    1    2    0    0  0.78213091375E+03  0.69974557158E+03 -0.13391564462E+04  0.17039500282E+04  0.93450950285E+02 0.  0.
        254    2    1    2    0    0 -0.78213091375E+03 -0.69974557158E+03 -0.34643912263E+03  0.14220710100E+04  0.89492639958E+03 0.  0.
        -24    2    4    4    0    0 -0.12833441959E+03 -0.54204767328E+03  0.14978148579E+03  0.58235970234E+03  0.80143159834E+02 0.  0.
         24    2    4    4    0    0 -0.65379649416E+03 -0.15769789830E+03 -0.49622060842E+03  0.83971130768E+03  0.81004352457E+02 0.  0.
         13    1    3    3    0    0  0.84656842375E+02  0.51201403390E+02 -0.16115352884E+03  0.18910003842E+03  0.00000000000E+00 0. -1.
        -13    1    3    3    0    0  0.69747407138E+03  0.64854416819E+03 -0.11780029174E+04  0.15148499898E+04  0.00000000000E+00 0.  1.
          4    1    6    6  502    0 -0.41809406680E+03 -0.13676608271E+03 -0.34289250162E+03  0.55774804145E+03  0.00000000000E+00 0. -1.
          3    1    5    5  503    0 -0.13944598209E+03 -0.48702063904E+03  0.13690937634E+03  0.52476514947E+03  0.00000000000E+00 0. -1.
         -4    1    5    5    0  503  0.11111562503E+02 -0.55027034241E+02  0.12872109448E+02  0.57594552869E+02  0.00000000000E+00 0.  1.
         -3    1    6    6    0  502 -0.23570242737E+03 -0.20931815594E+02 -0.15332810679E+03  0.28196326623E+03  0.00000000000E+00 0.  1.
<mgrwt>
<rscale>  0 0.26326365E+04</rscale>
<asrwt>0</asrwt>
<pdfrwt beam="1">  1        2 0.11080196E+00 0.26326365E+04</pdfrwt>
<pdfrwt beam="2">  1       -2 0.37012435E+00 0.26326365E+04</pdfrwt>
<totfact> 0.40401705E-01</totfact>
</mgrwt>
</event>
<event>
12    1  0.1599266E-007  0.1342388E+04  0.7818608E-02  0.8996610E-01
          2   -1    0    0  501    0  0.00000000000E+00  0.00000000000E+00  0.27274302870E+04  0.27274302870E+04  0.00000000000E+00 0. -1.
         -2   -1    0    0    0  501 -0.00000000000E+00 -0.00000000000E+00 -0.16517427778E+03  0.16517427778E+03  0.00000000000E+00 0.  1.
         23    2    1    2    0    0 -0.14438076552E+03  0.31122246596E+03  0.47550381394E+03  0.59330969792E+03  0.90594104670E+02 0.  0.
        254    2    1    2    0    0  0.14438076552E+03 -0.31122246596E+03  0.20867521953E+04  0.22992948669E+04  0.90250591774E+03 0.  0.
        -24    2    4    4    0    0 -0.26257648643E+03 -0.41466877605E+03  0.78625401605E+03  0.93021638310E+03  0.78806957672E+02 0.  0.
         24    2    4    4    0    0  0.40695725196E+03  0.10344631009E+03  0.13004981793E+04  0.13690784838E+04  0.82249842245E+02 0.  0.
         11    1    3    3    0    0 -0.28570648534E+02  0.12532874512E+03  0.23618539352E+03  0.26889982600E+03  0.00000000000E+00 0.  1.
        -11    1    3    3    0    0 -0.11581011699E+03  0.18589372084E+03  0.23931842042E+03  0.32440987192E+03  0.00000000000E+00 0. -1.
          2    1    6    6  502    0  0.28843141654E+03  0.94123044257E+02  0.82750808365E+03  0.88137475458E+03  0.00000000000E+00 0. -1.
          1    1    5    5  503    0 -0.18936229133E+03 -0.33327813027E+03  0.55683490365E+03  0.67601590175E+03  0.00000000000E+00 0. -1.
         -2    1    5    5    0  503 -0.73214195100E+02 -0.81390645774E+02  0.22941911240E+03  0.25420048135E+03  0.00000000000E+00 0.  1.
         -1    1    6    6    0  502  0.11852583542E+03  0.93232658313E+01  0.47299009561E+03  0.48770372922E+03  0.00000000000E+00 0.  1.
<mgrwt>
<rscale>  0 0.13423879E+04</rscale>
<asrwt>0</asrwt>
<pdfrwt beam="1">  1        2 0.41960463E+00 0.13423879E+04</pdfrwt>
<pdfrwt beam="2">  1       -2 0.25411429E-01 0.13423879E+04</pdfrwt>
<totfact> 0.35039545E+01</totfact>
</mgrwt>
</event>
<event>
12    1  0.1599266E-007  0.1625552E+04  0.7818608E-02  0.8805002E-01
         -2   -1    0    0    0  501 -0.00000000000E+00  0.00000000000E+00  0.57182620433E+03  0.57182620433E+03  0.00000000000E+00 0.  1.
          2   -1    0    0  501    0  0.00000000000E+00 -0.00000000000E+00 -0.11552548619E+04  0.11552548619E+04  0.00000000000E+00 0. -1.
         23    2    1    2    0    0  0.45658688454E+03 -0.47747795137E+02  0.13738689276E+03  0.48780966040E+03  0.91277989735E+02 0.  0.
        254    2    1    2    0    0 -0.45658688454E+03  0.47747795137E+02 -0.72081555032E+03  0.12392714058E+04  0.89747820287E+03 0.  0.
        -24    2    4    4    0    0 -0.12313146750E+03 -0.15396099225E+03 -0.80509139940E+03  0.83266209253E+03  0.79301031073E+02 0.  0.
         24    2    4    4    0    0 -0.33345541703E+03  0.20170878739E+03  0.84275849081E+02  0.40660931328E+03  0.79685411791E+02 0.  0.
         13    1    3    3    0    0  0.12853594081E+03  0.12876152284E+02  0.61717762553E+01  0.12932661829E+03  0.00000000000E+00 0.  1.
        -13    1    3    3    0    0  0.32805094373E+03 -0.60623947421E+02  0.13121511650E+03  0.35848304211E+03  0.00000000000E+00 0. -1.
          2    1    6    6  502    0 -0.26466448298E+03  0.18130103147E+03  0.93767561070E+02  0.33423002270E+03  0.00000000000E+00 0. -1.
          3    1    5    5  503    0 -0.52797522495E+02 -0.95817200696E+02 -0.29848204891E+03  0.31789943041E+03  0.00000000000E+00 0. -1.
         -4    1    5    5    0  503 -0.70333945009E+02 -0.58143791558E+02 -0.50660935049E+03  0.51476266212E+03  0.00000000000E+00 0.  1.
         -1    1    6    6    0  502 -0.68790934051E+02  0.20407755923E+02 -0.94917119891E+01  0.72379290588E+02  0.00000000000E+00 0.  1.
<mgrwt>
<rscale>  0 0.16255522E+04</rscale>
<asrwt>0</asrwt>
<pdfrwt beam="1">  1        2 0.17773152E+00 0.16255522E+04</pdfrwt>
<pdfrwt beam="2">  1       -2 0.87973263E-01 0.16255522E+04</pdfrwt>
<totfact> 0.21485891E+01</totfact>
</mgrwt>
</event>
<event>
12    1  0.1805613E-007  0.3104206E+04  0.7818608E-02  0.8214585E-01
         -1   -1    0    0    0  501 -0.00000000000E+00  0.00000000000E+00  0.13766879651E+04  0.13766879651E+04  0.00000000000E+00 0.  1.
          1   -1    0    0  501    0  0.00000000000E+00 -0.00000000000E+00 -0.17498691665E+04  0.17498691665E+04  0.00000000000E+00 0. -1.
         23    2    1    2    0    0  0.40251638948E+02  0.68704484735E+03 -0.14482429922E+04  0.16063541369E+04  0.96514413179E+02 0.  0.
        254    2    1    2    0    0 -0.40251638948E+02 -0.68704484735E+03  0.10750617909E+04  0.15202029947E+04  0.82559582977E+03 0.  0.
        -24    2    4    4    0    0 -0.17772769380E+02 -0.16100089278E+03 -0.11657812054E+03  0.21493554889E+03  0.79810232311E+02 0.  0.
         24    2    4    4    0    0 -0.22478869568E+02 -0.52604395457E+03  0.11916399114E+04  0.13052674458E+04  0.80559821479E+02 0.  0.
         13    1    3    3    0    0  0.68120224461E+02  0.58830944594E+03 -0.12450027097E+04  0.13786878241E+04  0.00000000000E+00 0. -1.
        -13    1    3    3    0    0 -0.27868585513E+02  0.98735401413E+02 -0.20324028249E+03  0.22766631278E+03  0.00000000000E+00 0.  1.
          4    1    6    6  502    0  0.12279465483E+02 -0.43419002670E+03  0.98040680690E+03  0.10723195753E+04  0.00000000000E+00 0. -1.
          3    1    5    5  503    0 -0.71581092285E+01 -0.15874189900E+03 -0.12419282945E+03  0.20167817907E+03  0.00000000000E+00 0. -1.
         -4    1    5    5    0  503 -0.10614660151E+02 -0.22589937825E+01  0.76147089054E+01  0.13257369828E+02  0.00000000000E+00 0.  1.
         -3    1    6    6    0  502 -0.34758335051E+02 -0.91853927869E+02  0.21123310451E+03  0.23294787048E+03  0.00000000000E+00 0.  1.
<mgrwt>
<rscale>  0 0.31042061E+04</rscale>
<asrwt>0</asrwt>
<pdfrwt beam="1">  1        1 0.26921064E+00 0.31042061E+04</pdfrwt>
<pdfrwt beam="2">  1       -1 0.21179815E+00 0.31042061E+04</pdfrwt>
<totfact> 0.46468936E-01</totfact>
</mgrwt>
</event>
<event>
12    1  0.1599266E-007  0.2840149E+04  0.7818608E-02  0.8290911E-01
          2   -1    0    0  501    0  0.00000000000E+00  0.00000000000E+00  0.25823187663E+04  0.25823187663E+04  0.00000000000E+00 0. -1.
         -2   -1    0    0    0  501 -0.00000000000E+00 -0.00000000000E+00 -0.78093028308E+03  0.78093028308E+03  0.00000000000E+00 0.  1.
         23    2    1    2    0    0  0.13382752345E+03  0.75383144506E+03  0.20173122833E+04  0.21595690813E+04  0.89543927908E+02 0.  0.
        254    2    1    2    0    0 -0.13382752345E+03 -0.75383144506E+03 -0.21592380015E+03  0.12036799680E+04  0.90335525919E+03 0.  0.
        -24    2    4    4    0    0  0.25478420579E+03 -0.44975959918E+03  0.19307033385E+03  0.55819870208E+03  0.84326440836E+02 0.  0.
         24    2    4    4    0    0 -0.38861172924E+03 -0.30407184588E+03 -0.40899413399E+03  0.64548126592E+03  0.76753497930E+02 0.  0.
         13    1    3    3    0    0  0.11351790841E+03  0.70850136323E+03  0.19307038946E+04  0.20597276582E+04  0.00000000000E+00 0. -1.
        -13    1    3    3    0    0  0.20309615044E+02  0.45330081824E+02  0.86608388729E+02  0.99841423165E+02  0.00000000000E+00 0.  1.
          4    1    6    6  502    0 -0.30373782933E+02 -0.44929741969E+02 -0.68822914889E+02  0.87623296085E+02  0.00000000000E+00 0. -1.
          1    1    5    5  503    0  0.14738720326E+03 -0.20309911086E+03  0.12666027331E+03  0.28109617812E+03  0.00000000000E+00 0. -1.
         -2    1    5    5    0  503  0.10739700253E+03 -0.24666048831E+03  0.66410060542E+02  0.27710252397E+03  0.00000000000E+00 0.  1.
         -3    1    6    6    0  502 -0.35823794631E+03 -0.25914210391E+03 -0.34017121911E+03  0.55785796983E+03  0.00000000000E+00 0.  1.
<mgrwt>
<rscale>  0 0.28401485E+04</rscale>
<asrwt>0</asrwt>
<pdfrwt beam="1">  1        2 0.39727981E+00 0.28401485E+04</pdfrwt>
<pdfrwt beam="2">  1       -2 0.12014312E+00 0.28401485E+04</pdfrwt>
<totfact> 0.14307833E+00</totfact>
</mgrwt>
</event>
<event>
12    1  0.1599266E-007  0.3088033E+04  0.7818608E-02  0.8219030E-01
          2   -1    0    0  501    0  0.00000000000E+00  0.00000000000E+00  0.14968358181E+04  0.14968358181E+04  0.00000000000E+00 0. -1.
         -2   -1    0    0    0  501 -0.00000000000E+00 -0.00000000000E+00 -0.15926841692E+04  0.15926841692E+04  0.00000000000E+00 0.  1.
         23    2    1    2    0    0 -0.93635336293E+03  0.70669272821E+03 -0.82017594750E+03  0.14342579617E+04  0.90747359918E+02 0.  0.
        254    2    1    2    0    0  0.93635336293E+03 -0.70669272821E+03  0.72432759632E+03  0.16552620257E+04  0.91600746418E+03 0.  0.
        -24    2    4    4    0    0  0.33890562257E+03 -0.11220457668E+03 -0.18753510213E+03  0.41100519143E+03  0.79428992277E+02 0.  0.
         24    2    4    4    0    0  0.59744774036E+03 -0.59448815153E+03  0.91186269845E+03  0.12442568342E+04  0.79508011739E+02 0.  0.
         11    1    3    3    0    0 -0.62901538721E+03  0.48098130437E+03 -0.60422353240E+03  0.99603687161E+03  0.00000000000E+00 0. -1.
        -11    1    3    3    0    0 -0.30733797572E+03  0.22571142383E+03 -0.21595241510E+03  0.43822109004E+03  0.00000000000E+00 0.  1.
          2    1    6    6  502    0  0.16737724584E+03 -0.20839245769E+03  0.25646215480E+03  0.37042596520E+03  0.00000000000E+00 0. -1.
          1    1    5    5  503    0  0.32158498560E+03 -0.10317433207E+03 -0.15179382706E+03  0.37027450857E+03  0.00000000000E+00 0. -1.
         -2    1    5    5    0  503  0.17320636966E+02 -0.90302446098E+01 -0.35741275068E+02  0.40730682859E+02  0.00000000000E+00 0.  1.
         -1    1    6    6    0  502  0.43007049452E+03 -0.38609569384E+03  0.65540054365E+03  0.87383086903E+03  0.00000000000E+00 0.  1.
<mgrwt>
<rscale>  0 0.30880328E+04</rscale>
<asrwt>0</asrwt>
<pdfrwt beam="1">  1        2 0.23028243E+00 0.30880328E+04</pdfrwt>
<pdfrwt beam="2">  1       -2 0.24502833E+00 0.30880328E+04</pdfrwt>
<totfact> 0.74701620E-01</totfact>
</mgrwt>
</event>
<event>
12    1  0.1599266E-007  0.2536084E+04  0.7818608E-02  0.8390242E-01
         -2   -1    0    0    0  501 -0.00000000000E+00  0.00000000000E+00  0.11040593795E+04  0.11040593795E+04  0.00000000000E+00 0. -1.
          2   -1    0    0  501    0  0.00000000000E+00 -0.00000000000E+00 -0.14563806765E+04  0.14563806765E+04  0.00000000000E+00 0.  1.
         23    2    1    2    0    0 -0.16250997584E+03  0.85166829624E+03  0.54095451777E+03  0.10260327970E+04  0.91450156540E+02 0.  0.
        254    2    1    2    0    0  0.16250997584E+03 -0.85166829624E+03 -0.89327581475E+03  0.15344072590E+04  0.89705940499E+03 0.  0.
        -24    2    4    4    0    0 -0.45165898332E+02 -0.29661526006E+03 -0.88337948183E+03  0.93636414134E+03  0.79987032693E+02 0.  0.
         24    2    4    4    0    0  0.20767587417E+03 -0.55505303618E+03 -0.98963329165E+01  0.59804311762E+03  0.79652315973E+02 0.  0.
         11    1    3    3    0    0 -0.16543367618E+03  0.79374622324E+03  0.52481782747E+03  0.96583389884E+03  0.00000000000E+00 0. -1.
        -11    1    3    3    0    0  0.29237003371E+01  0.57922072999E+02  0.16136690302E+02  0.60198898146E+02  0.00000000000E+00 0.  1.
          2    1    6    6  502    0  0.19070107697E+03 -0.52600352430E+03 -0.27283581162E+02  0.56017051166E+03  0.00000000000E+00 0. -1.
          1    1    5    5  503    0 -0.51318044006E+01 -0.24411142304E+03 -0.71228925294E+03  0.75297589745E+03  0.00000000000E+00 0. -1.
         -2    1    5    5    0  503 -0.40034093931E+02 -0.52503837016E+02 -0.17109022889E+03  0.18338824390E+03  0.00000000000E+00 0.  1.
         -1    1    6    6    0  502  0.16974797201E+02 -0.29049511883E+02  0.17387248245E+02  0.37872605960E+02  0.00000000000E+00 0.  1.
<mgrwt>
<rscale>  0 0.25360842E+04</rscale>
<asrwt>0</asrwt>
<pdfrwt beam="1">  1        2 0.22405857E+00 0.25360842E+04</pdfrwt>
<pdfrwt beam="2">  1       -2 0.16985529E+00 0.25360842E+04</pdfrwt>
<totfact> 0.25531410E+00</totfact>
</mgrwt>
</event>
<event>
12    1  0.1599266E-007  0.1997788E+04  0.7818608E-02  0.8607656E-01
          2   -1    0    0  501    0  0.00000000000E+00  0.00000000000E+00  0.10761182414E+04  0.10761182414E+04  0.00000000000E+00 0. -1.
         -2   -1    0    0    0  501 -0.00000000000E+00 -0.00000000000E+00 -0.92721121707E+03  0.92721121707E+03  0.00000000000E+00 0.  1.
         23    2    1    2    0    0 -0.31357871515E+02 -0.18359220338E+03  0.83411456501E+03  0.85924516147E+03  0.88688932197E+02 0.  0.
        254    2    1    2    0    0  0.31357871515E+02  0.18359220338E+03 -0.68520754066E+03  0.11440842970E+04  0.89706749563E+03 0.  0.
        -24    2    4    4    0    0  0.42847026570E+03  0.18937161052E+03 -0.52714698844E+03  0.70973898386E+03  0.79981887538E+02 0.  0.
         24    2    4    4    0    0 -0.39711239418E+03 -0.57794071431E+01 -0.15806055222E+03  0.43434531318E+03  0.77078257309E+02 0.  0.
         13    1    3    3    0    0 -0.62400440411E+02 -0.11454350502E+03  0.54317950585E+03  0.55862152221E+03  0.00000000000E+00 0. -1.
        -13    1    3    3    0    0  0.31042568896E+02 -0.69048698357E+02  0.29093505917E+03  0.30062363926E+03  0.00000000000E+00 0.  1.
          4    1    6    6  502    0 -0.40427508441E+02  0.22633326832E+02 -0.24545370676E+02  0.52432109855E+02  0.00000000000E+00 0. -1.
          1    1    5    5  503    0  0.24908590920E+03  0.81303125211E+02 -0.33697183293E+03  0.42685361017E+03  0.00000000000E+00 0. -1.
         -2    1    5    5    0  503  0.17938435650E+03  0.10806848531E+03 -0.19017515551E+03  0.28288537369E+03  0.00000000000E+00 0.  1.
         -3    1    6    6    0  502 -0.35668488574E+03 -0.28412733975E+02 -0.13351518154E+03  0.38191320332E+03  0.00000000000E+00 0.  1.
<mgrwt>
<rscale>  0 0.19977877E+04</rscale>
<asrwt>0</asrwt>
<pdfrwt beam="1">  1        2 0.16555665E+00 0.19977877E+04</pdfrwt>
<pdfrwt beam="2">  1       -2 0.14264788E+00 0.19977877E+04</pdfrwt>
<totfact> 0.71646447E+00</totfact>
</mgrwt>
</event>
<event>
12    1  0.1599266E-007  0.1229014E+04  0.7818608E-02  0.9087833E-01
         -1   -1    0    0    0  501 -0.00000000000E+00  0.00000000000E+00  0.84276976321E+03  0.84276976321E+03  0.00000000000E+00 0.  1.
          1   -1    0    0  501    0  0.00000000000E+00 -0.00000000000E+00 -0.44806875848E+03  0.44806875848E+03  0.00000000000E+00 0. -1.
         23    2    1    2    0    0 -0.16755819644E+03 -0.13568925663E+03  0.23493261516E+03  0.33207928926E+03  0.92714600404E+02 0.  0.
        254    2    1    2    0    0  0.16755819644E+03  0.13568925663E+03  0.15976838957E+03  0.95875923244E+03  0.92043794138E+03 0.  0.
        -24    2    4    4    0    0 -0.10807478957E+03 -0.24994237101E+02 -0.33635027681E+03  0.36362372469E+03  0.82376164143E+02 0.  0.
         24    2    4    4    0    0  0.27563298600E+03  0.16068349373E+03  0.49611866637E+03  0.59513550776E+03  0.79118982181E+02 0.  0.
         11    1    3    3    0    0 -0.38859320197E+02 -0.41809753060E+02  0.12409960640E+02  0.58413263393E+02  0.00000000000E+00 0. -1.
        -11    1    3    3    0    0 -0.12869887624E+03 -0.93879503567E+02  0.22252265452E+03  0.27366602586E+03  0.00000000000E+00 0.  1.
          4    1    6    6  502    0  0.22881886476E+03  0.15610603166E+03  0.45487466034E+03  0.53257687015E+03  0.00000000000E+00 0. -1.
          3    1    5    5  503    0 -0.10529706870E+03 -0.35764883153E+02 -0.33430287808E+03  0.35231380023E+03  0.00000000000E+00 0. -1.
         -4    1    5    5    0  503 -0.27777208623E+01  0.10770646051E+02 -0.20473987288E+01  0.11309924452E+02  0.00000000000E+00 0.  1.
         -3    1    6    6    0  502  0.46814121239E+02  0.45774620639E+01  0.41244006030E+02  0.62558637611E+02  0.00000000000E+00 0.  1.
<mgrwt>
<rscale>  0 0.12290139E+04</rscale>
<asrwt>0</asrwt>
<pdfrwt beam="1">  1        1 0.68933655E-01 0.12290139E+04</pdfrwt>
<pdfrwt beam="2">  1       -1 0.12965689E+00 0.12290139E+04</pdfrwt>
<totfact> 0.25978006E+01</totfact>
</mgrwt>
</event>
<event>
12    1  0.1599266E-007  0.2250872E+04  0.7818608E-02  0.8497547E-01
         -2   -1    0    0    0  501 -0.00000000000E+00  0.00000000000E+00  0.16434729126E+04  0.16434729126E+04  0.00000000000E+00 0.  1.
          2   -1    0    0  501    0  0.00000000000E+00 -0.00000000000E+00 -0.77068891767E+03  0.77068891767E+03  0.00000000000E+00 0. -1.
         23    2    1    2    0    0 -0.36407977387E+03  0.47844300694E+03  0.11428338898E+04  0.12966717667E+04  0.11758647143E+03 0.  0.
        254    2    1    2    0    0  0.36407977387E+03 -0.47844300694E+03 -0.27004989485E+03  0.11174900636E+04  0.90243853190E+03 0.  0.
        -24    2    4    4    0    0  0.37735525135E+03 -0.12765504697E+03  0.25581726798E+03  0.48009314865E+03  0.79712985448E+02 0.  0.
         24    2    4    4    0    0 -0.13275477480E+02 -0.35078795997E+03 -0.52586716283E+03  0.63739691492E+03  0.80685333518E+02 0.  0.
         13    1    3    3    0    0 -0.45631512476E+02  0.11294579235E+02  0.78532796704E+02  0.91527059437E+02  0.00000000000E+00 0. -1.
        -13    1    3    3    0    0 -0.31844826139E+03  0.46714842771E+03  0.10643010931E+04  0.12051447073E+04  0.00000000000E+00 0.  1.
          4    1    6    6  502    0  0.14428913333E+02 -0.29844956617E+03 -0.41064891676E+03  0.50785122814E+03  0.00000000000E+00 0. -1.
          3    1    5    5  503    0  0.19149032653E+03 -0.34359076735E+02  0.15622462208E+03  0.24950996744E+03  0.00000000000E+00 0. -1.
         -2    1    5    5    0  503  0.18586492482E+03 -0.93295970235E+02  0.99592645901E+02  0.23058318121E+03  0.00000000000E+00 0.  1.
         -3    1    6    6    0  502 -0.27704390813E+02 -0.52338393801E+02 -0.11521824608E+03  0.12954568679E+03  0.00000000000E+00 0.  1.
<mgrwt>
<rscale>  0 0.22508722E+04</rscale>
<asrwt>0</asrwt>
<pdfrwt beam="1">  1        2 0.11856753E+00 0.22508722E+04</pdfrwt>
<pdfrwt beam="2">  1       -2 0.25284199E+00 0.22508722E+04</pdfrwt>
<totfact> 0.20330793E+00</totfact>
</mgrwt>
</event>
<event>
12    1  0.1599266E-007  0.2294219E+04  0.7818608E-02  0.8480204E-01
         -2   -1    0    0    0  501 -0.00000000000E+00  0.00000000000E+00  0.99999623263E+03  0.99999623263E+03  0.00000000000E+00 0.  1.
          2   -1    0    0  501    0  0.00000000000E+00 -0.00000000000E+00 -0.13158656116E+04  0.13158656116E+04  0.00000000000E+00 0. -1.
         23    2    1    2    0    0  0.65740982098E+03 -0.71829985243E+03 -0.17073815837E+03  0.99280045450E+03  0.91426872450E+02 0.  0.
        254    2    1    2    0    0 -0.65740982098E+03  0.71829985243E+03 -0.14513122055E+03  0.13230613897E+04  0.88390385167E+03 0.  0.
        -24    2    4    4    0    0 -0.10547199267E+03  0.13572320857E+03  0.33471053874E+03  0.38459792295E+03  0.79619639578E+02 0.  0.
         24    2    4    4    0    0 -0.55193782831E+03  0.58257664386E+03 -0.47984175930E+03  0.93846346675E+03  0.80216283663E+02 0.  0.
         13    1    3    3    0    0  0.30424292309E+03 -0.31490816844E+03 -0.12140801735E+03  0.45439060012E+03  0.00000000000E+00 0. -1.
        -13    1    3    3    0    0  0.35316689789E+03 -0.40339168400E+03 -0.49330141018E+02  0.53840985438E+03  0.00000000000E+00 0.  1.
          2    1    6    6  502    0 -0.52462286198E+03  0.57415345832E+03 -0.46648968410E+03  0.90691453092E+03  0.00000000000E+00 0. -1.
          3    1    5    5  503    0 -0.11685281441E+03  0.13146582552E+03  0.32264160617E+03  0.36747169897E+03  0.00000000000E+00 0. -1.
         -4    1    5    5    0  503  0.11380821747E+02  0.42573830559E+01  0.12068932579E+02  0.17126223977E+02  0.00000000000E+00 0.  1.
         -1    1    6    6    0  502 -0.27314966324E+02  0.84231855395E+01 -0.13352075201E+02  0.31548935831E+02  0.00000000000E+00 0.  1.
<mgrwt>
<rscale>  0 0.22942194E+04</rscale>
<asrwt>0</asrwt>
<pdfrwt beam="1">  1        2 0.20244086E+00 0.22942194E+04</pdfrwt>
<pdfrwt beam="2">  1       -2 0.15384557E+00 0.22942194E+04</pdfrwt>
<totfact> 0.41117020E+00</totfact>
</mgrwt>
</event>
<event>
12    1  0.1599266E-007  0.2316025E+04  0.7818608E-02  0.8471629E-01
          1   -1    0    0  501    0  0.00000000000E+00  0.00000000000E+00  0.15496784987E+04  0.15496784987E+04  0.00000000000E+00 0. -1.
         -1   -1    0    0    0  501 -0.00000000000E+00 -0.00000000000E+00 -0.86533610766E+03  0.86533610766E+03  0.00000000000E+00 0.  1.
         23    2    1    2    0    0 -0.57757408247E+03  0.43980497825E+03  0.10096424950E+04  0.12467665785E+04  0.89602980389E+02 0.  0.
        254    2    1    2    0    0  0.57757408247E+03 -0.43980497825E+03 -0.32530010393E+03  0.11682480278E+04  0.85554839560E+03 0.  0.
        -24    2    4    4    0    0 -0.19625194997E+03 -0.23075958086E+03 -0.39719274060E+02  0.31357432293E+03  0.70614610705E+02 0.  0.
         24    2    4    4    0    0  0.77382603244E+03 -0.20904539740E+03 -0.28558082987E+03  0.85467370488E+03  0.80025150837E+02 0.  0.
         13    1    3    3    0    0 -0.47595186432E+03  0.36260441763E+03  0.88568980955E+03  0.10688585405E+04  0.00000000000E+00 0. -1.
        -13    1    3    3    0    0 -0.10162221815E+03  0.77200560620E+02  0.12395268540E+03  0.17790803805E+03  0.00000000000E+00 0.  1.
          2    1    6    6  502    0  0.46561343139E+03 -0.91054511487E+02 -0.14647711740E+03  0.49653029865E+03  0.00000000000E+00 0. -1.
          1    1    5    5  503    0 -0.12012479692E+03 -0.15480503191E+03 -0.58318363645E+02  0.20443971307E+03  0.00000000000E+00 0. -1.
         -2    1    5    5    0  503 -0.76127153045E+02 -0.75954548945E+02  0.18599089585E+02  0.10913460986E+03  0.00000000000E+00 0.  1.
         -1    1    6    6    0  502  0.30821260105E+03 -0.11799088591E+03 -0.13910371247E+03  0.35814340623E+03  0.00000000000E+00 0.  1.
<mgrwt>
<rscale>  0 0.23160248E+04</rscale>
<asrwt>0</asrwt>
<pdfrwt beam="1">  1        1 0.23841208E+00 0.23160248E+04</pdfrwt>
<pdfrwt beam="2">  1       -1 0.13312863E+00 0.23160248E+04</pdfrwt>
<totfact> 0.26043828E+00</totfact>
</mgrwt>
</event>
<event>
12    1  0.1599266E-007  0.1126554E+04  0.7818608E-02  0.9179690E-01
          1   -1    0    0  501    0  0.00000000000E+00  0.00000000000E+00  0.10546761439E+04  0.10546761439E+04  0.00000000000E+00 0. -1.
         -1   -1    0    0    0  501 -0.00000000000E+00 -0.00000000000E+00 -0.30083259439E+03  0.30083259439E+03  0.00000000000E+00 0.  1.
         23    2    1    2    0    0 -0.10556786529E+03  0.18529713895E+03  0.20549228506E+03  0.30990551641E+03  0.91294830069E+02 0.  0.
        254    2    1    2    0    0  0.10556786529E+03 -0.18529713895E+03  0.54835126443E+03  0.10456032219E+04  0.86435952270E+03 0.  0.
        -24    2    4    4    0    0 -0.30456648847E+03 -0.18261993119E+03  0.97264491429E+01  0.36386810053E+03  0.78705816825E+02 0.  0.
         24    2    4    4    0    0  0.41013435376E+03 -0.26772077553E+01  0.53862481528E+03  0.68173512133E+03  0.80179351698E+02 0.  0.
         13    1    3    3    0    0  0.64456889508E+01  0.73285405219E+02  0.65609640929E+02  0.98574451594E+02  0.00000000000E+00 0. -1.
        -13    1    3    3    0    0 -0.11201355424E+03  0.11201173373E+03  0.13988264413E+03  0.21133106482E+03  0.00000000000E+00 0.  1.
          2    1    6    6  502    0  0.19810902325E+03  0.37538823099E+02  0.24408987571E+03  0.31660103562E+03  0.00000000000E+00 0. -1.
          1    1    5    5  503    0 -0.40142900499E+02 -0.53442251190E+02  0.18816240267E+02  0.69437580390E+02  0.00000000000E+00 0. -1.
         -2    1    5    5    0  503 -0.26442358797E+03 -0.12917768000E+03 -0.90897911237E+01  0.29443052014E+03  0.00000000000E+00 0.  1.
         -1    1    6    6    0  502  0.21202533051E+03 -0.40216030854E+02  0.29453493958E+03  0.36513408571E+03  0.00000000000E+00 0.  1.
<mgrwt>
<rscale>  0 0.11265540E+04</rscale>
<asrwt>0</asrwt>
<pdfrwt beam="1">  1        1 0.16225787E+00 0.11265540E+04</pdfrwt>
<pdfrwt beam="2">  1       -1 0.46281938E-01 0.11265540E+04</pdfrwt>
<totfact> 0.63404703E+01</totfact>
</mgrwt>
</event>
<event>
12    1  0.1599266E-007  0.2225737E+04  0.7818608E-02  0.8507791E-01
          2   -1    0    0  501    0  0.00000000000E+00  0.00000000000E+00  0.17583021071E+04  0.17583021071E+04  0.00000000000E+00 0. -1.
         -2   -1    0    0    0  501 -0.00000000000E+00 -0.00000000000E+00 -0.70435951323E+03  0.70435951323E+03  0.00000000000E+00 0.  1.
         23    2    1    2    0    0 -0.31223018113E+03  0.80434944491E+03  0.71380106466E+02  0.87092941141E+03  0.94642508990E+02 0.  0.
        254    2    1    2    0    0  0.31223018113E+03 -0.80434944491E+03  0.98256248738E+03  0.15917322089E+04  0.90758838009E+03 0.  0.
        -24    2    4    4    0    0 -0.13450900807E+03 -0.37962124655E+03  0.86735103400E+03  0.95962846640E+03  0.79900020433E+02 0.  0.
         24    2    4    4    0    0  0.44673918920E+03 -0.42472819836E+03  0.11521145339E+03  0.63210374250E+03  0.79445054207E+02 0.  0.
         13    1    3    3    0    0 -0.11512867351E+03  0.38022548571E+03  0.69099810185E+02  0.40323791391E+03  0.00000000000E+00 0.  1.
        -13    1    3    3    0    0 -0.19710150762E+03  0.42412395921E+03  0.22802962813E+01  0.46769149750E+03  0.00000000000E+00 0. -1.
          2    1    6    6  502    0  0.43398300167E+03 -0.38626305083E+03  0.10690394617E+03  0.59073584950E+03  0.00000000000E+00 0. -1.
          3    1    5    5  503    0 -0.10088797022E+03 -0.35447804561E+03  0.78343229480E+03  0.86579398698E+03  0.00000000000E+00 0. -1.
         -4    1    5    5    0  503 -0.33621037850E+02 -0.25143200940E+02  0.83918739199E+02  0.93834479422E+02  0.00000000000E+00 0.  1.
         -1    1    6    6    0  502  0.12756187525E+02 -0.38465147533E+02  0.83075072191E+01  0.41367892998E+02  0.00000000000E+00 0.  1.
<mgrwt>
<rscale>  0 0.22257375E+04</rscale>
<asrwt>0</asrwt>
<pdfrwt beam="1">  1        2 0.27050801E+00 0.22257375E+04</pdfrwt>
<pdfrwt beam="2">  1       -2 0.10836300E+00 0.22257375E+04</pdfrwt>
<totfact> 0.56561265E+00</totfact>
</mgrwt>
</event>
<event>
12    1  0.1599266E-007  0.1487920E+04  0.7818608E-02  0.8892526E-01
          2   -1    0    0  501    0  0.00000000000E+00  0.00000000000E+00  0.19284534902E+04  0.19284534902E+04  0.00000000000E+00 0. -1.
         -2   -1    0    0    0  501 -0.00000000000E+00 -0.00000000000E+00 -0.28700548869E+03  0.28700548869E+03  0.00000000000E+00 0.  1.
         23    2    1    2    0    0  0.13693403710E+03 -0.10276357047E+03  0.11819373721E+04  0.11977433298E+04  0.91114491854E+02 0.  0.
        254    2    1    2    0    0 -0.13693403710E+03  0.10276357047E+03  0.45951062942E+03  0.10177156491E+04  0.89178688144E+03 0.  0.
        -24    2    4    4    0    0  0.25469592045E+03  0.28893164193E+03  0.41951460039E+03  0.57506875262E+03  0.79750013753E+02 0.  0.
         24    2    4    4    0    0 -0.39162995754E+03 -0.18616807146E+03  0.39996029030E+02  0.44264689646E+03  0.79397847138E+02 0.  0.
         13    1    3    3    0    0  0.13189624315E+03 -0.11845575350E+03  0.10660941106E+04  0.10807335643E+04  0.00000000000E+00 0. -1.
        -13    1    3    3    0    0  0.50377939504E+01  0.15692183027E+02  0.11584326150E+03  0.11700976545E+03  0.00000000000E+00 0.  1.
          4    1    6    6  502    0 -0.29854804298E+03 -0.15208371477E+03  0.62907940674E+02  0.34090731771E+03  0.00000000000E+00 0. -1.
          3    1    5    5  503    0  0.12340075486E+03  0.16369517196E+03  0.16860700484E+03  0.26542829108E+03  0.00000000000E+00 0. -1.
         -4    1    5    5    0  503  0.13129516558E+03  0.12523646997E+03  0.25090759555E+03  0.30964046154E+03  0.00000000000E+00 0.  1.
         -3    1    6    6    0  502 -0.93081914564E+02 -0.34084356694E+02 -0.22911911645E+02  0.10173957876E+03  0.00000000000E+00 0.  1.
<mgrwt>
<rscale>  0 0.14879203E+04</rscale>
<asrwt>0</asrwt>
<pdfrwt beam="1">  1        2 0.29668514E+00 0.14879203E+04</pdfrwt>
<pdfrwt beam="2">  1       -2 0.44154692E-01 0.14879203E+04</pdfrwt>
<totfact> 0.34450428E+01</totfact>
</mgrwt>
</event>
<event>
12    1  0.1599266E-007  0.1906126E+04  0.7818608E-02  0.8651813E-01
          1   -1    0    0  501    0  0.00000000000E+00  0.00000000000E+00  0.16414207073E+04  0.16414207073E+04  0.00000000000E+00 0. -1.
         -1   -1    0    0    0  501 -0.00000000000E+00 -0.00000000000E+00 -0.55337993533E+03  0.55337993533E+03  0.00000000000E+00 0.  1.
         23    2    1    2    0    0  0.40250430502E+03  0.22491664327E+03  0.10982973439E+04  0.11945664267E+04  0.90192462023E+02 0.  0.
        254    2    1    2    0    0 -0.40250430502E+03 -0.22491664327E+03 -0.10256571932E+02  0.10002342159E+04  0.88756187247E+03 0.  0.
        -24    2    4    4    0    0  0.11855380443E+03 -0.40339849127E+03  0.80214822960E+02  0.43627180079E+03  0.84340494652E+02 0.  0.
         24    2    4    4    0    0 -0.52105810945E+03  0.17848184800E+03 -0.90471394892E+02  0.56396241514E+03  0.80692062197E+02 0.  0.
         13    1    3    3    0    0  0.14040976958E+03  0.81225125241E+02  0.50187247138E+03  0.52743568508E+03  0.00000000000E+00 0. -1.
        -13    1    3    3    0    0  0.26209453544E+03  0.14369151803E+03  0.59642487256E+03  0.66713074166E+03  0.00000000000E+00 0.  1.
          4    1    6    6  502    0 -0.48623875107E+03  0.18448278473E+03 -0.93881760968E+02  0.52846552011E+03  0.00000000000E+00 0. -1.
          1    1    5    5  503    0  0.99854905561E+02 -0.39067080916E+03  0.63621327554E+02  0.40821851576E+03  0.00000000000E+00 0. -1.
         -4    1    5    5    0  503  0.18698898872E+02 -0.12727682110E+02  0.16593495405E+02  0.28053285025E+02  0.00000000000E+00 0.  1.
         -3    1    6    6    0  502 -0.34819358386E+02 -0.60009367268E+01  0.34103660759E+01  0.35496895030E+02  0.00000000000E+00 0.  1.
<mgrwt>
<rscale>  0 0.19061262E+04</rscale>
<asrwt>0</asrwt>
<pdfrwt beam="1">  1        1 0.25252626E+00 0.19061262E+04</pdfrwt>
<pdfrwt beam="2">  1       -1 0.85135375E-01 0.19061262E+04</pdfrwt>
<totfact> 0.66678310E+00</totfact>
</mgrwt>
</event>
<event>
12    1  0.1599266E-007  0.1640135E+04  0.7818608E-02  0.8796264E-01
          2   -1    0    0  501    0  0.00000000000E+00  0.00000000000E+00  0.14768926989E+04  0.14768926989E+04  0.00000000000E+00 0. -1.
         -2   -1    0    0    0  501 -0.00000000000E+00 -0.00000000000E+00 -0.45535509968E+03  0.45535509968E+03  0.00000000000E+00 0.  1.
         23    2    1    2    0    0 -0.48483501740E+03  0.10700259677E+03  0.34943191686E+02  0.50680518216E+03  0.95477307264E+02 0.  0.
        254    2    1    2    0    0  0.48483501740E+03 -0.10700259677E+03  0.98659440752E+03  0.14254426164E+04  0.90111241136E+03 0.  0.
        -24    2    4    4    0    0  0.64913764757E+03  0.67690692537E+02  0.97081453545E+03  0.11724652315E+04  0.78943913952E+02 0.  0.
         24    2    4    4    0    0 -0.16430263017E+03 -0.17469328931E+03  0.15779872074E+02  0.25297738488E+03  0.78964886425E+02 0.  0.
         11    1    3    3    0    0 -0.19058481165E+03  0.45310073251E+02  0.60622593874E+02  0.20506260521E+03  0.00000000000E+00 0. -1.
        -11    1    3    3    0    0 -0.29425020575E+03  0.61692523519E+02 -0.25679402188E+02  0.30174257694E+03  0.00000000000E+00 0.  1.
          4    1    6    6  502    0 -0.44803589140E+02 -0.10252440218E+03 -0.41367148290E+01  0.11196306110E+03  0.00000000000E+00 0. -1.
          3    1    5    5  503    0  0.12227206938E+03  0.40163114516E+01  0.23882518442E+03  0.26833571961E+03  0.00000000000E+00 0. -1.
         -4    1    5    5    0  503  0.52686557820E+03  0.63674381085E+02  0.73198935103E+03  0.90412951192E+03  0.00000000000E+00 0.  1.
         -3    1    6    6    0  502 -0.11949904103E+03 -0.72168887130E+02  0.19916586903E+02  0.14101432378E+03  0.00000000000E+00 0.  1.
<mgrwt>
<rscale>  0 0.16401349E+04</rscale>
<asrwt>0</asrwt>
<pdfrwt beam="1">  1        2 0.22721426E+00 0.16401349E+04</pdfrwt>
<pdfrwt beam="2">  1       -2 0.70054631E-01 0.16401349E+04</pdfrwt>
<totfact> 0.23206880E+01</totfact>
</mgrwt>
</event>
<event>
12    1  0.1599266E-007  0.3424444E+04  0.7818608E-02  0.8131933E-01
         -1   -1    0    0    0  501 -0.00000000000E+00  0.00000000000E+00  0.90725614620E+03  0.90725614620E+03  0.00000000000E+00 0.  1.
          1   -1    0    0  501    0  0.00000000000E+00 -0.00000000000E+00 -0.32313966312E+04  0.32313966312E+04  0.00000000000E+00 0. -1.
         23    2    1    2    0    0  0.92526641556E+03 -0.93632093465E+03  0.36210280826E+01  0.13195278665E+04  0.91246074523E+02 0.  0.
        254    2    1    2    0    0 -0.92526641556E+03  0.93632093465E+03 -0.23277615131E+04  0.28191249110E+04  0.89228738041E+03 0.  0.
        -24    2    4    4    0    0 -0.91853747837E+03  0.10438870852E+04 -0.18069036966E+04  0.22813692006E+04  0.79580870739E+02 0.  0.
         24    2    4    4    0    0 -0.67289371909E+01 -0.10756615050E+03 -0.52085781653E+03  0.53775571037E+03  0.79199644329E+02 0.  0.
         13    1    3    3    0    0  0.17901987262E+03 -0.20757222385E+03 -0.31321825798E+02  0.27589019497E+03  0.00000000000E+00 0.  1.
        -13    1    3    3    0    0  0.74624654294E+03 -0.72874871080E+03  0.34942853880E+02  0.10436376715E+04  0.00000000000E+00 0. -1.
          4    1    6    6  502    0  0.15398921668E+02 -0.98875827918E+01 -0.20530175873E+02  0.27502349052E+02  0.00000000000E+00 0. -1.
          3    1    5    5  503    0 -0.33491350836E+03  0.37980263930E+03 -0.72156111157E+03  0.88151434511E+03  0.00000000000E+00 0. -1.
         -4    1    5    5    0  503 -0.58362397001E+03  0.66408444585E+03 -0.10853425850E+04  0.13998548555E+04  0.00000000000E+00 0.  1.
         -3    1    6    6    0  502 -0.22127858858E+02 -0.97678567704E+02 -0.50032764066E+03  0.51025336131E+03  0.00000000000E+00 0.  1.
<mgrwt>
<rscale>  0 0.34244442E+04</rscale>
<asrwt>0</asrwt>
<pdfrwt beam="1">  1        1 0.49713795E+00 0.34244442E+04</pdfrwt>
<pdfrwt beam="2">  1       -1 0.13957787E+00 0.34244442E+04</pdfrwt>
<totfact> 0.13948522E-01</totfact>
</mgrwt>
</event>
<event>
12    1  0.1599266E-007  0.1929649E+04  0.7818608E-02  0.8640237E-01
         -2   -1    0    0    0  501 -0.00000000000E+00  0.00000000000E+00  0.79395035901E+03  0.79395035901E+03  0.00000000000E+00 0. -1.
          2   -1    0    0  501    0  0.00000000000E+00 -0.00000000000E+00 -0.11724739332E+04  0.11724739332E+04  0.00000000000E+00 0.  1.
         23    2    1    2    0    0 -0.55068257033E+03 -0.51401488862E+03 -0.12326978518E+03  0.76871679428E+03  0.90925633848E+02 0.  0.
        254    2    1    2    0    0  0.55068257033E+03  0.51401488862E+03 -0.25525378906E+03  0.11977074980E+04  0.89548096289E+03 0.  0.
        -24    2    4    4    0    0  0.11995309374E+03 -0.13380325150E+03  0.20968914500E+03  0.28833502792E+03  0.82918610600E+02 0.  0.
         24    2    4    4    0    0  0.43072947659E+03  0.64781814012E+03 -0.46494293406E+03  0.90937247006E+03  0.74767189979E+02 0.  0.
         13    1    3    3    0    0 -0.27820549202E+03 -0.21340658712E+03 -0.26586055996E+02  0.35163544416E+03  0.00000000000E+00 0.  1.
        -13    1    3    3    0    0 -0.27247707831E+03 -0.30060830149E+03 -0.96683729180E+02  0.41708135012E+03  0.00000000000E+00 0. -1.
          2    1    6    6  502    0  0.15284368815E+03  0.29665637132E+03 -0.19780496146E+03  0.38793427076E+03  0.00000000000E+00 0. -1.
          3    1    5    5  503    0  0.42186554386E+02 -0.27662113937E+02  0.13702191522E+02  0.52274735494E+02  0.00000000000E+00 0. -1.
         -4    1    5    5    0  503  0.77766539356E+02 -0.10614113757E+03  0.19598695348E+03  0.23606029242E+03  0.00000000000E+00 0.  1.
         -1    1    6    6    0  502  0.27788578844E+03  0.35116176880E+03 -0.26713797260E+03  0.52143819930E+03  0.00000000000E+00 0.  1.
<mgrwt>
<rscale>  0 0.19296488E+04</rscale>
<asrwt>0</asrwt>
<pdfrwt beam="1">  1        2 0.18038060E+00 0.19296488E+04</pdfrwt>
<pdfrwt beam="2">  1       -2 0.12214621E+00 0.19296488E+04</pdfrwt>
<totfact> 0.93413637E+00</totfact>
</mgrwt>
</event>
<event>
12    1  0.1599266E-007  0.2142989E+04  0.7818608E-02  0.8542539E-01
         -2   -1    0    0    0  501 -0.00000000000E+00  0.00000000000E+00  0.80386728854E+03  0.80386728854E+03  0.00000000000E+00 0.  1.
          2   -1    0    0  501    0  0.00000000000E+00 -0.00000000000E+00 -0.14282212919E+04  0.14282212919E+04  0.00000000000E+00 0. -1.
         23    2    1    2    0    0 -0.74696658588E+03 -0.25997324883E+03  0.14464590289E+03  0.80953231551E+03  0.94207017257E+02 0.  0.
        254    2    1    2    0    0  0.74696658588E+03  0.25997324883E+03 -0.76899990621E+03  0.14225562649E+04  0.89819836366E+03 0.  0.
        -24    2    4    4    0    0  0.72968907417E+03  0.53478655088E+03 -0.54239340448E+03  0.10579270111E+04  0.81093498697E+02 0.  0.
         24    2    4    4    0    0  0.17277511712E+02 -0.27481330205E+03 -0.22660650173E+03  0.36462925383E+03  0.76046845610E+02 0.  0.
         13    1    3    3    0    0 -0.47619992539E+03 -0.14402094376E+03  0.49317530142E+02  0.49994061643E+03  0.00000000000E+00 0. -1.
        -13    1    3    3    0    0 -0.27076666050E+03 -0.11595230506E+03  0.95328372752E+02  0.30959169908E+03  0.00000000000E+00 0.  1.
          2    1    6    6  502    0  0.35706019242E+02 -0.25167998973E+03 -0.21473449784E+03  0.33275913452E+03  0.00000000000E+00 0. -1.
          3    1    5    5  503    0  0.71771286362E+03  0.51762840129E+03 -0.54050658442E+03  0.10369176844E+04  0.00000000000E+00 0. -1.
         -2    1    5    5    0  503  0.11976210551E+02  0.17158149594E+02 -0.18868200680E+01  0.21009326658E+02  0.00000000000E+00 0.  1.
         -1    1    6    6    0  502 -0.18428507530E+02 -0.23133312318E+02 -0.11872003887E+02  0.31870119311E+02  0.00000000000E+00 0.  1.
<mgrwt>
<rscale>  0 0.21429889E+04</rscale>
<asrwt>0</asrwt>
<pdfrwt beam="1">  1        2 0.21972635E+00 0.21429889E+04</pdfrwt>
<pdfrwt beam="2">  1       -2 0.12367189E+00 0.21429889E+04</pdfrwt>
<totfact> 0.63071533E+00</totfact>
</mgrwt>
</event>
<event>
12    1  0.1599266E-007  0.1309967E+04  0.7818608E-02  0.9021698E-01
          1   -1    0    0  501    0  0.00000000000E+00  0.00000000000E+00  0.29020567146E+04  0.29020567146E+04  0.00000000000E+00 0. -1.
         -1   -1    0    0    0  501 -0.00000000000E+00 -0.00000000000E+00 -0.14782737730E+03  0.14782737730E+03  0.00000000000E+00 0.  1.
         23    2    1    2    0    0  0.29853692098E+03  0.14640707786E+03  0.79669380722E+03  0.86805102011E+03  0.90731612010E+02 0.  0.
        254    2    1    2    0    0 -0.29853692098E+03 -0.14640707786E+03  0.19575355301E+04  0.21818330718E+04  0.90437319507E+03 0.  0.
        -24    2    4    4    0    0 -0.41687626767E+03 -0.31780100451E+03  0.18672927665E+04  0.19412724973E+04  0.83506477233E+02 0.  0.
         24    2    4    4    0    0  0.11833934669E+03  0.17139392665E+03  0.90242763589E+02  0.24056057454E+03  0.79658989291E+02 0.  0.
         13    1    3    3    0    0  0.41225588635E+02  0.39228743401E+02  0.22413609353E+03  0.23124755543E+03  0.00000000000E+00 0. -1.
        -13    1    3    3    0    0  0.25731133235E+03  0.10717833446E+03  0.57255771369E+03  0.63680346468E+03  0.00000000000E+00 0.  1.
          2    1    6    6  502    0  0.78437002330E+02  0.16446760914E+03  0.69113512860E+02  0.19488108028E+03  0.00000000000E+00 0. -1.
          3    1    5    5  503    0 -0.35765029979E+03 -0.23421225003E+03  0.14611394667E+04  0.15223986522E+04  0.00000000000E+00 0. -1.
         -4    1    5    5    0  503 -0.59225967878E+02 -0.83588754475E+02  0.40615329981E+03  0.41887384508E+03  0.00000000000E+00 0.  1.
         -1    1    6    6    0  502  0.39902344357E+02  0.69263175111E+01  0.21129250729E+02  0.45679494260E+02  0.00000000000E+00 0.  1.
<mgrwt>
<rscale>  0 0.13099671E+04</rscale>
<asrwt>0</asrwt>
<pdfrwt beam="1">  1        1 0.44647022E+00 0.13099671E+04</pdfrwt>
<pdfrwt beam="2">  1       -1 0.22742676E-01 0.13099671E+04</pdfrwt>
<totfact> 0.11480865E+01</totfact>
</mgrwt>
</event>
<event>
12    1  0.1599266E-007  0.1163591E+04  0.7818608E-02  0.9145336E-01
          1   -1    0    0  501    0  0.00000000000E+00  0.00000000000E+00  0.16872596520E+04  0.16872596520E+04  0.00000000000E+00 0. -1.
         -1   -1    0    0    0  501 -0.00000000000E+00 -0.00000000000E+00 -0.20061289805E+03  0.20061289805E+03  0.00000000000E+00 0.  1.
         23    2    1    2    0    0  0.18064628179E+03  0.66340285836E+02  0.58971561079E+03  0.62687218572E+03  0.90388732507E+02 0.  0.
        254    2    1    2    0    0 -0.18064628179E+03 -0.66340285836E+02  0.89693114315E+03  0.12610003643E+04  0.86521808271E+03 0.  0.
        -24    2    4    4    0    0  0.22210717481E+03  0.26502780132E+03  0.41513551674E+03  0.54653639040E+03  0.82420848055E+02 0.  0.
         24    2    4    4    0    0 -0.40275345660E+03 -0.33136808715E+03  0.48179562641E+03  0.71446397394E+03  0.79476967979E+02 0.  0.
         11    1    3    3    0    0  0.17660205020E+03  0.65944654274E+02  0.46048290539E+03  0.49757561005E+03  0.00000000000E+00 0. -1.
        -11    1    3    3    0    0  0.40442315951E+01  0.39563156276E+00  0.12923270541E+03  0.12929657567E+03  0.00000000000E+00 0.  1.
          2    1    6    6  502    0 -0.29914177382E+02 -0.21677396080E+02  0.67043478111E+02  0.76547994529E+02  0.00000000000E+00 0. -1.
          3    1    5    5  503    0 -0.82747011384E+00 -0.35051826960E+00  0.23672559489E+02  0.23689610436E+02  0.00000000000E+00 0. -1.
         -4    1    5    5    0  503  0.22293464492E+03  0.26537831959E+03  0.39146295725E+03  0.52284677996E+03  0.00000000000E+00 0.  1.
         -1    1    6    6    0  502 -0.37283927922E+03 -0.30969069107E+03  0.41475214830E+03  0.63791597941E+03  0.00000000000E+00 0.  1.
<mgrwt>
<rscale>  0 0.11635911E+04</rscale>
<asrwt>0</asrwt>
<pdfrwt beam="1">  1        1 0.25957840E+00 0.11635911E+04</pdfrwt>
<pdfrwt beam="2">  1       -1 0.30863524E-01 0.11635911E+04</pdfrwt>
<totfact> 0.46848584E+01</totfact>
</mgrwt>
</event>
<event>
12    1  0.1599266E-007  0.1101342E+04  0.7818608E-02  0.9203885E-01
          1   -1    0    0  501    0  0.00000000000E+00  0.00000000000E+00  0.32966283658E+03  0.32966283658E+03  0.00000000000E+00 0. -1.
         -1   -1    0    0    0  501 -0.00000000000E+00 -0.00000000000E+00 -0.91984497084E+03  0.91984497084E+03  0.00000000000E+00 0.  1.
         23    2    1    2    0    0 -0.49202806562E+02 -0.12672259742E+03  0.64809372253E+01  0.16256982864E+03  0.88923640084E+02 0.  0.
        254    2    1    2    0    0  0.49202806562E+02  0.12672259742E+03 -0.59666307149E+03  0.10869379788E+04  0.89830274182E+03 0.  0.
        -24    2    4    4    0    0 -0.83298568847E+02  0.45390488814E+03 -0.54968292215E+03  0.72198238657E+03  0.78351468157E+02 0.  0.
         24    2    4    4    0    0  0.13250137541E+03 -0.32718229072E+03 -0.46980149333E+02  0.36495559221E+03  0.79878557870E+02 0.  0.
         11    1    3    3    0    0 -0.15500375860E+02 -0.52747858594E+02  0.46460324500E+02  0.71980275011E+02  0.00000000000E+00 0. -1.
        -11    1    3    3    0    0 -0.33702430702E+02 -0.73974738822E+02 -0.39979387275E+02  0.90589553625E+02  0.00000000000E+00 0.  1.
          4    1    6    6  502    0  0.98086218282E+02 -0.27898501207E+03 -0.65523109206E+02  0.30289737704E+03  0.00000000000E+00 0. -1.
          3    1    5    5  503    0 -0.53677915207E+02  0.29001921469E+03 -0.29106828462E+03  0.41438292651E+03  0.00000000000E+00 0. -1.
         -4    1    5    5    0  503 -0.29620653641E+02  0.16388567345E+03 -0.25861463753E+03  0.30759946006E+03  0.00000000000E+00 0.  1.
         -3    1    6    6    0  502  0.34415157128E+02 -0.48197278651E+02  0.18542959873E+02  0.62058215172E+02  0.00000000000E+00 0.  1.
<mgrwt>
<rscale>  0 0.11013423E+04</rscale>
<asrwt>0</asrwt>
<pdfrwt beam="1">  1        1 0.50717360E-01 0.11013423E+04</pdfrwt>
<pdfrwt beam="2">  1       -1 0.14151461E+00 0.11013423E+04</pdfrwt>
<totfact> 0.31466457E+01</totfact>
</mgrwt>
</event>
<event>
12    1  0.1599266E-007  0.1452297E+04  0.7818608E-02  0.8916810E-01
         -2   -1    0    0    0  501 -0.00000000000E+00  0.00000000000E+00  0.37839185370E+03  0.37839185370E+03  0.00000000000E+00 0. -1.
          2   -1    0    0  501    0  0.00000000000E+00 -0.00000000000E+00 -0.13935061879E+04  0.13935061879E+04  0.00000000000E+00 0.  1.
         23    2    1    2    0    0  0.36748373217E+03  0.21160581085E+03 -0.42451648188E+03  0.60641533521E+03  0.87772448956E+02 0.  0.
        254    2    1    2    0    0 -0.36748373217E+03 -0.21160581085E+03 -0.59059785232E+03  0.11654827064E+04  0.91089121365E+03 0.  0.
        -24    2    4    4    0    0 -0.85808475261E+02  0.32431030090E+03 -0.49913025476E+02  0.34991493468E+03  0.86074884279E+02 0.  0.
         24    2    4    4    0    0 -0.28167525691E+03 -0.53591611175E+03 -0.54068482684E+03  0.81556777170E+03  0.79143408240E+02 0.  0.
         11    1    3    3    0    0  0.19664941308E+03  0.97819121851E+02 -0.16066750289E+03  0.27212794555E+03  0.00000000000E+00 0. -1.
        -11    1    3    3    0    0  0.17083431909E+03  0.11378668900E+03 -0.26384897899E+03  0.33428738966E+03  0.00000000000E+00 0.  1.
          2    1    6    6  502    0 -0.20414028918E+03 -0.31782398274E+03 -0.36156844297E+03  0.52289299156E+03  0.00000000000E+00 0. -1.
          3    1    5    5  503    0 -0.90474133226E+02  0.24512067549E+03 -0.64806982037E+02  0.26920189312E+03  0.00000000000E+00 0. -1.
         -4    1    5    5    0  503  0.46656579648E+01  0.79189625405E+02  0.14893956561E+02  0.80713041561E+02  0.00000000000E+00 0.  1.
         -1    1    6    6    0  502 -0.77534967724E+02 -0.21809212902E+03 -0.17911638387E+03  0.29267478014E+03  0.00000000000E+00 0.  1.
<mgrwt>
<rscale>  0 0.14522966E+04</rscale>
<asrwt>0</asrwt>
<pdfrwt beam="1">  1        2 0.21438557E+00 0.14522966E+04</pdfrwt>
<pdfrwt beam="2">  1       -2 0.58214131E-01 0.14522966E+04</pdfrwt>
<totfact> 0.39061166E+01</totfact>
</mgrwt>
</event>
<event>
12    1  0.1599266E-007  0.1317105E+04  0.7818608E-02  0.9016110E-01
         -1   -1    0    0    0  501 -0.00000000000E+00  0.00000000000E+00  0.10467287694E+04  0.10467287694E+04  0.00000000000E+00 0.  1.
          1   -1    0    0  501    0  0.00000000000E+00 -0.00000000000E+00 -0.41433016521E+03  0.41433016521E+03  0.00000000000E+00 0. -1.
         23    2    1    2    0    0  0.13825374941E+03 -0.26912517832E+03 -0.12780597220E+02  0.31653426574E+03  0.92131085385E+02 0.  0.
        254    2    1    2    0    0 -0.13825374941E+03  0.26912517832E+03  0.64517920146E+03  0.11445246689E+04  0.89562160252E+03 0.  0.
        -24    2    4    4    0    0 -0.34663425042E+03  0.50249426074E+03  0.35684384499E+03  0.71162819388E+03  0.80133457266E+02 0.  0.
         24    2    4    4    0    0  0.20838050101E+03 -0.23336908242E+03  0.28833535646E+03  0.43289647502E+03  0.79865627578E+02 0.  0.
         11    1    3    3    0    0  0.11922481938E+03 -0.15672445456E+03 -0.36028574209E+02  0.20018783772E+03  0.00000000000E+00 0. -1.
        -11    1    3    3    0    0  0.19028930038E+02 -0.11240072376E+03  0.23247976989E+02  0.11634642802E+03  0.00000000000E+00 0.  1.
          4    1    6    6  502    0  0.89494733592E+01  0.56504236433E+01  0.16592544825E+02  0.19680774998E+02  0.00000000000E+00 0. -1.
          3    1    5    5  503    0 -0.15428404196E+03  0.15815636739E+03  0.13929677943E+03  0.26119072516E+03  0.00000000000E+00 0. -1.
         -2    1    5    5    0  503 -0.19235020846E+03  0.34433789335E+03  0.21754706557E+03  0.45043746873E+03  0.00000000000E+00 0.  1.
         -3    1    6    6    0  502  0.19943102765E+03 -0.23901950607E+03  0.27174281164E+03  0.41321570002E+03  0.00000000000E+00 0.  1.
<mgrwt>
<rscale>  0 0.13171049E+04</rscale>
<asrwt>0</asrwt>
<pdfrwt beam="1">  1        1 0.63743103E-01 0.13171049E+04</pdfrwt>
<pdfrwt beam="2">  1       -1 0.16103519E+00 0.13171049E+04</pdfrwt>
<totfact> 0.16119680E+01</totfact>
</mgrwt>
</event>
<event>
12    1  0.1599266E-007  0.1412470E+04  0.7818608E-02  0.8944841E-01
         -2   -1    0    0    0  501 -0.00000000000E+00  0.00000000000E+00  0.35972437029E+03  0.35972437029E+03  0.00000000000E+00 0.  1.
          2   -1    0    0  501    0  0.00000000000E+00 -0.00000000000E+00 -0.13865277826E+04  0.13865277826E+04  0.00000000000E+00 0. -1.
         23    2    1    2    0    0 -0.21088158114E+03 -0.86553398607E+02 -0.71235306532E+03  0.75350802987E+03  0.91459987599E+02 0.  0.
        254    2    1    2    0    0  0.21088158114E+03  0.86553398607E+02 -0.31445034697E+03  0.99274412301E+03  0.91361881602E+03 0.  0.
        -24    2    4    4    0    0 -0.85513525146E+00  0.26675578729E+03 -0.55231517789E+03  0.61818848774E+03  0.77107518041E+02 0.  0.
         24    2    4    4    0    0  0.21173671639E+03 -0.18020238869E+03  0.23786483092E+03  0.37455563527E+03  0.80043164388E+02 0.  0.
         13    1    3    3    0    0 -0.11046376465E+02  0.48564128953E+01 -0.54571210657E+01  0.13243388900E+02  0.00000000000E+00 0.  1.
        -13    1    3    3    0    0 -0.19983520467E+03 -0.91409811503E+02 -0.70689594425E+03  0.74026464097E+03  0.00000000000E+00 0. -1.
          2    1    6    6  502    0  0.19087933387E+03 -0.17546792801E+03  0.18789398119E+03  0.32020003439E+03  0.00000000000E+00 0. -1.
          1    1    5    5  503    0 -0.31293586388E+02  0.88941309015E+02 -0.23445010926E+03  0.25269883010E+03  0.00000000000E+00 0. -1.
         -2    1    5    5    0  503  0.30438451137E+02  0.17781447828E+03 -0.31786506862E+03  0.36548965764E+03  0.00000000000E+00 0.  1.
         -1    1    6    6    0  502  0.20857382525E+02 -0.47344606743E+01  0.49970849728E+02  0.54355600873E+02  0.00000000000E+00 0.  1.
<mgrwt>
<rscale>  0 0.14124699E+04</rscale>
<asrwt>0</asrwt>
<pdfrwt beam="1">  1        2 0.21331197E+00 0.14124699E+04</pdfrwt>
<pdfrwt beam="2">  1       -2 0.55342211E-01 0.14124699E+04</pdfrwt>
<totfact> 0.43955569E+01</totfact>
</mgrwt>
</event>
<event>
12    1  0.1599266E-007  0.1250814E+04  0.7818608E-02  0.9069506E-01
         -2   -1    0    0    0  501 -0.00000000000E+00  0.00000000000E+00  0.11049868369E+04  0.11049868369E+04  0.00000000000E+00 0. -1.
          2   -1    0    0  501    0  0.00000000000E+00 -0.00000000000E+00 -0.35397156893E+03  0.35397156893E+03  0.00000000000E+00 0.  1.
         23    2    1    2    0    0  0.20511270053E+03  0.66242480640E+02  0.41166991192E+03  0.47355848515E+03  0.91248212698E+02 0.  0.
        254    2    1    2    0    0 -0.20511270053E+03 -0.66242480640E+02  0.33934535605E+03  0.98539992067E+03  0.89966574172E+03 0.  0.
        -24    2    4    4    0    0  0.32927255918E+03  0.18957329607E+02 -0.37271954577E+01  0.33974244174E+03  0.81432402393E+02 0.  0.
         24    2    4    4    0    0 -0.53438525971E+03 -0.85199810246E+02  0.34307255151E+03  0.64565747893E+03  0.79675536070E+02 0.  0.
         13    1    3    3    0    0  0.15954456145E+03  0.52158058029E+02  0.38234983241E+03  0.41757193925E+03  0.00000000000E+00 0. -1.
        -13    1    3    3    0    0  0.45568139084E+02  0.14084422611E+02  0.29320079511E+02  0.55986545905E+02  0.00000000000E+00 0.  1.
          4    1    6    6  502    0 -0.89858482812E+02 -0.45356607768E+02  0.62271744381E+02  0.11836189822E+03  0.00000000000E+00 0. -1.
          1    1    5    5  503    0  0.70681886701E+02  0.16323967336E+01  0.32928280483E+02  0.77992727111E+02  0.00000000000E+00 0. -1.
         -2    1    5    5    0  503  0.25859067248E+03  0.17324932873E+02 -0.36655475941E+02  0.26174971463E+03  0.00000000000E+00 0.  1.
         -3    1    6    6    0  502 -0.44452677689E+03 -0.39843202478E+02  0.28080080712E+03  0.52729558072E+03  0.00000000000E+00 0.  1.
<mgrwt>
<rscale>  0 0.12508140E+04</rscale>
<asrwt>0</asrwt>
<pdfrwt beam="1">  1        2 0.54457165E-01 0.12508140E+04</pdfrwt>
<pdfrwt beam="2">  1       -2 0.16999797E+00 0.12508140E+04</pdfrwt>
<totfact> 0.19103497E+01</totfact>
</mgrwt>
</event>
<event>
12    1  0.1599266E-007  0.1750732E+04  0.7818608E-02  0.8732948E-01
         -2   -1    0    0    0  501 -0.00000000000E+00  0.00000000000E+00  0.54557995931E+03  0.54557995931E+03  0.00000000000E+00 0.  1.
          2   -1    0    0  501    0  0.00000000000E+00 -0.00000000000E+00 -0.14044970955E+04  0.14044970955E+04  0.00000000000E+00 0. -1.
         23    2    1    2    0    0  0.33763539333E+03  0.50689236517E+03 -0.58984509889E+02  0.61882730048E+03  0.92360850591E+02 0.  0.
        254    2    1    2    0    0 -0.33763539333E+03 -0.50689236517E+03 -0.79993262626E+03  0.13312497543E+04  0.87258018143E+03 0.  0.
        -24    2    4    4    0    0 -0.15698060602E+03 -0.73360221228E+03 -0.65069393342E+03  0.99624625987E+03  0.79302577486E+02 0.  0.
         24    2    4    4    0    0 -0.18065478731E+03  0.22670984711E+03 -0.14923869284E+03  0.33500349441E+03  0.76952237612E+02 0.  0.
         11    1    3    3    0    0  0.21903802442E+03  0.33244564857E+03  0.58001541650E+01  0.39816002710E+03  0.00000000000E+00 0.  1.
        -11    1    3    3    0    0  0.11859736890E+03  0.17444671660E+03 -0.64784664054E+02  0.22066727338E+03  0.00000000000E+00 0. -1.
          2    1    6    6  502    0 -0.10144022157E+03  0.75607438515E+02 -0.41163476383E+02  0.13304523704E+03  0.00000000000E+00 0. -1.
          3    1    5    5  503    0 -0.39653380312E+02 -0.37120800340E+03 -0.33220844687E+03  0.49973015172E+03  0.00000000000E+00 0. -1.
         -4    1    5    5    0  503 -0.11732722570E+03 -0.36239420888E+03 -0.31848548655E+03  0.49651610816E+03  0.00000000000E+00 0.  1.
         -1    1    6    6    0  502 -0.79214565738E+02  0.15110240859E+03 -0.10807521646E+03  0.20195825737E+03  0.00000000000E+00 0.  1.
<mgrwt>
<rscale>  0 0.17507318E+04</rscale>
<asrwt>0</asrwt>
<pdfrwt beam="1">  1        2 0.21607647E+00 0.17507318E+04</pdfrwt>
<pdfrwt beam="2">  1       -2 0.83935379E-01 0.17507318E+04</pdfrwt>
<totfact> 0.16906293E+01</totfact>
</mgrwt>
</event>
<event>
12    1  0.1599266E-007  0.1429777E+04  0.7818608E-02  0.8932542E-01
         -1   -1    0    0    0  501 -0.00000000000E+00  0.00000000000E+00  0.27869292475E+03  0.27869292475E+03  0.00000000000E+00 0.  1.
          1   -1    0    0  501    0  0.00000000000E+00 -0.00000000000E+00 -0.18337953653E+04  0.18337953653E+04  0.00000000000E+00 0. -1.
         23    2    1    2    0    0  0.14636530315E+03 -0.36399329862E+03 -0.20970751516E+03  0.45043184735E+03  0.70694298123E+02 0.  0.
        254    2    1    2    0    0 -0.14636530315E+03  0.36399329862E+03 -0.13453949254E+04  0.16620564427E+04  0.89354920963E+03 0.  0.
        -24    2    4    4    0    0 -0.46145636309E+03  0.34034988729E+03 -0.11351092384E+04  0.12743859057E+04  0.82501107220E+02 0.  0.
         24    2    4    4    0    0  0.31509105994E+03  0.23643411335E+02 -0.21028568699E+03  0.38767053701E+03  0.78911267640E+02 0.  0.
         13    1    3    3    0    0 -0.15870790288E+01 -0.13335919896E+02 -0.22704646821E+02  0.26379282905E+02  0.00000000000E+00 0.  1.
        -13    1    3    3    0    0  0.14795238218E+03 -0.35065737873E+03 -0.18700286834E+03  0.42405256445E+03  0.00000000000E+00 0. -1.
          4    1    6    6  502    0  0.27443571805E+03  0.24266355822E+02 -0.14652086661E+03  0.31204516295E+03  0.00000000000E+00 0. -1.
          1    1    5    5  503    0 -0.25861685285E+03  0.20544873448E+03 -0.73755577767E+03  0.80813389006E+03  0.00000000000E+00 0. -1.
         -4    1    5    5    0  503 -0.20283951024E+03  0.13490115281E+03 -0.39755346078E+03  0.46625201567E+03  0.00000000000E+00 0.  1.
         -3    1    6    6    0  502  0.40655341885E+02 -0.62294448630E+00 -0.63764820381E+02  0.75625374061E+02  0.00000000000E+00 0.  1.
<mgrwt>
<rscale>  0 0.14297773E+04</rscale>
<asrwt>0</asrwt>
<pdfrwt beam="1">  1        1 0.28212237E+00 0.14297773E+04</pdfrwt>
<pdfrwt beam="2">  1       -1 0.42875834E-01 0.14297773E+04</pdfrwt>
<totfact> 0.20151556E+01</totfact>
</mgrwt>
</event>
<event>
12    1  0.1653588E-007  0.1626682E+04  0.7818608E-02  0.8804322E-01
         -1   -1    0    0    0  501 -0.00000000000E+00  0.00000000000E+00  0.51573602475E+03  0.51573602475E+03  0.00000000000E+00 0.  1.
          1   -1    0    0  501    0  0.00000000000E+00 -0.00000000000E+00 -0.12826793897E+04  0.12826793897E+04  0.00000000000E+00 0. -1.
         23    2    1    2    0    0 -0.33375923608E+03  0.18951770403E+02  0.23085881701E+03  0.41361438178E+03  0.77631605372E+02 0.  0.
        254    2    1    2    0    0  0.33375923608E+03 -0.18951770403E+02 -0.99780218193E+03  0.13848010326E+04  0.90017237709E+03 0.  0.
        -24    2    4    4    0    0  0.32909305699E+03  0.18886521025E+03 -0.27406807998E+02  0.38895492529E+03  0.81009215407E+02 0.  0.
         24    2    4    4    0    0  0.46661790937E+01 -0.20781698065E+03 -0.97039537393E+03  0.99584610735E+03  0.82659646188E+02 0.  0.
         13    1    3    3    0    0 -0.25845942006E+02 -0.13184392869E+02  0.29070106918E+01  0.29159760710E+02  0.00000000000E+00 0. -1.
        -13    1    3    3    0    0 -0.30791329408E+03  0.32136163272E+02  0.22795180631E+03  0.38445462107E+03  0.00000000000E+00 0.  1.
          2    1    6    6  502    0  0.31672086151E+02 -0.83719202043E+02 -0.52993788272E+03  0.53744412303E+03  0.00000000000E+00 0. -1.
          3    1    5    5  503    0  0.18195592686E+03  0.10770556330E+03  0.25046640691E+02  0.21292200895E+03  0.00000000000E+00 0. -1.
         -4    1    5    5    0  503  0.14713713013E+03  0.81159646952E+02 -0.52453448689E+02  0.17603291634E+03  0.00000000000E+00 0.  1.
         -1    1    6    6    0  502 -0.27005907058E+02 -0.12409777861E+03 -0.44045749121E+03  0.45840198433E+03  0.00000000000E+00 0.  1.
<mgrwt>
<rscale>  0 0.16266825E+04</rscale>
<asrwt>0</asrwt>
<pdfrwt beam="1">  1        1 0.19733529E+00 0.16266825E+04</pdfrwt>
<pdfrwt beam="2">  1       -1 0.79344004E-01 0.16266825E+04</pdfrwt>
<totfact> 0.14148098E+01</totfact>
</mgrwt>
</event>
<event>
12    1  0.1599266E-007  0.2344176E+04  0.7818608E-02  0.8460704E-01
          1   -1    0    0  501    0  0.00000000000E+00  0.00000000000E+00  0.23328254679E+04  0.23328254679E+04  0.00000000000E+00 0. -1.
         -1   -1    0    0    0  501 -0.00000000000E+00 -0.00000000000E+00 -0.58889531475E+03  0.58889531475E+03  0.00000000000E+00 0.  1.
         23    2    1    2    0    0 -0.70163338604E+02 -0.69062272588E+03 -0.13188060420E+03  0.71116420756E+03  0.80494675378E+02 0.  0.
        254    2    1    2    0    0  0.70163338604E+02  0.69062272588E+03  0.18758107573E+04  0.22105565751E+04  0.94128196133E+03 0.  0.
        -24    2    4    4    0    0  0.28975242305E+03  0.62871425870E+03  0.62329188870E+03  0.93491684629E+03  0.79615609077E+02 0.  0.
         24    2    4    4    0    0 -0.21958908445E+03  0.61908467181E+02  0.12525188686E+04  0.12756397288E+04  0.80007356327E+02 0.  0.
         11    1    3    3    0    0  0.17804166646E+02 -0.13399340528E+03 -0.30744294901E+02  0.13862334824E+03  0.00000000000E+00 0. -1.
        -11    1    3    3    0    0 -0.87967505250E+02 -0.55662932060E+03 -0.10113630930E+03  0.57254085932E+03  0.00000000000E+00 0.  1.
          2    1    6    6  502    0 -0.13494917601E+03  0.44030737241E+02  0.96513393340E+03  0.97551704000E+03  0.00000000000E+00 0. -1.
          3    1    5    5  503    0  0.11196671119E+03  0.26579182976E+03  0.20913196709E+03  0.35625555552E+03  0.00000000000E+00 0. -1.
         -4    1    5    5    0  503  0.17778571186E+03  0.36292242894E+03  0.41415992161E+03  0.57866129078E+03  0.00000000000E+00 0.  1.
         -1    1    6    6    0  502 -0.84639908435E+02  0.17877729940E+02  0.28738493523E+03  0.30012268879E+03  0.00000000000E+00 0.  1.
<mgrwt>
<rscale>  0 0.23441758E+04</rscale>
<asrwt>0</asrwt>
<pdfrwt beam="1">  1        1 0.35889622E+00 0.23441758E+04</pdfrwt>
<pdfrwt beam="2">  1       -1 0.90599281E-01 0.23441758E+04</pdfrwt>
<totfact> 0.18936278E+00</totfact>
</mgrwt>
</event>
<event>
12    1  0.1599266E-007  0.1236187E+04  0.7818608E-02  0.9081759E-01
          2   -1    0    0  501    0  0.00000000000E+00  0.00000000000E+00  0.24560886162E+04  0.24560886162E+04  0.00000000000E+00 0. -1.
         -2   -1    0    0    0  501 -0.00000000000E+00 -0.00000000000E+00 -0.15554791170E+03  0.15554791170E+03  0.00000000000E+00 0.  1.
         23    2    1    2    0    0  0.60394127187E+02 -0.11431240006E+03  0.10683561628E+04  0.10800447356E+04  0.91634955339E+02 0.  0.
        254    2    1    2    0    0 -0.60394127187E+02  0.11431240006E+03  0.12321845418E+04  0.15315917923E+04  0.90043317236E+03 0.  0.
        -24    2    4    4    0    0 -0.41667749630E+03  0.27701450306E+03  0.73278885723E+03  0.89175911694E+03  0.88868681350E+02 0.  0.
         24    2    4    4    0    0  0.35628336911E+03 -0.16270210300E+03  0.49939568452E+03  0.63983267536E+03  0.81117133307E+02 0.  0.
         13    1    3    3    0    0  0.56574016476E+02 -0.95901576415E+02  0.10404746963E+04  0.10464154649E+04  0.00000000000E+00 0. -1.
        -13    1    3    3    0    0  0.38201107107E+01 -0.18410823642E+02  0.27881466507E+02  0.33629270697E+02  0.00000000000E+00 0.  1.
          4    1    6    6  502    0  0.35431662485E+03 -0.15726718550E+03  0.46701440960E+03  0.60693961565E+03  0.00000000000E+00 0. -1.
          3    1    5    5  503    0 -0.32633183976E+03  0.19649060707E+03  0.49159560509E+03  0.62190615630E+03  0.00000000000E+00 0. -1.
         -4    1    5    5    0  503 -0.90345656541E+02  0.80523895992E+02  0.24119325215E+03  0.26985296064E+03  0.00000000000E+00 0.  1.
         -3    1    6    6    0  502  0.19667442643E+01 -0.54349175025E+01  0.32381274927E+02  0.32893059711E+02  0.00000000000E+00 0.  1.
<mgrwt>
<rscale>  0 0.12361868E+04</rscale>
<asrwt>0</asrwt>
<pdfrwt beam="1">  1        2 0.37785976E+00 0.12361868E+04</pdfrwt>
<pdfrwt beam="2">  1       -2 0.23930450E-01 0.12361868E+04</pdfrwt>
<totfact> 0.56710923E+01</totfact>
</mgrwt>
</event>
<event>
12    1  0.1599266E-007  0.1305143E+04  0.7818608E-02  0.9025497E-01
         -2   -1    0    0    0  501 -0.00000000000E+00  0.00000000000E+00  0.23661708997E+03  0.23661708997E+03  0.00000000000E+00 0.  1.
          2   -1    0    0  501    0  0.00000000000E+00 -0.00000000000E+00 -0.17997405590E+04  0.17997405590E+04  0.00000000000E+00 0. -1.
         23    2    1    2    0    0 -0.41124529127E+01  0.31731575694E+03 -0.52820175340E+03  0.62291390744E+03  0.91205492758E+02 0.  0.
        254    2    1    2    0    0  0.41124529127E+01 -0.31731575694E+03 -0.10349217157E+04  0.14134437416E+04  0.90887515707E+03 0.  0.
        -24    2    4    4    0    0  0.68586008791E+02 -0.54855501610E+03 -0.10174007356E+04  0.11605298108E+04  0.78157140099E+02 0.  0.
         24    2    4    4    0    0 -0.64473555878E+02  0.23123925916E+03 -0.17520980054E+02  0.25291393080E+03  0.77653314595E+02 0.  0.
         11    1    3    3    0    0 -0.40533449796E+02  0.21114982305E+03 -0.30612621134E+03  0.37408617402E+03  0.00000000000E+00 0. -1.
        -11    1    3    3    0    0  0.36420996883E+02  0.10616593389E+03 -0.22207554207E+03  0.24882773342E+03  0.00000000000E+00 0.  1.
          4    1    6    6  502    0 -0.70447076394E+02  0.18779208405E+03  0.10542381436E+02  0.20084770153E+03  0.00000000000E+00 0. -1.
          1    1    5    5  503    0  0.72650285248E+02 -0.52973647195E+03 -0.10025170297E+04  0.11361950486E+04  0.00000000000E+00 0. -1.
         -2    1    5    5    0  503 -0.40642764564E+01 -0.18818544155E+02 -0.14883705925E+02  0.24334762158E+02  0.00000000000E+00 0.  1.
         -3    1    6    6    0  502  0.59735205153E+01  0.43447175113E+02 -0.28063361490E+02  0.52066229273E+02  0.00000000000E+00 0.  1.
<mgrwt>
<rscale>  0 0.13051427E+04</rscale>
<asrwt>0</asrwt>
<pdfrwt beam="1">  1        2 0.27688316E+00 0.13051427E+04</pdfrwt>
<pdfrwt beam="2">  1       -2 0.36402630E-01 0.13051427E+04</pdfrwt>
<totfact> 0.60083844E+01</totfact>
</mgrwt>
</event>
<event>
12    1  0.1599266E-007  0.2141833E+04  0.7818608E-02  0.8543036E-01
          2   -1    0    0  501    0  0.00000000000E+00  0.00000000000E+00  0.10945198474E+04  0.10945198474E+04  0.00000000000E+00 0. -1.
         -2   -1    0    0    0  501 -0.00000000000E+00 -0.00000000000E+00 -0.10478218278E+04  0.10478218278E+04  0.00000000000E+00 0.  1.
         23    2    1    2    0    0 -0.30262123505E+03 -0.79230510342E+03 -0.22447634656E+03  0.88202383056E+03  0.90826310588E+02 0.  0.
        254    2    1    2    0    0  0.30262123505E+03  0.79230510342E+03  0.27117436617E+03  0.12603178446E+04  0.89192967424E+03 0.  0.
        -24    2    4    4    0    0 -0.23085306018E+03 -0.31118678067E+02  0.46759957193E+02  0.25073999080E+03  0.80140762842E+02 0.  0.
         24    2    4    4    0    0  0.53347429523E+03  0.82342378149E+03  0.22441440898E+03  0.10095778538E+04  0.79145867760E+02 0.  0.
         13    1    3    3    0    0  0.99071569417E+00 -0.49263463054E+02 -0.30633690338E+01  0.49368558208E+02  0.00000000000E+00 0. -1.
        -13    1    3    3    0    0 -0.30361195074E+03 -0.74304164037E+03 -0.22141297753E+03  0.83265527235E+03  0.00000000000E+00 0.  1.
          2    1    6    6  502    0  0.46713492772E+03  0.70343281608E+03  0.16615275119E+03  0.86060415068E+03  0.00000000000E+00 0. -1.
          1    1    5    5  503    0 -0.13404688845E+03  0.10009818242E+02  0.55000105997E+02  0.14523696645E+03  0.00000000000E+00 0. -1.
         -2    1    5    5    0  503 -0.96806171735E+02 -0.41128496309E+02 -0.82401488035E+01  0.10550302435E+03  0.00000000000E+00 0.  1.
         -1    1    6    6    0  502  0.66339367514E+02  0.11999096541E+03  0.58261657789E+02  0.14897370315E+03  0.00000000000E+00 0.  1.
<mgrwt>
<rscale>  0 0.21418327E+04</rscale>
<asrwt>0</asrwt>
<pdfrwt beam="1">  1        2 0.16838767E+00 0.21418327E+04</pdfrwt>
<pdfrwt beam="2">  1       -2 0.16120336E+00 0.21418327E+04</pdfrwt>
<totfact> 0.49764469E+00</totfact>
</mgrwt>
</event>
<event>
12    1  0.1599266E-007  0.2030999E+04  0.7818608E-02  0.8592263E-01
          2   -1    0    0  501    0  0.00000000000E+00  0.00000000000E+00  0.13409436770E+04  0.13409436770E+04  0.00000000000E+00 0. -1.
         -2   -1    0    0    0  501 -0.00000000000E+00 -0.00000000000E+00 -0.76903993509E+03  0.76903993509E+03  0.00000000000E+00 0.  1.
         23    2    1    2    0    0 -0.16588661510E+02  0.79571051548E+03  0.62544436643E+02  0.80361935621E+03  0.91988341491E+02 0.  0.
        254    2    1    2    0    0  0.16588661510E+02 -0.79571051548E+03  0.50935930525E+03  0.13063642559E+04  0.90205889997E+03 0.  0.
        -24    2    4    4    0    0 -0.38383416331E+03 -0.13422170385E+03  0.25674210874E+03  0.48892248430E+03  0.88230122681E+02 0.  0.
         24    2    4    4    0    0  0.40042282482E+03 -0.66148881163E+03  0.25261719651E+03  0.81744177157E+03  0.80558769722E+02 0.  0.
         13    1    3    3    0    0 -0.50415802421E+02  0.53707413836E+03  0.24208975111E+02  0.53997820114E+03  0.00000000000E+00 0.  1.
        -13    1    3    3    0    0  0.33827140911E+02  0.25863637713E+03  0.38335461532E+02  0.26364115507E+03  0.00000000000E+00 0. -1.
          4    1    6    6  502    0  0.53694692025E+02 -0.44733286641E+02  0.23587715000E+02  0.73760200544E+02  0.00000000000E+00 0. -1.
          3    1    5    5  503    0 -0.15248229989E+03 -0.94115315320E+02  0.87011231727E+02  0.19919713553E+03  0.00000000000E+00 0. -1.
         -4    1    5    5    0  503 -0.23135186341E+03 -0.40106388531E+02  0.16973087701E+03  0.28972534877E+03  0.00000000000E+00 0.  1.
         -3    1    6    6    0  502  0.34672813279E+03 -0.61675552499E+03  0.22902948151E+03  0.74368157102E+03  0.00000000000E+00 0.  1.
<mgrwt>
<rscale>  0 0.20309990E+04</rscale>
<asrwt>0</asrwt>
<pdfrwt beam="1">  1        2 0.20629903E+00 0.20309990E+04</pdfrwt>
<pdfrwt beam="2">  1       -2 0.11831384E+00 0.20309990E+04</pdfrwt>
<totfact> 0.79779404E+00</totfact>
</mgrwt>
</event>
<event>
12    1  0.1599266E-007  0.1949717E+04  0.7818608E-02  0.8630497E-01
         -1   -1    0    0    0  501 -0.00000000000E+00  0.00000000000E+00  0.78735243669E+03  0.78735243669E+03  0.00000000000E+00 0.  1.
          1   -1    0    0  501    0  0.00000000000E+00 -0.00000000000E+00 -0.12070183246E+04  0.12070183246E+04  0.00000000000E+00 0. -1.
         23    2    1    2    0    0  0.46557902102E+03  0.60649459349E+03 -0.16940149026E+03  0.78830435477E+03  0.90151950071E+02 0.  0.
        254    2    1    2    0    0 -0.46557902102E+03 -0.60649459349E+03 -0.25026439768E+03  0.12060664066E+04  0.89853458006E+03 0.  0.
        -24    2    4    4    0    0 -0.29181707109E+03 -0.63510303552E+03  0.18698825927E+03  0.72854046721E+03  0.85402192880E+02 0.  0.
         24    2    4    4    0    0 -0.17376194993E+03  0.28608442031E+02 -0.43725265695E+03  0.47752593936E+03  0.76351021956E+02 0.  0.
         13    1    3    3    0    0  0.13430917154E+01  0.26407139656E+02 -0.10944743339E+02  0.28616923785E+02  0.00000000000E+00 0.  1.
        -13    1    3    3    0    0  0.46423592930E+03  0.58008745383E+03 -0.15845674693E+03  0.75968743098E+03  0.00000000000E+00 0. -1.
          2    1    6    6  502    0 -0.43439227838E+02 -0.26014374582E+02 -0.11573791284E+03  0.12632885130E+03  0.00000000000E+00 0. -1.
          1    1    5    5  503    0 -0.13894282666E+02 -0.83018299331E+02  0.40084039984E+02  0.93229927470E+02  0.00000000000E+00 0. -1.
         -2    1    5    5    0  503 -0.27792278842E+03 -0.55208473619E+03  0.14690421928E+03  0.63531053974E+03  0.00000000000E+00 0.  1.
         -1    1    6    6    0  502 -0.13032272209E+03  0.54622816613E+02 -0.32151474411E+03  0.35119708807E+03  0.00000000000E+00 0.  1.
<mgrwt>
<rscale>  0 0.19497167E+04</rscale>
<asrwt>0</asrwt>
<pdfrwt beam="1">  1        1 0.18569512E+00 0.19497167E+04</pdfrwt>
<pdfrwt beam="2">  1       -1 0.12113115E+00 0.19497167E+04</pdfrwt>
<totfact> 0.59524357E+00</totfact>
</mgrwt>
</event>
<event>
12    1  0.1599266E-007  0.1768776E+04  0.7818608E-02  0.8723082E-01
         -2   -1    0    0    0  501 -0.00000000000E+00  0.00000000000E+00  0.14387153081E+04  0.14387153081E+04  0.00000000000E+00 0.  1.
          2   -1    0    0  501    0  0.00000000000E+00 -0.00000000000E+00 -0.54363942987E+03  0.54363942987E+03  0.00000000000E+00 0. -1.
         23    2    1    2    0    0  0.44460303377E+03 -0.60062100963E+02  0.83826020175E+03  0.95512489507E+03  0.91126756445E+02 0.  0.
        254    2    1    2    0    0 -0.44460303377E+03  0.60062100963E+02  0.56815676466E+02  0.10272298429E+04  0.92233064322E+03 0.  0.
        -24    2    4    4    0    0 -0.18513668459E+03  0.81256138754E+02 -0.42277827972E+03  0.47520377136E+03  0.78733718597E+02 0.  0.
         24    2    4    4    0    0 -0.25946634918E+03 -0.21194037790E+02  0.47959395619E+03  0.55202607153E+03  0.83369342349E+02 0.  0.
         11    1    3    3    0    0  0.39172020412E+03 -0.45080718161E+02  0.78561877024E+03  0.87901868104E+03  0.00000000000E+00 0.  1.
        -11    1    3    3    0    0  0.52882829654E+02 -0.14981382802E+02  0.52641431503E+02  0.76106214028E+02  0.00000000000E+00 0. -1.
          2    1    6    6  502    0 -0.22538096552E+03 -0.39994383593E+01  0.45144375987E+03  0.50459294828E+03  0.00000000000E+00 0. -1.
          1    1    5    5  503    0 -0.17553704285E+03  0.94674495348E+02 -0.37631972988E+03  0.42590263274E+03  0.00000000000E+00 0. -1.
         -2    1    5    5    0  503 -0.95996417331E+01 -0.13418356594E+02 -0.46458549844E+02  0.49301138614E+02  0.00000000000E+00 0.  1.
         -1    1    6    6    0  502 -0.34085383662E+02 -0.17194599431E+02  0.28150196319E+02  0.47433123255E+02  0.00000000000E+00 0.  1.
<mgrwt>
<rscale>  0 0.17687763E+04</rscale>
<asrwt>0</asrwt>
<pdfrwt beam="1">  1        2 0.83636836E-01 0.17687763E+04</pdfrwt>
<pdfrwt beam="2">  1       -2 0.22134081E+00 0.17687763E+04</pdfrwt>
<totfact> 0.51164766E+00</totfact>
</mgrwt>
</event>
<event>
12    1  0.1599266E-007  0.1748500E+04  0.7818608E-02  0.8734176E-01
          2   -1    0    0  501    0  0.00000000000E+00  0.00000000000E+00  0.72091420816E+03  0.72091420816E+03  0.00000000000E+00 0. -1.
         -2   -1    0    0    0  501 -0.00000000000E+00 -0.00000000000E+00 -0.10601995727E+04  0.10601995727E+04  0.00000000000E+00 0.  1.
         23    2    1    2    0    0 -0.34444078170E+03 -0.48957317575E+03 -0.38595193082E+03  0.71981266277E+03  0.10416347756E+03 0.  0.
        254    2    1    2    0    0  0.34444078170E+03  0.48957317575E+03  0.46666566262E+02  0.10613011181E+04  0.87513481727E+03 0.  0.
        -24    2    4    4    0    0 -0.12701173209E+03  0.43993279987E+03 -0.21752876434E+03  0.51369937187E+03  0.83038743102E+02 0.  0.
         24    2    4    4    0    0  0.47145251380E+03  0.49640375883E+02  0.26419533060E+03  0.54760174625E+03  0.73053816459E+02 0.  0.
         13    1    3    3    0    0 -0.12753731742E+03 -0.21554383465E+03 -0.10570715135E+03  0.27184354661E+03  0.00000000000E+00 0. -1.
        -13    1    3    3    0    0 -0.21690346428E+03 -0.27402934111E+03 -0.28024477948E+03  0.44796911615E+03  0.00000000000E+00 0.  1.
          4    1    6    6  502    0  0.83353723598E+02  0.37344139564E+02  0.48162399623E+02  0.10325717764E+03  0.00000000000E+00 0. -1.
          1    1    5    5  503    0 -0.11338880399E+03  0.25458544357E+03 -0.14542287263E+03  0.31435422827E+03  0.00000000000E+00 0. -1.
         -2    1    5    5    0  503 -0.13622928100E+02  0.18534735630E+03 -0.72105891705E+02  0.19934514360E+03  0.00000000000E+00 0.  1.
         -3    1    6    6    0  502  0.38809879020E+03  0.12296236319E+02  0.21603293098E+03  0.44434456860E+03  0.00000000000E+00 0.  1.
<mgrwt>
<rscale>  0 0.17484999E+04</rscale>
<asrwt>0</asrwt>
<pdfrwt beam="1">  1        2 0.11090988E+00 0.17484999E+04</pdfrwt>
<pdfrwt beam="2">  1       -2 0.16310763E+00 0.17484999E+04</pdfrwt>
<totfact> 0.89344464E+00</totfact>
</mgrwt>
</event>
<event>
12    1  0.1599266E-007  0.1216466E+04  0.7818608E-02  0.9098565E-01
         -2   -1    0    0    0  501 -0.00000000000E+00  0.00000000000E+00  0.34149230930E+03  0.34149230930E+03  0.00000000000E+00 0.  1.
          2   -1    0    0  501    0  0.00000000000E+00 -0.00000000000E+00 -0.10833259533E+04  0.10833259533E+04  0.00000000000E+00 0. -1.
         23    2    1    2    0    0 -0.20160685682E+03 -0.33449567978E+02  0.25212216488E+02  0.22518526918E+03  0.91151254970E+02 0.  0.
        254    2    1    2    0    0  0.20160685682E+03  0.33449567978E+02 -0.76704586052E+03  0.11996329935E+04  0.89944192060E+03 0.  0.
        -24    2    4    4    0    0 -0.25146486860E+02 -0.37669912083E+02  0.19022743732E+03  0.21064156200E+03  0.78307226079E+02 0.  0.
         24    2    4    4    0    0  0.22675334368E+03  0.71119480061E+02 -0.95727329784E+03  0.98899143145E+03  0.72503968267E+02 0.  0.
         11    1    3    3    0    0 -0.16182891898E+03 -0.17862176898E+02  0.56384693887E+02  0.17229883948E+03  0.00000000000E+00 0.  1.
        -11    1    3    3    0    0 -0.39777937835E+02 -0.15587391080E+02 -0.31172477399E+02  0.52886429699E+02  0.00000000000E+00 0. -1.
          4    1    6    6  502    0  0.88723959455E+02  0.29770801575E+02 -0.24447237376E+03  0.26177277005E+03  0.00000000000E+00 0. -1.
          1    1    5    5  503    0 -0.50657246572E+02 -0.39759935843E+02  0.12602747138E+03  0.14152714465E+03  0.00000000000E+00 0. -1.
         -2    1    5    5    0  503  0.25510759712E+02  0.20900237600E+01  0.64199965936E+02  0.69114417356E+02  0.00000000000E+00 0.  1.
         -3    1    6    6    0  502  0.13802938422E+03  0.41348678486E+02 -0.71280092408E+03  0.72721866140E+03  0.00000000000E+00 0.  1.
<mgrwt>
<rscale>  0 0.12164662E+04</rscale>
<asrwt>0</asrwt>
<pdfrwt beam="1">  1        2 0.16666553E+00 0.12164662E+04</pdfrwt>
<pdfrwt beam="2">  1       -2 0.52537279E-01 0.12164662E+04</pdfrwt>
<totfact> 0.75169487E+01</totfact>
</mgrwt>
</event>
<event>
12    1  0.1599266E-007  0.1594805E+04  0.7818608E-02  0.8823746E-01
          2   -1    0    0  501    0  0.00000000000E+00  0.00000000000E+00  0.11186906969E+04  0.11186906969E+04  0.00000000000E+00 0. -1.
         -2   -1    0    0    0  501 -0.00000000000E+00 -0.00000000000E+00 -0.56838825259E+03  0.56838825259E+03  0.00000000000E+00 0.  1.
         23    2    1    2    0    0  0.25243072247E+03  0.41426794202E+03  0.43176409069E+03  0.65570842604E+03  0.90521337458E+02 0.  0.
        254    2    1    2    0    0 -0.25243072247E+03 -0.41426794202E+03  0.11853835365E+03  0.10313705235E+04  0.90240490801E+03 0.  0.
        -24    2    4    4    0    0 -0.57986393320E+03 -0.34166846405E+03  0.52363951550E+02  0.67943448900E+03  0.76874710183E+02 0.  0.
         24    2    4    4    0    0  0.32743321073E+03 -0.72599477975E+02  0.66174402104E+02  0.35193603449E+03  0.83646453522E+02 0.  0.
         13    1    3    3    0    0  0.79411655083E+02  0.81756261545E+02  0.14110081227E+03  0.18138284508E+03  0.00000000000E+00 0.  1.
        -13    1    3    3    0    0  0.17301906739E+03  0.33251168048E+03  0.29066327842E+03  0.47432558096E+03  0.00000000000E+00 0. -1.
          4    1    6    6  502    0  0.12798699834E+03 -0.22448475707E+02  0.67177859542E+02  0.14627874288E+03  0.00000000000E+00 0. -1.
          1    1    5    5  503    0 -0.50828887115E+03 -0.32242287406E+03  0.32999336904E+02  0.60282919844E+03  0.00000000000E+00 0. -1.
         -2    1    5    5    0  503 -0.71575062052E+02 -0.19245589990E+02  0.19364614646E+02  0.76605290562E+02  0.00000000000E+00 0.  1.
         -3    1    6    6    0  502  0.19944621240E+03 -0.50151002269E+02 -0.10034574388E+01  0.20565729161E+03  0.00000000000E+00 0.  1.
<mgrwt>
<rscale>  0 0.15948049E+04</rscale>
<asrwt>0</asrwt>
<pdfrwt beam="1">  1        2 0.17210626E+00 0.15948049E+04</pdfrwt>
<pdfrwt beam="2">  1       -2 0.87444347E-01 0.15948049E+04</pdfrwt>
<totfact> 0.22988235E+01</totfact>
</mgrwt>
</event>
<event>
12    1  0.1599266E-007  0.1868371E+04  0.7818608E-02  0.8670762E-01
          2   -1    0    0  501    0  0.00000000000E+00  0.00000000000E+00  0.12712073209E+04  0.12712073209E+04  0.00000000000E+00 0. -1.
         -2   -1    0    0    0  501 -0.00000000000E+00 -0.00000000000E+00 -0.68651476117E+03  0.68651476117E+03  0.00000000000E+00 0.  1.
         23    2    1    2    0    0  0.40577786787E+03  0.52462339470E+03 -0.49690376989E+02  0.67170248127E+03  0.93966512426E+02 0.  0.
        254    2    1    2    0    0 -0.40577786787E+03 -0.52462339470E+03  0.63438293676E+03  0.12860196008E+04  0.90084367067E+03 0.  0.
        -24    2    4    4    0    0 -0.68113052901E+03 -0.40940806158E+03  0.53463544828E+03  0.96129000373E+03  0.81790282341E+02 0.  0.
         24    2    4    4    0    0  0.27535266113E+03 -0.11521533312E+03  0.99747488478E+02  0.32472959711E+03  0.80038045975E+02 0.  0.
         11    1    3    3    0    0  0.24759755179E+03  0.35866290845E+03 -0.70505307429E+02  0.44149136790E+03  0.00000000000E+00 0.  1.
        -11    1    3    3    0    0  0.15818031608E+03  0.16596048625E+03  0.20814930440E+02  0.23021111337E+03  0.00000000000E+00 0. -1.
          4    1    6    6  502    0  0.18342769702E+03 -0.11255035403E+03  0.53325550757E+02  0.22171359135E+03  0.00000000000E+00 0. -1.
          3    1    5    5  503    0 -0.59449095106E+03 -0.38437607516E+03  0.46027850902E+03  0.84440556839E+03  0.00000000000E+00 0. -1.
         -4    1    5    5    0  503 -0.86639577944E+02 -0.25031986417E+02  0.74356939261E+02  0.11688443535E+03  0.00000000000E+00 0.  1.
         -3    1    6    6    0  502  0.91924964112E+02 -0.26649790864E+01  0.46421937721E+02  0.10301600576E+03  0.00000000000E+00 0.  1.
<mgrwt>
<rscale>  0 0.18683710E+04</rscale>
<asrwt>0</asrwt>
<pdfrwt beam="1">  1        2 0.19557036E+00 0.18683710E+04</pdfrwt>
<pdfrwt beam="2">  1       -2 0.10561766E+00 0.18683710E+04</pdfrwt>
<totfact> 0.11697670E+01</totfact>
</mgrwt>
</event>
<event>
12    1  0.2434660E-007  0.2646208E+04  0.7818608E-02  0.8352673E-01
         -2   -1    0    0    0  501 -0.00000000000E+00  0.00000000000E+00  0.61838185881E+03  0.61838185881E+03  0.00000000000E+00 0. -1.
          2   -1    0    0  501    0  0.00000000000E+00 -0.00000000000E+00 -0.28309446775E+04  0.28309446775E+04  0.00000000000E+00 0.  1.
         23    2    1    2    0    0 -0.38413322599E+03  0.47141881869E+03  0.31700440960E+03  0.69182208408E+03  0.91279583654E+02 0.  0.
        254    2    1    2    0    0  0.38413322599E+03 -0.47141881869E+03 -0.25295672283E+04  0.27575044523E+04  0.91396192681E+03 0.  0.
        -24    2    4    4    0    0  0.18055926807E+03 -0.71909155031E+03 -0.19856129859E+04  0.21210118656E+04  0.79612168933E+02 0.  0.
         24    2    4    4    0    0  0.20357395793E+03  0.24767273162E+03 -0.54395424245E+03  0.63649258663E+03  0.80327184773E+02 0.  0.
         11    1    3    3    0    0 -0.37042901395E+03  0.45379664169E+03  0.32268641454E+03  0.66878663900E+03  0.00000000000E+00 0. -1.
        -11    1    3    3    0    0 -0.13704212041E+02  0.17622177001E+02 -0.56820049334E+01  0.23035445079E+02  0.00000000000E+00 0.  1.
          4    1    6    6  502    0  0.15516477872E+02  0.46541304204E+01 -0.66196625146E+01  0.17499769922E+02  0.00000000000E+00 0. -1.
          1    1    5    5  503    0  0.28082983594E+02 -0.10404337600E+03 -0.37668355451E+03  0.39179609276E+03  0.00000000000E+00 0. -1.
         -2    1    5    5    0  503  0.15247628447E+03 -0.61504817431E+03 -0.16089294314E+04  0.17292157729E+04  0.00000000000E+00 0.  1.
         -3    1    6    6    0  502  0.18805748006E+03  0.24301860120E+03 -0.53733457994E+03  0.61899281671E+03  0.00000000000E+00 0.  1.
<mgrwt>
<rscale>  0 0.26462085E+04</rscale>
<asrwt>0</asrwt>
<pdfrwt beam="1">  1        2 0.43552995E+00 0.26462085E+04</pdfrwt>
<pdfrwt beam="2">  1       -2 0.95135671E-01 0.26462085E+04</pdfrwt>
<totfact> 0.18122053E+00</totfact>
</mgrwt>
</event>
<event>
12    1  0.1599266E-007  0.1520152E+04  0.7818608E-02  0.8871162E-01
         -2   -1    0    0    0  501 -0.00000000000E+00  0.00000000000E+00  0.22608800614E+03  0.22608800614E+03  0.00000000000E+00 0. -1.
          2   -1    0    0  501    0  0.00000000000E+00 -0.00000000000E+00 -0.25552683231E+04  0.25552683231E+04  0.00000000000E+00 0.  1.
         23    2    1    2    0    0 -0.18448744490E+03 -0.33305888777E+03 -0.13159171649E+04  0.13738736176E+04  0.10453177540E+03 0.  0.
        254    2    1    2    0    0  0.18448744490E+03  0.33305888777E+03 -0.10132631521E+04  0.14074827117E+04  0.89963410803E+03 0.  0.
        -24    2    4    4    0    0 -0.30430929671E+03  0.36148512572E+03 -0.54577034153E+03  0.72624565772E+03  0.79321154033E+02 0.  0.
         24    2    4    4    0    0  0.48879674161E+03 -0.28426237950E+02 -0.46749281055E+03  0.68123705398E+03  0.76184579734E+02 0.  0.
         13    1    3    3    0    0 -0.59490131226E+02 -0.60711318629E+02 -0.43944917208E+03  0.44759414067E+03  0.00000000000E+00 0. -1.
        -13    1    3    3    0    0 -0.12499731368E+03 -0.27234756914E+03 -0.87646799282E+03  0.92627947688E+03  0.00000000000E+00 0.  1.
          2    1    6    6  502    0  0.77335951690E+02  0.23385488167E+02 -0.77819130283E+02  0.11217641249E+03  0.00000000000E+00 0. -1.
          3    1    5    5  503    0  0.18076401980E+01  0.84659824779E+01 -0.25612474629E+02  0.27035888722E+02  0.00000000000E+00 0. -1.
         -4    1    5    5    0  503 -0.30611693691E+03  0.35301914324E+03 -0.52015786690E+03  0.69920976899E+03  0.00000000000E+00 0.  1.
         -1    1    6    6    0  502  0.41146078992E+03 -0.51811726116E+02 -0.38967368026E+03  0.56906064149E+03  0.00000000000E+00 0.  1.
<mgrwt>
<rscale>  0 0.15201520E+04</rscale>
<asrwt>0</asrwt>
<pdfrwt beam="1">  1        2 0.39311820E+00 0.15201520E+04</pdfrwt>
<pdfrwt beam="2">  1       -2 0.34782770E-01 0.15201520E+04</pdfrwt>
<totfact> 0.24250174E+01</totfact>
</mgrwt>
</event>
<event>
12    1  0.1599266E-007  0.2003751E+04  0.7818608E-02  0.8604869E-01
         -1   -1    0    0    0  501 -0.00000000000E+00  0.00000000000E+00  0.99261887258E+03  0.99261887258E+03  0.00000000000E+00 0.  1.
          1   -1    0    0  501    0  0.00000000000E+00 -0.00000000000E+00 -0.10112180327E+04  0.10112180327E+04  0.00000000000E+00 0. -1.
         23    2    1    2    0    0  0.48723112101E+02 -0.33677532394E+02 -0.80303298244E+03  0.81014625689E+03  0.89257318011E+02 0.  0.
        254    2    1    2    0    0 -0.48723112101E+02  0.33677532394E+02  0.78443382236E+03  0.11936906484E+04  0.89780444668E+03 0.  0.
        -24    2    4    4    0    0  0.12449013478E+03 -0.32863234293E+03  0.68184044667E+03  0.77143131765E+03  0.81871073418E+02 0.  0.
         24    2    4    4    0    0 -0.17321324688E+03  0.36230987533E+03  0.10259337570E+03  0.42225933071E+03  0.80661434306E+02 0.  0.
         11    1    3    3    0    0  0.67772869630E+02 -0.15338005738E+01 -0.43938638470E+03  0.44458509811E+03  0.00000000000E+00 0.  1.
        -11    1    3    3    0    0 -0.19049757529E+02 -0.32143731820E+02 -0.36364659774E+03  0.36556115878E+03  0.00000000000E+00 0. -1.
          2    1    6    6  502    0 -0.12556674737E+03  0.18630464643E+03  0.32956199605E+02  0.22707386555E+03  0.00000000000E+00 0. -1.
          3    1    5    5  503    0  0.90323473987E+02 -0.30403832330E+03  0.62289866537E+03  0.69899955601E+03  0.00000000000E+00 0. -1.
         -4    1    5    5    0  503  0.34166660791E+02 -0.24594019637E+02  0.58941781293E+02  0.72431761634E+02  0.00000000000E+00 0.  1.
         -1    1    6    6    0  502 -0.47646499510E+02  0.17600522890E+03  0.69637176091E+02  0.19518546516E+03  0.00000000000E+00 0.  1.
<mgrwt>
<rscale>  0 0.20037506E+04</rscale>
<asrwt>0</asrwt>
<pdfrwt beam="1">  1        1 0.15557200E+00 0.20037506E+04</pdfrwt>
<pdfrwt beam="2">  1       -1 0.15271060E+00 0.20037506E+04</pdfrwt>
<totfact> 0.45708598E+00</totfact>
</mgrwt>
</event>
<event>
12    1  0.1599266E-007  0.1453142E+04  0.7818608E-02  0.8916225E-01
         -1   -1    0    0    0  501 -0.00000000000E+00  0.00000000000E+00  0.30400910564E+03  0.30400910564E+03  0.00000000000E+00 0.  1.
          1   -1    0    0  501    0  0.00000000000E+00 -0.00000000000E+00 -0.17364800755E+04  0.17364800755E+04  0.00000000000E+00 0. -1.
         23    2    1    2    0    0 -0.13567647427E+03  0.16267807735E+03  0.10361758233E+03  0.25331902612E+03  0.92529255408E+02 0.  0.
        254    2    1    2    0    0  0.13567647427E+03 -0.16267807735E+03 -0.15360885522E+04  0.17871701550E+04  0.88855886709E+03 0.  0.
        -24    2    4    4    0    0  0.60805240550E+02 -0.42354958798E+03 -0.32517963887E+03  0.54350012926E+03  0.80988037483E+02 0.  0.
         24    2    4    4    0    0  0.74871233724E+02  0.26087151063E+03 -0.12109089133E+04  0.12436700258E+04  0.82189353924E+02 0.  0.
         11    1    3    3    0    0 -0.30635738444E+02 -0.69530743027E+01  0.10352015068E+02  0.33076546499E+02  0.00000000000E+00 0. -1.
        -11    1    3    3    0    0 -0.10504073583E+03  0.16963115165E+03  0.93265567264E+02  0.22024247962E+03  0.00000000000E+00 0.  1.
          2    1    6    6  502    0  0.86045324740E+02  0.17656746096E+03 -0.77174701034E+03  0.79634999476E+03  0.00000000000E+00 0. -1.
          1    1    5    5  503    0  0.63880479192E+02 -0.21312923913E+03 -0.13771365118E+03  0.26166741852E+03  0.00000000000E+00 0. -1.
         -2    1    5    5    0  503 -0.30752386419E+01 -0.21042034884E+03 -0.18746598769E+03  0.28183271074E+03  0.00000000000E+00 0.  1.
         -1    1    6    6    0  502 -0.11174091016E+02  0.84304049665E+02 -0.43916190300E+03  0.44732003102E+03  0.00000000000E+00 0.  1.
<mgrwt>
<rscale>  0 0.14531425E+04</rscale>
<asrwt>0</asrwt>
<pdfrwt beam="1">  1        1 0.26715077E+00 0.14531425E+04</pdfrwt>
<pdfrwt beam="2">  1       -1 0.46770633E-01 0.14531425E+04</pdfrwt>
<totfact> 0.19909496E+01</totfact>
</mgrwt>
</event>
<event>
12    1  0.1599266E-007  0.2488647E+04  0.7818608E-02  0.8407041E-01
          2   -1    0    0  501    0  0.00000000000E+00  0.00000000000E+00  0.35762281146E+04  0.35762281146E+04  0.00000000000E+00 0. -1.
         -2   -1    0    0    0  501 -0.00000000000E+00 -0.00000000000E+00 -0.43295372857E+03  0.43295372857E+03  0.00000000000E+00 0.  1.
         23    2    1    2    0    0  0.92329269299E+03  0.55169571501E+03  0.14880386994E+04  0.18383967610E+04  0.92768102643E+02 0.  0.
        254    2    1    2    0    0 -0.92329269299E+03 -0.55169571501E+03  0.16552356866E+04  0.21707850822E+04  0.90314181390E+03 0.  0.
        -24    2    4    4    0    0 -0.63415017668E+03 -0.27144124411E+03  0.16154625618E+04  0.17583462138E+04  0.78964065285E+02 0.  0.
         24    2    4    4    0    0 -0.28914251632E+03 -0.28025447090E+03  0.39773124865E+02  0.41243886841E+03  0.79862103091E+02 0.  0.
         11    1    3    3    0    0  0.85995381778E+03  0.50882509470E+03  0.14180027239E+04  0.17346916933E+04  0.00000000000E+00 0.  1.
        -11    1    3    3    0    0  0.63338875217E+02  0.42870620310E+02  0.70035975520E+02  0.10370506770E+03  0.00000000000E+00 0. -1.
          2    1    6    6  502    0 -0.16075624144E+03 -0.19971881440E+03  0.47261055517E+02  0.26069864088E+03  0.00000000000E+00 0. -1.
          3    1    5    5  503    0 -0.25547606189E+02  0.41002654697E+01  0.71775311874E+02  0.76296708667E+02  0.00000000000E+00 0. -1.
         -4    1    5    5    0  503 -0.60860257049E+03 -0.27554150958E+03  0.15436872499E+04  0.16820495051E+04  0.00000000000E+00 0.  1.
         -1    1    6    6    0  502 -0.12838627488E+03 -0.80535656495E+02 -0.74879306524E+01  0.15174022753E+03  0.00000000000E+00 0.  1.
<mgrwt>
<rscale>  0 0.24886473E+04</rscale>
<asrwt>0</asrwt>
<pdfrwt beam="1">  1        2 0.55018892E+00 0.24886473E+04</pdfrwt>
<pdfrwt beam="2">  1       -2 0.66608268E-01 0.24886473E+04</pdfrwt>
<totfact> 0.13296644E+00</totfact>
</mgrwt>
</event>
<event>
12    1  0.1599266E-007  0.1579514E+04  0.7818608E-02  0.8833233E-01
         -2   -1    0    0    0  501 -0.00000000000E+00  0.00000000000E+00  0.31965917619E+03  0.31965917619E+03  0.00000000000E+00 0.  1.
          2   -1    0    0  501    0  0.00000000000E+00 -0.00000000000E+00 -0.19511919517E+04  0.19511919517E+04  0.00000000000E+00 0. -1.
         23    2    1    2    0    0  0.51764481231E+03 -0.13322499932E+03 -0.55947603203E+03  0.77910690226E+03  0.91044398938E+02 0.  0.
        254    2    1    2    0    0 -0.51764481231E+03  0.13322499932E+03 -0.10720567435E+04  0.14917442256E+04  0.88898263274E+03 0.  0.
        -24    2    4    4    0    0 -0.56331321010E+03 -0.26351654349E+03 -0.70221003601E+03  0.94147146444E+03  0.80665000488E+02 0.  0.
         24    2    4    4    0    0  0.45668397796E+02  0.39674154282E+03 -0.36984670748E+03  0.55027276120E+03  0.80771717417E+02 0.  0.
         11    1    3    3    0    0  0.99471448182E+02  0.40645742487E+01 -0.13406021091E+03  0.16698272341E+03  0.00000000000E+00 0. -1.
        -11    1    3    3    0    0  0.41817336413E+03 -0.13728957357E+03 -0.42541582112E+03  0.61212417885E+03  0.00000000000E+00 0.  1.
          2    1    6    6  502    0  0.10641232788E+02  0.36016947680E+01 -0.35172573687E+01  0.11771964146E+02  0.00000000000E+00 0. -1.
          1    1    5    5  503    0 -0.29814664165E+02 -0.35352266387E+02 -0.41414878131E+02  0.62079699327E+02  0.00000000000E+00 0. -1.
         -2    1    5    5    0  503 -0.53349854594E+03 -0.22816427711E+03 -0.66079515788E+03  0.87939176511E+03  0.00000000000E+00 0.  1.
         -1    1    6    6    0  502  0.35027165007E+02  0.39313984805E+03 -0.36632945011E+03  0.53850079706E+03  0.00000000000E+00 0.  1.
<mgrwt>
<rscale>  0 0.15795144E+04</rscale>
<asrwt>0</asrwt>
<pdfrwt beam="1">  1        2 0.30018337E+00 0.15795144E+04</pdfrwt>
<pdfrwt beam="2">  1       -2 0.49178336E-01 0.15795144E+04</pdfrwt>
<totfact> 0.26741990E+01</totfact>
</mgrwt>
</event>
<event>
12    1  0.1599266E-007  0.1519567E+04  0.7818608E-02  0.8871544E-01
         -1   -1    0    0    0  501 -0.00000000000E+00  0.00000000000E+00  0.55127837819E+03  0.55127837819E+03  0.00000000000E+00 0.  1.
          1   -1    0    0  501    0  0.00000000000E+00 -0.00000000000E+00 -0.10471493882E+04  0.10471493882E+04  0.00000000000E+00 0. -1.
         23    2    1    2    0    0  0.46461650793E+03 -0.82844015575E+02 -0.26822647714E+03  0.55027252955E+03  0.90126485484E+02 0.  0.
        254    2    1    2    0    0 -0.46461650793E+03  0.82844015575E+02 -0.22764453283E+03  0.10481552368E+04  0.90778617346E+03 0.  0.
        -24    2    4    4    0    0 -0.67141072730E+03  0.28103190108E+02  0.61596629542E+02  0.67957611067E+03  0.80295649897E+02 0.  0.
         24    2    4    4    0    0  0.20679421937E+03  0.54740825467E+02 -0.28924116237E+03  0.36857912612E+03  0.80185504060E+02 0.  0.
         11    1    3    3    0    0  0.41289158507E+03 -0.85747899673E+02 -0.20607337700E+03  0.46935956369E+03  0.00000000000E+00 0.  1.
        -11    1    3    3    0    0  0.51724922859E+02  0.29038840983E+01 -0.62153100141E+02  0.80912965863E+02  0.00000000000E+00 0. -1.
          4    1    6    6  502    0  0.78537679783E+02  0.54950691741E+02 -0.15989561449E+03  0.18642519465E+03  0.00000000000E+00 0. -1.
          3    1    5    5  503    0 -0.58814939400E+03  0.33427289006E+02  0.78931417812E+02  0.59436290432E+03  0.00000000000E+00 0. -1.
         -4    1    5    5    0  503 -0.83261333298E+02 -0.53240988972E+01 -0.17334788270E+02  0.85213206348E+02  0.00000000000E+00 0.  1.
         -3    1    6    6    0  502  0.12825653959E+03 -0.20986627447E+00 -0.12934554789E+03  0.18215393147E+03  0.00000000000E+00 0.  1.
<mgrwt>
<rscale>  0 0.15195668E+04</rscale>
<asrwt>0</asrwt>
<pdfrwt beam="1">  1        1 0.16109990E+00 0.15195668E+04</pdfrwt>
<pdfrwt beam="2">  1       -1 0.84812059E-01 0.15195668E+04</pdfrwt>
<totfact> 0.18484410E+01</totfact>
</mgrwt>
</event>
<event>
12    1  0.1599266E-007  0.2102173E+04  0.7818608E-02  0.8560287E-01
          1   -1    0    0  501    0  0.00000000000E+00  0.00000000000E+00  0.13876050639E+04  0.13876050639E+04  0.00000000000E+00 0. -1.
         -1   -1    0    0    0  501 -0.00000000000E+00 -0.00000000000E+00 -0.79617943953E+03  0.79617943953E+03  0.00000000000E+00 0.  1.
         23    2    1    2    0    0  0.61742298031E+03 -0.41439801460E+03  0.69111901207E+03  0.10187237136E+04  0.84945069169E+02 0.  0.
        254    2    1    2    0    0 -0.61742298031E+03  0.41439801460E+03 -0.99693387652E+02  0.11650607898E+04  0.89134225826E+03 0.  0.
        -24    2    4    4    0    0  0.11368693472E+02  0.32191843433E+03  0.26759110359E+03  0.42665907952E+03  0.81683816406E+02 0.  0.
         24    2    4    4    0    0 -0.62879167378E+03  0.92479580269E+02 -0.36728449125E+03  0.73840171031E+03  0.80048400984E+02 0.  0.
         13    1    3    3    0    0  0.63072774005E+02 -0.48105551532E+02  0.41654234638E+02  0.89595726306E+02  0.00000000000E+00 0. -1.
        -13    1    3    3    0    0  0.55435020630E+03 -0.36629246307E+03  0.64946477743E+03  0.92912798734E+03  0.00000000000E+00 0.  1.
          4    1    6    6  502    0 -0.26707694211E+03  0.28482042477E+02 -0.11165111139E+03  0.29087332367E+03  0.00000000000E+00 0. -1.
          1    1    5    5  503    0  0.14690759950E+02  0.59144690012E+02  0.92879323862E+02  0.11108772023E+03  0.00000000000E+00 0. -1.
         -2    1    5    5    0  503 -0.33220664780E+01  0.26277374432E+03  0.17471177973E+03  0.31557135930E+03  0.00000000000E+00 0.  1.
         -3    1    6    6    0  502 -0.36171473167E+03  0.63997537792E+02 -0.25563337986E+03  0.44752838664E+03  0.00000000000E+00 0.  1.
<mgrwt>
<rscale>  0 0.21021728E+04</rscale>
<asrwt>0</asrwt>
<pdfrwt beam="1">  1        1 0.21347770E+00 0.21021728E+04</pdfrwt>
<pdfrwt beam="2">  1       -1 0.12248914E+00 0.21021728E+04</pdfrwt>
<totfact> 0.42422614E+00</totfact>
</mgrwt>
</event>
<event>
12    1  0.1599266E-007  0.1193638E+04  0.7818608E-02  0.9118444E-01
          2   -1    0    0  501    0  0.00000000000E+00  0.00000000000E+00  0.11530708323E+04  0.11530708323E+04  0.00000000000E+00 0. -1.
         -2   -1    0    0    0  501 -0.00000000000E+00 -0.00000000000E+00 -0.30890802502E+03  0.30890802502E+03  0.00000000000E+00 0.  1.
         23    2    1    2    0    0 -0.15167181674E+03  0.16681704839E+03  0.59232647420E+02  0.24984519586E+03  0.89899097607E+02 0.  0.
        254    2    1    2    0    0  0.15167181674E+03 -0.16681704839E+03  0.78493015981E+03  0.12121336614E+04  0.89572338907E+03 0.  0.
        -24    2    4    4    0    0 -0.74611352656E+02  0.47370961914E+02  0.87069821163E+03  0.87878603954E+03  0.79615737038E+02 0.  0.
         24    2    4    4    0    0  0.22628316939E+03 -0.21418801030E+03 -0.85768051816E+02  0.33334762187E+03  0.81755133107E+02 0.  0.
         11    1    3    3    0    0 -0.14352730082E+03  0.13495724824E+03  0.19062510973E+02  0.19793161511E+03  0.00000000000E+00 0. -1.
        -11    1    3    3    0    0 -0.81445159154E+01  0.31859800144E+02  0.40170136447E+02  0.51913580756E+02  0.00000000000E+00 0.  1.
          2    1    6    6  502    0  0.19529748277E+03 -0.21406697448E+03 -0.86334739472E+02  0.30235651734E+03  0.00000000000E+00 0. -1.
          1    1    5    5  503    0 -0.16080447293E+02  0.47395328928E+02  0.58600171483E+03  0.58813511014E+03  0.00000000000E+00 0. -1.
         -2    1    5    5    0  503 -0.58530905363E+02 -0.24367014154E-01  0.28469649680E+03  0.29065092941E+03  0.00000000000E+00 0.  1.
         -1    1    6    6    0  502  0.30985686623E+02 -0.12103581929E+00  0.56668765525E+00  0.30991104531E+02  0.00000000000E+00 0.  1.
<mgrwt>
<rscale>  0 0.11936379E+04</rscale>
<asrwt>0</asrwt>
<pdfrwt beam="1">  1        2 0.17739551E+00 0.11936379E+04</pdfrwt>
<pdfrwt beam="2">  1       -2 0.47524312E-01 0.11936379E+04</pdfrwt>
<totfact> 0.83701302E+01</totfact>
</mgrwt>
</event>
<event>
12    1  0.1599266E-007  0.1645261E+04  0.7818608E-02  0.8793215E-01
          2   -1    0    0  501    0  0.00000000000E+00  0.00000000000E+00  0.30281934884E+04  0.30281934884E+04  0.00000000000E+00 0. -1.
         -2   -1    0    0    0  501 -0.00000000000E+00 -0.00000000000E+00 -0.22347342663E+03  0.22347342663E+03  0.00000000000E+00 0.  1.
         23    2    1    2    0    0  0.49675567886E+03  0.23577457536E+03  0.63371428556E+03  0.84455915293E+03  0.96594576537E+02 0.  0.
        254    2    1    2    0    0 -0.49675567886E+03 -0.23577457536E+03  0.21710057763E+04  0.24071077621E+04  0.88235244838E+03 0.  0.
        -24    2    4    4    0    0  0.14701359243E+03  0.16132983956E+03  0.86456423747E+03  0.89534206297E+03  0.80782272324E+02 0.  0.
         24    2    4    4    0    0 -0.64376927129E+03 -0.39710441493E+03  0.13064415388E+04  0.15117656992E+04  0.80717060923E+02 0.  0.
         13    1    3    3    0    0  0.49036473413E+03  0.21792742195E+03  0.59361940959E+03  0.80020868350E+03  0.00000000000E+00 0.  1.
        -13    1    3    3    0    0  0.63909447310E+01  0.17847153418E+02  0.40094875972E+02  0.44350469433E+02  0.00000000000E+00 0. -1.
          2    1    6    6  502    0 -0.63399480131E+03 -0.38008907870E+03  0.12867768235E+04  0.14839850772E+04  0.00000000000E+00 0. -1.
          1    1    5    5  503    0  0.10440469101E+03  0.15017404564E+03  0.76341577392E+03  0.78501988979E+03  0.00000000000E+00 0. -1.
         -2    1    5    5    0  503  0.42608901414E+02  0.11155793919E+02  0.10114846355E+03  0.11032217319E+03  0.00000000000E+00 0.  1.
         -1    1    6    6    0  502 -0.97744699758E+01 -0.17015336224E+02  0.19664715271E+02  0.27780621966E+02  0.00000000000E+00 0.  1.
<mgrwt>
<rscale>  0 0.16452608E+04</rscale>
<asrwt>0</asrwt>
<pdfrwt beam="1">  1        2 0.46587589E+00 0.16452608E+04</pdfrwt>
<pdfrwt beam="2">  1       -2 0.34380530E-01 0.16452608E+04</pdfrwt>
<totfact> 0.12734044E+01</totfact>
</mgrwt>
</event>
<event>
12    1  0.1599266E-007  0.3100479E+04  0.7818608E-02  0.8215606E-01
          1   -1    0    0  501    0  0.00000000000E+00  0.00000000000E+00  0.14402378135E+04  0.14402378135E+04  0.00000000000E+00 0. -1.
         -1   -1    0    0    0  501 -0.00000000000E+00 -0.00000000000E+00 -0.16686429092E+04  0.16686429092E+04  0.00000000000E+00 0.  1.
         23    2    1    2    0    0  0.36033639373E+03 -0.11793190389E+04  0.57849519233E+03  0.13657902723E+04  0.10045231885E+03 0.  0.
        254    2    1    2    0    0 -0.36033639373E+03  0.11793190389E+04 -0.80690028797E+03  0.17430904504E+04  0.93093529926E+03 0.  0.
        -24    2    4    4    0    0 -0.18448871915E+03  0.12349619021E+04 -0.44260023990E+03  0.13271158777E+04  0.78578580555E+02 0.  0.
         24    2    4    4    0    0 -0.17584767457E+03 -0.55642863235E+02 -0.36430004807E+03  0.41597457269E+03  0.79383796977E+02 0.  0.
         11    1    3    3    0    0  0.14194397687E+03 -0.39954735410E+03  0.24763524290E+03  0.49102891388E+03  0.00000000000E+00 0.  1.
        -11    1    3    3    0    0  0.21839241686E+03 -0.77977168475E+03  0.33085994943E+03  0.87476135844E+03  0.00000000000E+00 0. -1.
          4    1    6    6  502    0 -0.17730395705E+02 -0.34487254999E+02 -0.10009189919E+03  0.10734116626E+03  0.00000000000E+00 0. -1.
          1    1    5    5  503    0 -0.30948430169E+02  0.14741798372E+03 -0.79500770767E+02  0.17032392611E+03  0.00000000000E+00 0. -1.
         -2    1    5    5    0  503 -0.15354028898E+03  0.10875439184E+04 -0.36309946913E+03  0.11567919516E+04  0.00000000000E+00 0.  1.
         -3    1    6    6    0  502 -0.15811727887E+03 -0.21155608236E+02 -0.26420814888E+03  0.30863340644E+03  0.00000000000E+00 0.  1.
<mgrwt>
<rscale>  0 0.31004791E+04</rscale>
<asrwt>0</asrwt>
<pdfrwt beam="1">  1        1 0.22157505E+00 0.31004791E+04</pdfrwt>
<pdfrwt beam="2">  1       -1 0.25671429E+00 0.31004791E+04</pdfrwt>
<totfact> 0.38289364E-01</totfact>
</mgrwt>
</event>
<event>
12    1  0.1916056E-007  0.1870748E+04  0.7818608E-02  0.8669556E-01
          2   -1    0    0  501    0  0.00000000000E+00  0.00000000000E+00  0.10056515822E+04  0.10056515822E+04  0.00000000000E+00 0. -1.
         -2   -1    0    0    0  501 -0.00000000000E+00 -0.00000000000E+00 -0.87000757533E+03  0.87000757533E+03  0.00000000000E+00 0.  1.
         23    2    1    2    0    0 -0.64817593975E+03 -0.24009880065E+03 -0.14439656702E+03  0.71208284178E+03  0.91826586813E+02 0.  0.
        254    2    1    2    0    0  0.64817593975E+03  0.24009880065E+03  0.28004057393E+03  0.11635763158E+04  0.89314480163E+03 0.  0.
        -24    2    4    4    0    0  0.22332157862E+03  0.51789236226E+03 -0.17973722798E+02  0.56972174295E+03  0.78579789459E+02 0.  0.
         24    2    4    4    0    0  0.42485436113E+03 -0.27779356162E+03  0.29801429672E+03  0.59385457284E+03  0.78614512548E+02 0.  0.
         11    1    3    3    0    0 -0.45854106155E+02  0.58871948764E+01 -0.33332883816E+01  0.46350500819E+02  0.00000000000E+00 0.  1.
        -11    1    3    3    0    0 -0.60232183359E+03 -0.24598599552E+03 -0.14106327864E+03  0.66573234096E+03  0.00000000000E+00 0. -1.
          2    1    6    6  502    0  0.20933857138E+02 -0.38746982397E+02  0.31067167723E+02  0.53895490812E+02  0.00000000000E+00 0. -1.
          3    1    5    5  503    0  0.76306211375E+02  0.95897420255E+02 -0.21239468579E+01  0.12257024213E+03  0.00000000000E+00 0. -1.
         -4    1    5    5    0  503  0.14701536724E+03  0.42199494201E+03 -0.15849775940E+02  0.44715150082E+03  0.00000000000E+00 0.  1.
         -1    1    6    6    0  502  0.40392050399E+03 -0.23904657922E+03  0.26694712900E+03  0.53995908203E+03  0.00000000000E+00 0.  1.
<mgrwt>
<rscale>  0 0.18707480E+04</rscale>
<asrwt>0</asrwt>
<pdfrwt beam="1">  1        2 0.15471563E+00 0.18707480E+04</pdfrwt>
<pdfrwt beam="2">  1       -2 0.13384732E+00 0.18707480E+04</pdfrwt>
<totfact> 0.94556812E+00</totfact>
</mgrwt>
</event>
<event>
12    1  0.1599266E-007  0.2674372E+04  0.7818608E-02  0.8343368E-01
          2   -1    0    0  501    0  0.00000000000E+00  0.00000000000E+00  0.39661991690E+04  0.39661991690E+04  0.00000000000E+00 0. -1.
         -2   -1    0    0    0  501 -0.00000000000E+00 -0.00000000000E+00 -0.45082626652E+03  0.45082626652E+03  0.00000000000E+00 0.  1.
         23    2    1    2    0    0  0.76682601337E+03 -0.88167891459E+03  0.19483676433E+04  0.22737582028E+04  0.91978518652E+02 0.  0.
        254    2    1    2    0    0 -0.76682601337E+03  0.88167891459E+03  0.15670052591E+04  0.21432672327E+04  0.87903873951E+03 0.  0.
        -24    2    4    4    0    0 -0.66622942505E+03  0.11010390186E+03  0.74633501122E+03  0.10095595803E+04  0.78804068366E+02 0.  0.
         24    2    4    4    0    0 -0.10059658831E+03  0.77157501273E+03  0.82067024792E+03  0.11337076524E+04  0.79659974506E+02 0.  0.
         13    1    3    3    0    0  0.71353210258E+03 -0.82745209115E+03  0.17731327246E+04  0.20827397062E+04  0.00000000000E+00 0. -1.
        -13    1    3    3    0    0  0.53293910791E+02 -0.54226823439E+02  0.17523491870E+03  0.19101849659E+03  0.00000000000E+00 0.  1.
          4    1    6    6  502    0 -0.71071973400E+02  0.69348601237E+03  0.75386558702E+03  0.10267849814E+04  0.00000000000E+00 0. -1.
          3    1    5    5  503    0 -0.36022715178E+03  0.20965715210E+02  0.41102191215E+03  0.54693891282E+03  0.00000000000E+00 0. -1.
         -4    1    5    5    0  503 -0.30600227328E+03  0.89138186653E+02  0.33531309907E+03  0.46262066748E+03  0.00000000000E+00 0.  1.
         -3    1    6    6    0  502 -0.29524614914E+02  0.78089000355E+02  0.66804660898E+02  0.10692267103E+03  0.00000000000E+00 0.  1.
<mgrwt>
<rscale>  0 0.26743723E+04</rscale>
<asrwt>0</asrwt>
<pdfrwt beam="1">  1        2 0.61018447E+00 0.26743723E+04</pdfrwt>
<pdfrwt beam="2">  1       -2 0.69357890E-01 0.26743723E+04</pdfrwt>
<totfact> 0.60836152E-01</totfact>
</mgrwt>
</event>
<event>
12    1  0.1599266E-007  0.1360079E+04  0.7818608E-02  0.8983233E-01
         -2   -1    0    0    0  501 -0.00000000000E+00  0.00000000000E+00  0.32274396928E+03  0.32274396928E+03  0.00000000000E+00 0.  1.
          2   -1    0    0  501    0  0.00000000000E+00 -0.00000000000E+00 -0.14328816194E+04  0.14328816194E+04  0.00000000000E+00 0. -1.
         23    2    1    2    0    0 -0.12446441922E+03  0.93001105740E+02  0.13469987918E+03  0.22487852468E+03  0.91025799056E+02 0.  0.
        254    2    1    2    0    0  0.12446441922E+03 -0.93001105740E+02 -0.12448375293E+04  0.15307470640E+04  0.87716902719E+03 0.  0.
        -24    2    4    4    0    0 -0.21018490046E+03 -0.22858192480E+03 -0.11236574444E+03  0.33948789620E+03  0.78731076542E+02 0.  0.
         24    2    4    4    0    0  0.33464931968E+03  0.13558081906E+03 -0.11324717848E+04  0.11912591678E+04  0.78954010030E+02 0.  0.
         11    1    3    3    0    0 -0.14611374958E+02 -0.90469210966E+01 -0.70193108251E+01  0.18563668387E+02  0.00000000000E+00 0. -1.
        -11    1    3    3    0    0 -0.10985304426E+03  0.10204802684E+03  0.14171919000E+03  0.20631485630E+03  0.00000000000E+00 0.  1.
          4    1    6    6  502    0  0.12218928134E+03  0.24393235706E+02 -0.29757946399E+03  0.32261244212E+03  0.00000000000E+00 0. -1.
          3    1    5    5  503    0 -0.13684940268E+03 -0.16330119159E+03 -0.11327641866E+03  0.24130185497E+03  0.00000000000E+00 0. -1.
         -4    1    5    5    0  503 -0.73335497785E+02 -0.65280733215E+02  0.91067422588E+00  0.98186041228E+02  0.00000000000E+00 0.  1.
         -3    1    6    6    0  502  0.21246003834E+03  0.11118758336E+03 -0.83489232085E+03  0.86864672566E+03  0.00000000000E+00 0.  1.
<mgrwt>
<rscale>  0 0.13600793E+04</rscale>
<asrwt>0</asrwt>
<pdfrwt beam="1">  1        2 0.22044333E+00 0.13600793E+04</pdfrwt>
<pdfrwt beam="2">  1       -2 0.49652918E-01 0.13600793E+04</pdfrwt>
<totfact> 0.51906656E+01</totfact>
</mgrwt>
</event>
<event>
12    1  0.1599266E-007  0.1486941E+04  0.7818608E-02  0.8893184E-01
         -2   -1    0    0    0  501 -0.00000000000E+00  0.00000000000E+00  0.31694233876E+03  0.31694233876E+03  0.00000000000E+00 0.  1.
          2   -1    0    0  501    0  0.00000000000E+00 -0.00000000000E+00 -0.17440026970E+04  0.17440026970E+04  0.00000000000E+00 0. -1.
         23    2    1    2    0    0 -0.97648729338E+02  0.44769355388E+03 -0.51963059723E+03  0.69889162031E+03  0.92025794354E+02 0.  0.
        254    2    1    2    0    0  0.97648729338E+02 -0.44769355388E+03 -0.90742976100E+03  0.13620534154E+04  0.90652961498E+03 0.  0.
        -24    2    4    4    0    0 -0.11661418311E+03  0.90385973854E+02  0.10131410301E+03  0.19605873269E+03  0.80037411407E+02 0.  0.
         24    2    4    4    0    0  0.21426291245E+03 -0.53807952774E+03 -0.10087438640E+04  0.11659946828E+04  0.80877952448E+02 0.  0.
         13    1    3    3    0    0 -0.14967332346E+02  0.23785965005E+02 -0.77572279329E+01  0.29154206454E+02  0.00000000000E+00 0. -1.
        -13    1    3    3    0    0 -0.82681396992E+02  0.42390758888E+03 -0.51187336930E+03  0.66973741385E+03  0.00000000000E+00 0.  1.
          4    1    6    6  502    0  0.27823732026E+02 -0.11958741375E+03 -0.16221760181E+03  0.20344498011E+03  0.00000000000E+00 0. -1.
          1    1    5    5  503    0 -0.55779178318E+01  0.48693567678E+02  0.34400787169E+02  0.59879803427E+02  0.00000000000E+00 0. -1.
         -2    1    5    5    0  503 -0.11103626527E+03  0.41692406175E+02  0.66913315846E+02  0.13617892927E+03  0.00000000000E+00 0.  1.
         -3    1    6    6    0  502  0.18643918042E+03 -0.41849211398E+03 -0.84652626220E+03  0.96254970264E+03  0.00000000000E+00 0.  1.
<mgrwt>
<rscale>  0 0.14869409E+04</rscale>
<asrwt>0</asrwt>
<pdfrwt beam="1">  1        2 0.26830811E+00 0.14869409E+04</pdfrwt>
<pdfrwt beam="2">  1       -2 0.48760360E-01 0.14869409E+04</pdfrwt>
<totfact> 0.35703340E+01</totfact>
</mgrwt>
</event>
<event>
12    1  0.1599266E-007  0.4026053E+04  0.7818608E-02  0.7999311E-01
          2   -1    0    0  501    0  0.00000000000E+00  0.00000000000E+00  0.12901145471E+04  0.12901145471E+04  0.00000000000E+00 0. -1.
         -2   -1    0    0    0  501 -0.00000000000E+00 -0.00000000000E+00 -0.31410196713E+04  0.31410196713E+04  0.00000000000E+00 0.  1.
         23    2    1    2    0    0 -0.80436090215E+03  0.12552368885E+04  0.43498606391E+03  0.15555977945E+04  0.89752523548E+02 0.  0.
        254    2    1    2    0    0  0.80436090215E+03 -0.12552368885E+04 -0.22858911882E+04  0.28755364239E+04  0.90597742452E+03 0.  0.
        -24    2    4    4    0    0 -0.14404626103E+03 -0.95123831450E+01 -0.31039261744E+03  0.35354942018E+03  0.88395728395E+02 0.  0.
         24    2    4    4    0    0  0.94840716318E+03 -0.12457245053E+04 -0.19754985707E+04  0.25219870037E+04  0.80735081968E+02 0.  0.
         11    1    3    3    0    0 -0.76776244636E+03  0.11609607858E+04  0.41597613453E+03  0.14526958611E+04  0.00000000000E+00 0. -1.
        -11    1    3    3    0    0 -0.36598455788E+02  0.94276102654E+02  0.19009929384E+02  0.10290193348E+03  0.00000000000E+00 0.  1.
          4    1    6    6  502    0  0.34870678974E+03 -0.41465408478E+03 -0.63855697456E+03  0.83743026276E+03  0.00000000000E+00 0. -1.
          3    1    5    5  503    0 -0.74063362490E+02 -0.95200443260E+01 -0.25064222424E+03  0.26152922873E+03  0.00000000000E+00 0. -1.
         -4    1    5    5    0  503 -0.69982898542E+02  0.76611809766E-02 -0.59750393193E+02  0.92020191447E+02  0.00000000000E+00 0.  1.
         -3    1    6    6    0  502  0.59970037344E+03 -0.83107042055E+03 -0.13369415962E+04  0.16845567409E+04  0.00000000000E+00 0.  1.
<mgrwt>
<rscale>  0 0.40260527E+04</rscale>
<asrwt>0</asrwt>
<pdfrwt beam="1">  1        2 0.19847916E+00 0.40260527E+04</pdfrwt>
<pdfrwt beam="2">  1       -2 0.48323379E+00 0.40260527E+04</pdfrwt>
<totfact> 0.27786664E-02</totfact>
</mgrwt>
</event>
<event>
12    1  0.1599266E-007  0.2120758E+04  0.7818608E-02  0.8552154E-01
         -1   -1    0    0    0  501 -0.00000000000E+00  0.00000000000E+00  0.14780895374E+04  0.14780895374E+04  0.00000000000E+00 0.  1.
          1   -1    0    0  501    0  0.00000000000E+00 -0.00000000000E+00 -0.76071388196E+03  0.76071388196E+03  0.00000000000E+00 0. -1.
         23    2    1    2    0    0  0.52461076796E+03 -0.52203363326E+03 -0.18369072347E+03  0.76854172205E+03  0.95804616417E+02 0.  0.
        254    2    1    2    0    0 -0.52461076796E+03  0.52203363326E+03  0.90106637895E+03  0.14702616973E+04  0.89555193444E+03 0.  0.
        -24    2    4    4    0    0 -0.50071861755E+03  0.75484686348E+03  0.76790480149E+03  0.11901815209E+04  0.79632576304E+02 0.  0.
         24    2    4    4    0    0 -0.23892150411E+02 -0.23281323022E+03  0.13316157746E+03  0.28008017647E+03  0.77071814078E+02 0.  0.
         11    1    3    3    0    0  0.24694334341E+03 -0.22455892183E+03 -0.36311629742E+02  0.33574731373E+03  0.00000000000E+00 0.  1.
        -11    1    3    3    0    0  0.27766742455E+03 -0.29747471143E+03 -0.14737909373E+03  0.43279440831E+03  0.00000000000E+00 0. -1.
          2    1    6    6  502    0 -0.89748092191E+01 -0.14224188880E+02  0.37324956077E+02  0.40939309911E+02  0.00000000000E+00 0. -1.
          1    1    5    5  503    0 -0.25634292541E+03  0.33967459406E+03  0.39977470771E+03  0.58387527964E+03  0.00000000000E+00 0. -1.
         -2    1    5    5    0  503 -0.24437569214E+03  0.41517226942E+03  0.36813009378E+03  0.60630624123E+03  0.00000000000E+00 0.  1.
         -1    1    6    6    0  502 -0.14917341192E+02 -0.21858904134E+03  0.95836621379E+02  0.23914086656E+03  0.00000000000E+00 0.  1.
<mgrwt>
<rscale>  0 0.21207576E+04</rscale>
<asrwt>0</asrwt>
<pdfrwt beam="1">  1        1 0.11703291E+00 0.21207576E+04</pdfrwt>
<pdfrwt beam="2">  1       -1 0.22739839E+00 0.21207576E+04</pdfrwt>
<totfact> 0.21597171E+00</totfact>
</mgrwt>
</event>
<event>
12    1  0.1599266E-007  0.2790359E+04  0.7818608E-02  0.8306268E-01
         -2   -1    0    0    0  501 -0.00000000000E+00  0.00000000000E+00  0.16584844941E+04  0.16584844941E+04  0.00000000000E+00 0. -1.
          2   -1    0    0  501    0  0.00000000000E+00 -0.00000000000E+00 -0.11736775493E+04  0.11736775493E+04  0.00000000000E+00 0.  1.
         23    2    1    2    0    0 -0.83290140435E+03  0.90724992473E+03  0.57413640274E+01  0.12349292970E+04  0.90499890249E+02 0.  0.
        254    2    1    2    0    0  0.83290140435E+03 -0.90724992473E+03  0.47906558079E+03  0.15972327463E+04  0.89711840906E+03 0.  0.
        -24    2    4    4    0    0  0.63447832488E+03 -0.99302413428E+03  0.14296078682E+03  0.11898701456E+04  0.81813818602E+02 0.  0.
         24    2    4    4    0    0  0.19842307947E+03  0.85774209554E+02  0.33610479397E+03  0.40736260066E+03  0.79050125846E+02 0.  0.
         11    1    3    3    0    0 -0.53406544894E+03  0.56412777198E+03 -0.38414530263E+02  0.77777999653E+03  0.00000000000E+00 0. -1.
        -11    1    3    3    0    0 -0.29883595541E+03  0.34312215275E+03  0.44155894291E+02  0.45714930051E+03  0.00000000000E+00 0.  1.
          2    1    6    6  502    0  0.18541412761E+03  0.51701484326E+02  0.29669954765E+03  0.35366942726E+03  0.00000000000E+00 0. -1.
          3    1    5    5  503    0  0.59897192112E+03 -0.93106826871E+03  0.15351263694E+03  0.11176858293E+04  0.00000000000E+00 0. -1.
         -4    1    5    5    0  503  0.35506403763E+02 -0.61955865576E+02 -0.10551850120E+02  0.72184316360E+02  0.00000000000E+00 0.  1.
         -1    1    6    6    0  502  0.13008951865E+02  0.34072725227E+02  0.39405246314E+02  0.53693173403E+02  0.00000000000E+00 0.  1.
<mgrwt>
<rscale>  0 0.27903591E+04</rscale>
<asrwt>0</asrwt>
<pdfrwt beam="1">  1        2 0.18056578E+00 0.27903591E+04</pdfrwt>
<pdfrwt beam="2">  1       -2 0.25515146E+00 0.27903591E+04</pdfrwt>
<totfact> 0.10219635E+00</totfact>
</mgrwt>
</event>
<event>
12    1  0.1599266E-007  0.1548259E+04  0.7818608E-02  0.8852980E-01
          1   -1    0    0  501    0  0.00000000000E+00  0.00000000000E+00  0.86623814370E+03  0.86623814370E+03  0.00000000000E+00 0. -1.
         -1   -1    0    0    0  501 -0.00000000000E+00 -0.00000000000E+00 -0.69181524468E+03  0.69181524468E+03  0.00000000000E+00 0.  1.
         23    2    1    2    0    0 -0.26547513297E+02 -0.54946431204E+03  0.18914253692E+03  0.58881074319E+03  0.91144892072E+02 0.  0.
        254    2    1    2    0    0  0.26547513297E+02  0.54946431204E+03 -0.14719637907E+02  0.96924264519E+03  0.79787144130E+03 0.  0.
        -24    2    4    4    0    0  0.23473510288E+03  0.24006568559E+03  0.31337017860E+03  0.46621114517E+03  0.80124035887E+02 0.  0.
         24    2    4    4    0    0 -0.20818758958E+03  0.30939862645E+03 -0.32808981651E+03  0.50303150002E+03  0.79549857378E+02 0.  0.
         13    1    3    3    0    0 -0.12618474676E+02 -0.15596004977E+02  0.20700822570E+02  0.28826816152E+02  0.00000000000E+00 0.  1.
        -13    1    3    3    0    0 -0.13929038622E+02 -0.53386830707E+03  0.16844171435E+03  0.55998392704E+03  0.00000000000E+00 0. -1.
          2    1    6    6  502    0 -0.18050456539E+03  0.30123978767E+03 -0.29128842807E+03  0.45626336268E+03  0.00000000000E+00 0. -1.
          1    1    5    5  503    0  0.23571656552E+03  0.24031377032E+03  0.29434752417E+03  0.44716157309E+03  0.00000000000E+00 0. -1.
         -2    1    5    5    0  503 -0.98146264447E+00 -0.24808472553E+00  0.19022654427E+02  0.19049572079E+02  0.00000000000E+00 0.  1.
         -1    1    6    6    0  502 -0.27683024194E+02  0.81588387837E+01 -0.36801388437E+02  0.46768137334E+02  0.00000000000E+00 0.  1.
<mgrwt>
<rscale>  0 0.15482593E+04</rscale>
<asrwt>0</asrwt>
<pdfrwt beam="1">  1        1 0.13326741E+00 0.15482593E+04</pdfrwt>
<pdfrwt beam="2">  1       -1 0.10643311E+00 0.15482593E+04</pdfrwt>
<totfact> 0.15429483E+01</totfact>
</mgrwt>
</event>
<event>
12    1  0.2269102E-007  0.1473177E+04  0.7818608E-02  0.8902488E-01
          3   -1    0    0  501    0  0.00000000000E+00  0.00000000000E+00  0.13361920353E+04  0.13361920353E+04  0.00000000000E+00 0. -1.
         -3   -1    0    0    0  501 -0.00000000000E+00 -0.00000000000E+00 -0.40605144460E+03  0.40605144460E+03  0.00000000000E+00 0.  1.
         23    2    1    2    0    0  0.13933767351E+03 -0.37872896961E+03  0.54574879785E+03  0.68450199719E+03  0.88603691397E+02 0.  0.
        254    2    1    2    0    0 -0.13933767351E+03  0.37872896961E+03  0.38439179283E+03  0.10577414827E+04  0.89900465745E+03 0.  0.
        -24    2    4    4    0    0 -0.45802719831E+03 -0.47678289118E+01  0.27753173610E+03  0.54145312081E+03  0.79598812285E+02 0.  0.
         24    2    4    4    0    0  0.31868952479E+03  0.38349679852E+03  0.10686005674E+03  0.51628836187E+03  0.80633697615E+02 0.  0.
         11    1    3    3    0    0  0.86636716232E+02 -0.26040219819E+03  0.43367834798E+03  0.51321743436E+03  0.00000000000E+00 0. -1.
        -11    1    3    3    0    0  0.52700957281E+02 -0.11832677141E+03  0.11207044987E+03  0.17128456283E+03  0.00000000000E+00 0.  1.
          2    1    6    6  502    0  0.30005197546E+03  0.35809391604E+03  0.78177706763E+02  0.47368153280E+03  0.00000000000E+00 0. -1.
          3    1    5    5  503    0 -0.43500915471E+03 -0.22886152497E+02  0.25906908445E+03  0.50682692428E+03  0.00000000000E+00 0. -1.
         -4    1    5    5    0  503 -0.23018043596E+02  0.18118323585E+02  0.18462651643E+02  0.34626196531E+02  0.00000000000E+00 0.  1.
         -1    1    6    6    0  502  0.18637549331E+02  0.25402882482E+02  0.28682349974E+02  0.42606829071E+02  0.00000000000E+00 0.  1.
<mgrwt>
<rscale>  0 0.14731771E+04</rscale>
<asrwt>0</asrwt>
<pdfrwt beam="1">  1        3 0.20556800E+00 0.14731771E+04</pdfrwt>
<pdfrwt beam="2">  1       -3 0.62469454E-01 0.14731771E+04</pdfrwt>
<totfact> 0.85982402E-01</totfact>
</mgrwt>
</event>
<event>
12    1  0.1599266E-007  0.1211151E+04  0.7818608E-02  0.9103152E-01
          2   -1    0    0  501    0  0.00000000000E+00  0.00000000000E+00  0.52998217422E+03  0.52998217422E+03  0.00000000000E+00 0. -1.
         -2   -1    0    0    0  501 -0.00000000000E+00 -0.00000000000E+00 -0.69195118128E+03  0.69195118128E+03  0.00000000000E+00 0.  1.
         23    2    1    2    0    0  0.43536400122E+02 -0.25477781518E+03 -0.61070574464E+02  0.28132377615E+03  0.92770139157E+02 0.  0.
        254    2    1    2    0    0 -0.43536400122E+02  0.25477781518E+03 -0.10089843260E+03  0.94060957934E+03  0.89875398959E+03 0.  0.
        -24    2    4    4    0    0  0.39140103589E+03 -0.72727704587E+01 -0.14490950398E+03  0.42486294102E+03  0.79133369842E+02 0.  0.
         24    2    4    4    0    0 -0.43493743601E+03  0.26205058564E+03  0.44011071380E+02  0.51574663832E+03  0.78845024264E+02 0.  0.
         11    1    3    3    0    0 -0.24172495485E+02 -0.32191353138E+02  0.18815903320E+01  0.40300535195E+02  0.00000000000E+00 0. -1.
        -11    1    3    3    0    0  0.67708895607E+02 -0.22258646204E+03 -0.62952164796E+02  0.24102324096E+03  0.00000000000E+00 0.  1.
          4    1    6    6  502    0 -0.42558412224E+03  0.26747703332E+03  0.40131159283E+02  0.50425818625E+03  0.00000000000E+00 0. -1.
          1    1    5    5  503    0  0.32770877639E+03 -0.20562763569E+02 -0.14701963390E+03  0.35976470383E+03  0.00000000000E+00 0. -1.
         -2    1    5    5    0  503  0.63692259506E+02  0.13289993110E+02  0.21101299209E+01  0.65098237197E+02  0.00000000000E+00 0.  1.
         -3    1    6    6    0  502 -0.93533137729E+01 -0.54264476804E+01  0.38799120968E+01  0.11488452065E+02  0.00000000000E+00 0.  1.
<mgrwt>
<rscale>  0 0.12111512E+04</rscale>
<asrwt>0</asrwt>
<pdfrwt beam="1">  1        2 0.81535719E-01 0.12111512E+04</pdfrwt>
<pdfrwt beam="2">  1       -2 0.10645403E+00 0.12111512E+04</pdfrwt>
<totfact> 0.40337119E+01</totfact>
</mgrwt>
</event>
<event>
12    1  0.1599266E-007  0.1164377E+04  0.7818608E-02  0.9144621E-01
         -1   -1    0    0    0  501 -0.00000000000E+00  0.00000000000E+00  0.19731031036E+03  0.19731031036E+03  0.00000000000E+00 0.  1.
          1   -1    0    0  501    0  0.00000000000E+00 -0.00000000000E+00 -0.17178198351E+04  0.17178198351E+04  0.00000000000E+00 0. -1.
         23    2    1    2    0    0  0.41544294479E+02  0.14855975801E+03 -0.42082836538E+02  0.18652104387E+03  0.96037516481E+02 0.  0.
        254    2    1    2    0    0 -0.41544294479E+02 -0.14855975801E+03 -0.14784266882E+04  0.17286091016E+04  0.88235368396E+03 0.  0.
        -24    2    4    4    0    0  0.57989202374E+02 -0.31788459698E+03 -0.14791210071E+04  0.15162578482E+04  0.82616849440E+02 0.  0.
         24    2    4    4    0    0 -0.99533496853E+02  0.16932483897E+03  0.69431890734E+00  0.21235125344E+03  0.80714030184E+02 0.  0.
         13    1    3    3    0    0  0.27242852712E+02  0.41191705529E+01  0.14013211780E+02  0.30911336016E+02  0.00000000000E+00 0. -1.
        -13    1    3    3    0    0  0.14301441768E+02  0.14444058746E+03 -0.56096048318E+02  0.15560970786E+03  0.00000000000E+00 0.  1.
          2    1    6    6  502    0 -0.77328121178E+02  0.10021957328E+03  0.36043694908E+02  0.13161591521E+03  0.00000000000E+00 0. -1.
          3    1    5    5  503    0  0.17000775748E+02 -0.26681343319E+03 -0.11476020223E+04  0.11783330752E+04  0.00000000000E+00 0. -1.
         -4    1    5    5    0  503  0.40988426626E+02 -0.51071163796E+02 -0.33151898488E+03  0.33792477302E+03  0.00000000000E+00 0.  1.
         -1    1    6    6    0  502 -0.22205375675E+02  0.69105265691E+02 -0.35349376001E+02  0.80735338228E+02  0.00000000000E+00 0.  1.
<mgrwt>
<rscale>  0 0.11643772E+04</rscale>
<asrwt>0</asrwt>
<pdfrwt beam="1">  1        1 0.26427998E+00 0.11643772E+04</pdfrwt>
<pdfrwt beam="2">  1       -1 0.30355432E-01 0.11643772E+04</pdfrwt>
<totfact> 0.45980383E+01</totfact>
</mgrwt>
</event>
<event>
12    1  0.1599266E-007  0.1560203E+04  0.7818608E-02  0.8845377E-01
          1   -1    0    0  501    0  0.00000000000E+00  0.00000000000E+00  0.20146052310E+04  0.20146052310E+04  0.00000000000E+00 0. -1.
         -1   -1    0    0    0  501 -0.00000000000E+00 -0.00000000000E+00 -0.30207323442E+03  0.30207323442E+03  0.00000000000E+00 0.  1.
         23    2    1    2    0    0 -0.43312324503E+03 -0.17330304420E+03  0.24667386360E+03  0.53571796707E+03  0.92282472603E+02 0.  0.
        254    2    1    2    0    0  0.43312324503E+03  0.17330304420E+03  0.14658581330E+04  0.17809604983E+04  0.89746896333E+03 0.  0.
        -24    2    4    4    0    0 -0.63957890598E+02  0.14817086711E+03  0.11955391598E+04  0.12091137273E+04  0.81221335704E+02 0.  0.
         24    2    4    4    0    0  0.49708113563E+03  0.25132177091E+02  0.27031897318E+03  0.57184677102E+03  0.78835908971E+02 0.  0.
         11    1    3    3    0    0 -0.39299215874E+03 -0.18253370397E+03  0.23490010705E+03  0.49288888221E+03  0.00000000000E+00 0.  1.
        -11    1    3    3    0    0 -0.40131086294E+02  0.92306597746E+01  0.11773756547E+02  0.42829084863E+02  0.00000000000E+00 0. -1.
          4    1    6    6  502    0 -0.59145019304E+00 -0.50952428024E+01  0.44989446276E+01  0.68228890734E+01  0.00000000000E+00 0. -1.
          1    1    5    5  503    0  0.93152139066E+01 -0.44788485254E+01  0.10500996879E+03  0.10551742434E+03  0.00000000000E+00 0. -1.
         -2    1    5    5    0  503 -0.73273104505E+02  0.15264971563E+03  0.10905291910E+04  0.11035963030E+04  0.00000000000E+00 0.  1.
         -3    1    6    6    0  502  0.49767258582E+03  0.30227419893E+02  0.26582002855E+03  0.56502388195E+03  0.00000000000E+00 0.  1.
<mgrwt>
<rscale>  0 0.15602030E+04</rscale>
<asrwt>0</asrwt>
<pdfrwt beam="1">  1        1 0.30993926E+00 0.15602030E+04</pdfrwt>
<pdfrwt beam="2">  1       -1 0.46472806E-01 0.15602030E+04</pdfrwt>
<totfact> 0.12934020E+01</totfact>
</mgrwt>
</event>
<event>
12    1  0.1599266E-007  0.2381897E+04  0.7818608E-02  0.8446312E-01
         -2   -1    0    0    0  501 -0.00000000000E+00  0.00000000000E+00  0.15155065478E+04  0.15155065478E+04  0.00000000000E+00 0. -1.
          2   -1    0    0  501    0  0.00000000000E+00 -0.00000000000E+00 -0.93589724137E+03  0.93589724137E+03  0.00000000000E+00 0.  1.
         23    2    1    2    0    0  0.69145910578E+03  0.57218598138E+03 -0.24710412575E+03  0.93539919493E+03  0.91644490683E+02 0.  0.
        254    2    1    2    0    0 -0.69145910578E+03 -0.57218598138E+03  0.82671343213E+03  0.15160045942E+04  0.89961232678E+03 0.  0.
        -24    2    4    4    0    0 -0.32250198077E+03 -0.56975316767E+02 -0.13286649275E+03  0.36323665498E+03  0.83866848690E+02 0.  0.
         24    2    4    4    0    0 -0.36895712501E+03 -0.51521066461E+03  0.95957992488E+03  0.11527679392E+04  0.80677756557E+02 0.  0.
         11    1    3    3    0    0  0.46041594578E+03  0.35479995030E+03 -0.19988151391E+03  0.61466939688E+03  0.00000000000E+00 0.  1.
        -11    1    3    3    0    0  0.23104316000E+03  0.21738603107E+03 -0.47222611841E+02  0.32072979805E+03  0.00000000000E+00 0. -1.
          4    1    6    6  502    0 -0.15931911964E+03 -0.16727842879E+03  0.30937858830E+03  0.38610848931E+03  0.00000000000E+00 0. -1.
          1    1    5    5  503    0 -0.63252211559E+02  0.10827714217E+02 -0.54091116043E+02  0.83928126972E+02  0.00000000000E+00 0. -1.
         -2    1    5    5    0  503 -0.25924976921E+03 -0.67803030985E+02 -0.78775376707E+02  0.27930852801E+03  0.00000000000E+00 0.  1.
         -3    1    6    6    0  502 -0.20963800537E+03 -0.34793223582E+03  0.65020133658E+03  0.76665944989E+03  0.00000000000E+00 0.  1.
<mgrwt>
<rscale>  0 0.23818971E+04</rscale>
<asrwt>0</asrwt>
<pdfrwt beam="1">  1        2 0.14398419E+00 0.23818971E+04</pdfrwt>
<pdfrwt beam="2">  1       -2 0.23315485E+00 0.23818971E+04</pdfrwt>
<totfact> 0.20406157E+00</totfact>
</mgrwt>
</event>
<event>
12    1  0.1599266E-007  0.2689582E+04  0.7818608E-02  0.8338393E-01
          2   -1    0    0  501    0  0.00000000000E+00  0.00000000000E+00  0.16590756709E+04  0.16590756709E+04  0.00000000000E+00 0. -1.
         -2   -1    0    0    0  501 -0.00000000000E+00 -0.00000000000E+00 -0.10900423017E+04  0.10900423017E+04  0.00000000000E+00 0.  1.
         23    2    1    2    0    0 -0.13172601991E+03  0.10282856827E+04  0.85047770041E+03  0.13441023095E+04  0.92604049517E+02 0.  0.
        254    2    1    2    0    0  0.13172601991E+03 -0.10282856827E+04 -0.28144433120E+03  0.14050156631E+04  0.90561300362E+03 0.  0.
        -24    2    4    4    0    0  0.37838929303E+03 -0.10290889093E+04 -0.31430954699E+03  0.11433452702E+04  0.79028319770E+02 0.  0.
         24    2    4    4    0    0 -0.24666327312E+03  0.80322657943E+00  0.32865215782E+02  0.26167039285E+03  0.80918827275E+02 0.  0.
         11    1    3    3    0    0  0.70512490356E+01  0.72502227664E+02  0.83430538004E+02  0.11075625400E+03  0.00000000000E+00 0.  1.
        -11    1    3    3    0    0 -0.13877726895E+03  0.95578345502E+03  0.76704716241E+03  0.12333460555E+04  0.00000000000E+00 0. -1.
          2    1    6    6  502    0 -0.85041537561E+02 -0.18262263265E+02 -0.22368430444E+02  0.89810467379E+02  0.00000000000E+00 0. -1.
          3    1    5    5  503    0  0.13494284407E+02 -0.10302253789E+03 -0.27292197751E+02  0.10742719899E+03  0.00000000000E+00 0. -1.
         -4    1    5    5    0  503  0.36489500862E+03 -0.92606637137E+03 -0.28701734924E+03  0.10359180712E+04  0.00000000000E+00 0.  1.
         -1    1    6    6    0  502 -0.16162173556E+03  0.19065489844E+02  0.55233646226E+02  0.17185992547E+03  0.00000000000E+00 0.  1.
<mgrwt>
<rscale>  0 0.26895819E+04</rscale>
<asrwt>0</asrwt>
<pdfrwt beam="1">  1        2 0.25524241E+00 0.26895819E+04</pdfrwt>
<pdfrwt beam="2">  1       -2 0.16769882E+00 0.26895819E+04</pdfrwt>
<totfact> 0.20092367E+00</totfact>
</mgrwt>
</event>
<event>
12    1  0.1599266E-007  0.1670237E+04  0.7818608E-02  0.8778524E-01
          1   -1    0    0  501    0  0.00000000000E+00  0.00000000000E+00  0.66858092011E+03  0.66858092011E+03  0.00000000000E+00 0. -1.
         -1   -1    0    0    0  501 -0.00000000000E+00 -0.00000000000E+00 -0.10431393255E+04  0.10431393255E+04  0.00000000000E+00 0.  1.
         23    2    1    2    0    0  0.27037051609E+03 -0.44405991970E+03  0.16567002580E+03  0.55318958632E+03  0.91009519911E+02 0.  0.
        254    2    1    2    0    0 -0.27037051609E+03  0.44405991970E+03 -0.54022843118E+03  0.11585306593E+04  0.88320841391E+03 0.  0.
        -24    2    4    4    0    0 -0.26856437873E+03  0.89705369747E+02  0.18576297918E+03  0.34694100959E+03  0.75407564708E+02 0.  0.
         24    2    4    4    0    0 -0.18061373597E+01  0.35435454995E+03 -0.72599141036E+03  0.81158964970E+03  0.77742024534E+02 0.  0.
         11    1    3    3    0    0  0.26787241729E+03 -0.38995110294E+03  0.14091169277E+03  0.49363306188E+03  0.00000000000E+00 0. -1.
        -11    1    3    3    0    0  0.24980988037E+01 -0.54108816759E+02  0.24758333031E+02  0.59556524438E+02  0.00000000000E+00 0.  1.
          4    1    6    6  502    0 -0.28657358707E+02  0.18681617774E+03 -0.44292760848E+03  0.48156660477E+03  0.00000000000E+00 0. -1.
          1    1    5    5  503    0  0.17855742788E+01  0.11062017018E+02  0.10065997183E+02  0.15062562707E+02  0.00000000000E+00 0. -1.
         -2    1    5    5    0  503 -0.27034995301E+03  0.78643352728E+02  0.17569698200E+03  0.33187844688E+03  0.00000000000E+00 0.  1.
         -3    1    6    6    0  502  0.26851221348E+02  0.16753837221E+03 -0.28306380188E+03  0.33002304493E+03  0.00000000000E+00 0.  1.
<mgrwt>
<rscale>  0 0.16702372E+04</rscale>
<asrwt>0</asrwt>
<pdfrwt beam="1">  1        1 0.10285860E+00 0.16702372E+04</pdfrwt>
<pdfrwt beam="2">  1       -1 0.16048297E+00 0.16702372E+04</pdfrwt>
<totfact> 0.80729401E+00</totfact>
</mgrwt>
</event>
<event>
12    1  0.1599266E-007  0.1462888E+04  0.7818608E-02  0.8909514E-01
         -2   -1    0    0    0  501 -0.00000000000E+00  0.00000000000E+00  0.28253458704E+03  0.28253458704E+03  0.00000000000E+00 0.  1.
          2   -1    0    0  501    0  0.00000000000E+00 -0.00000000000E+00 -0.18936088698E+04  0.18936088698E+04  0.00000000000E+00 0. -1.
         23    2    1    2    0    0  0.30834532224E+03 -0.28947172942E+03 -0.69578578759E+03  0.81927085703E+03  0.90643009078E+02 0.  0.
        254    2    1    2    0    0 -0.30834532224E+03  0.28947172942E+03 -0.91528849514E+03  0.13568725998E+04  0.90800853676E+03 0.  0.
        -24    2    4    4    0    0 -0.31102963096E+03  0.10539456756E+03 -0.10578962906E+04  0.11106043992E+04  0.80312661385E+02 0.  0.
         24    2    4    4    0    0  0.26843087208E+01  0.18407716186E+03  0.14260779550E+03  0.24626820058E+03  0.80121384464E+02 0.  0.
         13    1    3    3    0    0  0.44898944123E+02 -0.63253900754E+02 -0.74614789602E+02  0.10763056244E+03  0.00000000000E+00 0. -1.
        -13    1    3    3    0    0  0.26344637812E+03 -0.22621782866E+03 -0.62117099799E+03  0.71164029459E+03  0.00000000000E+00 0.  1.
          2    1    6    6  502    0 -0.32285523875E+02  0.71248166065E+02  0.32234473003E+02  0.84603294672E+02  0.00000000000E+00 0. -1.
          1    1    5    5  503    0 -0.29846328888E+02  0.39082816039E+02 -0.15144213223E+03  0.15922622043E+03  0.00000000000E+00 0. -1.
         -2    1    5    5    0  503 -0.28118330207E+03  0.66311751517E+02 -0.90645415841E+03  0.95137817878E+03  0.00000000000E+00 0.  1.
         -1    1    6    6    0  502  0.34969832596E+02  0.11282899580E+03  0.11037332249E+03  0.16166490591E+03  0.00000000000E+00 0.  1.
<mgrwt>
<rscale>  0 0.14628876E+04</rscale>
<asrwt>0</asrwt>
<pdfrwt beam="1">  1        2 0.29132444E+00 0.14628876E+04</pdfrwt>
<pdfrwt beam="2">  1       -2 0.43466859E-01 0.14628876E+04</pdfrwt>
<totfact> 0.37232447E+01</totfact>
</mgrwt>
</event>
<event>
12    1  0.1599266E-007  0.1168288E+04  0.7818608E-02  0.9141076E-01
         -3   -1    0    0    0  501 -0.00000000000E+00  0.00000000000E+00  0.17647797113E+03  0.17647797113E+03  0.00000000000E+00 0.  1.
          3   -1    0    0  501    0  0.00000000000E+00 -0.00000000000E+00 -0.19335223917E+04  0.19335223917E+04  0.00000000000E+00 0. -1.
         23    2    1    2    0    0  0.20660719144E+03 -0.76797618563E+02 -0.48586337858E+03  0.54060621907E+03  0.87220729666E+02 0.  0.
        254    2    1    2    0    0 -0.20660719144E+03  0.76797618563E+02 -0.12711810420E+04  0.15693941438E+04  0.89359517187E+03 0.  0.
        -24    2    4    4    0    0 -0.50791844166E+03 -0.89415727740E+02 -0.50647183259E+03  0.72729561269E+03  0.80429318519E+02 0.  0.
         24    2    4    4    0    0  0.30131125022E+03  0.16621334630E+03 -0.76470920945E+03  0.84209853112E+03  0.77035154913E+02 0.  0.
         11    1    3    3    0    0  0.90998685556E+02 -0.67052881707E+02 -0.30958034637E+03  0.32957069132E+03  0.00000000000E+00 0. -1.
        -11    1    3    3    0    0  0.11560850588E+03 -0.97447368561E+01 -0.17628303221E+03  0.21103552776E+03  0.00000000000E+00 0.  1.
          2    1    6    6  502    0  0.10785905418E+03  0.22169760558E+02 -0.27467553255E+03  0.29592519669E+03  0.00000000000E+00 0. -1.
          1    1    5    5  503    0 -0.73218097557E+02 -0.40682463959E+02 -0.96506088184E+02  0.12778645366E+03  0.00000000000E+00 0. -1.
         -2    1    5    5    0  503 -0.43470034411E+03 -0.48733263781E+02 -0.40996574441E+03  0.59950915902E+03  0.00000000000E+00 0.  1.
         -1    1    6    6    0  502  0.19345219604E+03  0.14404358575E+03 -0.49003367690E+03  0.54617333443E+03  0.00000000000E+00 0.  1.
<mgrwt>
<rscale>  0 0.11682878E+04</rscale>
<asrwt>0</asrwt>
<pdfrwt beam="1">  1        3 0.29746497E+00 0.11682878E+04</pdfrwt>
<pdfrwt beam="2">  1       -3 0.27150458E-01 0.11682878E+04</pdfrwt>
<totfact> 0.13697337E+00</totfact>
</mgrwt>
</event>
<event>
12    1  0.1599266E-007  0.1558126E+04  0.7818608E-02  0.8846694E-01
          1   -1    0    0  501    0  0.00000000000E+00  0.00000000000E+00  0.37650187163E+03  0.37650187163E+03  0.00000000000E+00 0. -1.
         -1   -1    0    0    0  501 -0.00000000000E+00 -0.00000000000E+00 -0.16120491740E+04  0.16120491740E+04  0.00000000000E+00 0.  1.
         23    2    1    2    0    0 -0.24326647815E+03  0.22240064318E+03  0.84126696313E+02  0.35212072946E+03  0.90945486988E+02 0.  0.
        254    2    1    2    0    0  0.24326647815E+03 -0.22240064318E+03 -0.13196739987E+04  0.16364303162E+04  0.90979343338E+03 0.  0.
        -24    2    4    4    0    0 -0.26645203842E+03 -0.19627055032E+03 -0.92627467957E+03  0.98689322443E+03  0.80340753679E+02 0.  0.
         24    2    4    4    0    0  0.50971851656E+03 -0.26130092859E+02 -0.39339931913E+03  0.64953709176E+03  0.81484117492E+02 0.  0.
         13    1    3    3    0    0 -0.16453310141E+03  0.17571437884E+03  0.97302355843E+02  0.25964289484E+03  0.00000000000E+00 0. -1.
        -13    1    3    3    0    0 -0.78733376741E+02  0.46686264345E+02 -0.13175659530E+02  0.92477834618E+02  0.00000000000E+00 0.  1.
          4    1    6    6  502    0  0.39933929717E+03 -0.45252775210E+02 -0.27778697003E+03  0.48855428424E+03  0.00000000000E+00 0. -1.
          1    1    5    5  503    0 -0.22994980839E+03 -0.14894813902E+03 -0.82495686523E+03  0.86926192370E+03  0.00000000000E+00 0. -1.
         -2    1    5    5    0  503 -0.36502230025E+02 -0.47322411307E+02 -0.10131781434E+03  0.11763130073E+03  0.00000000000E+00 0.  1.
         -3    1    6    6    0  502  0.11037921939E+03  0.19122682350E+02 -0.11561234910E+03  0.16098280753E+03  0.00000000000E+00 0.  1.
<mgrwt>
<rscale>  0 0.15581265E+04</rscale>
<asrwt>0</asrwt>
<pdfrwt beam="1">  1        1 0.57923365E-01 0.15581265E+04</pdfrwt>
<pdfrwt beam="2">  1       -1 0.24800756E+00 0.15581265E+04</pdfrwt>
<totfact> 0.45001208E+00</totfact>
</mgrwt>
</event>
<event>
12    1  0.1599266E-007  0.1667633E+04  0.7818608E-02  0.8780043E-01
          2   -1    0    0  501    0  0.00000000000E+00  0.00000000000E+00  0.97698384170E+03  0.97698384170E+03  0.00000000000E+00 0. -1.
         -2   -1    0    0    0  501 -0.00000000000E+00 -0.00000000000E+00 -0.71162901999E+03  0.71162901999E+03  0.00000000000E+00 0.  1.
         23    2    1    2    0    0 -0.88233762757E+02  0.49908631568E+03 -0.14718855404E+03  0.53579300374E+03  0.92397646249E+02 0.  0.
        254    2    1    2    0    0  0.88233762757E+02 -0.49908631568E+03  0.41254337575E+03  0.11528198580E+04  0.94969955282E+03 0.  0.
        -24    2    4    4    0    0 -0.35798012677E+03  0.36891150369E+02  0.19850333071E+03  0.41872782770E+03  0.80116747650E+02 0.  0.
         24    2    4    4    0    0  0.44621388952E+03 -0.53597746605E+03  0.21404004504E+03  0.73409203025E+03  0.81849182533E+02 0.  0.
         11    1    3    3    0    0  0.17405033618E+02  0.46685581833E+02 -0.56730573973E+01  0.50146408910E+02  0.00000000000E+00 0.  1.
        -11    1    3    3    0    0 -0.10563879637E+03  0.45240073384E+03 -0.14151549664E+03  0.48564659483E+03  0.00000000000E+00 0. -1.
          2    1    6    6  502    0  0.39305790327E+02 -0.42076636305E+02  0.42506807735E+02  0.71569666618E+02  0.00000000000E+00 0. -1.
          1    1    5    5  503    0 -0.19902739888E+03 -0.10125328919E+02  0.78958520306E+02  0.21435688866E+03  0.00000000000E+00 0. -1.
         -2    1    5    5    0  503 -0.15895272789E+03  0.47016479288E+02  0.11954481041E+03  0.20437093904E+03  0.00000000000E+00 0.  1.
         -1    1    6    6    0  502  0.40690809920E+03 -0.49390082974E+03  0.17153323731E+03  0.66252236363E+03  0.00000000000E+00 0.  1.
<mgrwt>
<rscale>  0 0.16676331E+04</rscale>
<asrwt>0</asrwt>
<pdfrwt beam="1">  1        2 0.15030521E+00 0.16676331E+04</pdfrwt>
<pdfrwt beam="2">  1       -2 0.10948139E+00 0.16676331E+04</pdfrwt>
<totfact> 0.16528331E+01</totfact>
</mgrwt>
</event>
<event>
12    1  0.1599266E-007  0.2459164E+04  0.7818608E-02  0.8417680E-01
         -2   -1    0    0    0  501 -0.00000000000E+00  0.00000000000E+00  0.58189516155E+03  0.58189516155E+03  0.00000000000E+00 0. -1.
          2   -1    0    0  501    0  0.00000000000E+00 -0.00000000000E+00 -0.25981852956E+04  0.25981852956E+04  0.00000000000E+00 0.  1.
         23    2    1    2    0    0  0.25896898737E+03  0.34539063092E+03  0.38033514208E+03  0.58280842748E+03  0.93011926633E+02 0.  0.
        254    2    1    2    0    0 -0.25896898737E+03 -0.34539063092E+03 -0.23966252762E+04  0.25972720297E+04  0.90313324468E+03 0.  0.
        -24    2    4    4    0    0  0.18769577211E+02  0.21681801359E+03 -0.13877225086E+04  0.14069093894E+04  0.79107022015E+02 0.  0.
         24    2    4    4    0    0 -0.27773856458E+03 -0.56220864451E+03 -0.10089027675E+04  0.11903626403E+04  0.76558154050E+02 0.  0.
         13    1    3    3    0    0  0.60004038669E+02  0.11859440019E+03  0.70912981500E+02  0.15064450656E+03  0.00000000000E+00 0.  1.
        -13    1    3    3    0    0  0.19896494870E+03  0.22679623073E+03  0.30942216058E+03  0.43216392092E+03  0.00000000000E+00 0. -1.
          2    1    6    6  502    0 -0.56106158567E+02 -0.17933070630E+03 -0.26511427114E+03  0.32495073475E+03  0.00000000000E+00 0. -1.
          1    1    5    5  503    0 -0.21805823346E+02  0.17100690964E+02 -0.15669922751E+03  0.15913068675E+03  0.00000000000E+00 0. -1.
         -2    1    5    5    0  503  0.40575400557E+02  0.19971732263E+03 -0.12310232811E+04  0.12477787026E+04  0.00000000000E+00 0.  1.
         -1    1    6    6    0  502 -0.22163240601E+03 -0.38287793821E+03 -0.74378849641E+03  0.86541190560E+03  0.00000000000E+00 0.  1.
<mgrwt>
<rscale>  0 0.24591636E+04</rscale>
<asrwt>0</asrwt>
<pdfrwt beam="1">  1        2 0.39972081E+00 0.24591636E+04</pdfrwt>
<pdfrwt beam="2">  1       -2 0.89522333E-01 0.24591636E+04</pdfrwt>
<totfact> 0.29204169E+00</totfact>
</mgrwt>
</event>
<event>
12    1  0.1599266E-007  0.1780696E+04  0.7818608E-02  0.8716633E-01
          1   -1    0    0  501    0  0.00000000000E+00  0.00000000000E+00  0.35016449193E+04  0.35016449193E+04  0.00000000000E+00 0. -1.
         -1   -1    0    0    0  501 -0.00000000000E+00 -0.00000000000E+00 -0.22638480785E+03  0.22638480785E+03  0.00000000000E+00 0.  1.
         23    2    1    2    0    0 -0.38386413159E+03 -0.35095452793E+03  0.37381369775E+03  0.64695629156E+03  0.91076947506E+02 0.  0.
        254    2    1    2    0    0  0.38386413159E+03  0.35095452793E+03  0.29014464137E+04  0.30810734356E+04  0.89671705220E+03 0.  0.
        -24    2    4    4    0    0  0.41220008792E+03  0.56951155108E+03  0.14821347486E+04  0.16420343827E+04  0.72809214120E+02 0.  0.
         24    2    4    4    0    0 -0.28335956334E+02 -0.21855702315E+03  0.14193116651E+04  0.14390390529E+04  0.88417725816E+02 0.  0.
         13    1    3    3    0    0 -0.35578328511E+03 -0.29405489884E+03  0.30438993384E+03  0.55290438714E+03  0.00000000000E+00 0.  1.
        -13    1    3    3    0    0 -0.28080846482E+02 -0.56899629095E+02  0.69423763909E+02  0.94051904423E+02  0.00000000000E+00 0. -1.
          4    1    6    6  502    0 -0.49808992082E+00  0.85181880803E+01  0.42222239985E+02  0.43075807259E+02  0.00000000000E+00 0. -1.
          1    1    5    5  503    0  0.32889615482E+02  0.23459497121E+02  0.62485471364E+02  0.74407720993E+02  0.00000000000E+00 0. -1.
         -2    1    5    5    0  503  0.37931047244E+03  0.54605205396E+03  0.14196492772E+04  0.15676266617E+04  0.00000000000E+00 0.  1.
         -3    1    6    6    0  502 -0.27837866413E+02 -0.22707521123E+03  0.13770894251E+04  0.13959632456E+04  0.00000000000E+00 0.  1.
<mgrwt>
<rscale>  0 0.17806956E+04</rscale>
<asrwt>0</asrwt>
<pdfrwt beam="1">  1        1 0.53871456E+00 0.17806956E+04</pdfrwt>
<pdfrwt beam="2">  1       -1 0.34828435E-01 0.17806956E+04</pdfrwt>
<totfact> 0.18561833E+00</totfact>
</mgrwt>
</event>
<event>
12    1  0.1599266E-007  0.1333776E+04  0.7818608E-02  0.9003201E-01
         -2   -1    0    0    0  501 -0.00000000000E+00  0.00000000000E+00  0.45795471751E+03  0.45795471751E+03  0.00000000000E+00 0.  1.
          2   -1    0    0  501    0  0.00000000000E+00 -0.00000000000E+00 -0.97114345849E+03  0.97114345849E+03  0.00000000000E+00 0. -1.
         23    2    1    2    0    0 -0.14204031140E+03  0.12270749555E+03 -0.45829263630E+03  0.50368700039E+03  0.91847016024E+02 0.  0.
        254    2    1    2    0    0  0.14204031140E+03 -0.12270749555E+03 -0.54896104672E+02  0.92541117561E+03  0.90451074184E+03 0.  0.
        -24    2    4    4    0    0  0.32596686860E+03 -0.19194507391E+03 -0.37665677303E+03  0.53988008628E+03  0.80640387315E+02 0.  0.
         24    2    4    4    0    0 -0.18392655720E+03  0.69237578365E+02  0.32176066836E+03  0.38553108932E+03  0.80507592375E+02 0.  0.
         11    1    3    3    0    0 -0.13496661489E+03  0.10973084655E+03 -0.31669875979E+03  0.36132388556E+03  0.00000000000E+00 0. -1.
        -11    1    3    3    0    0 -0.70736965069E+01  0.12976648999E+02 -0.14159387651E+03  0.14236311484E+03  0.00000000000E+00 0.  1.
          2    1    6    6  502    0 -0.53482781439E+02 -0.47446444895E+01  0.42213773775E+02  0.68300236150E+02  0.00000000000E+00 0. -1.
          3    1    5    5  503    0  0.14231331228E+02 -0.13340021428E+02 -0.52411675235E+02  0.55923793337E+02  0.00000000000E+00 0. -1.
         -4    1    5    5    0  503  0.31173553738E+03 -0.17860505248E+03 -0.32424509780E+03  0.48395629294E+03  0.00000000000E+00 0.  1.
         -1    1    6    6    0  502 -0.13044377577E+03  0.73982222854E+02  0.27954689458E+03  0.31723085318E+03  0.00000000000E+00 0.  1.
<mgrwt>
<rscale>  0 0.13337762E+04</rscale>
<asrwt>0</asrwt>
<pdfrwt beam="1">  1        2 0.14940668E+00 0.13337762E+04</pdfrwt>
<pdfrwt beam="2">  1       -2 0.70454573E-01 0.13337762E+04</pdfrwt>
<totfact> 0.47142631E+01</totfact>
</mgrwt>
</event>
<event>
12    1  0.1599266E-007  0.1872834E+04  0.7818608E-02  0.8668498E-01
          2   -1    0    0  501    0  0.00000000000E+00  0.00000000000E+00  0.14543272147E+04  0.14543272147E+04  0.00000000000E+00 0. -1.
         -2   -1    0    0    0  501 -0.00000000000E+00 -0.00000000000E+00 -0.60294302709E+03  0.60294302709E+03  0.00000000000E+00 0.  1.
         23    2    1    2    0    0 -0.62957793267E+03  0.24698718648E+03  0.71623976280E+02  0.68615360486E+03  0.91135788223E+02 0.  0.
        254    2    1    2    0    0  0.62957793267E+03 -0.24698718648E+03  0.77976021128E+03  0.13711166369E+04  0.90253188379E+03 0.  0.
        -24    2    4    4    0    0  0.40731813548E+03  0.30354640573E+03  0.47001924367E+03  0.69665579569E+03  0.79766686843E+02 0.  0.
         24    2    4    4    0    0  0.22225979719E+03 -0.55053359222E+03  0.30974096762E+03  0.67446084120E+03  0.80444426052E+02 0.  0.
         13    1    3    3    0    0 -0.57564156286E+03  0.21433626203E+03  0.39826532335E+02  0.61553992136E+03  0.00000000000E+00 0.  1.
        -13    1    3    3    0    0 -0.53936369812E+02  0.32650924456E+02  0.31797443945E+02  0.70613683502E+02  0.00000000000E+00 0. -1.
          2    1    6    6  502    0  0.11857252255E+03 -0.25330342585E+03  0.10399164269E+03  0.29838956148E+03  0.00000000000E+00 0. -1.
          3    1    5    5  503    0  0.32253318045E+03  0.23676987300E+03  0.41123353513E+03  0.57376009417E+03  0.00000000000E+00 0. -1.
         -4    1    5    5    0  503  0.84784955037E+02  0.66776532737E+02  0.58785708542E+02  0.12289570153E+03  0.00000000000E+00 0.  1.
         -1    1    6    6    0  502  0.10368727464E+03 -0.29723016637E+03  0.20574932492E+03  0.37607127972E+03  0.00000000000E+00 0.  1.
<mgrwt>
<rscale>  0 0.18728336E+04</rscale>
<asrwt>0</asrwt>
<pdfrwt beam="1">  1        2 0.22374265E+00 0.18728336E+04</pdfrwt>
<pdfrwt beam="2">  1       -2 0.92760466E-01 0.18728336E+04</pdfrwt>
<totfact> 0.12461899E+01</totfact>
</mgrwt>
</event>
<event>
12    1  0.1599266E-007  0.3439859E+04  0.7818608E-02  0.8128192E-01
          1   -1    0    0  501    0  0.00000000000E+00  0.00000000000E+00  0.25530694152E+04  0.25530694152E+04  0.00000000000E+00 0. -1.
         -1   -1    0    0    0  501 -0.00000000000E+00 -0.00000000000E+00 -0.11586667730E+04  0.11586667730E+04  0.00000000000E+00 0.  1.
         23    2    1    2    0    0  0.12528552156E+02  0.16022950925E+04  0.44624411287E+03  0.16655869594E+04  0.86830771243E+02 0.  0.
        254    2    1    2    0    0 -0.12528552156E+02 -0.16022950925E+04  0.94815852935E+03  0.20461492288E+04  0.84865513692E+03 0.  0.
        -24    2    4    4    0    0  0.10434474830E+03 -0.87998366888E+02 -0.10962006395E+03  0.19361914849E+03  0.82705968143E+02 0.  0.
         24    2    4    4    0    0 -0.11687330046E+03 -0.15142967256E+04  0.10577785933E+04  0.18525300803E+04  0.78855590929E+02 0.  0.
         13    1    3    3    0    0 -0.10880793489E+02  0.70515517202E+03  0.15505465203E+03  0.72208320394E+03  0.00000000000E+00 0. -1.
        -13    1    3    3    0    0  0.23409345645E+02  0.89713992050E+03  0.29118946084E+03  0.94350375544E+03  0.00000000000E+00 0.  1.
          2    1    6    6  502    0  0.14251809700E+01 -0.53242044398E+02  0.54672170053E+02  0.76326880002E+02  0.00000000000E+00 0. -1.
          3    1    5    5  503    0 -0.19849545313E+01 -0.44079599754E+02 -0.36895929146E+02  0.57517482094E+02  0.00000000000E+00 0. -1.
         -4    1    5    5    0  503  0.10632970284E+03 -0.43918767135E+02 -0.72724134809E+02  0.13610166639E+03  0.00000000000E+00 0.  1.
         -1    1    6    6    0  502 -0.11829848143E+03 -0.14610546812E+04  0.10031064233E+04  0.17762032003E+04  0.00000000000E+00 0.  1.
<mgrwt>
<rscale>  0 0.34398585E+04</rscale>
<asrwt>0</asrwt>
<pdfrwt beam="1">  1        1 0.39277991E+00 0.34398585E+04</pdfrwt>
<pdfrwt beam="2">  1       -1 0.17825643E+00 0.34398585E+04</pdfrwt>
<totfact> 0.21851116E-01</totfact>
</mgrwt>
</event>
<event>
12    1  0.1599266E-007  0.1632506E+04  0.7818608E-02  0.8800823E-01
         -2   -1    0    0    0  501 -0.00000000000E+00  0.00000000000E+00  0.49782689933E+03  0.49782689933E+03  0.00000000000E+00 0.  1.
          2   -1    0    0  501    0  0.00000000000E+00 -0.00000000000E+00 -0.13383552277E+04  0.13383552277E+04  0.00000000000E+00 0. -1.
         23    2    1    2    0    0  0.74401797177E+02  0.52546167562E+03 -0.51612879151E+03  0.74584002260E+03  0.90789921898E+02 0.  0.
        254    2    1    2    0    0 -0.74401797177E+02 -0.52546167562E+03 -0.32439953686E+03  0.10903421044E+04  0.89552512259E+03 0.  0.
        -24    2    4    4    0    0 -0.41072439394E+03 -0.51159958537E+03 -0.34169128357E+03  0.74409828606E+03  0.80626686149E+02 0.  0.
         24    2    4    4    0    0  0.33632259677E+03 -0.13862090252E+02  0.17291746710E+02  0.34624381836E+03  0.79251060604E+02 0.  0.
         13    1    3    3    0    0 -0.49881420606E+01  0.80172534074E+01  0.15911949243E+01  0.95754798680E+01  0.00000000000E+00 0.  1.
        -13    1    3    3    0    0  0.79389939237E+02  0.51744442221E+03 -0.51771998643E+03  0.73626454273E+03  0.00000000000E+00 0. -1.
          2    1    6    6  502    0  0.29673799846E+03 -0.48903748931E+01 -0.10646679529E+02  0.29696920258E+03  0.00000000000E+00 0. -1.
          1    1    5    5  503    0 -0.25692677284E+03 -0.35992516713E+03 -0.19703401260E+03  0.48412797343E+03  0.00000000000E+00 0. -1.
         -2    1    5    5    0  503 -0.15379762111E+03 -0.15167441824E+03 -0.14465727096E+03  0.25997031263E+03  0.00000000000E+00 0.  1.
         -1    1    6    6    0  502  0.39584598309E+02 -0.89717153586E+01  0.27938426239E+02  0.49274615782E+02  0.00000000000E+00 0.  1.
<mgrwt>
<rscale>  0 0.16325063E+04</rscale>
<asrwt>0</asrwt>
<pdfrwt beam="1">  1        2 0.20590080E+00 0.16325063E+04</pdfrwt>
<pdfrwt beam="2">  1       -2 0.76588755E-01 0.16325063E+04</pdfrwt>
<totfact> 0.22894263E+01</totfact>
</mgrwt>
</event>
<event>
12    1  0.1599266E-007  0.1700947E+04  0.7818608E-02  0.8760824E-01
          1   -1    0    0  501    0  0.00000000000E+00  0.00000000000E+00  0.66036411353E+03  0.66036411353E+03  0.00000000000E+00 0. -1.
         -1   -1    0    0    0  501 -0.00000000000E+00 -0.00000000000E+00 -0.10953127329E+04  0.10953127329E+04  0.00000000000E+00 0.  1.
         23    2    1    2    0    0  0.42357053892E+03 -0.36690632832E+03  0.83579137601E+02  0.57380618748E+03  0.90751382041E+02 0.  0.
        254    2    1    2    0    0 -0.42357053892E+03  0.36690632832E+03 -0.51852775696E+03  0.11818706589E+04  0.90217235854E+03 0.  0.
        -24    2    4    4    0    0 -0.85465225444E+02  0.35027807194E+03 -0.69864830452E+03  0.79019970094E+03  0.79417136148E+02 0.  0.
         24    2    4    4    0    0 -0.33810531348E+03  0.16628256389E+02  0.18012054756E+03  0.39167095799E+03  0.79818705636E+02 0.  0.
         13    1    3    3    0    0  0.16279268108E+03 -0.10578811368E+03 -0.52989856946E+01  0.19421807655E+03  0.00000000000E+00 0.  1.
        -13    1    3    3    0    0  0.26077785784E+03 -0.26111821464E+03  0.88878123296E+02  0.37958811093E+03  0.00000000000E+00 0. -1.
          2    1    6    6  502    0 -0.26566511733E+03 -0.10377052854E+02  0.16496779820E+03  0.31288977650E+03  0.00000000000E+00 0. -1.
          1    1    5    5  503    0 -0.83635419562E+00  0.16830816134E+03 -0.33165313571E+03  0.37191684432E+03  0.00000000000E+00 0. -1.
         -2    1    5    5    0  503 -0.84628871249E+02  0.18196991059E+03 -0.36699516881E+03  0.41828285662E+03  0.00000000000E+00 0.  1.
         -1    1    6    6    0  502 -0.72440196142E+02  0.27005309243E+02  0.15152749362E+02  0.78781181494E+02  0.00000000000E+00 0.  1.
<mgrwt>
<rscale>  0 0.17009471E+04</rscale>
<asrwt>0</asrwt>
<pdfrwt beam="1">  1        1 0.10159448E+00 0.17009471E+04</pdfrwt>
<pdfrwt beam="2">  1       -1 0.16850965E+00 0.17009471E+04</pdfrwt>
<totfact> 0.71431688E+00</totfact>
</mgrwt>
</event>
<event>
12    1  0.1599266E-007  0.4195499E+04  0.7818608E-02  0.7966229E-01
          2   -1    0    0  501    0  0.00000000000E+00  0.00000000000E+00  0.25370374507E+04  0.25370374507E+04  0.00000000000E+00 0.  1.
         -2   -1    0    0    0  501 -0.00000000000E+00 -0.00000000000E+00 -0.17345246278E+04  0.17345246278E+04  0.00000000000E+00 0. -1.
         23    2    1    2    0    0 -0.10135556538E+04  0.66381774173E+03 -0.12287162425E+04  0.17279900736E+04  0.90868214556E+02 0.  0.
        254    2    1    2    0    0  0.10135556538E+04 -0.66381774173E+03  0.20312290654E+04  0.25435720049E+04  0.93590489381E+03 0.  0.
        -24    2    4    4    0    0  0.47335216279E+03 -0.11134001000E+03  0.15574559886E+04  0.16335937787E+04  0.80626358163E+02 0.  0.
         24    2    4    4    0    0  0.54020349099E+03 -0.55247773173E+03  0.47377307685E+03  0.90997822618E+03  0.80919639373E+02 0.  0.
         11    1    3    3    0    0 -0.56181154265E+03  0.41959143476E+03 -0.72657294579E+03  0.10097511709E+04  0.00000000000E+00 0. -1.
        -11    1    3    3    0    0 -0.45174411114E+03  0.24422630698E+03 -0.50214329669E+03  0.71823890272E+03  0.00000000000E+00 0.  1.
          2    1    6    6  502    0  0.37353078770E+03 -0.40394103266E+03  0.37517158393E+03  0.66591840687E+03  0.00000000000E+00 0. -1.
          1    1    5    5  503    0  0.43510008521E+03 -0.11105238153E+03  0.13524493474E+04  0.14250487545E+04  0.00000000000E+00 0. -1.
         -2    1    5    5    0  503  0.38252077579E+02 -0.28762847515E+00  0.20500664118E+03  0.20854502415E+03  0.00000000000E+00 0.  1.
         -1    1    6    6    0  502  0.16667270329E+03 -0.14853669907E+03  0.98601492920E+02  0.24405981931E+03  0.00000000000E+00 0.  1.
<mgrwt>
<rscale>  0 0.41954995E+04</rscale>
<asrwt>0</asrwt>
<pdfrwt beam="1">  1        2 0.39031345E+00 0.41954995E+04</pdfrwt>
<pdfrwt beam="2">  1       -2 0.26684994E+00 0.41954995E+04</pdfrwt>
<totfact> 0.13032960E-01</totfact>
</mgrwt>
</event>
<event>
12    1  0.1599266E-007  0.2395371E+04  0.7818608E-02  0.8441239E-01
          3   -1    0    0  501    0  0.00000000000E+00  0.00000000000E+00  0.68971983280E+03  0.68971983280E+03  0.00000000000E+00 0. -1.
         -3   -1    0    0    0  501 -0.00000000000E+00 -0.00000000000E+00 -0.20797580574E+04  0.20797580574E+04  0.00000000000E+00 0.  1.
         23    2    1    2    0    0 -0.64756086783E+03  0.76595101079E+03 -0.78962821354E+03  0.12798068284E+04  0.91524716898E+02 0.  0.
        254    2    1    2    0    0  0.64756086783E+03 -0.76595101079E+03 -0.60041001108E+03  0.14896710619E+04  0.92336973237E+03 0.  0.
        -24    2    4    4    0    0  0.19907011574E+03  0.19613317149E+03 -0.63376608035E+02  0.29741650328E+03  0.79642011777E+02 0.  0.
         24    2    4    4    0    0  0.44849075209E+03 -0.96208418228E+03 -0.53703340304E+03  0.11922545586E+04  0.79474070983E+02 0.  0.
         11    1    3    3    0    0 -0.39034358339E+03  0.42421207782E+03 -0.50154626763E+03  0.76411560555E+03  0.00000000000E+00 0.  1.
        -11    1    3    3    0    0 -0.25721728444E+03  0.34173893297E+03 -0.28808194591E+03  0.51569122281E+03  0.00000000000E+00 0. -1.
          2    1    6    6  502    0  0.26153436871E+03 -0.60645166239E+03 -0.29618822744E+03  0.72381718058E+03  0.00000000000E+00 0. -1.
          1    1    5    5  503    0  0.17577982181E+03  0.13323699676E+03 -0.66194262557E+02  0.23028748002E+03  0.00000000000E+00 0. -1.
         -2    1    5    5    0  503  0.23290293937E+02  0.62896174728E+02  0.28176545218E+01  0.67129023262E+02  0.00000000000E+00 0.  1.
         -1    1    6    6    0  502  0.18695638338E+03 -0.35563251989E+03 -0.24084517561E+03  0.46843737800E+03  0.00000000000E+00 0.  1.
<mgrwt>
<rscale>  0 0.23953709E+04</rscale>
<asrwt>0</asrwt>
<pdfrwt beam="1">  1        3 0.10611074E+00 0.23953709E+04</pdfrwt>
<pdfrwt beam="2">  1       -3 0.31996278E+00 0.23953709E+04</pdfrwt>
<totfact> 0.52450720E-02</totfact>
</mgrwt>
</event>
<event>
12    1  0.1599266E-007  0.1387492E+04  0.7818608E-02  0.8962922E-01
         -2   -1    0    0    0  501 -0.00000000000E+00  0.00000000000E+00  0.75940499164E+03  0.75940499164E+03  0.00000000000E+00 0.  1.
          2   -1    0    0  501    0  0.00000000000E+00 -0.00000000000E+00 -0.63376420103E+03  0.63376420103E+03  0.00000000000E+00 0. -1.
         23    2    1    2    0    0 -0.31898584519E+03 -0.13572234400E+03 -0.14726990299E+03  0.38652502883E+03  0.86836913163E+02 0.  0.
        254    2    1    2    0    0  0.31898584519E+03  0.13572234400E+03  0.27291069360E+03  0.10066441638E+04  0.90480920741E+03 0.  0.
        -24    2    4    4    0    0 -0.65304086841E+02 -0.27656240814E+03  0.32029913871E+03  0.43552022193E+03  0.79592311820E+02 0.  0.
         24    2    4    4    0    0  0.38428993203E+03  0.41228475214E+03 -0.47388445109E+02  0.57112394191E+03  0.79242814088E+02 0.  0.
         11    1    3    3    0    0 -0.81038077576E+01 -0.26192145842E+02 -0.69287766821E+01  0.28279111554E+02  0.00000000000E+00 0.  1.
        -11    1    3    3    0    0 -0.31088203743E+03 -0.10953019816E+03 -0.14034112631E+03  0.35824591727E+03  0.00000000000E+00 0. -1.
          4    1    6    6  502    0  0.28935999475E+03  0.34168996539E+03 -0.13058442210E+02  0.44794169478E+03  0.00000000000E+00 0. -1.
          3    1    5    5  503    0 -0.66238519838E+02 -0.28036412508E+03  0.30424136377E+03  0.41899211397E+03  0.00000000000E+00 0. -1.
         -4    1    5    5    0  503  0.93443299702E+00  0.38017169426E+01  0.16057774939E+02  0.16528107959E+02  0.00000000000E+00 0.  1.
         -3    1    6    6    0  502  0.94929937279E+02  0.70594786745E+02 -0.34330002899E+02  0.12318224712E+03  0.00000000000E+00 0.  1.
<mgrwt>
<rscale>  0 0.13874923E+04</rscale>
<asrwt>0</asrwt>
<pdfrwt beam="1">  1        2 0.97502184E-01 0.13874923E+04</pdfrwt>
<pdfrwt beam="2">  1       -2 0.11683154E+00 0.13874923E+04</pdfrwt>
<totfact> 0.25633148E+01</totfact>
</mgrwt>
</event>
<event>
12    1  0.1616480E-007  0.3124518E+04  0.7818608E-02  0.8209041E-01
         -1   -1    0    0    0  501 -0.00000000000E+00  0.00000000000E+00  0.88593168641E+03  0.88593168641E+03  0.00000000000E+00 0.  1.
          1   -1    0    0  501    0  0.00000000000E+00 -0.00000000000E+00 -0.27549003264E+04  0.27549003264E+04  0.00000000000E+00 0. -1.
         23    2    1    2    0    0  0.17279726806E+03 -0.92990041529E+03 -0.20997237374E+04  0.23046775899E+04  0.90140679659E+02 0.  0.
        254    2    1    2    0    0 -0.17279726806E+03  0.92990041529E+03  0.23075509734E+03  0.13361544229E+04  0.91514318481E+03 0.  0.
        -24    2    4    4    0    0  0.15567494054E+03  0.39669967304E+02 -0.21864390922E+03  0.28323141500E+03  0.81280268126E+02 0.  0.
         24    2    4    4    0    0 -0.32847220860E+03  0.89023044798E+03  0.44939900656E+03  0.10529230079E+04  0.79266330493E+02 0.  0.
         13    1    3    3    0    0 -0.42711106786E+01 -0.12314862764E+03 -0.23985171239E+03  0.26965287095E+03  0.00000000000E+00 0.  1.
        -13    1    3    3    0    0  0.17706837874E+03 -0.80675178765E+03 -0.18598720250E+04  0.20350247190E+04  0.00000000000E+00 0. -1.
          2    1    6    6  502    0 -0.32370282900E+03  0.82793692911E+03  0.43000915951E+03  0.98750744673E+03  0.00000000000E+00 0. -1.
          3    1    5    5  503    0  0.16408851063E+03  0.44899984532E+02 -0.20579137250E+03  0.26700400171E+03  0.00000000000E+00 0. -1.
         -4    1    5    5    0  503 -0.84135700970E+01 -0.52300172275E+01 -0.12852536716E+02  0.16227413288E+02  0.00000000000E+00 0.  1.
         -1    1    6    6    0  502 -0.47693795941E+01  0.62293518877E+02  0.19389847044E+02  0.65415561178E+02  0.00000000000E+00 0.  1.
<mgrwt>
<rscale>  0 0.31245182E+04</rscale>
<asrwt>0</asrwt>
<pdfrwt beam="1">  1        1 0.42383082E+00 0.31245182E+04</pdfrwt>
<pdfrwt beam="2">  1       -1 0.13629718E+00 0.31245182E+04</pdfrwt>
<totfact> 0.33940621E-01</totfact>
</mgrwt>
</event>
<event>
12    1  0.1599266E-007  0.2767097E+04  0.7818608E-02  0.8313557E-01
         -1   -1    0    0    0  501 -0.00000000000E+00  0.00000000000E+00  0.90033376691E+03  0.90033376691E+03  0.00000000000E+00 0.  1.
          1   -1    0    0  501    0  0.00000000000E+00 -0.00000000000E+00 -0.21261072566E+04  0.21261072566E+04  0.00000000000E+00 0. -1.
         23    2    1    2    0    0 -0.95715096651E+03 -0.35564277220E+03  0.22112040472E+03  0.10487941170E+04  0.91951684802E+02 0.  0.
        254    2    1    2    0    0  0.95715096651E+03  0.35564277220E+03 -0.14468938944E+04  0.19776469065E+04  0.88032129992E+03 0.  0.
        -24    2    4    4    0    0  0.83428365515E+03  0.60852786000E+03 -0.12571012778E+04  0.16289149028E+04  0.82004660253E+02 0.  0.
         24    2    4    4    0    0  0.12286731136E+03 -0.25288508780E+03 -0.18979261660E+03  0.34873200371E+03  0.80904445266E+02 0.  0.
         13    1    3    3    0    0 -0.73384066914E+03 -0.28061693504E+03  0.20860006754E+03  0.81288497347E+03  0.00000000000E+00 0. -1.
        -13    1    3    3    0    0 -0.22331029737E+03 -0.75025837164E+02  0.12520337182E+02  0.23590914352E+03  0.00000000000E+00 0.  1.
          2    1    6    6  502    0  0.99347564769E+02 -0.24890104879E+03 -0.16719482780E+03  0.31587304595E+03  0.00000000000E+00 0. -1.
          1    1    5    5  503    0  0.76218963606E+03  0.52620119207E+03 -0.11126005497E+04  0.14476535218E+04  0.00000000000E+00 0. -1.
         -2    1    5    5    0  503  0.72094019087E+02  0.82326667932E+02 -0.14450072808E+03  0.18126138104E+03  0.00000000000E+00 0.  1.
         -1    1    6    6    0  502  0.23519746587E+02 -0.39840390081E+01 -0.22597788802E+02  0.32858957760E+02  0.00000000000E+00 0.  1.
<mgrwt>
<rscale>  0 0.27670968E+04</rscale>
<asrwt>0</asrwt>
<pdfrwt beam="1">  1        1 0.32709342E+00 0.27670968E+04</pdfrwt>
<pdfrwt beam="2">  1       -1 0.13851289E+00 0.27670968E+04</pdfrwt>
<totfact> 0.91524074E-01</totfact>
</mgrwt>
</event>
<event>
12    1  0.1599266E-007  0.2571663E+04  0.7818608E-02  0.8377891E-01
          2   -1    0    0  501    0  0.00000000000E+00  0.00000000000E+00  0.16888727558E+04  0.16888727558E+04  0.00000000000E+00 0. -1.
         -2   -1    0    0    0  501 -0.00000000000E+00 -0.00000000000E+00 -0.97897389478E+03  0.97897389478E+03  0.00000000000E+00 0.  1.
         23    2    1    2    0    0 -0.16955636167E+03  0.11141447750E+04  0.28345354651E+03  0.11660225107E+04  0.95888700839E+02 0.  0.
        254    2    1    2    0    0  0.16955636167E+03 -0.11141447750E+04  0.42644531450E+03  0.15018241399E+04  0.89641073263E+03 0.  0.
        -24    2    4    4    0    0  0.22199391826E+03 -0.12328608628E+04  0.27013900057E+03  0.12839875913E+04  0.80136435070E+02 0.  0.
         24    2    4    4    0    0 -0.52437556592E+02  0.11871608785E+03  0.15630631393E+03  0.21783654859E+03  0.78599562799E+02 0.  0.
         11    1    3    3    0    0 -0.12940600620E+02  0.44120280380E+02  0.31203413525E+02  0.55567178270E+02  0.00000000000E+00 0.  1.
        -11    1    3    3    0    0 -0.15661576105E+03  0.10700244946E+04  0.25225013298E+03  0.11104553324E+04  0.00000000000E+00 0. -1.
          4    1    6    6  502    0  0.99594469823E+01 -0.51418702700E+01  0.41333180267E+01  0.11946285279E+02  0.00000000000E+00 0. -1.
          1    1    5    5  503    0  0.10009000658E+03 -0.35067384724E+03  0.79092809667E+02  0.37315657450E+03  0.00000000000E+00 0. -1.
         -4    1    5    5    0  503  0.12190391169E+03 -0.88218701559E+03  0.19104619091E+03  0.91083101683E+03  0.00000000000E+00 0.  1.
         -3    1    6    6    0  502 -0.62397003575E+02  0.12385795812E+03  0.15217299590E+03  0.20589026331E+03  0.00000000000E+00 0.  1.
<mgrwt>
<rscale>  0 0.25716628E+04</rscale>
<asrwt>0</asrwt>
<pdfrwt beam="1">  1        2 0.25982658E+00 0.25716628E+04</pdfrwt>
<pdfrwt beam="2">  1       -2 0.15061137E+00 0.25716628E+04</pdfrwt>
<totfact> 0.26146778E+00</totfact>
</mgrwt>
</event>
<event>
12    1  0.1599266E-007  0.1154127E+04  0.7818608E-02  0.9153985E-01
          1   -1    0    0  501    0  0.00000000000E+00  0.00000000000E+00  0.12650074616E+04  0.12650074616E+04  0.00000000000E+00 0. -1.
         -1   -1    0    0    0  501 -0.00000000000E+00 -0.00000000000E+00 -0.26324141479E+03  0.26324141479E+03  0.00000000000E+00 0.  1.
         23    2    1    2    0    0 -0.11828827391E+03 -0.27255290114E+01 -0.30742530443E+02  0.15243397208E+03  0.91057500581E+02 0.  0.
        254    2    1    2    0    0  0.11828827391E+03  0.27255290114E+01  0.10325085773E+04  0.13758149043E+04  0.90155041154E+03 0.  0.
        -24    2    4    4    0    0  0.36792518496E+03  0.32199886756E+03  0.53590446369E+03  0.72975304212E+03  0.79332816937E+02 0.  0.
         24    2    4    4    0    0 -0.24963691105E+03 -0.31927333855E+03  0.49660411357E+03  0.64606186219E+03  0.80785098236E+02 0.  0.
         13    1    3    3    0    0 -0.10978335990E+03  0.14364196180E+02 -0.53302525096E+02  0.12288155038E+03  0.00000000000E+00 0.  1.
        -13    1    3    3    0    0 -0.85049140155E+01 -0.17089725191E+02  0.22559994653E+02  0.29552421699E+02  0.00000000000E+00 0. -1.
          4    1    6    6  502    0 -0.21434313245E+01 -0.11328616844E+02  0.43056015329E+02  0.44572999825E+02  0.00000000000E+00 0. -1.
          3    1    5    5  503    0  0.94317931294E+01  0.82024099862E+00  0.30008891241E+02  0.31466888477E+02  0.00000000000E+00 0. -1.
         -4    1    5    5    0  503  0.35849339183E+03  0.32117862656E+03  0.50589557245E+03  0.69828615365E+03  0.00000000000E+00 0.  1.
         -3    1    6    6    0  502 -0.24749347972E+03 -0.30794472170E+03  0.45354809824E+03  0.60148886236E+03  0.00000000000E+00 0.  1.
<mgrwt>
<rscale>  0 0.11541271E+04</rscale>
<asrwt>0</asrwt>
<pdfrwt beam="1">  1        1 0.19461653E+00 0.11541271E+04</pdfrwt>
<pdfrwt beam="2">  1       -1 0.40498680E-01 0.11541271E+04</pdfrwt>
<totfact> 0.56630065E+01</totfact>
</mgrwt>
</event>
<event>
12    1  0.1599266E-007  0.1550817E+04  0.7818608E-02  0.8851346E-01
          1   -1    0    0  501    0  0.00000000000E+00  0.00000000000E+00  0.19043048582E+04  0.19043048582E+04  0.00000000000E+00 0. -1.
         -1   -1    0    0    0  501 -0.00000000000E+00 -0.00000000000E+00 -0.31573642773E+03  0.31573642773E+03  0.00000000000E+00 0.  1.
         23    2    1    2    0    0 -0.44600161996E+03 -0.24472508758E+03  0.56165418810E+03  0.76325640480E+03  0.91088412934E+02 0.  0.
        254    2    1    2    0    0  0.44600161996E+03  0.24472508758E+03  0.10269142424E+04  0.14567848811E+04  0.89936728603E+03 0.  0.
        -24    2    4    4    0    0  0.52575963663E+03 -0.48962748829E+02  0.10091427982E+04  0.11417654084E+04  0.80240354612E+02 0.  0.
         24    2    4    4    0    0 -0.79758016673E+02  0.29368783641E+03  0.17771444176E+02  0.31501947267E+03  0.79420132560E+02 0.  0.
         11    1    3    3    0    0 -0.43688827545E+03 -0.21899661947E+03  0.54084771023E+03  0.72893561459E+03  0.00000000000E+00 0.  1.
        -11    1    3    3    0    0 -0.91133445085E+01 -0.25728468108E+02  0.20806477872E+02  0.34320790212E+02  0.00000000000E+00 0. -1.
          2    1    6    6  502    0 -0.65943900728E+02  0.10832064997E+03  0.23854535372E+02  0.12903875430E+03  0.00000000000E+00 0. -1.
          1    1    5    5  503    0  0.26416480386E+03 -0.51878992952E+02  0.44859407558E+03  0.52317408016E+03  0.00000000000E+00 0. -1.
         -2    1    5    5    0  503  0.26159483277E+03  0.29162441227E+01  0.56054872259E+03  0.61859132827E+03  0.00000000000E+00 0.  1.
         -1    1    6    6    0  502 -0.13814115944E+02  0.18536718644E+03 -0.60830911953E+01  0.18598071838E+03  0.00000000000E+00 0.  1.
<mgrwt>
<rscale>  0 0.15508171E+04</rscale>
<asrwt>0</asrwt>
<pdfrwt beam="1">  1        1 0.29296997E+00 0.15508171E+04</pdfrwt>
<pdfrwt beam="2">  1       -1 0.48574836E-01 0.15508171E+04</pdfrwt>
<totfact> 0.14143348E+01</totfact>
</mgrwt>
</event>
<event>
12    1  0.1599266E-007  0.1426427E+04  0.7818608E-02  0.8934908E-01
         -4   -1    0    0    0  501 -0.00000000000E+00  0.00000000000E+00  0.10576519844E+04  0.10576519844E+04  0.00000000000E+00 0.  1.
          4   -1    0    0  501    0  0.00000000000E+00 -0.00000000000E+00 -0.48094596219E+03  0.48094596219E+03  0.00000000000E+00 0. -1.
         23    2    1    2    0    0  0.24946211886E+03  0.31954862794E+03  0.46755876547E+02  0.41792981572E+03  0.90202796619E+02 0.  0.
        254    2    1    2    0    0 -0.24946211886E+03 -0.31954862794E+03  0.52995014571E+03  0.11206681309E+04  0.90039281891E+03 0.  0.
        -24    2    4    4    0    0 -0.34700327166E+03 -0.56145717371E+03  0.20268133611E+03  0.69459753082E+03  0.75766597981E+02 0.  0.
         24    2    4    4    0    0  0.97541152800E+02  0.24190854577E+03  0.32726880960E+03  0.42607060009E+03  0.79982882657E+02 0.  0.
         13    1    3    3    0    0  0.17543352822E+03  0.21237941817E+03 -0.10460536744E+02  0.27566530959E+03  0.00000000000E+00 0. -1.
        -13    1    3    3    0    0  0.74028590643E+02  0.10716920977E+03  0.57216413291E+02  0.14226450613E+03  0.00000000000E+00 0.  1.
          2    1    6    6  502    0  0.59164816154E+02  0.78217878343E+02  0.16770961250E+03  0.19428079187E+03  0.00000000000E+00 0. -1.
          1    1    5    5  503    0 -0.20843502640E+03 -0.32964512181E+03  0.80787465087E+02  0.39829346100E+03  0.00000000000E+00 0. -1.
         -2    1    5    5    0  503 -0.13856824526E+03 -0.23181205190E+03  0.12189387102E+03  0.29630406982E+03  0.00000000000E+00 0.  1.
         -1    1    6    6    0  502  0.38376336646E+02  0.16369066743E+03  0.15955919710E+03  0.23178980822E+03  0.00000000000E+00 0.  1.
<mgrwt>
<rscale>  0 0.14264269E+04</rscale>
<asrwt>0</asrwt>
<pdfrwt beam="1">  1        4 0.73991687E-01 0.14264269E+04</pdfrwt>
<pdfrwt beam="2">  1       -4 0.16271569E+00 0.14264269E+04</pdfrwt>
<totfact> 0.76746897E-01</totfact>
</mgrwt>
</event>
<event>
12    1  0.1599266E-007  0.1972787E+04  0.7818608E-02  0.8619450E-01
         -2   -1    0    0    0  501 -0.00000000000E+00  0.00000000000E+00  0.54714878301E+03  0.54714878301E+03  0.00000000000E+00 0.  1.
          2   -1    0    0  501    0  0.00000000000E+00 -0.00000000000E+00 -0.17782586618E+04  0.17782586618E+04  0.00000000000E+00 0. -1.
         23    2    1    2    0    0 -0.58559264246E+03 -0.51080108494E+03 -0.57079897851E+03  0.96845218341E+03  0.90838683439E+02 0.  0.
        254    2    1    2    0    0  0.58559264246E+03  0.51080108494E+03 -0.66031090029E+03  0.13569552614E+04  0.89525449185E+03 0.  0.
        -24    2    4    4    0    0  0.18664088335E+03 -0.15287501429E+03 -0.50155908474E+03  0.56237205951E+03  0.80592980446E+02 0.  0.
         24    2    4    4    0    0  0.39895175911E+03  0.66367609923E+03 -0.15875181555E+03  0.79458320191E+03  0.80819892561E+02 0.  0.
         13    1    3    3    0    0 -0.49049023096E+02 -0.21317564885E+02 -0.60941442154E+02  0.81080852309E+02  0.00000000000E+00 0.  1.
        -13    1    3    3    0    0 -0.53654361936E+03 -0.48948352005E+03 -0.50985753635E+03  0.88737133110E+03  0.00000000000E+00 0. -1.
          2    1    6    6  502    0  0.11985412913E+03  0.16155795004E+03 -0.11244140993E+02  0.20147559207E+03  0.00000000000E+00 0. -1.
          1    1    5    5  503    0  0.10177029069E+03 -0.60664479047E+02 -0.16415813497E+03  0.20244817698E+03  0.00000000000E+00 0. -1.
         -2    1    5    5    0  503  0.84870592658E+02 -0.92210535242E+02 -0.33740094977E+03  0.35992388253E+03  0.00000000000E+00 0.  1.
         -1    1    6    6    0  502  0.27909762998E+03  0.50211814918E+03 -0.14750767456E+03  0.59310760984E+03  0.00000000000E+00 0.  1.
<mgrwt>
<rscale>  0 0.19727869E+04</rscale>
<asrwt>0</asrwt>
<pdfrwt beam="1">  1        2 0.27357826E+00 0.19727869E+04</pdfrwt>
<pdfrwt beam="2">  1       -2 0.84176735E-01 0.19727869E+04</pdfrwt>
<totfact> 0.10175971E+01</totfact>
</mgrwt>
</event>
<event>
12    1  0.1599266E-007  0.1844672E+04  0.7818608E-02  0.8682898E-01
          1   -1    0    0  501    0  0.00000000000E+00  0.00000000000E+00  0.11924820823E+04  0.11924820823E+04  0.00000000000E+00 0. -1.
         -1   -1    0    0    0  501 -0.00000000000E+00 -0.00000000000E+00 -0.71338877554E+03  0.71338877554E+03  0.00000000000E+00 0.  1.
         23    2    1    2    0    0  0.21919145536E+03 -0.52707134354E+03  0.60036954164E+03  0.83328933570E+03  0.89880115578E+02 0.  0.
        254    2    1    2    0    0 -0.21919145536E+03  0.52707134354E+03 -0.12127623485E+03  0.10725815222E+04  0.89993005356E+03 0.  0.
        -24    2    4    4    0    0  0.76833113190E+02  0.69407426846E+03 -0.16296872730E+03  0.72161459781E+03  0.80786163838E+02 0.  0.
         24    2    4    4    0    0 -0.29602456855E+03 -0.16700292492E+03  0.41692492455E+02  0.35096692437E+03  0.76935011227E+02 0.  0.
         11    1    3    3    0    0  0.21707176762E+03 -0.46977456988E+03  0.56373633910E+03  0.76524960557E+03  0.00000000000E+00 0. -1.
        -11    1    3    3    0    0  0.21196877425E+01 -0.57296773652E+02  0.36633202542E+02  0.68039730126E+02  0.00000000000E+00 0.  1.
          4    1    6    6  502    0 -0.26892339286E+03 -0.16977052800E+03  0.51180210859E+02  0.32211991151E+03  0.00000000000E+00 0. -1.
          3    1    5    5  503    0  0.27452820208E+02  0.46566702592E+03 -0.13877965676E+03  0.48668185655E+03  0.00000000000E+00 0. -1.
         -4    1    5    5    0  503  0.49380292982E+02  0.22840724254E+03 -0.24189070546E+02  0.23493274125E+03  0.00000000000E+00 0.  1.
         -3    1    6    6    0  502 -0.27101175690E+02  0.27676030707E+01 -0.94877184045E+01  0.28847012862E+02  0.00000000000E+00 0.  1.
<mgrwt>
<rscale>  0 0.18446716E+04</rscale>
<asrwt>0</asrwt>
<pdfrwt beam="1">  1        1 0.18345878E+00 0.18446716E+04</pdfrwt>
<pdfrwt beam="2">  1       -1 0.10975212E+00 0.18446716E+04</pdfrwt>
<totfact> 0.78062414E+00</totfact>
</mgrwt>
</event>
<event>
12    1  0.1599266E-007  0.2279589E+04  0.7818608E-02  0.8486013E-01
         -1   -1    0    0    0  501 -0.00000000000E+00  0.00000000000E+00  0.59178544526E+03  0.59178544526E+03  0.00000000000E+00 0.  1.
          1   -1    0    0  501    0  0.00000000000E+00 -0.00000000000E+00 -0.21952736816E+04  0.21952736816E+04  0.00000000000E+00 0. -1.
         23    2    1    2    0    0 -0.65281699969E+03  0.42932274151E+03  0.83595137658E+00  0.78668701408E+03  0.91584430167E+02 0.  0.
        254    2    1    2    0    0  0.65281699969E+03 -0.42932274151E+03 -0.16043241877E+04  0.20003721128E+04  0.90396041885E+03 0.  0.
        -24    2    4    4    0    0  0.41576512685E+03 -0.69581324971E+03 -0.12452958925E+04  0.14879858729E+04  0.79519675974E+02 0.  0.
         24    2    4    4    0    0  0.23705187284E+03  0.26649050819E+03 -0.35902829516E+03  0.51238623985E+03  0.80172069245E+02 0.  0.
         11    1    3    3    0    0 -0.49316650166E+03  0.36196169915E+03  0.21881146965E+02  0.61213418023E+03  0.00000000000E+00 0.  1.
        -11    1    3    3    0    0 -0.15965049803E+03  0.67361042358E+02 -0.21045195589E+02  0.17455283385E+03  0.00000000000E+00 0. -1.
          2    1    6    6  502    0  0.13837007103E+03  0.20520237966E+03 -0.26804356768E+03  0.36483098463E+03  0.00000000000E+00 0. -1.
          3    1    5    5  503    0  0.24004393441E+03 -0.45007514106E+03 -0.72755595905E+03  0.88855297906E+03  0.00000000000E+00 0. -1.
         -4    1    5    5    0  503  0.17572119244E+03 -0.24573810864E+03 -0.51773993347E+03  0.59943289385E+03  0.00000000000E+00 0.  1.
         -1    1    6    6    0  502  0.98681801804E+02  0.61288128538E+02 -0.90984727488E+02  0.14755525522E+03  0.00000000000E+00 0.  1.
<mgrwt>
<rscale>  0 0.22795886E+04</rscale>
<asrwt>0</asrwt>
<pdfrwt beam="1">  1        1 0.33773442E+00 0.22795886E+04</pdfrwt>
<pdfrwt beam="2">  1       -1 0.91043913E-01 0.22795886E+04</pdfrwt>
<totfact> 0.23395650E+00</totfact>
</mgrwt>
</event>
<event>
12    1  0.1599266E-007  0.1481123E+04  0.7818608E-02  0.8897104E-01
         -2   -1    0    0    0  501 -0.00000000000E+00  0.00000000000E+00  0.39305547212E+03  0.39305547212E+03  0.00000000000E+00 0.  1.
          2   -1    0    0  501    0  0.00000000000E+00 -0.00000000000E+00 -0.13953032802E+04  0.13953032802E+04  0.00000000000E+00 0. -1.
         23    2    1    2    0    0 -0.39936946757E+03 -0.23583346489E+03 -0.46838517483E+03  0.66544183023E+03  0.91185320262E+02 0.  0.
        254    2    1    2    0    0  0.39936946757E+03  0.23583346489E+03 -0.53386263327E+03  0.11229169221E+04  0.87224979677E+03 0.  0.
        -24    2    4    4    0    0  0.35149096688E+03  0.47222636255E+03 -0.75695672684E+02  0.59896009104E+03  0.80496698687E+02 0.  0.
         24    2    4    4    0    0  0.47878500685E+02 -0.23639289766E+03 -0.45816696059E+03  0.52395683107E+03  0.80248639632E+02 0.  0.
         13    1    3    3    0    0 -0.17209363856E+03 -0.11914134587E+03 -0.27194229071E+03  0.34316685476E+03  0.00000000000E+00 0. -1.
        -13    1    3    3    0    0 -0.22727582901E+03 -0.11669211902E+03 -0.19644288412E+03  0.32227497547E+03  0.00000000000E+00 0.  1.
          4    1    6    6  502    0 -0.73264266618E+01 -0.15808312565E+03 -0.29336382679E+03  0.33332609560E+03  0.00000000000E+00 0. -1.
          1    1    5    5  503    0  0.10217278259E+03  0.10240591480E+03  0.91558032768E+01  0.14494853439E+03  0.00000000000E+00 0. -1.
         -2    1    5    5    0  503  0.24931818430E+03  0.36982044775E+03 -0.84851475961E+02  0.45401155664E+03  0.00000000000E+00 0.  1.
         -3    1    6    6    0  502  0.55204927346E+02 -0.78309772010E+02 -0.16480313380E+03  0.19063073547E+03  0.00000000000E+00 0.  1.
<mgrwt>
<rscale>  0 0.14811233E+04</rscale>
<asrwt>0</asrwt>
<pdfrwt beam="1">  1        2 0.21466204E+00 0.14811233E+04</pdfrwt>
<pdfrwt beam="2">  1       -2 0.60470073E-01 0.14811233E+04</pdfrwt>
<totfact> 0.35885586E+01</totfact>
</mgrwt>
</event>
<event>
12    1  0.1599266E-007  0.1636536E+04  0.7818608E-02  0.8798412E-01
          2   -1    0    0  501    0  0.00000000000E+00  0.00000000000E+00  0.11706242709E+04  0.11706242709E+04  0.00000000000E+00 0. -1.
         -2   -1    0    0    0  501 -0.00000000000E+00 -0.00000000000E+00 -0.57197027633E+03  0.57197027633E+03  0.00000000000E+00 0.  1.
         23    2    1    2    0    0  0.12628962725E+02  0.12073780911E+03  0.76756935848E+03  0.78324522137E+03  0.97842973538E+02 0.  0.
        254    2    1    2    0    0 -0.12628962725E+02 -0.12073780911E+03 -0.16891536396E+03  0.95934932582E+03  0.93652635815E+03 0.  0.
        -24    2    4    4    0    0 -0.87457037350E+02 -0.25051659735E+03 -0.50795643612E+03  0.57969281528E+03  0.87273822886E+02 0.  0.
         24    2    4    4    0    0  0.74828074625E+02  0.12977878823E+03  0.33904107217E+03  0.37965651054E+03  0.82148905949E+02 0.  0.
         11    1    3    3    0    0  0.10913565519E+02  0.95004681895E+02  0.73731283030E+03  0.74348853738E+03  0.00000000000E+00 0. -1.
        -11    1    3    3    0    0  0.17153972056E+01  0.25733127219E+02  0.30256528178E+02  0.39756683984E+02  0.00000000000E+00 0.  1.
          2    1    6    6  502    0 -0.88830003273E+01  0.55901668371E+02  0.84503466196E+02  0.10170909507E+03  0.00000000000E+00 0. -1.
          1    1    5    5  503    0  0.14157484234E+01 -0.69880024614E+02 -0.19916865064E+03  0.21107670071E+03  0.00000000000E+00 0. -1.
         -2    1    5    5    0  503 -0.88872785773E+02 -0.18063657273E+03 -0.30878778548E+03  0.36861611457E+03  0.00000000000E+00 0.  1.
         -1    1    6    6    0  502  0.83711074952E+02  0.73877119862E+02  0.25453760597E+03  0.27794741546E+03  0.00000000000E+00 0.  1.
<mgrwt>
<rscale>  0 0.16365357E+04</rscale>
<asrwt>0</asrwt>
<pdfrwt beam="1">  1        2 0.18009604E+00 0.16365357E+04</pdfrwt>
<pdfrwt beam="2">  1       -2 0.87995428E-01 0.16365357E+04</pdfrwt>
<totfact> 0.21000606E+01</totfact>
</mgrwt>
</event>
<event>
12    1  0.1599266E-007  0.2058737E+04  0.7818608E-02  0.8579641E-01
         -2   -1    0    0    0  501 -0.00000000000E+00  0.00000000000E+00  0.61731636702E+03  0.61731636702E+03  0.00000000000E+00 0.  1.
          2   -1    0    0  501    0  0.00000000000E+00 -0.00000000000E+00 -0.17164615513E+04  0.17164615513E+04  0.00000000000E+00 0. -1.
         23    2    1    2    0    0 -0.77542808776E+03  0.28495903902E+03 -0.44877479950E+03  0.94413321854E+03  0.86592958609E+02 0.  0.
        254    2    1    2    0    0  0.77542808776E+03 -0.28495903902E+03 -0.65037038481E+03  0.13896446998E+04  0.90864755602E+03 0.  0.
        -24    2    4    4    0    0  0.27105322083E+03  0.31202139741E+03 -0.10539644091E+03  0.43379820302E+03  0.79027022089E+02 0.  0.
         24    2    4    4    0    0  0.50437486693E+03 -0.59698043643E+03 -0.54497394390E+03  0.95584649679E+03  0.76591631551E+02 0.  0.
         13    1    3    3    0    0 -0.72349313880E+03  0.25558938115E+03 -0.39145853194E+03  0.86139888314E+03  0.00000000000E+00 0.  1.
        -13    1    3    3    0    0 -0.51934948954E+02  0.29369657866E+02 -0.57316267564E+02  0.82734335397E+02  0.00000000000E+00 0. -1.
          2    1    6    6  502    0  0.41960317423E+03 -0.52163030130E+03 -0.43848791257E+03  0.80027285630E+03  0.00000000000E+00 0. -1.
          1    1    5    5  503    0  0.15240311673E+03  0.16194000888E+03 -0.96106702022E+02  0.24225559774E+03  0.00000000000E+00 0. -1.
         -2    1    5    5    0  503  0.11865010410E+03  0.15008138853E+03 -0.92897388910E+01  0.19154260528E+03  0.00000000000E+00 0.  1.
         -1    1    6    6    0  502  0.84771692699E+02 -0.75350135133E+02 -0.10648603133E+03  0.15557364049E+03  0.00000000000E+00 0.  1.
<mgrwt>
<rscale>  0 0.20587373E+04</rscale>
<asrwt>0</asrwt>
<pdfrwt beam="1">  1        2 0.26407101E+00 0.20587373E+04</pdfrwt>
<pdfrwt beam="2">  1       -2 0.94971749E-01 0.20587373E+04</pdfrwt>
<totfact> 0.82808554E+00</totfact>
</mgrwt>
</event>
<event>
12    1  0.1599266E-007  0.1625661E+04  0.7818608E-02  0.8804937E-01
          1   -1    0    0  501    0  0.00000000000E+00  0.00000000000E+00  0.22834119873E+04  0.22834119873E+04  0.00000000000E+00 0. -1.
         -1   -1    0    0    0  501 -0.00000000000E+00 -0.00000000000E+00 -0.28934494569E+03  0.28934494569E+03  0.00000000000E+00 0.  1.
         23    2    1    2    0    0  0.13320628004E+03 -0.39981163163E+01  0.16012448206E+04  0.16093449458E+04  0.90809037072E+02 0.  0.
        254    2    1    2    0    0 -0.13320628004E+03  0.39981163163E+01  0.39282222100E+03  0.96341198714E+03  0.86953634868E+03 0.  0.
        -24    2    4    4    0    0  0.19371946001E+03  0.21971374159E+03  0.46656954830E+03  0.55680154085E+03  0.80866897212E+02 0.  0.
         24    2    4    4    0    0 -0.32692574006E+03 -0.21571562527E+03 -0.73747327303E+02  0.40661044629E+03  0.80496684700E+02 0.  0.
         11    1    3    3    0    0  0.30561463159E+02 -0.36783059302E+02  0.31692000137E+03  0.32050785287E+03  0.00000000000E+00 0.  1.
        -11    1    3    3    0    0  0.10264481688E+03  0.32784942986E+02  0.12843248192E+04  0.12888370930E+04  0.00000000000E+00 0. -1.
          4    1    6    6  502    0 -0.23160127213E+03 -0.18796079746E+03 -0.36198011313E+02  0.30046415203E+03  0.00000000000E+00 0. -1.
          1    1    5    5  503    0  0.20096501596E+03  0.21371053629E+03  0.44201420293E+03  0.53050512397E+03  0.00000000000E+00 0. -1.
         -2    1    5    5    0  503 -0.72455559502E+01  0.60032053012E+01  0.24555345367E+02  0.26296416886E+02  0.00000000000E+00 0.  1.
         -3    1    6    6    0  502 -0.95324467927E+02 -0.27754827809E+02 -0.37549315990E+02  0.10614629425E+03  0.00000000000E+00 0.  1.
<mgrwt>
<rscale>  0 0.16256614E+04</rscale>
<asrwt>0</asrwt>
<pdfrwt beam="1">  1        1 0.35129414E+00 0.16256614E+04</pdfrwt>
<pdfrwt beam="2">  1       -1 0.44514609E-01 0.16256614E+04</pdfrwt>
<totfact> 0.91524276E+00</totfact>
</mgrwt>
</event>
<event>
12    1  0.1599266E-007  0.1527881E+04  0.7818608E-02  0.8866121E-01
         -2   -1    0    0    0  501 -0.00000000000E+00  0.00000000000E+00  0.38904331996E+03  0.38904331996E+03  0.00000000000E+00 0.  1.
          2   -1    0    0  501    0  0.00000000000E+00 -0.00000000000E+00 -0.15001038039E+04  0.15001038039E+04  0.00000000000E+00 0. -1.
         23    2    1    2    0    0 -0.32888974207E+03 -0.30168774528E+03 -0.61669281481E+03  0.76668917491E+03  0.91204742150E+02 0.  0.
        254    2    1    2    0    0  0.32888974207E+03  0.30168774528E+03 -0.49436766910E+03  0.11224579489E+04  0.90350899097E+03 0.  0.
        -24    2    4    4    0    0  0.16409214807E+03 -0.30161951482E+03 -0.30106316533E+03  0.46325680909E+03  0.77892726715E+02 0.  0.
         24    2    4    4    0    0  0.16479759400E+03  0.60330726010E+03 -0.19330450377E+03  0.65920113983E+03  0.77727823224E+02 0.  0.
         13    1    3    3    0    0 -0.25862927806E+03 -0.26799070259E+03 -0.46152542543E+03  0.59305466735E+03  0.00000000000E+00 0.  1.
        -13    1    3    3    0    0 -0.70260464009E+02 -0.33697042698E+02 -0.15516738938E+03  0.17363450756E+03  0.00000000000E+00 0. -1.
          4    1    6    6  502    0  0.12182919645E+03  0.53742350326E+03 -0.16030828090E+03  0.57390340641E+03  0.00000000000E+00 0. -1.
          1    1    5    5  503    0  0.11293777863E+03 -0.26152634768E+03 -0.26425506086E+03  0.38856364931E+03  0.00000000000E+00 0. -1.
         -2    1    5    5    0  503  0.51154369443E+02 -0.40093167134E+02 -0.36808104474E+02  0.74693159786E+02  0.00000000000E+00 0.  1.
         -3    1    6    6    0  502  0.42968397553E+02  0.65883756837E+02 -0.32996222871E+02  0.85297733422E+02  0.00000000000E+00 0.  1.
<mgrwt>
<rscale>  0 0.15278814E+04</rscale>
<asrwt>0</asrwt>
<pdfrwt beam="1">  1        2 0.23078520E+00 0.15278814E+04</pdfrwt>
<pdfrwt beam="2">  1       -2 0.59852818E-01 0.15278814E+04</pdfrwt>
<totfact> 0.31855037E+01</totfact>
</mgrwt>
</event>
<event>
12    1  0.1599266E-007  0.1378014E+04  0.7818608E-02  0.8969889E-01
         -1   -1    0    0    0  501 -0.00000000000E+00  0.00000000000E+00  0.21492038933E+03  0.21492038933E+03  0.00000000000E+00 0.  1.
          1   -1    0    0  501    0  0.00000000000E+00 -0.00000000000E+00 -0.22088671659E+04  0.22088671659E+04  0.00000000000E+00 0. -1.
         23    2    1    2    0    0 -0.24850569678E+03  0.47899778497E+02 -0.65967723524E+02  0.27810292497E+03  0.94551711852E+02 0.  0.
        254    2    1    2    0    0  0.24850569678E+03 -0.47899778497E+02 -0.19279790531E+04  0.21456846303E+04  0.90708865800E+03 0.  0.
        -24    2    4    4    0    0  0.54584416225E+02 -0.42053997823E+03 -0.14077039640E+04  0.14723226129E+04  0.79183926071E+02 0.  0.
         24    2    4    4    0    0  0.19392128056E+03  0.37264019973E+03 -0.52027508904E+03  0.67336201745E+03  0.79145794298E+02 0.  0.
         11    1    3    3    0    0 -0.15231567492E+03 -0.14649050859E+02 -0.19275268993E+02  0.15422773912E+03  0.00000000000E+00 0.  1.
        -11    1    3    3    0    0 -0.96190021862E+02  0.62548829355E+02 -0.46692454531E+02  0.12387518585E+03  0.00000000000E+00 0. -1.
          2    1    6    6  502    0  0.18978639833E+03  0.35190065979E+03 -0.51422086409E+03  0.65136475835E+03  0.00000000000E+00 0. -1.
          3    1    5    5  503    0  0.49568605803E+02 -0.35041144538E+03 -0.12596943439E+04  0.13084628645E+04  0.00000000000E+00 0. -1.
         -4    1    5    5    0  503  0.50158104227E+01 -0.70128532848E+02 -0.14800962016E+03  0.16385974836E+03  0.00000000000E+00 0.  1.
         -1    1    6    6    0  502  0.41348822268E+01  0.20739539943E+02 -0.60542249463E+01  0.21997259097E+02  0.00000000000E+00 0.  1.
<mgrwt>
<rscale>  0 0.13780139E+04</rscale>
<asrwt>0</asrwt>
<pdfrwt beam="1">  1        1 0.33982570E+00 0.13780139E+04</pdfrwt>
<pdfrwt beam="2">  1       -1 0.33064677E-01 0.13780139E+04</pdfrwt>
<totfact> 0.18061252E+01</totfact>
</mgrwt>
</event>
<event>
12    1  0.1599266E-007  0.1974711E+04  0.7818608E-02  0.8618536E-01
         -2   -1    0    0    0  501 -0.00000000000E+00  0.00000000000E+00  0.11918885972E+04  0.11918885972E+04  0.00000000000E+00 0.  1.
          2   -1    0    0  501    0  0.00000000000E+00 -0.00000000000E+00 -0.81792154604E+03  0.81792154604E+03  0.00000000000E+00 0. -1.
         23    2    1    2    0    0  0.74899159791E+03 -0.52120296853E+02  0.38972834075E+03  0.85052420181E+03  0.88307979199E+02 0.  0.
        254    2    1    2    0    0 -0.74899159791E+03  0.52120296853E+02 -0.15761289553E+02  0.11592859415E+04  0.88317072910E+03 0.  0.
        -24    2    4    4    0    0 -0.22250870925E+03  0.26472525743E+03 -0.34761421389E+03  0.49666916263E+03  0.79088733689E+02 0.  0.
         24    2    4    4    0    0 -0.52648288866E+03 -0.21260496057E+03  0.33185292434E+03  0.66261677883E+03  0.80929172040E+02 0.  0.
         11    1    3    3    0    0  0.21612799718E+03 -0.35880117332E+02  0.15296697783E+03  0.26720327523E+03  0.00000000000E+00 0.  1.
        -11    1    3    3    0    0  0.53286360073E+03 -0.16240179522E+02  0.23676136291E+03  0.58332092658E+03  0.00000000000E+00 0. -1.
          4    1    6    6  502    0 -0.13169558803E+02 -0.10701207043E+02  0.28342705246E+02  0.33034255733E+02  0.00000000000E+00 0. -1.
          3    1    5    5  503    0 -0.91736506025E+02  0.55680973562E+02 -0.89890019250E+02  0.13998633117E+03  0.00000000000E+00 0. -1.
         -4    1    5    5    0  503 -0.13077220323E+03  0.20904428386E+03 -0.25772419464E+03  0.35668283146E+03  0.00000000000E+00 0.  1.
         -3    1    6    6    0  502 -0.51331332986E+03 -0.20190375353E+03  0.30351021909E+03  0.62958252310E+03  0.00000000000E+00 0.  1.
<mgrwt>
<rscale>  0 0.19747115E+04</rscale>
<asrwt>0</asrwt>
<pdfrwt beam="1">  1        2 0.12583408E+00 0.19747115E+04</pdfrwt>
<pdfrwt beam="2">  1       -2 0.18336748E+00 0.19747115E+04</pdfrwt>
<totfact> 0.53489390E+00</totfact>
</mgrwt>
</event>
<event>
12    1  0.1599266E-007  0.1751132E+04  0.7818608E-02  0.8732727E-01
         -2   -1    0    0    0  501 -0.00000000000E+00  0.00000000000E+00  0.38824992050E+03  0.38824992050E+03  0.00000000000E+00 0.  1.
          2   -1    0    0  501    0  0.00000000000E+00 -0.00000000000E+00 -0.19745426374E+04  0.19745426374E+04  0.00000000000E+00 0. -1.
         23    2    1    2    0    0 -0.28319939618E+03  0.25604599672E+03  0.10600806236E+03  0.40769741693E+03  0.96010541362E+02 0.  0.
        254    2    1    2    0    0  0.28319939618E+03 -0.25604599672E+03 -0.16923007792E+04  0.19550951409E+04  0.90152849775E+03 0.  0.
        -24    2    4    4    0    0  0.45314623485E+03  0.16164828526E+03 -0.11277768752E+04  0.12286006201E+04  0.78148096501E+02 0.  0.
         24    2    4    4    0    0 -0.16994683867E+03 -0.41769428198E+03 -0.56452390400E+03  0.72649452089E+03  0.75872323741E+02 0.  0.
         11    1    3    3    0    0 -0.54278267344E+00 -0.22558322126E+01  0.13606906316E+02  0.13803307267E+02  0.00000000000E+00 0. -1.
        -11    1    3    3    0    0 -0.28265661351E+03  0.25830182894E+03  0.92401156047E+02  0.39389410967E+03  0.00000000000E+00 0.  1.
          4    1    6    6  502    0 -0.14055154576E+02 -0.11767227423E+03 -0.16412618498E+03  0.20243941338E+03  0.00000000000E+00 0. -1.
          1    1    5    5  503    0  0.14108881714E+03  0.83779545126E+02 -0.33368085776E+03  0.37184402824E+03  0.00000000000E+00 0. -1.
         -2    1    5    5    0  503  0.31205741771E+03  0.77868740135E+02 -0.79409601748E+03  0.85675659181E+03  0.00000000000E+00 0.  1.
         -3    1    6    6    0  502 -0.15589168409E+03 -0.30002200775E+03 -0.40039771902E+03  0.52405510751E+03  0.00000000000E+00 0.  1.
<mgrwt>
<rscale>  0 0.17511322E+04</rscale>
<asrwt>0</asrwt>
<pdfrwt beam="1">  1        2 0.30377579E+00 0.17511322E+04</pdfrwt>
<pdfrwt beam="2">  1       -2 0.59730758E-01 0.17511322E+04</pdfrwt>
<totfact> 0.17105571E+01</totfact>
</mgrwt>
</event>
<event>
12    1  0.1599266E-007  0.2892735E+04  0.7818608E-02  0.8275042E-01
          2   -1    0    0  501    0  0.00000000000E+00  0.00000000000E+00  0.19908365522E+04  0.19908365522E+04  0.00000000000E+00 0. -1.
         -2   -1    0    0    0  501 -0.00000000000E+00 -0.00000000000E+00 -0.10508038301E+04  0.10508038301E+04  0.00000000000E+00 0.  1.
         23    2    1    2    0    0  0.11228443055E+04 -0.19920679956E+03  0.10955214717E+04  0.15838824510E+04  0.89742075862E+02 0.  0.
        254    2    1    2    0    0 -0.11228443055E+04  0.19920679956E+03 -0.15548874962E+03  0.14577579313E+04  0.89466124964E+03 0.  0.
        -24    2    4    4    0    0 -0.43690894159E+03 -0.34649521399E+03  0.74270293581E+01  0.56342679571E+03  0.80288459937E+02 0.  0.
         24    2    4    4    0    0 -0.68593536395E+03  0.54570201355E+03 -0.16291577898E+03  0.89433113562E+03  0.70630149257E+02 0.  0.
         13    1    3    3    0    0  0.42800635229E+03 -0.45813881105E+02  0.45741557630E+03  0.62810616837E+03  0.00000000000E+00 0.  1.
        -13    1    3    3    0    0  0.69483795326E+03 -0.15339291845E+03  0.63810589540E+03  0.95577628264E+03  0.00000000000E+00 0. -1.
          4    1    6    6  502    0 -0.17329746575E+03  0.12398260179E+03 -0.68609490203E+02  0.22385477285E+03  0.00000000000E+00 0. -1.
          1    1    5    5  503    0 -0.15127965403E+03 -0.73191027912E+02  0.27437061781E+01  0.16807732808E+03  0.00000000000E+00 0. -1.
         -2    1    5    5    0  503 -0.28562928756E+03 -0.27330418608E+03  0.46833231800E+01  0.39534946763E+03  0.00000000000E+00 0.  1.
         -3    1    6    6    0  502 -0.51263789821E+03  0.42171941176E+03 -0.94306288776E+02  0.67047636277E+03  0.00000000000E+00 0.  1.
<mgrwt>
<rscale>  0 0.28927348E+04</rscale>
<asrwt>0</asrwt>
<pdfrwt beam="1">  1        2 0.30628255E+00 0.28927348E+04</pdfrwt>
<pdfrwt beam="2">  1       -2 0.16166213E+00 0.28927348E+04</pdfrwt>
<totfact> 0.14297168E+00</totfact>
</mgrwt>
</event>
<event>
12    1  0.1599266E-007  0.1955656E+04  0.7818608E-02  0.8627638E-01
          2   -1    0    0  501    0  0.00000000000E+00  0.00000000000E+00  0.18805505632E+04  0.18805505632E+04  0.00000000000E+00 0. -1.
         -2   -1    0    0    0  501 -0.00000000000E+00 -0.00000000000E+00 -0.50844007501E+03  0.50844007501E+03  0.00000000000E+00 0.  1.
         23    2    1    2    0    0 -0.54168587953E+03 -0.19166297927E+03 -0.73031863758E+02  0.58784556065E+03  0.10035168329E+03 0.  0.
        254    2    1    2    0    0  0.54168587953E+03  0.19166297927E+03  0.14451423519E+04  0.18011450776E+04  0.90858620029E+03 0.  0.
        -24    2    4    4    0    0 -0.17665644903E+03 -0.15080238344E+03  0.53139808719E+03  0.58675825948E+03  0.89176612210E+02 0.  0.
         24    2    4    4    0    0  0.71834232856E+03  0.34246536271E+03  0.91374426475E+03  0.12143868181E+04  0.80675503802E+02 0.  0.
         13    1    3    3    0    0 -0.22826601409E+03 -0.28819105053E+02 -0.30754952862E+02  0.23212449490E+03  0.00000000000E+00 0. -1.
        -13    1    3    3    0    0 -0.31341986544E+03 -0.16284387422E+03 -0.42276910896E+02  0.35572106575E+03  0.00000000000E+00 0.  1.
          2    1    6    6  502    0  0.52212890002E+03  0.22939693436E+03  0.70087086438E+03  0.90358259737E+03  0.00000000000E+00 0. -1.
          3    1    5    5  503    0 -0.17615499479E+03 -0.15468389987E+03  0.53319201996E+03  0.58245293477E+03  0.00000000000E+00 0. -1.
         -4    1    5    5    0  503 -0.50145424462E+00  0.38815164272E+01 -0.17939327704E+01  0.43053247170E+01  0.00000000000E+00 0.  1.
         -1    1    6    6    0  502  0.19621342854E+03  0.11306842836E+03  0.21287340037E+03  0.31080422072E+03  0.00000000000E+00 0.  1.
<mgrwt>
<rscale>  0 0.19556557E+04</rscale>
<asrwt>0</asrwt>
<pdfrwt beam="1">  1        2 0.28931547E+00 0.19556557E+04</pdfrwt>
<pdfrwt beam="2">  1       -2 0.78221551E-01 0.19556557E+04</pdfrwt>
<totfact> 0.10551707E+01</totfact>
</mgrwt>
</event>
<event>
12    1  0.1599266E-007  0.1368934E+04  0.7818608E-02  0.8976618E-01
         -2   -1    0    0    0  501 -0.00000000000E+00  0.00000000000E+00  0.13713062470E+03  0.13713062470E+03  0.00000000000E+00 0.  1.
          2   -1    0    0  501    0  0.00000000000E+00 -0.00000000000E+00 -0.34164157605E+04  0.34164157605E+04  0.00000000000E+00 0. -1.
         23    2    1    2    0    0 -0.20979721536E+03  0.21336174386E+03 -0.15607929323E+04  0.15919434084E+04  0.93118917828E+02 0.  0.
        254    2    1    2    0    0  0.20979721536E+03 -0.21336174386E+03 -0.17184922035E+04  0.19616029768E+04  0.89729185868E+03 0.  0.
        -24    2    4    4    0    0 -0.24672830374E+03  0.19605959334E+03 -0.53922046930E+03  0.63006468405E+03  0.83117817393E+02 0.  0.
         24    2    4    4    0    0  0.45652551910E+03 -0.40942133720E+03 -0.11792717342E+04  0.13315382928E+04  0.79189778018E+02 0.  0.
         11    1    3    3    0    0 -0.11596083826E+03  0.16782098495E+03 -0.88910509645E+03  0.91220538890E+03  0.00000000000E+00 0. -1.
        -11    1    3    3    0    0 -0.93836377107E+02  0.45540758904E+02 -0.67168783581E+03  0.67973801951E+03  0.00000000000E+00 0.  1.
          2    1    6    6  502    0  0.27869295431E+03 -0.29634949798E+03 -0.80788471792E+03  0.90452778021E+03  0.00000000000E+00 0. -1.
          3    1    5    5  503    0 -0.23326151562E+03  0.14968851990E+03 -0.44660673071E+03  0.52561883487E+03  0.00000000000E+00 0. -1.
         -2    1    5    5    0  503 -0.13466788118E+02  0.46371073442E+02 -0.92613738597E+02  0.10444584918E+03  0.00000000000E+00 0.  1.
         -1    1    6    6    0  502  0.17783256479E+03 -0.11307183922E+03 -0.37138701633E+03  0.42701051254E+03  0.00000000000E+00 0.  1.
<mgrwt>
<rscale>  0 0.13689342E+04</rscale>
<asrwt>0</asrwt>
<pdfrwt beam="1">  1        2 0.52560240E+00 0.13689342E+04</pdfrwt>
<pdfrwt beam="2">  1       -2 0.21097020E-01 0.13689342E+04</pdfrwt>
<totfact> 0.17924590E+01</totfact>
</mgrwt>
</event>
<event>
12    1  0.1599266E-007  0.1455616E+04  0.7818608E-02  0.8914516E-01
          1   -1    0    0  501    0  0.00000000000E+00  0.00000000000E+00  0.95071543070E+03  0.95071543070E+03  0.00000000000E+00 0. -1.
         -1   -1    0    0    0  501 -0.00000000000E+00 -0.00000000000E+00 -0.55716409666E+03  0.55716409666E+03  0.00000000000E+00 0.  1.
         23    2    1    2    0    0  0.14402481676E+03  0.49389011448E+02  0.54841411414E+03  0.57674896241E+03  0.93267908502E+02 0.  0.
        254    2    1    2    0    0 -0.14402481676E+03 -0.49389011448E+02 -0.15486278010E+03  0.93113056494E+03  0.90544973688E+03 0.  0.
        -24    2    4    4    0    0  0.98262711413E+02  0.32184540448E+03  0.16091071617E+03  0.38119755044E+03  0.78608454016E+02 0.  0.
         24    2    4    4    0    0 -0.24228752818E+03 -0.37123441593E+03 -0.31577349627E+03  0.54993301450E+03  0.78709475990E+02 0.  0.
         13    1    3    3    0    0  0.72487856838E+02  0.16106271070E+02  0.11990000821E+03  0.14103160400E+03  0.00000000000E+00 0.  1.
        -13    1    3    3    0    0  0.71536959925E+02  0.33282740378E+02  0.42851410593E+03  0.43571735841E+03  0.00000000000E+00 0. -1.
          2    1    6    6  502    0 -0.57804589670E+02 -0.14727754408E+03 -0.13571802288E+03  0.20845005951E+03  0.00000000000E+00 0. -1.
          1    1    5    5  503    0 -0.64737102620E+01  0.88459409613E+02  0.54755975762E+02  0.10423623629E+03  0.00000000000E+00 0. -1.
         -2    1    5    5    0  503  0.10473642167E+03  0.23338599487E+03  0.10615474041E+03  0.27696131415E+03  0.00000000000E+00 0.  1.
         -3    1    6    6    0  502 -0.18448293851E+03 -0.22395687185E+03 -0.18005547339E+03  0.34148295499E+03  0.00000000000E+00 0.  1.
<mgrwt>
<rscale>  0 0.14556160E+04</rscale>
<asrwt>0</asrwt>
<pdfrwt beam="1">  1        1 0.14626391E+00 0.14556160E+04</pdfrwt>
<pdfrwt beam="2">  1       -1 0.85717554E-01 0.14556160E+04</pdfrwt>
<totfact> 0.21608334E+01</totfact>
</mgrwt>
</event>
<event>
12    1  0.1599266E-007  0.1389659E+04  0.7818608E-02  0.8961338E-01
         -1   -1    0    0    0  501 -0.00000000000E+00  0.00000000000E+00  0.73934987138E+03  0.73934987138E+03  0.00000000000E+00 0.  1.
          1   -1    0    0  501    0  0.00000000000E+00 -0.00000000000E+00 -0.65298961991E+03  0.65298961991E+03  0.00000000000E+00 0. -1.
         23    2    1    2    0    0  0.24773017038E+01  0.16893041913E+03  0.37547201634E+03  0.42033995043E+03  0.84633417427E+02 0.  0.
        254    2    1    2    0    0 -0.24773017038E+01 -0.16893041913E+03 -0.28911176487E+03  0.97199954086E+03  0.91249869661E+03 0.  0.
        -24    2    4    4    0    0 -0.38847922985E+03 -0.23156078063E+03  0.31429404511E+02  0.46013019987E+03  0.78711410945E+02 0.  0.
         24    2    4    4    0    0  0.38600192815E+03  0.62630361495E+02 -0.32054116938E+03  0.51186934099E+03  0.79646282204E+02 0.  0.
         13    1    3    3    0    0  0.40652320864E+02  0.11564006944E+03  0.22537033069E+03  0.25654828553E+03  0.00000000000E+00 0. -1.
        -13    1    3    3    0    0 -0.38175019160E+02  0.53290349690E+02  0.15010168565E+03  0.16379166491E+03  0.00000000000E+00 0.  1.
          2    1    6    6  502    0  0.18239542967E+02  0.21169548381E+02 -0.32740254796E+02  0.43043640534E+02  0.00000000000E+00 0. -1.
          1    1    5    5  503    0 -0.10215576908E+03 -0.42682208243E+02  0.38008743780E+02  0.11705655326E+03  0.00000000000E+00 0. -1.
         -2    1    5    5    0  503 -0.28632346077E+03 -0.18887857238E+03 -0.65793392690E+01  0.34307364661E+03  0.00000000000E+00 0.  1.
         -1    1    6    6    0  502  0.36776238518E+03  0.41460813114E+02 -0.28780091458E+03  0.46882570046E+03  0.00000000000E+00 0.  1.
<mgrwt>
<rscale>  0 0.13896587E+04</rscale>
<asrwt>0</asrwt>
<pdfrwt beam="1">  1        1 0.10045994E+00 0.13896587E+04</pdfrwt>
<pdfrwt beam="2">  1       -1 0.11374613E+00 0.13896587E+04</pdfrwt>
<totfact> 0.20810134E+01</totfact>
</mgrwt>
</event>
<event>
12    1  0.1599266E-007  0.1505126E+04  0.7818608E-02  0.8881051E-01
         -2   -1    0    0    0  501 -0.00000000000E+00  0.00000000000E+00  0.21264863095E+03  0.21264863095E+03  0.00000000000E+00 0.  1.
          2   -1    0    0  501    0  0.00000000000E+00 -0.00000000000E+00 -0.26633201401E+04  0.26633201401E+04  0.00000000000E+00 0. -1.
         23    2    1    2    0    0  0.42189956512E+03 -0.21582501186E+03 -0.76332508906E+03  0.90310786214E+03  0.91427240406E+02 0.  0.
        254    2    1    2    0    0 -0.42189956512E+03  0.21582501186E+03 -0.16873464201E+04  0.19728609089E+04  0.90579387595E+03 0.  0.
        -24    2    4    4    0    0 -0.56342411872E+03  0.11108684882E+03 -0.48741434690E+03  0.75740833128E+03  0.79420458322E+02 0.  0.
         24    2    4    4    0    0  0.14152455360E+03  0.10473816304E+03 -0.11999320732E+04  0.12154525776E+04  0.80552505365E+02 0.  0.
         11    1    3    3    0    0  0.28777217694E+03 -0.11011359264E+03 -0.43564653619E+03  0.53359697675E+03  0.00000000000E+00 0. -1.
        -11    1    3    3    0    0  0.13412738818E+03 -0.10571141922E+03 -0.32767855287E+03  0.36951088539E+03  0.00000000000E+00 0.  1.
          4    1    6    6  502    0  0.64547366892E+02  0.19557342019E+01 -0.44900689600E+03  0.45362691733E+03  0.00000000000E+00 0. -1.
          1    1    5    5  503    0 -0.61982563618E+02  0.35004438179E+02 -0.78021713244E+02  0.10561503975E+03  0.00000000000E+00 0. -1.
         -2    1    5    5    0  503 -0.50144155510E+03  0.76082410637E+02 -0.40939263366E+03  0.65179329153E+03  0.00000000000E+00 0.  1.
         -3    1    6    6    0  502  0.76977186706E+02  0.10278242884E+03 -0.75092517716E+03  0.76182566027E+03  0.00000000000E+00 0.  1.
<mgrwt>
<rscale>  0 0.15051264E+04</rscale>
<asrwt>0</asrwt>
<pdfrwt beam="1">  1        2 0.40974156E+00 0.15051264E+04</pdfrwt>
<pdfrwt beam="2">  1       -2 0.32715174E-01 0.15051264E+04</pdfrwt>
<totfact> 0.23589232E+01</totfact>
</mgrwt>
</event>
<event>
12    1  0.1599266E-007  0.2010867E+04  0.7818608E-02  0.8601557E-01
          2   -1    0    0  501    0  0.00000000000E+00  0.00000000000E+00  0.56050848368E+03  0.56050848368E+03  0.00000000000E+00 0.  1.
         -2   -1    0    0    0  501 -0.00000000000E+00 -0.00000000000E+00 -0.18035347901E+04  0.18035347901E+04  0.00000000000E+00 0. -1.
         23    2    1    2    0    0 -0.73764312568E+03 -0.28912062934E+03 -0.68774948595E+03  0.10530934214E+04  0.91094893021E+02 0.  0.
        254    2    1    2    0    0  0.73764312568E+03  0.28912062934E+03 -0.55527682042E+03  0.13109498524E+04  0.88461802432E+03 0.  0.
        -24    2    4    4    0    0  0.77278572416E+03 -0.10576186623E+03 -0.34429015514E+03  0.85617009315E+03  0.78154780256E+02 0.  0.
         24    2    4    4    0    0 -0.35142598477E+02  0.39488249557E+03 -0.21098666528E+03  0.45477975922E+03  0.71708220792E+02 0.  0.
         11    1    3    3    0    0 -0.44201954885E+03 -0.14733681347E+03 -0.45306559400E+03  0.64989064514E+03  0.00000000000E+00 0. -1.
        -11    1    3    3    0    0 -0.29562357683E+03 -0.14178381588E+03 -0.23468389194E+03  0.40320277623E+03  0.00000000000E+00 0.  1.
          4    1    6    6  502    0  0.15440629998E+02  0.24370602768E+02 -0.17441966989E+02  0.33712928477E+02  0.00000000000E+00 0. -1.
          1    1    5    5  503    0  0.30144486937E+03 -0.78416332961E+02 -0.14816150433E+03  0.34492022543E+03  0.00000000000E+00 0. -1.
         -2    1    5    5    0  503  0.47134085478E+03 -0.27345533268E+02 -0.19612865081E+03  0.51124986772E+03  0.00000000000E+00 0.  1.
         -3    1    6    6    0  502 -0.50583228475E+02  0.37051189280E+03 -0.19354469829E+03  0.42106683074E+03  0.00000000000E+00 0.  1.
<mgrwt>
<rscale>  0 0.20108670E+04</rscale>
<asrwt>0</asrwt>
<pdfrwt beam="1">  1        2 0.86232074E-01 0.20108670E+04</pdfrwt>
<pdfrwt beam="2">  1       -2 0.27746689E+00 0.20108670E+04</pdfrwt>
<totfact> 0.21811819E+00</totfact>
</mgrwt>
</event>
<event>
12    1  0.1599266E-007  0.1830068E+04  0.7818608E-02  0.8690471E-01
          2   -1    0    0  501    0  0.00000000000E+00  0.00000000000E+00  0.21182517405E+04  0.21182517405E+04  0.00000000000E+00 0. -1.
         -2   -1    0    0    0  501 -0.00000000000E+00 -0.00000000000E+00 -0.39527263971E+03  0.39527263971E+03  0.00000000000E+00 0.  1.
         23    2    1    2    0    0  0.22302869646E+03  0.51740807712E+03  0.20229304494E+03  0.61130673183E+03  0.12377611496E+03 0.  0.
        254    2    1    2    0    0 -0.22302869646E+03 -0.51740807712E+03  0.15206860558E+04  0.19022176484E+04  0.99422984446E+03 0.  0.
        -24    2    4    4    0    0  0.26204560531E+03  0.12793015343E+03  0.62145088315E+03  0.69102923089E+03  0.79285398113E+02 0.  0.
         24    2    4    4    0    0 -0.48507430177E+03 -0.64533823055E+03  0.89923517268E+03  0.12111884175E+04  0.81209462359E+02 0.  0.
         11    1    3    3    0    0  0.99414143794E+02  0.37656999518E+03  0.13600721138E+03  0.41253617394E+03  0.00000000000E+00 0.  1.
        -11    1    3    3    0    0  0.12361455266E+03  0.14083808193E+03  0.66285833557E+02  0.19877055789E+03  0.00000000000E+00 0. -1.
          2    1    6    6  502    0 -0.40938753588E+03 -0.57477400646E+03  0.75220500087E+03  0.10313950147E+04  0.00000000000E+00 0. -1.
          1    1    5    5  503    0  0.24384543623E+03  0.13096668794E+03  0.53202423485E+03  0.59971881460E+03  0.00000000000E+00 0. -1.
         -2    1    5    5    0  503  0.18200169084E+02 -0.30365345028E+01  0.89426648305E+02  0.91310416292E+02  0.00000000000E+00 0.  1.
         -1    1    6    6    0  502 -0.75686765891E+02 -0.70564224087E+02  0.14703017181E+03  0.17979340276E+03  0.00000000000E+00 0.  1.
<mgrwt>
<rscale>  0 0.18300677E+04</rscale>
<asrwt>0</asrwt>
<pdfrwt beam="1">  1        2 0.32588488E+00 0.18300677E+04</pdfrwt>
<pdfrwt beam="2">  1       -2 0.60811176E-01 0.18300677E+04</pdfrwt>
<totfact> 0.13607844E+01</totfact>
</mgrwt>
</event>
<event>
12    1  0.1599266E-007  0.1604271E+04  0.7818608E-02  0.8817928E-01
          2   -1    0    0  501    0  0.00000000000E+00  0.00000000000E+00  0.27588538131E+04  0.27588538131E+04  0.00000000000E+00 0.  1.
         -2   -1    0    0    0  501 -0.00000000000E+00 -0.00000000000E+00 -0.23322063923E+03  0.23322063923E+03  0.00000000000E+00 0. -1.
         23    2    1    2    0    0  0.11127387911E+03 -0.12911655551E+03  0.18272366935E+04  0.18374780303E+04  0.92079404020E+02 0.  0.
        254    2    1    2    0    0 -0.11127387911E+03  0.12911655551E+03  0.69839648036E+03  0.11545964220E+04  0.90348342148E+03 0.  0.
        -24    2    4    4    0    0  0.14929338390E+03 -0.22639805824E+03 -0.47597805897E+02  0.28452171950E+03  0.71710964907E+02 0.  0.
         24    2    4    4    0    0 -0.26056726302E+03  0.35551461375E+03  0.74599428626E+03  0.87007470253E+03  0.78971980487E+02 0.  0.
         13    1    3    3    0    0  0.30523204367E+02 -0.92793756826E+02  0.70214918056E+03  0.70891171458E+03  0.00000000000E+00 0. -1.
        -13    1    3    3    0    0  0.80750674748E+02 -0.36322798689E+02  0.11250875130E+04  0.11285663157E+04  0.00000000000E+00 0.  1.
          4    1    6    6  502    0 -0.10805841589E+03  0.21332647800E+03  0.38711614264E+03  0.45502056586E+03  0.00000000000E+00 0. -1.
          3    1    5    5  503    0  0.12359580761E+03 -0.22224000068E+03 -0.46148038924E+02  0.25844957546E+03  0.00000000000E+00 0. -1.
         -4    1    5    5    0  503  0.25697576297E+02 -0.41580575559E+01 -0.14497669736E+01  0.26072144032E+02  0.00000000000E+00 0.  1.
         -3    1    6    6    0  502 -0.15250884713E+03  0.14218813575E+03  0.35887814361E+03  0.41505413667E+03  0.00000000000E+00 0.  1.
<mgrwt>
<rscale>  0 0.16042714E+04</rscale>
<asrwt>0</asrwt>
<pdfrwt beam="1">  1        2 0.42443902E+00 0.16042714E+04</pdfrwt>
<pdfrwt beam="2">  1       -2 0.35880100E-01 0.16042714E+04</pdfrwt>
<totfact> 0.17210335E+01</totfact>
</mgrwt>
</event>
<event>
12    1  0.1599266E-007  0.1358881E+04  0.7818608E-02  0.8984132E-01
         -1   -1    0    0    0  501 -0.00000000000E+00  0.00000000000E+00  0.55727954545E+03  0.55727954545E+03  0.00000000000E+00 0.  1.
          1   -1    0    0  501    0  0.00000000000E+00 -0.00000000000E+00 -0.82838070764E+03  0.82838070764E+03  0.00000000000E+00 0. -1.
         23    2    1    2    0    0  0.71824303127E+01  0.62567052776E+02 -0.44323028862E+03  0.45713428266E+03  0.92479404388E+02 0.  0.
        254    2    1    2    0    0 -0.71824303127E+01 -0.62567052776E+02  0.17212912642E+03  0.92852597043E+03  0.91025590808E+03 0.  0.
        -24    2    4    4    0    0  0.39896122309E+03 -0.22222051469E+03  0.45031253938E+02  0.46581069560E+03  0.79998597633E+02 0.  0.
         24    2    4    4    0    0 -0.40614365340E+03  0.15965346192E+03  0.12709787249E+03  0.46271527483E+03  0.86658301768E+02 0.  0.
         11    1    3    3    0    0 -0.39025094036E+02  0.49491552510E+02 -0.22344016920E+03  0.23215917157E+03  0.00000000000E+00 0. -1.
        -11    1    3    3    0    0  0.46207524349E+02  0.13075500266E+02 -0.21979011942E+03  0.22497511109E+03  0.00000000000E+00 0.  1.
          2    1    6    6  502    0 -0.32037182690E+03  0.16129412110E+03  0.94305195352E+02  0.37087379369E+03  0.00000000000E+00 0. -1.
          3    1    5    5  503    0  0.35948207323E+03 -0.17124000348E+03  0.49116372780E+02  0.40120184177E+03  0.00000000000E+00 0. -1.
         -4    1    5    5    0  503  0.39479149862E+02 -0.50980511209E+02 -0.40851188423E+01  0.64608853828E+02  0.00000000000E+00 0.  1.
         -1    1    6    6    0  502 -0.85771826504E+02 -0.16406591855E+01  0.32792677133E+02  0.91841481140E+02  0.00000000000E+00 0.  1.
<mgrwt>
<rscale>  0 0.13588813E+04</rscale>
<asrwt>0</asrwt>
<pdfrwt beam="1">  1        1 0.12744319E+00 0.13588813E+04</pdfrwt>
<pdfrwt beam="2">  1       -1 0.85735315E-01 0.13588813E+04</pdfrwt>
<totfact> 0.27473255E+01</totfact>
</mgrwt>
</event>
<event>
12    1  0.1599266E-007  0.1443336E+04  0.7818608E-02  0.8923033E-01
         -2   -1    0    0    0  501 -0.00000000000E+00  0.00000000000E+00  0.24196392933E+03  0.24196392933E+03  0.00000000000E+00 0.  1.
          2   -1    0    0  501    0  0.00000000000E+00 -0.00000000000E+00 -0.21524067711E+04  0.21524067711E+04  0.00000000000E+00 0. -1.
         23    2    1    2    0    0 -0.19392223710E+02  0.43352142527E+03 -0.55571937759E+03  0.71116234341E+03  0.92795299155E+02 0.  0.
        254    2    1    2    0    0  0.19392223710E+02 -0.43352142527E+03 -0.13547234641E+04  0.16832083570E+04  0.89977654127E+03 0.  0.
        -24    2    4    4    0    0  0.14065459347E+03  0.15239373485E+03 -0.24871076148E+02  0.22282637527E+03  0.77623823663E+02 0.  0.
         24    2    4    4    0    0 -0.12126236976E+03 -0.58591516012E+03 -0.13298523880E+04  0.14603819817E+04  0.78784652586E+02 0.  0.
         11    1    3    3    0    0  0.10900143833E+01  0.21105634517E+03 -0.19790196190E+03  0.28932880170E+03  0.00000000000E+00 0.  1.
        -11    1    3    3    0    0 -0.20482238093E+02  0.22246508010E+03 -0.35781741569E+03  0.42183354171E+03  0.00000000000E+00 0. -1.
          2    1    6    6  502    0 -0.61634287530E+02 -0.14718290629E+03 -0.39353075348E+03  0.42465050011E+03  0.00000000000E+00 0. -1.
          1    1    5    5  503    0  0.98687910054E+02  0.57133899966E+02  0.61766102506E+01  0.11420042307E+03  0.00000000000E+00 0. -1.
         -2    1    5    5    0  503  0.41966683418E+02  0.95259834886E+02 -0.31047686399E+02  0.10862595219E+03  0.00000000000E+00 0.  1.
         -1    1    6    6    0  502 -0.59628082231E+02 -0.43873225383E+03 -0.93632163450E+03  0.10357314816E+04  0.00000000000E+00 0.  1.
<mgrwt>
<rscale>  0 0.14433361E+04</rscale>
<asrwt>0</asrwt>
<pdfrwt beam="1">  1        2 0.33113950E+00 0.14433361E+04</pdfrwt>
<pdfrwt beam="2">  1       -2 0.37225220E-01 0.14433361E+04</pdfrwt>
<totfact> 0.36291662E+01</totfact>
</mgrwt>
</event>
<event>
12    1  0.1599266E-007  0.1924231E+04  0.7818608E-02  0.8642888E-01
         -1   -1    0    0    0  501 -0.00000000000E+00  0.00000000000E+00  0.14147465341E+04  0.14147465341E+04  0.00000000000E+00 0.  1.
          1   -1    0    0  501    0  0.00000000000E+00 -0.00000000000E+00 -0.65429816964E+03  0.65429816964E+03  0.00000000000E+00 0. -1.
         23    2    1    2    0    0  0.34921544645E+03  0.51258118674E+03  0.74877352660E+03  0.97654158385E+03  0.90998735242E+02 0.  0.
        254    2    1    2    0    0 -0.34921544645E+03 -0.51258118674E+03  0.11674837900E+02  0.10925031199E+04  0.89929742809E+03 0.  0.
        -24    2    4    4    0    0  0.23546581172E+02 -0.54887846100E+03  0.28299401346E+03  0.62315565325E+03  0.80095880631E+02 0.  0.
         24    2    4    4    0    0 -0.37276202762E+03  0.36297274254E+02 -0.27131917556E+03  0.46934746668E+03  0.80024546837E+02 0.  0.
         13    1    3    3    0    0  0.28789521335E+03  0.41033131600E+03  0.65536380694E+03  0.82508009442E+03  0.00000000000E+00 0.  1.
        -13    1    3    3    0    0  0.61320233097E+02  0.10224987074E+03  0.93409719655E+02  0.15146148943E+03  0.00000000000E+00 0. -1.
          2    1    6    6  502    0 -0.23827966583E+03  0.43189448060E+02 -0.21335614491E+03  0.32274350829E+03  0.00000000000E+00 0. -1.
          3    1    5    5  503    0 -0.76342771158E+01 -0.47422501917E+03  0.24128343619E+03  0.53213282888E+03  0.00000000000E+00 0. -1.
         -2    1    5    5    0  503  0.31180858288E+02 -0.74653441830E+02  0.41710577271E+02  0.91022824374E+02  0.00000000000E+00 0.  1.
         -1    1    6    6    0  502 -0.13448236180E+03 -0.68921738060E+01 -0.57963030645E+02  0.14660395839E+03  0.00000000000E+00 0.  1.
<mgrwt>
<rscale>  0 0.19242308E+04</rscale>
<asrwt>0</asrwt>
<pdfrwt beam="1">  1        1 0.10066126E+00 0.19242308E+04</pdfrwt>
<pdfrwt beam="2">  1       -1 0.21765331E+00 0.19242308E+04</pdfrwt>
<totfact> 0.32129924E+00</totfact>
</mgrwt>
</event>
<event>
12    1  0.1599266E-007  0.2449609E+04  0.7818608E-02  0.8421161E-01
         -2   -1    0    0    0  501 -0.00000000000E+00  0.00000000000E+00  0.33958369205E+03  0.33958369205E+03  0.00000000000E+00 0.  1.
          2   -1    0    0  501    0  0.00000000000E+00 -0.00000000000E+00 -0.44176022701E+04  0.44176022701E+04  0.00000000000E+00 0. -1.
         23    2    1    2    0    0 -0.57170008519E+02  0.69959457434E+03 -0.33170097173E+04  0.33916361380E+04  0.89113692635E+02 0.  0.
        254    2    1    2    0    0  0.57170008519E+02 -0.69959457434E+03 -0.76100886081E+03  0.13655498241E+04  0.89044419119E+03 0.  0.
        -24    2    4    4    0    0  0.29646516611E+03 -0.80383341563E+03 -0.56549779981E+03  0.10296588558E+04  0.79811296316E+02 0.  0.
         24    2    4    4    0    0 -0.23929515759E+03  0.10423884129E+03 -0.19551106100E+03  0.33589096829E+03  0.80437920938E+02 0.  0.
         11    1    3    3    0    0 -0.50811512004E+02  0.63934466003E+03 -0.28872289850E+04  0.29576062307E+04  0.00000000000E+00 0. -1.
        -11    1    3    3    0    0 -0.63584965155E+01  0.60249914312E+02 -0.42978073221E+03  0.43402990731E+03  0.00000000000E+00 0.  1.
          4    1    6    6  502    0 -0.24114749448E+02  0.17977272938E+02  0.36026784694E+01  0.30293279376E+02  0.00000000000E+00 0. -1.
          3    1    5    5  503    0  0.18854880712E+02 -0.75695705771E+02 -0.27475280412E+02  0.82705727931E+02  0.00000000000E+00 0. -1.
         -4    1    5    5    0  503  0.27761028540E+03 -0.72813770986E+03 -0.53802251940E+03  0.94695312791E+03  0.00000000000E+00 0.  1.
         -3    1    6    6    0  502 -0.21518040814E+03  0.86261568352E+02 -0.19911373947E+03  0.30559768891E+03  0.00000000000E+00 0.  1.
<mgrwt>
<rscale>  0 0.24496087E+04</rscale>
<asrwt>0</asrwt>
<pdfrwt beam="1">  1        2 0.67963110E+00 0.24496087E+04</pdfrwt>
<pdfrwt beam="2">  1       -2 0.52243646E-01 0.24496087E+04</pdfrwt>
<totfact> 0.46042672E-01</totfact>
</mgrwt>
</event>
<event>
12    1  0.1599266E-007  0.1614920E+04  0.7818608E-02  0.8811434E-01
          2   -1    0    0  501    0  0.00000000000E+00  0.00000000000E+00  0.64140559900E+03  0.64140559900E+03  0.00000000000E+00 0. -1.
         -2   -1    0    0    0  501 -0.00000000000E+00 -0.00000000000E+00 -0.10165048419E+04  0.10165048419E+04  0.00000000000E+00 0.  1.
         23    2    1    2    0    0  0.29393830057E+03  0.39185463588E+03 -0.38383297312E+03  0.62886047709E+03  0.90487392434E+02 0.  0.
        254    2    1    2    0    0 -0.29393830057E+03 -0.39185463588E+03  0.87337301690E+01  0.10290499639E+04  0.90494075490E+03 0.  0.
        -24    2    4    4    0    0 -0.50128317384E+03 -0.20892647319E+02 -0.20323267592E+03  0.54727144402E+03  0.80505836971E+02 0.  0.
         24    2    4    4    0    0  0.20734487327E+03 -0.37096198856E+03  0.21196640609E+03  0.48177851985E+03  0.81093103566E+02 0.  0.
         13    1    3    3    0    0  0.21030340551E+03  0.21484097167E+03 -0.25768230163E+03  0.39596001572E+03  0.00000000000E+00 0.  1.
        -13    1    3    3    0    0  0.83634895061E+02  0.17701366421E+03 -0.12615067149E+03  0.23290046137E+03  0.00000000000E+00 0. -1.
          2    1    6    6  502    0  0.10683435713E+03 -0.17139856610E+03  0.57008084820E+02  0.20985940546E+03  0.00000000000E+00 0. -1.
          3    1    5    5  503    0 -0.38408735564E+03 -0.24612245297E+02 -0.11884290773E+03  0.40280577963E+03  0.00000000000E+00 0. -1.
         -4    1    5    5    0  503 -0.11719581820E+03  0.37195979777E+01 -0.84389768191E+02  0.14446566439E+03  0.00000000000E+00 0.  1.
         -1    1    6    6    0  502  0.10051051614E+03 -0.19956342246E+03  0.15495832127E+03  0.27191911439E+03  0.00000000000E+00 0.  1.
<mgrwt>
<rscale>  0 0.16149203E+04</rscale>
<asrwt>0</asrwt>
<pdfrwt beam="1">  1        2 0.98677785E-01 0.16149203E+04</pdfrwt>
<pdfrwt beam="2">  1       -2 0.15638536E+00 0.16149203E+04</pdfrwt>
<totfact> 0.11725504E+01</totfact>
</mgrwt>
</event>
<event>
12    1  0.1599266E-007  0.3937126E+04  0.7818608E-02  0.8017352E-01
         -2   -1    0    0    0  501 -0.00000000000E+00  0.00000000000E+00  0.12470335369E+04  0.12470335369E+04  0.00000000000E+00 0.  1.
          2   -1    0    0  501    0  0.00000000000E+00 -0.00000000000E+00 -0.31075677141E+04  0.31075677141E+04  0.00000000000E+00 0. -1.
         23    2    1    2    0    0  0.36325751277E+03  0.13084876985E+03 -0.28938815216E+04  0.29209642304E+04  0.91675258494E+02 0.  0.
        254    2    1    2    0    0 -0.36325751277E+03 -0.13084876985E+03  0.10333473444E+04  0.14336370206E+04  0.91565875277E+03 0.  0.
        -24    2    4    4    0    0 -0.62484724960E+03 -0.12286389708E+03  0.95146145938E+03  0.11478685420E+04  0.82423652445E+02 0.  0.
         24    2    4    4    0    0  0.26158973683E+03 -0.79848727741E+01  0.81885885023E+02  0.28576847861E+03  0.80407565544E+02 0.  0.
         13    1    3    3    0    0  0.22818618551E+03  0.34453140847E+02 -0.17196044421E+04  0.17350202856E+04  0.00000000000E+00 0. -1.
        -13    1    3    3    0    0  0.13507132726E+03  0.96395629005E+02 -0.11742770796E+04  0.11859439449E+04  0.00000000000E+00 0.  1.
          4    1    6    6  502    0  0.23468298258E+02 -0.24159858992E+02  0.20127570813E+02  0.39237468273E+02  0.00000000000E+00 0. -1.
          3    1    5    5  503    0 -0.67939499013E+02  0.20956548857E+01  0.68529590783E+02  0.96521873730E+02  0.00000000000E+00 0. -1.
         -4    1    5    5    0  503 -0.55690775059E+03 -0.12495955196E+03  0.88293186859E+03  0.10513466683E+04  0.00000000000E+00 0.  1.
         -3    1    6    6    0  502  0.23812143857E+03  0.16174986218E+02  0.61758314209E+02  0.24653101034E+03  0.00000000000E+00 0.  1.
<mgrwt>
<rscale>  0 0.39371264E+04</rscale>
<asrwt>0</asrwt>
<pdfrwt beam="1">  1        2 0.47808734E+00 0.39371264E+04</pdfrwt>
<pdfrwt beam="2">  1       -2 0.19185131E+00 0.39371264E+04</pdfrwt>
<totfact> 0.17759702E-01</totfact>
</mgrwt>
</event>
<event>
12    1  0.1599266E-007  0.3595357E+04  0.7818608E-02  0.8091556E-01
         -2   -1    0    0    0  501 -0.00000000000E+00  0.00000000000E+00  0.84061273294E+03  0.84061273294E+03  0.00000000000E+00 0.  1.
          2   -1    0    0  501    0  0.00000000000E+00 -0.00000000000E+00 -0.38443953862E+04  0.38443953862E+04  0.00000000000E+00 0. -1.
         23    2    1    2    0    0 -0.58243359954E+03 -0.13268292994E+04 -0.25270822429E+04  0.29144469840E+04  0.90286612072E+02 0.  0.
        254    2    1    2    0    0  0.58243359954E+03  0.13268292994E+04 -0.47670041028E+03  0.17705611351E+04  0.89885402838E+03 0.  0.
        -24    2    4    4    0    0  0.30603018023E+03  0.12374848601E+04 -0.89437146179E+02  0.12803927145E+04  0.79895245314E+02 0.  0.
         24    2    4    4    0    0  0.27640341930E+03  0.89344439342E+02 -0.38726326410E+03  0.49016842056E+03  0.76882805289E+02 0.  0.
         11    1    3    3    0    0 -0.50716947513E+03 -0.10800760235E+04 -0.21103401378E+04  0.24243185827E+04  0.00000000000E+00 0. -1.
        -11    1    3    3    0    0 -0.75264124402E+02 -0.24675327596E+03 -0.41674210510E+03  0.49012840132E+03  0.00000000000E+00 0.  1.
          4    1    6    6  502    0  0.26296501867E+03  0.97108779706E+02 -0.34134388403E+03  0.44169713979E+03  0.00000000000E+00 0. -1.
          3    1    5    5  503    0  0.19457837255E+03  0.74388944827E+03 -0.91708017121E+02  0.77436594367E+03  0.00000000000E+00 0. -1.
         -4    1    5    5    0  503  0.11145180768E+03  0.49359541180E+03  0.22708709421E+01  0.50602677087E+03  0.00000000000E+00 0.  1.
         -3    1    6    6    0  502  0.13438400636E+02 -0.77643403642E+01 -0.45919380071E+02  0.48471280765E+02  0.00000000000E+00 0.  1.
<mgrwt>
<rscale>  0 0.35953568E+04</rscale>
<asrwt>0</asrwt>
<pdfrwt beam="1">  1        2 0.59144544E+00 0.35953568E+04</pdfrwt>
<pdfrwt beam="2">  1       -2 0.12932504E+00 0.35953568E+04</pdfrwt>
<totfact> 0.16253599E-01</totfact>
</mgrwt>
</event>
<event>
12    1  0.1599266E-007  0.1047851E+04  0.7818608E-02  0.9257565E-01
         -2   -1    0    0    0  501 -0.00000000000E+00  0.00000000000E+00  0.85123633310E+02  0.85123633310E+02  0.00000000000E+00 0.  1.
          2   -1    0    0  501    0  0.00000000000E+00 -0.00000000000E+00 -0.32246987524E+04  0.32246987524E+04  0.00000000000E+00 0. -1.
         23    2    1    2    0    0 -0.11872397656E+03 -0.19137542156E+01 -0.35964577782E+03  0.39006879807E+03  0.93324898361E+02 0.  0.
        254    2    1    2    0    0  0.11872397656E+03  0.19137542156E+01 -0.27799293413E+04  0.29197535877E+04  0.88479083690E+03 0.  0.
        -24    2    4    4    0    0  0.21362816807E+03 -0.40522123244E+03 -0.13365535411E+04  0.14150047860E+04  0.77601125601E+02 0.  0.
         24    2    4    4    0    0 -0.94904191514E+02  0.40713498666E+03 -0.14433758002E+04  0.15047488017E+04  0.78546500183E+02 0.  0.
         13    1    3    3    0    0 -0.13175676567E+03  0.93934378802E+01 -0.33387621623E+03  0.35905627656E+03  0.00000000000E+00 0.  1.
        -13    1    3    3    0    0  0.13032789117E+02 -0.11307192096E+02 -0.25769561598E+02  0.31012521506E+02  0.00000000000E+00 0. -1.
          2    1    6    6  502    0 -0.19590304199E+02  0.94713122368E+02 -0.46471071713E+03  0.47466873310E+03  0.00000000000E+00 0. -1.
          3    1    5    5  503    0  0.53599548187E+02 -0.95949639989E+02 -0.22916629335E+03  0.25415828727E+03  0.00000000000E+00 0. -1.
         -4    1    5    5    0  503  0.16002861988E+03 -0.30927159245E+03 -0.11073872478E+04  0.11608464988E+04  0.00000000000E+00 0.  1.
         -1    1    6    6    0  502 -0.75313887315E+02  0.31242186429E+03 -0.97866508303E+03  0.10300800686E+04  0.00000000000E+00 0.  1.
<mgrwt>
<rscale>  0 0.10478513E+04</rscale>
<asrwt>0</asrwt>
<pdfrwt beam="1">  1        2 0.49610756E+00 0.10478513E+04</pdfrwt>
<pdfrwt beam="2">  1       -2 0.13095942E-01 0.10478513E+04</pdfrwt>
<totfact> 0.56414996E+01</totfact>
</mgrwt>
</event>
<event>
12    1  0.1599266E-007  0.1095052E+04  0.7818608E-02  0.9210028E-01
         -2   -1    0    0    0  501 -0.00000000000E+00  0.00000000000E+00  0.51083816009E+03  0.51083816009E+03  0.00000000000E+00 0.  1.
          2   -1    0    0  501    0  0.00000000000E+00 -0.00000000000E+00 -0.58684863534E+03  0.58684863534E+03  0.00000000000E+00 0. -1.
         23    2    1    2    0    0  0.10997169017E+02 -0.97371871064E+02 -0.14017669069E+03  0.19364156460E+03  0.90803810084E+02 0.  0.
        254    2    1    2    0    0 -0.10997169017E+02  0.97371871064E+02  0.64166215436E+02  0.90404523084E+03  0.89642526582E+03 0.  0.
        -24    2    4    4    0    0 -0.12285980972E+03  0.10581566867E+03  0.45500540572E+03  0.48943906495E+03  0.78925220816E+02 0.  0.
         24    2    4    4    0    0  0.11186264070E+03 -0.84437976112E+01 -0.39083919028E+03  0.41460616589E+03  0.80984270259E+02 0.  0.
         11    1    3    3    0    0 -0.10153662166E+02 -0.71037776144E+02 -0.14274539307E+03  0.15976767425E+03  0.00000000000E+00 0. -1.
        -11    1    3    3    0    0  0.21150831183E+02 -0.26334094920E+02  0.25687023779E+01  0.33873890341E+02  0.00000000000E+00 0.  1.
          4    1    6    6  502    0  0.62918265562E+02 -0.13340050133E+02 -0.95118216536E+02  0.11482221125E+03  0.00000000000E+00 0. -1.
          3    1    5    5  503    0 -0.45195808677E+02  0.42014471072E+02  0.79069510584E+02  0.10029887539E+03  0.00000000000E+00 0. -1.
         -4    1    5    5    0  503 -0.77664001042E+02  0.63801197603E+02  0.37593589514E+03  0.38914018955E+03  0.00000000000E+00 0.  1.
         -3    1    6    6    0  502  0.48944375141E+02  0.48962525218E+01 -0.29572097375E+03  0.29978395464E+03  0.00000000000E+00 0.  1.
<mgrwt>
<rscale>  0 0.10950519E+04</rscale>
<asrwt>0</asrwt>
<pdfrwt beam="1">  1        2 0.90284405E-01 0.10950519E+04</pdfrwt>
<pdfrwt beam="2">  1       -2 0.78590486E-01 0.10950519E+04</pdfrwt>
<totfact> 0.72832658E+01</totfact>
</mgrwt>
</event>
<event>
12    1  0.1599266E-007  0.2258300E+04  0.7818608E-02  0.8494547E-01
          1   -1    0    0  501    0  0.00000000000E+00  0.00000000000E+00  0.14696231543E+04  0.14696231543E+04  0.00000000000E+00 0. -1.
         -1   -1    0    0    0  501 -0.00000000000E+00 -0.00000000000E+00 -0.86755583823E+03  0.86755583823E+03  0.00000000000E+00 0.  1.
         23    2    1    2    0    0 -0.28200924463E+03 -0.73170074461E+03 -0.29099739138E+03  0.84130898442E+03  0.90587702092E+02 0.  0.
        254    2    1    2    0    0  0.28200924463E+03  0.73170074461E+03  0.89306470748E+03  0.14958700081E+04  0.90837619727E+03 0.  0.
        -24    2    4    4    0    0  0.30203615805E+03 -0.11206291936E+03  0.13781404717E+03  0.36050539762E+03  0.84779074351E+02 0.  0.
         24    2    4    4    0    0 -0.20026913427E+02  0.84376366397E+03  0.75525066031E+03  0.11353646105E+04  0.79442060691E+02 0.  0.
         11    1    3    3    0    0  0.61472186993E+00 -0.15583420152E+02  0.51786720499E+01  0.16432878957E+02  0.00000000000E+00 0. -1.
        -11    1    3    3    0    0 -0.28262396650E+03 -0.71611732445E+03 -0.29617606343E+03  0.82487610547E+03  0.00000000000E+00 0.  1.
          2    1    6    6  502    0 -0.38617435553E+02  0.73383170937E+03  0.67688278909E+03  0.99908487837E+03  0.00000000000E+00 0. -1.
          3    1    5    5  503    0  0.27466707890E+03 -0.94706437875E+02  0.14862081405E+03  0.32634255006E+03  0.00000000000E+00 0. -1.
         -4    1    5    5    0  503  0.27369079154E+02 -0.17356481489E+02 -0.10806766882E+02  0.34162847566E+02  0.00000000000E+00 0.  1.
         -1    1    6    6    0  502  0.18590522126E+02  0.10993195460E+03  0.78367871212E+02  0.13627973214E+03  0.00000000000E+00 0.  1.
<mgrwt>
<rscale>  0 0.22583004E+04</rscale>
<asrwt>0</asrwt>
<pdfrwt beam="1">  1        1 0.22609587E+00 0.22583004E+04</pdfrwt>
<pdfrwt beam="2">  1       -1 0.13347013E+00 0.22583004E+04</pdfrwt>
<totfact> 0.29548345E+00</totfact>
</mgrwt>
</event>
<event>
12    1  0.1599266E-007  0.2003899E+04  0.7818608E-02  0.8604800E-01
          1   -1    0    0  501    0  0.00000000000E+00  0.00000000000E+00  0.22889644051E+04  0.22889644051E+04  0.00000000000E+00 0. -1.
         -1   -1    0    0    0  501 -0.00000000000E+00 -0.00000000000E+00 -0.43858378288E+03  0.43858378288E+03  0.00000000000E+00 0.  1.
         23    2    1    2    0    0  0.17714809132E+03 -0.43149014214E+03  0.16167200036E+04  0.16851298257E+04  0.91179880322E+02 0.  0.
        254    2    1    2    0    0 -0.17714809132E+03  0.43149014214E+03  0.23366061866E+03  0.10424183623E+04  0.90248189359E+03 0.  0.
        -24    2    4    4    0    0 -0.12508380876E+03  0.33903457428E+03 -0.30979556396E+03  0.48285776239E+03  0.81166036470E+02 0.  0.
         24    2    4    4    0    0 -0.52064282562E+02  0.92455567859E+02  0.54345618262E+03  0.55956059987E+03  0.80651850299E+02 0.  0.
         13    1    3    3    0    0  0.63347558961E+01 -0.99724719048E+02  0.27973478235E+03  0.29704662458E+03  0.00000000000E+00 0.  1.
        -13    1    3    3    0    0  0.17081333543E+03 -0.33176542309E+03  0.13369852212E+04  0.13880832011E+04  0.00000000000E+00 0. -1.
          2    1    6    6  502    0  0.72514307221E+01  0.17309624918E+02  0.20017788814E+02  0.27439355519E+02  0.00000000000E+00 0. -1.
          3    1    5    5  503    0 -0.66388641402E+02  0.26430227287E+03 -0.20238080024E+03  0.33944238312E+03  0.00000000000E+00 0. -1.
         -4    1    5    5    0  503 -0.58695167359E+02  0.74732301411E+02 -0.10741476373E+03  0.14341537927E+03  0.00000000000E+00 0.  1.
         -1    1    6    6    0  502 -0.59315713284E+02  0.75145942940E+02  0.52343839381E+03  0.53212124436E+03  0.00000000000E+00 0.  1.
<mgrwt>
<rscale>  0 0.20038989E+04</rscale>
<asrwt>0</asrwt>
<pdfrwt beam="1">  1        1 0.35214836E+00 0.20038989E+04</pdfrwt>
<pdfrwt beam="2">  1       -1 0.67474430E-01 0.20038989E+04</pdfrwt>
<totfact> 0.39073284E+00</totfact>
</mgrwt>
</event>
<event>
12    1  0.1599266E-007  0.1879893E+04  0.7818608E-02  0.8664930E-01
         -1   -1    0    0    0  501 -0.00000000000E+00  0.00000000000E+00  0.68859778937E+03  0.68859778937E+03  0.00000000000E+00 0.  1.
          1   -1    0    0  501    0  0.00000000000E+00 -0.00000000000E+00 -0.12830407273E+04  0.12830407273E+04  0.00000000000E+00 0. -1.
         23    2    1    2    0    0 -0.48271626612E+02 -0.38146798589E+03  0.42191178035E+03  0.57803934081E+03  0.90950288234E+02 0.  0.
        254    2    1    2    0    0  0.48271626612E+02  0.38146798589E+03 -0.10163547183E+04  0.13935991758E+04  0.87252150424E+03 0.  0.
        -24    2    4    4    0    0  0.28679179849E+03  0.62295591148E+02 -0.45581003937E+01  0.30316883917E+03  0.75896590213E+02 0.  0.
         24    2    4    4    0    0 -0.23852017188E+03  0.31917239474E+03 -0.10117966179E+04  0.10904303367E+04  0.80889017953E+02 0.  0.
         11    1    3    3    0    0  0.74455864582E+01 -0.21674783301E+03  0.19110932909E+03  0.28906372228E+03  0.00000000000E+00 0. -1.
        -11    1    3    3    0    0 -0.55717213070E+02 -0.16472015288E+03  0.23080245126E+03  0.28897561853E+03  0.00000000000E+00 0.  1.
          4    1    6    6  502    0 -0.20564650175E+03  0.22250506400E+03 -0.71437799472E+03  0.77597352180E+03  0.00000000000E+00 0. -1.
          3    1    5    5  503    0  0.36288644263E+02 -0.66153693197E+01 -0.21698293571E+02  0.42795382433E+02  0.00000000000E+00 0. -1.
         -4    1    5    5    0  503  0.25050315423E+03  0.68910960468E+02  0.17140193177E+02  0.26037345674E+03  0.00000000000E+00 0.  1.
         -3    1    6    6    0  502 -0.32873670127E+02  0.96667330738E+02 -0.29741862316E+03  0.31445681487E+03  0.00000000000E+00 0.  1.
<mgrwt>
<rscale>  0 0.18798926E+04</rscale>
<asrwt>0</asrwt>
<pdfrwt beam="1">  1        1 0.19739088E+00 0.18798926E+04</pdfrwt>
<pdfrwt beam="2">  1       -1 0.10593812E+00 0.18798926E+04</pdfrwt>
<totfact> 0.72703348E+00</totfact>
</mgrwt>
</event>
<event>
12    1  0.1599266E-007  0.1280841E+04  0.7818608E-02  0.9044898E-01
          1   -1    0    0  501    0  0.00000000000E+00  0.00000000000E+00  0.13112323347E+04  0.13112323347E+04  0.00000000000E+00 0. -1.
         -1   -1    0    0    0  501 -0.00000000000E+00 -0.00000000000E+00 -0.31278848987E+03  0.31278848987E+03  0.00000000000E+00 0.  1.
         23    2    1    2    0    0  0.17893508926E+03  0.20380600068E+03  0.54318907223E+02  0.29118780617E+03  0.91022759224E+02 0.  0.
        254    2    1    2    0    0 -0.17893508926E+03 -0.20380600068E+03  0.94412493760E+03  0.13328330184E+04  0.90084255286E+03 0.  0.
        -24    2    4    4    0    0 -0.26263715789E+03 -0.34600659930E+03  0.79112820841E+02  0.44860545113E+03  0.79304280500E+02 0.  0.
         24    2    4    4    0    0  0.83702068627E+02  0.14220059862E+03  0.86501211676E+03  0.88422756726E+03  0.79908585452E+02 0.  0.
         13    1    3    3    0    0  0.54834030277E+02  0.11841099757E+03  0.52158327080E+02  0.14052909416E+03  0.00000000000E+00 0. -1.
        -13    1    3    3    0    0  0.12410105898E+03  0.85395003113E+02  0.21605801425E+01  0.15065871201E+03  0.00000000000E+00 0.  1.
          4    1    6    6  502    0  0.70389142504E+02  0.14722781372E+03  0.70761399303E+03  0.72618745765E+03  0.00000000000E+00 0. -1.
          1    1    5    5  503    0 -0.14695653977E+03 -0.17020934583E+03  0.78440527605E+02  0.23816037109E+03  0.00000000000E+00 0. -1.
         -2    1    5    5    0  503 -0.11568061812E+03 -0.17579725347E+03  0.67229323650E+00  0.21044508004E+03  0.00000000000E+00 0.  1.
         -3    1    6    6    0  502  0.13312926123E+02 -0.50272150999E+01  0.15739812373E+03  0.15804010961E+03  0.00000000000E+00 0.  1.
<mgrwt>
<rscale>  0 0.12808409E+04</rscale>
<asrwt>0</asrwt>
<pdfrwt beam="1">  1        1 0.20172805E+00 0.12808409E+04</pdfrwt>
<pdfrwt beam="2">  1       -1 0.48121307E-01 0.12808409E+04</pdfrwt>
<totfact> 0.37707567E+01</totfact>
</mgrwt>
</event>
<event>
12    1  0.1670777E-007  0.2488538E+04  0.7818608E-02  0.8407080E-01
         -1   -1    0    0    0  501 -0.00000000000E+00  0.00000000000E+00  0.11706593794E+04  0.11706593794E+04  0.00000000000E+00 0.  1.
          1   -1    0    0  501    0  0.00000000000E+00 -0.00000000000E+00 -0.13225074320E+04  0.13225074320E+04  0.00000000000E+00 0. -1.
         23    2    1    2    0    0  0.17134661733E+02  0.65972823973E+03 -0.92273819115E+03  0.11380192945E+04  0.90039981838E+02 0.  0.
        254    2    1    2    0    0 -0.17134661733E+02 -0.65972823973E+03  0.77089013859E+03  0.13551475169E+04  0.89811927926E+03 0.  0.
        -24    2    4    4    0    0  0.32124243087E+03 -0.37803371639E+02  0.48141628731E+03  0.58605233274E+03  0.84082701683E+02 0.  0.
         24    2    4    4    0    0 -0.33837709260E+03 -0.62192486809E+03  0.28947385128E+03  0.76909518413E+03  0.80141707859E+02 0.  0.
         13    1    3    3    0    0  0.52598523322E+02  0.34453355612E+03 -0.50164124827E+03  0.61083051489E+03  0.00000000000E+00 0. -1.
        -13    1    3    3    0    0 -0.35463861589E+02  0.31519468361E+03 -0.42109694287E+03  0.52718877961E+03  0.00000000000E+00 0.  1.
          4    1    6    6  502    0  0.33926290410E+01 -0.87347785237E+01  0.94342945332E+01  0.13297074904E+02  0.00000000000E+00 0. -1.
          3    1    5    5  503    0  0.70116883065E+01  0.12183014667E+02  0.97839506031E+01  0.17126450557E+02  0.00000000000E+00 0. -1.
         -4    1    5    5    0  503  0.31423074256E+03 -0.49986386306E+02  0.47163233671E+03  0.56892588218E+03  0.00000000000E+00 0.  1.
         -3    1    6    6    0  502 -0.34176972164E+03 -0.61319008956E+03  0.28003955675E+03  0.75579810923E+03  0.00000000000E+00 0.  1.
<mgrwt>
<rscale>  0 0.24885383E+04</rscale>
<asrwt>0</asrwt>
<pdfrwt beam="1">  1        1 0.20346268E+00 0.24885383E+04</pdfrwt>
<pdfrwt beam="2">  1       -1 0.18010144E+00 0.24885383E+04</pdfrwt>
<totfact> 0.16106342E+00</totfact>
</mgrwt>
</event>
<event>
12    1  0.1599266E-007  0.1566346E+04  0.7818608E-02  0.8841494E-01
          2   -1    0    0  501    0  0.00000000000E+00  0.00000000000E+00  0.52372143765E+03  0.52372143765E+03  0.00000000000E+00 0. -1.
         -2   -1    0    0    0  501 -0.00000000000E+00 -0.00000000000E+00 -0.11711575349E+04  0.11711575349E+04  0.00000000000E+00 0.  1.
         23    2    1    2    0    0 -0.37923851529E+03 -0.43659120483E+02  0.15500768709E+03  0.42299453607E+03  0.95755021842E+02 0.  0.
        254    2    1    2    0    0  0.37923851529E+03  0.43659120483E+02 -0.80244378434E+03  0.12718844365E+04  0.90997034153E+03 0.  0.
        -24    2    4    4    0    0  0.41418564651E+03  0.30449080162E+02 -0.98318042978E+03  0.10703084203E+04  0.80246250803E+02 0.  0.
         24    2    4    4    0    0 -0.34947131220E+02  0.13210040320E+02  0.18073664545E+03  0.20157601620E+03  0.81063852318E+02 0.  0.
         13    1    3    3    0    0 -0.29263900964E+03 -0.52386697276E+02  0.15645026242E+03  0.33594440109E+03  0.00000000000E+00 0. -1.
        -13    1    3    3    0    0 -0.86599505653E+02  0.87275767932E+01 -0.14425753363E+01  0.87050134977E+02  0.00000000000E+00 0.  1.
          2    1    6    6  502    0 -0.41561528822E+02  0.42315372786E+02  0.12464918264E+03  0.13804119017E+03  0.00000000000E+00 0. -1.
          3    1    5    5  503    0  0.39813466748E+03  0.40436087619E+02 -0.89924108294E+03  0.98426663861E+03  0.00000000000E+00 0. -1.
         -4    1    5    5    0  503  0.16050979034E+02 -0.99870074564E+01 -0.83939346845E+02  0.86041781680E+02  0.00000000000E+00 0.  1.
         -1    1    6    6    0  502  0.66143976015E+01 -0.29105332466E+02  0.56087462808E+02  0.63534826023E+02  0.00000000000E+00 0.  1.
<mgrwt>
<rscale>  0 0.15663465E+04</rscale>
<asrwt>0</asrwt>
<pdfrwt beam="1">  1        2 0.80572530E-01 0.15663465E+04</pdfrwt>
<pdfrwt beam="2">  1       -2 0.18017808E+00 0.15663465E+04</pdfrwt>
<totfact> 0.10128864E+01</totfact>
</mgrwt>
</event>
<event>
12    1  0.1599266E-007  0.1361488E+04  0.7818608E-02  0.8982177E-01
          1   -1    0    0  501    0  0.00000000000E+00  0.00000000000E+00  0.21568051923E+04  0.21568051923E+04  0.00000000000E+00 0. -1.
         -1   -1    0    0    0  501 -0.00000000000E+00 -0.00000000000E+00 -0.21486067704E+03  0.21486067704E+03  0.00000000000E+00 0.  1.
         23    2    1    2    0    0  0.32080590453E+03 -0.53484027953E+02  0.32936787577E+03  0.47087675062E+03  0.86398767657E+02 0.  0.
        254    2    1    2    0    0 -0.32080590453E+03  0.53484027953E+02  0.16125766395E+04  0.19007891188E+04  0.95227038493E+03 0.  0.
        -24    2    4    4    0    0  0.31915886989E+03 -0.65274085655E+02  0.40711095029E+03  0.52843049469E+03  0.85885804355E+02 0.  0.
         24    2    4    4    0    0 -0.63996477442E+03  0.11875811361E+03  0.12054656892E+04  0.13723586241E+04  0.81007796413E+02 0.  0.
         11    1    3    3    0    0  0.20158752054E+03 -0.10220802179E+02  0.24980172215E+03  0.32115867359E+03  0.00000000000E+00 0. -1.
        -11    1    3    3    0    0  0.11921838399E+03 -0.43263225774E+02  0.79566153626E+02  0.14971807703E+03  0.00000000000E+00 0.  1.
          4    1    6    6  502    0 -0.49561060938E+03  0.75845562072E+02  0.85973433042E+03  0.99525149802E+03  0.00000000000E+00 0. -1.
          1    1    5    5  503    0  0.23152314845E+03 -0.70140109305E+01  0.27648098529E+03  0.36068531969E+03  0.00000000000E+00 0. -1.
         -2    1    5    5    0  503  0.87635721438E+02 -0.58260074725E+02  0.13062996500E+03  0.16774517500E+03  0.00000000000E+00 0.  1.
         -3    1    6    6    0  502 -0.14435416504E+03  0.42912551537E+02  0.34573135882E+03  0.37710712604E+03  0.00000000000E+00 0.  1.
<mgrwt>
<rscale>  0 0.13614883E+04</rscale>
<asrwt>0</asrwt>
<pdfrwt beam="1">  1        1 0.33181617E+00 0.13614883E+04</pdfrwt>
<pdfrwt beam="2">  1       -1 0.33055490E-01 0.13614883E+04</pdfrwt>
<totfact> 0.19630908E+01</totfact>
</mgrwt>
</event>
<event>
12    1  0.1599266E-007  0.2075122E+04  0.7818608E-02  0.8572282E-01
         -1   -1    0    0    0  501 -0.00000000000E+00  0.00000000000E+00  0.10999582864E+04  0.10999582864E+04  0.00000000000E+00 0.  1.
          1   -1    0    0  501    0  0.00000000000E+00 -0.00000000000E+00 -0.97870352620E+03  0.97870352620E+03  0.00000000000E+00 0. -1.
         23    2    1    2    0    0  0.44556256367E+03 -0.26645497754E+03  0.70995736654E+03  0.88444788575E+03  0.93189844381E+02 0.  0.
        254    2    1    2    0    0 -0.44556256367E+03  0.26645497754E+03 -0.58870260637E+03  0.11942139268E+04  0.90002882791E+03 0.  0.
        -24    2    4    4    0    0  0.24163187181E+02  0.22048320010E+03 -0.66875010435E+03  0.70918275388E+03  0.80726545748E+02 0.  0.
         24    2    4    4    0    0 -0.46972575085E+03  0.45971777437E+02  0.80047497976E+02  0.48503117294E+03  0.78050954249E+02 0.  0.
         13    1    3    3    0    0  0.19351105821E+03 -0.11999480423E+03  0.39001320793E+03  0.45161442077E+03  0.00000000000E+00 0. -1.
        -13    1    3    3    0    0  0.25205150546E+03 -0.14646017331E+03  0.31994415862E+03  0.43283346498E+03  0.00000000000E+00 0.  1.
          2    1    6    6  502    0 -0.22133793241E+03 -0.16274742915E+02  0.46760973432E+02  0.22680814848E+03  0.00000000000E+00 0. -1.
          1    1    5    5  503    0 -0.38743456813E+01  0.20237288126E+03 -0.58494456052E+03  0.61897490458E+03  0.00000000000E+00 0. -1.
         -4    1    5    5    0  503  0.28037532862E+02  0.18110318843E+02 -0.83805543832E+02  0.90207849296E+02  0.00000000000E+00 0.  1.
         -1    1    6    6    0  502 -0.24838781844E+03  0.62246520352E+02  0.33286524544E+02  0.25822302446E+03  0.00000000000E+00 0.  1.
<mgrwt>
<rscale>  0 0.20751222E+04</rscale>
<asrwt>0</asrwt>
<pdfrwt beam="1">  1        1 0.15056977E+00 0.20751222E+04</pdfrwt>
<pdfrwt beam="2">  1       -1 0.16922435E+00 0.20751222E+04</pdfrwt>
<totfact> 0.36137806E+00</totfact>
</mgrwt>
</event>
<event>
12    1  0.1599266E-007  0.1372530E+04  0.7818608E-02  0.8973946E-01
          4   -1    0    0  501    0  0.00000000000E+00  0.00000000000E+00  0.15187435108E+04  0.15187435108E+04  0.00000000000E+00 0. -1.
         -4   -1    0    0    0  501 -0.00000000000E+00 -0.00000000000E+00 -0.31009832099E+03  0.31009832099E+03  0.00000000000E+00 0.  1.
         23    2    1    2    0    0 -0.32653804054E+03 -0.19743803921E+03  0.31254810698E+03  0.50201647466E+03  0.93409584136E+02 0.  0.
        254    2    1    2    0    0  0.32653804054E+03  0.19743803921E+03  0.89609708285E+03  0.13268253571E+04  0.90103644500E+03 0.  0.
        -24    2    4    4    0    0 -0.54462770107E+02 -0.29791334143E+03  0.14123998209E+03  0.34348914374E+03  0.79482746539E+02 0.  0.
         24    2    4    4    0    0  0.38100081064E+03  0.49535138064E+03  0.75485710076E+03  0.98333621340E+03  0.81278890266E+02 0.  0.
         13    1    3    3    0    0 -0.27396809463E+03 -0.16995873889E+03  0.21390241765E+03  0.38690920650E+03  0.00000000000E+00 0.  1.
        -13    1    3    3    0    0 -0.52569945909E+02 -0.27479300316E+02  0.98645689336E+02  0.11510726816E+03  0.00000000000E+00 0. -1.
          4    1    6    6  502    0  0.24227419265E+03  0.32427437244E+03  0.42705646330E+03  0.58841131523E+03  0.00000000000E+00 0. -1.
          1    1    5    5  503    0 -0.27299885186E+02 -0.25569382470E+03  0.14103933509E+03  0.29328605450E+03  0.00000000000E+00 0. -1.
         -2    1    5    5    0  503 -0.27162884922E+02 -0.42219516731E+02  0.20064699886E+00  0.50203089243E+02  0.00000000000E+00 0.  1.
         -3    1    6    6    0  502  0.13872661800E+03  0.17107700820E+03  0.32780063746E+03  0.39492489817E+03  0.00000000000E+00 0.  1.
<mgrwt>
<rscale>  0 0.13725302E+04</rscale>
<asrwt>0</asrwt>
<pdfrwt beam="1">  1        4 0.23365284E+00 0.13725302E+04</pdfrwt>
<pdfrwt beam="2">  1       -4 0.47707435E-01 0.13725302E+04</pdfrwt>
<totfact> 0.66431086E-01</totfact>
</mgrwt>
</event>
<event>
12    1  0.1599266E-007  0.1839406E+04  0.7818608E-02  0.8685620E-01
          1   -1    0    0  501    0  0.00000000000E+00  0.00000000000E+00  0.27406497033E+04  0.27406497033E+04  0.00000000000E+00 0. -1.
         -1   -1    0    0    0  501 -0.00000000000E+00 -0.00000000000E+00 -0.30863265826E+03  0.30863265826E+03  0.00000000000E+00 0.  1.
         23    2    1    2    0    0  0.89542437163E+01 -0.30235733492E+03 -0.11040535711E+03  0.33452092060E+03  0.90635351704E+02 0.  0.
        254    2    1    2    0    0 -0.89542437163E+01  0.30235733492E+03  0.25424224022E+04  0.27147614410E+04  0.90250643981E+03 0.  0.
        -24    2    4    4    0    0 -0.99918017483E+01  0.47452893665E+03  0.24615117509E+04  0.25081491307E+04  0.80587926494E+02 0.  0.
         24    2    4    4    0    0  0.10375580320E+01 -0.17217160172E+03  0.80910651259E+02  0.20661231032E+03  0.80610026199E+02 0.  0.
         11    1    3    3    0    0  0.30375075659E+02 -0.20135290449E+03 -0.10963048485E+03  0.23126711954E+03  0.00000000000E+00 0.  1.
        -11    1    3    3    0    0 -0.21420831943E+02 -0.10100443043E+03 -0.77487226135E+00  0.10325380107E+03  0.00000000000E+00 0. -1.
          4    1    6    6  502    0 -0.33419640776E+02 -0.56324961622E+02  0.93604084816E+01  0.66158831143E+02  0.00000000000E+00 0. -1.
          3    1    5    5  503    0 -0.40834500846E+01  0.43541090715E+03  0.23455538567E+04  0.23856282668E+04  0.00000000000E+00 0. -1.
         -4    1    5    5    0  503 -0.59083516637E+01  0.39118029493E+02  0.11595789417E+03  0.12252086382E+03  0.00000000000E+00 0.  1.
         -3    1    6    6    0  502  0.34457198808E+02 -0.11584664010E+03  0.71550242777E+02  0.14045347918E+03  0.00000000000E+00 0.  1.
<mgrwt>
<rscale>  0 0.18394064E+04</rscale>
<asrwt>0</asrwt>
<pdfrwt beam="1">  1        1 0.42163840E+00 0.18394064E+04</pdfrwt>
<pdfrwt beam="2">  1       -1 0.47481949E-01 0.18394064E+04</pdfrwt>
<totfact> 0.38308116E+00</totfact>
</mgrwt>
</event>
<event>
12    1  0.1599266E-007  0.1376071E+04  0.7818608E-02  0.8971324E-01
          2   -1    0    0  501    0  0.00000000000E+00  0.00000000000E+00  0.12028988036E+04  0.12028988036E+04  0.00000000000E+00 0. -1.
         -2   -1    0    0    0  501 -0.00000000000E+00 -0.00000000000E+00 -0.39354350505E+03  0.39354350505E+03  0.00000000000E+00 0.  1.
         23    2    1    2    0    0 -0.32188120957E+03  0.72832291438E+02  0.50705203413E+03  0.61291902998E+03  0.98264521794E+02 0.  0.
        254    2    1    2    0    0  0.32188120957E+03 -0.72832291438E+02  0.30230326446E+03  0.98352327871E+03  0.87579604950E+03 0.  0.
        -24    2    4    4    0    0  0.56724776444E+03 -0.21966908210E+03  0.31050833867E+03  0.68780339652E+03  0.81446620485E+02 0.  0.
         24    2    4    4    0    0 -0.24536655487E+03  0.14683679066E+03 -0.82050742148E+01  0.29571988219E+03  0.74947555913E+02 0.  0.
         11    1    3    3    0    0 -0.26858615877E+03  0.58484677899E+02  0.47579401685E+03  0.54948969845E+03  0.00000000000E+00 0. -1.
        -11    1    3    3    0    0 -0.53295050798E+02  0.14347613539E+02  0.31258017281E+02  0.63429331528E+02  0.00000000000E+00 0.  1.
          4    1    6    6  502    0 -0.24052021232E+03  0.13358349535E+03  0.66818598015E+01  0.27520750355E+03  0.00000000000E+00 0. -1.
          3    1    5    5  503    0  0.45657927596E+03 -0.15574310834E+03  0.21447450752E+03  0.52793926299E+03  0.00000000000E+00 0. -1.
         -4    1    5    5    0  503  0.11066848848E+03 -0.63925973759E+02  0.96033831152E+02  0.15986413353E+03  0.00000000000E+00 0.  1.
         -3    1    6    6    0  502 -0.48463425548E+01  0.13253295311E+02 -0.14886934016E+02  0.20512378633E+02  0.00000000000E+00 0.  1.
<mgrwt>
<rscale>  0 0.13760712E+04</rscale>
<asrwt>0</asrwt>
<pdfrwt beam="1">  1        2 0.18506135E+00 0.13760712E+04</pdfrwt>
<pdfrwt beam="2">  1       -2 0.60545155E-01 0.13760712E+04</pdfrwt>
<totfact> 0.46732728E+01</totfact>
</mgrwt>
</event>
<event>
12    1  0.1599266E-007  0.1482913E+04  0.7818608E-02  0.8895896E-01
         -2   -1    0    0    0  501 -0.00000000000E+00  0.00000000000E+00  0.53051352743E+03  0.53051352743E+03  0.00000000000E+00 0.  1.
          2   -1    0    0  501    0  0.00000000000E+00 -0.00000000000E+00 -0.10362741501E+04  0.10362741501E+04  0.00000000000E+00 0. -1.
         23    2    1    2    0    0  0.41000979172E+03  0.20512279450E+03 -0.84302309732E+02  0.47494871957E+03  0.91027559955E+02 0.  0.
        254    2    1    2    0    0 -0.41000979172E+03 -0.20512279450E+03 -0.42145831296E+03  0.10918389580E+04  0.89682875205E+03 0.  0.
        -24    2    4    4    0    0 -0.37563139638E+03 -0.59572773334E+02 -0.67964811775E+03  0.78331403525E+03  0.83734416967E+02 0.  0.
         24    2    4    4    0    0 -0.34378395338E+02 -0.14555002116E+03  0.25818980478E+03  0.30852492275E+03  0.78479105087E+02 0.  0.
         13    1    3    3    0    0  0.21213337583E+03  0.93689315363E+02  0.22662937213E+01  0.23191246849E+03  0.00000000000E+00 0. -1.
        -13    1    3    3    0    0  0.19787641589E+03  0.11143347913E+03 -0.86568603453E+02  0.24303625108E+03  0.00000000000E+00 0.  1.
          2    1    6    6  502    0 -0.35665969522E+02 -0.15507914537E+03  0.24022725191E+03  0.28815054273E+03  0.00000000000E+00 0. -1.
          3    1    5    5  503    0 -0.25605394263E+03 -0.74741182460E+02 -0.50487195797E+03  0.57100399284E+03  0.00000000000E+00 0. -1.
         -4    1    5    5    0  503 -0.11957745375E+03  0.15168409126E+02 -0.17477615978E+03  0.21231004241E+03  0.00000000000E+00 0.  1.
         -1    1    6    6    0  502  0.12875741839E+01  0.95291242130E+01  0.17962552871E+02  0.20374380020E+02  0.00000000000E+00 0.  1.
<mgrwt>
<rscale>  0 0.14829126E+04</rscale>
<asrwt>0</asrwt>
<pdfrwt beam="1">  1        2 0.15942679E+00 0.14829126E+04</pdfrwt>
<pdfrwt beam="2">  1       -2 0.81617465E-01 0.14829126E+04</pdfrwt>
<totfact> 0.30531461E+01</totfact>
</mgrwt>
</event>
<event>
12    1  0.1599266E-007  0.1316571E+04  0.7818608E-02  0.9016527E-01
          2   -1    0    0  501    0  0.00000000000E+00  0.00000000000E+00  0.56142399811E+03  0.56142399811E+03  0.00000000000E+00 0. -1.
         -2   -1    0    0    0  501 -0.00000000000E+00 -0.00000000000E+00 -0.77185825593E+03  0.77185825593E+03  0.00000000000E+00 0.  1.
         23    2    1    2    0    0  0.15557363645E+03  0.29840797906E+03 -0.12978047002E+03  0.37213390240E+03  0.91597994484E+02 0.  0.
        254    2    1    2    0    0 -0.15557363645E+03 -0.29840797906E+03 -0.80653787795E+02  0.96114835164E+03  0.89668870968E+03 0.  0.
        -24    2    4    4    0    0  0.49900312093E+02  0.29591013928E+03 -0.10095014183E+03  0.32684832424E+03  0.81154446861E+02 0.  0.
         24    2    4    4    0    0 -0.20547394854E+03 -0.59431811834E+03  0.20296354035E+02  0.63430002740E+03  0.80566826069E+02 0.  0.
         13    1    3    3    0    0  0.14154835125E+03  0.19564522106E+03 -0.65851102782E+02  0.25029853376E+03  0.00000000000E+00 0. -1.
        -13    1    3    3    0    0  0.14025285201E+02  0.10276275800E+03 -0.63929367238E+02  0.12183536864E+03  0.00000000000E+00 0.  1.
          4    1    6    6  502    0 -0.12483302539E+02 -0.10347140613E+03  0.23624456749E+02  0.10686570865E+03  0.00000000000E+00 0. -1.
          1    1    5    5  503    0 -0.13988707086E+00 -0.53999300160E+01 -0.11773165982E+01  0.55285519752E+01  0.00000000000E+00 0. -1.
         -2    1    5    5    0  503  0.50040199164E+02  0.30131006930E+03 -0.99772825232E+02  0.32131977226E+03  0.00000000000E+00 0.  1.
         -3    1    6    6    0  502 -0.19299064600E+03 -0.49084671221E+03 -0.33281027141E+01  0.52743431875E+03  0.00000000000E+00 0.  1.
<mgrwt>
<rscale>  0 0.13165709E+04</rscale>
<asrwt>0</asrwt>
<pdfrwt beam="1">  1        2 0.86372923E-01 0.13165709E+04</pdfrwt>
<pdfrwt beam="2">  1       -2 0.11874742E+00 0.13165709E+04</pdfrwt>
<totfact> 0.28660207E+01</totfact>
</mgrwt>
</event>
<event>
12    1  0.1599266E-007  0.2001920E+04  0.7818608E-02  0.8605723E-01
         -2   -1    0    0    0  501 -0.00000000000E+00  0.00000000000E+00  0.50781821035E+03  0.50781821035E+03  0.00000000000E+00 0. -1.
          2   -1    0    0  501    0  0.00000000000E+00 -0.00000000000E+00 -0.19729915923E+04  0.19729915923E+04  0.00000000000E+00 0.  1.
         23    2    1    2    0    0  0.56699789983E+03  0.36015811392E+03 -0.55953121460E+02  0.68011491749E+03  0.90692137282E+02 0.  0.
        254    2    1    2    0    0 -0.56699789983E+03 -0.36015811392E+03 -0.14092202604E+04  0.18006948851E+04  0.89744071749E+03 0.  0.
        -24    2    4    4    0    0  0.23676819832E+03 -0.11026513842E+03 -0.31450138030E+03  0.41745276579E+03  0.84487353930E+02 0.  0.
         24    2    4    4    0    0 -0.80376609815E+03 -0.24989297550E+03 -0.10947188801E+04  0.13832421193E+04  0.80392128833E+02 0.  0.
         11    1    3    3    0    0  0.79719549429E+02  0.81272887285E+02  0.12443067637E+02  0.11452213193E+03  0.00000000000E+00 0.  1.
        -11    1    3    3    0    0  0.48727835040E+03  0.27888522664E+03 -0.68396189097E+02  0.56559278557E+03  0.00000000000E+00 0. -1.
          2    1    6    6  502    0 -0.65769884126E+01 -0.67812107872E+01 -0.27948072879E+02  0.29501463929E+02  0.00000000000E+00 0. -1.
          1    1    5    5  503    0  0.91352269193E+02 -0.32221517867E+02 -0.18056344666E+03  0.20490637270E+03  0.00000000000E+00 0. -1.
         -2    1    5    5    0  503  0.14541592913E+03 -0.78043620556E+02 -0.13393793363E+03  0.21254639310E+03  0.00000000000E+00 0.  1.
         -3    1    6    6    0  502 -0.79718910974E+03 -0.24311176471E+03 -0.10667708073E+04  0.13537406554E+04  0.00000000000E+00 0.  1.
<mgrwt>
<rscale>  0 0.20019201E+04</rscale>
<asrwt>0</asrwt>
<pdfrwt beam="1">  1        2 0.30353716E+00 0.20019201E+04</pdfrwt>
<pdfrwt beam="2">  1       -2 0.78125879E-01 0.20019201E+04</pdfrwt>
<totfact> 0.93656502E+00</totfact>
</mgrwt>
</event>
<event>
12    1  0.1599266E-007  0.1580075E+04  0.7818608E-02  0.8832883E-01
         -1   -1    0    0    0  501 -0.00000000000E+00  0.00000000000E+00  0.21781817299E+03  0.21781817299E+03  0.00000000000E+00 0.  1.
          1   -1    0    0  501    0  0.00000000000E+00 -0.00000000000E+00 -0.28655043255E+04  0.28655043255E+04  0.00000000000E+00 0. -1.
         23    2    1    2    0    0 -0.25705244205E+03  0.18177892283E+02 -0.20351773279E+02  0.27428000196E+03  0.91700223933E+02 0.  0.
        254    2    1    2    0    0  0.25705244205E+03 -0.18177892283E+02 -0.26273343792E+04  0.28090424965E+04  0.95991010689E+03 0.  0.
        -24    2    4    4    0    0  0.61017386393E+03 -0.92429569148E+02 -0.17311337170E+04  0.18395994123E+04  0.80291232365E+02 0.  0.
         24    2    4    4    0    0 -0.35312142188E+03  0.74251676864E+02 -0.89620066218E+03  0.96944308422E+03  0.80226034037E+02 0.  0.
         11    1    3    3    0    0 -0.15024229435E+02 -0.14432602698E+01 -0.27481037756E+02  0.31353116376E+02  0.00000000000E+00 0. -1.
        -11    1    3    3    0    0 -0.24202821261E+03  0.19621152553E+02  0.71292644770E+01  0.24292688559E+03  0.00000000000E+00 0.  1.
          2    1    6    6  502    0 -0.80795102656E+02  0.51620801342E+02 -0.21100466157E+03  0.23176609534E+03  0.00000000000E+00 0. -1.
          3    1    5    5  503    0  0.49420439520E+02  0.10677277275E+02 -0.10826127548E+03  0.11948593165E+03  0.00000000000E+00 0. -1.
         -4    1    5    5    0  503  0.56075342441E+03 -0.10310684642E+03 -0.16228724416E+04  0.17201134807E+04  0.00000000000E+00 0.  1.
         -1    1    6    6    0  502 -0.27232631923E+03  0.22630875523E+02 -0.68519600061E+03  0.73767698888E+03  0.00000000000E+00 0.  1.
<mgrwt>
<rscale>  0 0.15800746E+04</rscale>
<asrwt>0</asrwt>
<pdfrwt beam="1">  1        1 0.44084683E+00 0.15800746E+04</pdfrwt>
<pdfrwt beam="2">  1       -1 0.33510488E-01 0.15800746E+04</pdfrwt>
<totfact> 0.60562181E+00</totfact>
</mgrwt>
</event>
<event>
12    1  0.1599266E-007  0.2107037E+04  0.7818608E-02  0.8558150E-01
         -2   -1    0    0    0  501 -0.00000000000E+00  0.00000000000E+00  0.80124778604E+03  0.80124778604E+03  0.00000000000E+00 0. -1.
          2   -1    0    0  501    0  0.00000000000E+00 -0.00000000000E+00 -0.13852154009E+04  0.13852154009E+04  0.00000000000E+00 0.  1.
         23    2    1    2    0    0 -0.44811963138E+02 -0.69197053762E+03 -0.77232182695E+03  0.10419183649E+04  0.91002955126E+02 0.  0.
        254    2    1    2    0    0  0.44811963138E+02  0.69197053762E+03  0.18835421213E+03  0.11445448219E+04  0.89088394488E+03 0.  0.
        -24    2    4    4    0    0 -0.12601976754E+03  0.86167418947E+03  0.12817879967E+03  0.88382608045E+03  0.79720418961E+02 0.  0.
         24    2    4    4    0    0  0.17083173068E+03 -0.16970365185E+03  0.60175412466E+02  0.26071874149E+03  0.79814611721E+02 0.  0.
         13    1    3    3    0    0  0.97748856353E+01 -0.21775618912E+03 -0.19181718730E+03  0.29035691766E+03  0.00000000000E+00 0.  1.
        -13    1    3    3    0    0 -0.54586848774E+02 -0.47421434850E+03 -0.58050463965E+03  0.75156144728E+03  0.00000000000E+00 0. -1.
          2    1    6    6  502    0  0.15065249904E+03 -0.10043188693E+03  0.50130524543E+02  0.18787178838E+03  0.00000000000E+00 0. -1.
          3    1    5    5  503    0 -0.99105862474E+02  0.42932260711E+03  0.47204060997E+02  0.44313439984E+03  0.00000000000E+00 0. -1.
         -4    1    5    5    0  503 -0.26913905063E+02  0.43235158236E+03  0.80974738672E+02  0.44069168061E+03  0.00000000000E+00 0.  1.
         -1    1    6    6    0  502  0.20179231640E+02 -0.69271764919E+02  0.10044887922E+02  0.72846953114E+02  0.00000000000E+00 0.  1.
<mgrwt>
<rscale>  0 0.21070366E+04</rscale>
<asrwt>0</asrwt>
<pdfrwt beam="1">  1        2 0.21311006E+00 0.21070366E+04</pdfrwt>
<pdfrwt beam="2">  1       -2 0.12326889E+00 0.21070366E+04</pdfrwt>
<totfact> 0.67496300E+00</totfact>
</mgrwt>
</event>
<event>
12    1  0.1599266E-007  0.3056780E+04  0.7818608E-02  0.8227700E-01
          1   -1    0    0  501    0  0.00000000000E+00  0.00000000000E+00  0.23953453653E+04  0.23953453653E+04  0.00000000000E+00 0. -1.
         -1   -1    0    0    0  501 -0.00000000000E+00 -0.00000000000E+00 -0.97521498900E+03  0.97521498900E+03  0.00000000000E+00 0.  1.
         23    2    1    2    0    0  0.94170753960E+03 -0.73393973134E+03  0.14391873732E+04  0.18721934823E+04  0.91474153365E+02 0.  0.
        254    2    1    2    0    0 -0.94170753960E+03  0.73393973134E+03 -0.19056996877E+02  0.14983668720E+04  0.90512954574E+03 0.  0.
        -24    2    4    4    0    0 -0.67473106946E+01  0.15548156601E+03  0.30300523803E+03  0.34978830267E+03  0.79496156160E+02 0.  0.
         24    2    4    4    0    0 -0.93496022890E+03  0.57845816533E+03 -0.32206223490E+03  0.11485785693E+04  0.82122884053E+02 0.  0.
         11    1    3    3    0    0  0.58354131580E+03 -0.45127293959E+03  0.95758280290E+03  0.12087731622E+04  0.00000000000E+00 0. -1.
        -11    1    3    3    0    0  0.35816622380E+03 -0.28266679175E+03  0.48160457032E+03  0.66342032014E+03  0.00000000000E+00 0.  1.
          2    1    6    6  502    0 -0.57567394337E+03  0.37995963639E+03 -0.23734965982E+03  0.72945505371E+03  0.00000000000E+00 0. -1.
          1    1    5    5  503    0 -0.29354689006E+02  0.14067869663E+03  0.22255125521E+03  0.26491744874E+03  0.00000000000E+00 0. -1.
         -2    1    5    5    0  503  0.22607378312E+02  0.14802869383E+02  0.80453982818E+02  0.84870853933E+02  0.00000000000E+00 0.  1.
         -1    1    6    6    0  502 -0.35928628553E+03  0.19849852894E+03 -0.84712575078E+02  0.41912351561E+03  0.00000000000E+00 0.  1.
<mgrwt>
<rscale>  0 0.30567805E+04</rscale>
<asrwt>0</asrwt>
<pdfrwt beam="1">  1        1 0.36851467E+00 0.30567805E+04</pdfrwt>
<pdfrwt beam="2">  1       -1 0.15003308E+00 0.30567805E+04</pdfrwt>
<totfact> 0.47252220E-01</totfact>
</mgrwt>
</event>
<event>
12    1  0.1599266E-007  0.1298142E+04  0.7818608E-02  0.9031040E-01
         -2   -1    0    0    0  501 -0.00000000000E+00  0.00000000000E+00  0.23390945724E+03  0.23390945724E+03  0.00000000000E+00 0.  1.
          2   -1    0    0  501    0  0.00000000000E+00 -0.00000000000E+00 -0.18010940002E+04  0.18010940002E+04  0.00000000000E+00 0. -1.
         23    2    1    2    0    0 -0.26821591025E+02  0.60788927132E+02 -0.88609792812E+03  0.89620130017E+03  0.11658705244E+03 0.  0.
        254    2    1    2    0    0  0.26821591025E+02 -0.60788927132E+02 -0.68108661483E+03  0.11388021573E+04  0.91026187721E+03 0.  0.
        -24    2    4    4    0    0 -0.37989103876E+03  0.16110670906E+03 -0.44669335554E+03  0.61351696894E+03  0.81212956263E+02 0.  0.
         24    2    4    4    0    0  0.40671262979E+03 -0.22189563619E+03 -0.23439325929E+03  0.52528518833E+03  0.79570676019E+02 0.  0.
         13    1    3    3    0    0  0.24121342084E+02 -0.16882943925E+01 -0.55148040832E+03  0.55201026280E+03  0.00000000000E+00 0. -1.
        -13    1    3    3    0    0 -0.50942933109E+02  0.62477221524E+02 -0.33461751981E+03  0.34419103737E+03  0.00000000000E+00 0.  1.
          2    1    6    6  502    0  0.12160980138E+03 -0.53076832522E+02 -0.30194360343E+02  0.13608009898E+03  0.00000000000E+00 0. -1.
          3    1    5    5  503    0 -0.21287045801E+02  0.32593289544E+02 -0.31780407282E+02  0.50253906607E+02  0.00000000000E+00 0. -1.
         -4    1    5    5    0  503 -0.35860399296E+03  0.12851341952E+03 -0.41491294825E+03  0.56326306234E+03  0.00000000000E+00 0.  1.
         -1    1    6    6    0  502  0.28510282841E+03 -0.16881880367E+03 -0.20419889895E+03  0.38920508934E+03  0.00000000000E+00 0.  1.
<mgrwt>
<rscale>  0 0.12981416E+04</rscale>
<asrwt>0</asrwt>
<pdfrwt beam="1">  1        2 0.27709138E+00 0.12981416E+04</pdfrwt>
<pdfrwt beam="2">  1       -2 0.35986072E-01 0.12981416E+04</pdfrwt>
<totfact> 0.61354768E+01</totfact>
</mgrwt>
</event>
<event>
12    1  0.1599266E-007  0.1497057E+04  0.7818608E-02  0.8886413E-01
          1   -1    0    0  501    0  0.00000000000E+00  0.00000000000E+00  0.45258388047E+03  0.45258388047E+03  0.00000000000E+00 0. -1.
         -1   -1    0    0    0  501 -0.00000000000E+00 -0.00000000000E+00 -0.12379908924E+04  0.12379908924E+04  0.00000000000E+00 0.  1.
         23    2    1    2    0    0 -0.17260555275E+03 -0.14883298538E+03  0.21414970277E+03  0.32590932823E+03  0.91721647687E+02 0.  0.
        254    2    1    2    0    0  0.17260555275E+03  0.14883298538E+03 -0.99955671468E+03  0.13646654446E+04  0.90069651687E+03 0.  0.
        -24    2    4    4    0    0  0.48776325191E+03  0.29122633116E+03 -0.58689199509E+03  0.82051787347E+03  0.77984619723E+02 0.  0.
         24    2    4    4    0    0 -0.31515769916E+03 -0.14239334578E+03 -0.41266471959E+03  0.54414757115E+03  0.78766541955E+02 0.  0.
         11    1    3    3    0    0 -0.94548621592E+02 -0.97563922476E+02  0.66644172223E+02  0.15132615935E+03  0.00000000000E+00 0.  1.
        -11    1    3    3    0    0 -0.78056931159E+02 -0.51269062902E+02  0.14750553055E+03  0.17458316888E+03  0.00000000000E+00 0. -1.
          4    1    6    6  502    0 -0.23297866160E+02 -0.25206298275E+02 -0.76228033413E+02  0.83599408601E+02  0.00000000000E+00 0. -1.
          3    1    5    5  503    0 -0.13459429049E+01  0.55545441213E+01 -0.14116747682E+01  0.58870492057E+01  0.00000000000E+00 0. -1.
         -4    1    5    5    0  503  0.48910919481E+03  0.28567178703E+03 -0.58548032032E+03  0.81463082427E+03  0.00000000000E+00 0.  1.
         -3    1    6    6    0  502 -0.29185983300E+03 -0.11718704750E+03 -0.33643668617E+03  0.46054816254E+03  0.00000000000E+00 0.  1.
<mgrwt>
<rscale>  0 0.14970567E+04</rscale>
<asrwt>0</asrwt>
<pdfrwt beam="1">  1        1 0.69628290E-01 0.14970567E+04</pdfrwt>
<pdfrwt beam="2">  1       -1 0.19046014E+00 0.14970567E+04</pdfrwt>
<totfact> 0.86207133E+00</totfact>
</mgrwt>
</event>
<event>
12    1  0.1599266E-007  0.1189097E+04  0.7818608E-02  0.9122454E-01
         -2   -1    0    0    0  501 -0.00000000000E+00  0.00000000000E+00  0.44157519743E+03  0.44157519743E+03  0.00000000000E+00 0. -1.
          2   -1    0    0  501    0  0.00000000000E+00 -0.00000000000E+00 -0.80051541365E+03  0.80051541365E+03  0.00000000000E+00 0.  1.
         23    2    1    2    0    0  0.16860079554E+03  0.14006166724E+03  0.28793149638E+02  0.23875126388E+03  0.90164414577E+02 0.  0.
        254    2    1    2    0    0 -0.16860079554E+03 -0.14006166724E+03 -0.38773336586E+03  0.10033393472E+04  0.89906016691E+03 0.  0.
        -24    2    4    4    0    0  0.77109890727E+02  0.32359797495E+03  0.63164210689E+01  0.34236741573E+03  0.80709141574E+02 0.  0.
         24    2    4    4    0    0 -0.24571068626E+03 -0.46365964219E+03 -0.39404978693E+03  0.66097193146E+03  0.79086373455E+02 0.  0.
         13    1    3    3    0    0 -0.61893667553E+01 -0.30435020532E+01  0.98961175078E+01  0.12062516624E+02  0.00000000000E+00 0.  1.
        -13    1    3    3    0    0  0.17479016229E+03  0.14310516929E+03  0.18897032130E+02  0.22668874726E+03  0.00000000000E+00 0. -1.
          4    1    6    6  502    0 -0.24385978673E+03 -0.46693586992E+03 -0.38994615728E+03  0.65540423235E+03  0.00000000000E+00 0. -1.
          3    1    5    5  503    0  0.83556637341E+02  0.32479070725E+03  0.39273442868E+01  0.33538953352E+03  0.00000000000E+00 0. -1.
         -4    1    5    5    0  503 -0.64467466131E+01 -0.11927322980E+01  0.23890767820E+01  0.69778822073E+01  0.00000000000E+00 0.  1.
         -3    1    6    6    0  502 -0.18508995289E+01  0.32762277267E+01 -0.41036296434E+01  0.55676991148E+01  0.00000000000E+00 0.  1.
<mgrwt>
<rscale>  0 0.11890967E+04</rscale>
<asrwt>0</asrwt>
<pdfrwt beam="1">  1        2 0.12315622E+00 0.11890967E+04</pdfrwt>
<pdfrwt beam="2">  1       -2 0.67934646E-01 0.11890967E+04</pdfrwt>
<totfact> 0.67464304E+01</totfact>
</mgrwt>
</event>
<event>
12    1  0.1599266E-007  0.1612311E+04  0.7818608E-02  0.8813020E-01
          2   -1    0    0  501    0  0.00000000000E+00  0.00000000000E+00  0.41539782019E+03  0.41539782019E+03  0.00000000000E+00 0. -1.
         -2   -1    0    0    0  501 -0.00000000000E+00 -0.00000000000E+00 -0.15644919793E+04  0.15644919793E+04  0.00000000000E+00 0.  1.
         23    2    1    2    0    0  0.36408332452E+03 -0.11002261586E+03  0.12571617722E+02  0.39144817676E+03  0.91716881328E+02 0.  0.
        254    2    1    2    0    0 -0.36408332452E+03  0.11002261586E+03 -0.11616657768E+04  0.15884416227E+04  0.10144051304E+04 0.  0.
        -24    2    4    4    0    0 -0.65765989418E+03 -0.13641959951E+03 -0.86029068433E+03  0.10943852331E+04  0.80325172702E+02 0.  0.
         24    2    4    4    0    0  0.29357656966E+03  0.24644221537E+03 -0.30137509245E+03  0.49405638957E+03  0.79647987758E+02 0.  0.
         11    1    3    3    0    0  0.33751527207E+02 -0.92986835754E+01 -0.26486784990E+02  0.43899668383E+02  0.00000000000E+00 0.  1.
        -11    1    3    3    0    0  0.33033179731E+03 -0.10072393229E+03  0.39058402712E+02  0.34754850837E+03  0.00000000000E+00 0. -1.
          2    1    6    6  502    0  0.10710345431E+03  0.77973154603E+02 -0.15232133535E+03  0.20187310858E+03  0.00000000000E+00 0. -1.
          1    1    5    5  503    0 -0.19325796736E+03 -0.32705695051E+02 -0.19542436890E+03  0.27678328779E+03  0.00000000000E+00 0. -1.
         -2    1    5    5    0  503 -0.46440192682E+03 -0.10371390446E+03 -0.66486631543E+03  0.81760194533E+03  0.00000000000E+00 0.  1.
         -1    1    6    6    0  502  0.18647311535E+03  0.16846906077E+03 -0.14905375709E+03  0.29218328099E+03  0.00000000000E+00 0.  1.
<mgrwt>
<rscale>  0 0.16123108E+04</rscale>
<asrwt>0</asrwt>
<pdfrwt beam="1">  1        2 0.63907357E-01 0.16123108E+04</pdfrwt>
<pdfrwt beam="2">  1       -2 0.24069107E+00 0.16123108E+04</pdfrwt>
<totfact> 0.53533919E+00</totfact>
</mgrwt>
</event>
<event>
12    1  0.1599266E-007  0.1272494E+04  0.7818608E-02  0.9051667E-01
         -2   -1    0    0    0  501 -0.00000000000E+00  0.00000000000E+00  0.23271290408E+03  0.23271290408E+03  0.00000000000E+00 0.  1.
          2   -1    0    0  501    0  0.00000000000E+00 -0.00000000000E+00 -0.17395257124E+04  0.17395257124E+04  0.00000000000E+00 0. -1.
         23    2    1    2    0    0 -0.95753269611E+01 -0.27378508691E+03 -0.64096614165E+03  0.70254108251E+03  0.87615165179E+02 0.  0.
        254    2    1    2    0    0  0.95753269611E+01  0.27378508691E+03 -0.86584666669E+03  0.12696975340E+04  0.88735078573E+03 0.  0.
        -24    2    4    4    0    0  0.27122904234E+03  0.47883377281E+03 -0.37254415503E+03  0.66941050186E+03  0.80463017314E+02 0.  0.
         24    2    4    4    0    0 -0.26165371538E+03 -0.20504868590E+03 -0.49330251166E+03  0.60028703215E+03  0.80557573162E+02 0.  0.
         11    1    3    3    0    0 -0.11209107784E+02 -0.26090410647E+03 -0.53027135054E+03  0.59108738954E+03  0.00000000000E+00 0. -1.
        -11    1    3    3    0    0  0.16337808228E+01 -0.12880980436E+02 -0.11069479111E+03  0.11145369297E+03  0.00000000000E+00 0.  1.
          4    1    6    6  502    0  0.62106210528E+00 -0.22475492433E+02 -0.32152845502E+02  0.39234410307E+02  0.00000000000E+00 0. -1.
          1    1    5    5  503    0  0.62327575426E+02  0.53770522658E+02 -0.48469191912E+02  0.95526218024E+02  0.00000000000E+00 0. -1.
         -2    1    5    5    0  503  0.20890146691E+03  0.42506325015E+03 -0.32407496312E+03  0.57388428383E+03  0.00000000000E+00 0.  1.
         -3    1    6    6    0  502 -0.26227477748E+03 -0.18257319347E+03 -0.46114966616E+03  0.56105262184E+03  0.00000000000E+00 0.  1.
<mgrwt>
<rscale>  0 0.12724937E+04</rscale>
<asrwt>0</asrwt>
<pdfrwt beam="1">  1        2 0.26761935E+00 0.12724937E+04</pdfrwt>
<pdfrwt beam="2">  1       -2 0.35801984E-01 0.12724937E+04</pdfrwt>
<totfact> 0.67145935E+01</totfact>
</mgrwt>
</event>
<event>
12    1  0.1599266E-007  0.1459938E+04  0.7818608E-02  0.8911540E-01
         -2   -1    0    0    0  501 -0.00000000000E+00  0.00000000000E+00  0.26875476233E+03  0.26875476233E+03  0.00000000000E+00 0. -1.
          2   -1    0    0  501    0  0.00000000000E+00 -0.00000000000E+00 -0.19826805312E+04  0.19826805312E+04  0.00000000000E+00 0.  1.
         23    2    1    2    0    0 -0.24877921880E+03  0.27942849292E+03 -0.91815601342E+03  0.99575582424E+03  0.92454389696E+02 0.  0.
        254    2    1    2    0    0  0.24877921880E+03 -0.27942849292E+03 -0.79576975541E+03  0.12556794692E+04  0.89638721739E+03 0.  0.
        -24    2    4    4    0    0  0.49939320573E+03 -0.16005439559E+02 -0.18049884771E+03  0.53728954764E+03  0.80314855086E+02 0.  0.
         24    2    4    4    0    0 -0.25061398693E+03 -0.26342305336E+03 -0.61527090770E+03  0.71838992161E+03  0.72984341598E+02 0.  0.
         13    1    3    3    0    0 -0.19013566592E+03  0.26270939170E+03 -0.76414484399E+03  0.83011152175E+03  0.00000000000E+00 0.  1.
        -13    1    3    3    0    0 -0.58643552880E+02  0.16719101218E+02 -0.15401116942E+03  0.16564430249E+03  0.00000000000E+00 0. -1.
          2    1    6    6  502    0 -0.21963419795E+02 -0.62578920117E+02 -0.10149892281E+03  0.12124580151E+03  0.00000000000E+00 0. -1.
          3    1    5    5  503    0  0.32010919061E+02 -0.12739405099E+02 -0.31603910327E+02  0.46752524310E+02  0.00000000000E+00 0. -1.
         -4    1    5    5    0  503  0.46738228667E+03 -0.32660344605E+01 -0.14889493738E+03  0.49053702333E+03  0.00000000000E+00 0.  1.
         -1    1    6    6    0  502 -0.22865056714E+03 -0.20084413324E+03 -0.51377198489E+03  0.59714412010E+03  0.00000000000E+00 0.  1.
<mgrwt>
<rscale>  0 0.14599381E+04</rscale>
<asrwt>0</asrwt>
<pdfrwt beam="1">  1        2 0.30502778E+00 0.14599381E+04</pdfrwt>
<pdfrwt beam="2">  1       -2 0.41346886E-01 0.14599381E+04</pdfrwt>
<totfact> 0.36698333E+01</totfact>
</mgrwt>
</event>
<event>
12    1  0.1599266E-007  0.1589096E+04  0.7818608E-02  0.8827275E-01
         -1   -1    0    0    0  501 -0.00000000000E+00  0.00000000000E+00  0.29191514874E+03  0.29191514874E+03  0.00000000000E+00 0.  1.
          1   -1    0    0  501    0  0.00000000000E+00 -0.00000000000E+00 -0.21626384172E+04  0.21626384172E+04  0.00000000000E+00 0. -1.
         23    2    1    2    0    0 -0.11970404550E+03 -0.41859512011E+03 -0.15570922692E+03  0.47123509710E+03  0.90918756580E+02 0.  0.
        254    2    1    2    0    0  0.11970404550E+03  0.41859512011E+03 -0.17150140416E+04  0.19833184689E+04  0.89595092113E+03 0.  0.
        -24    2    4    4    0    0  0.44130454668E+03  0.26930142254E+03 -0.53391145507E+03  0.74759871368E+03  0.81052055744E+02 0.  0.
         24    2    4    4    0    0 -0.32160050118E+03  0.14929369757E+03 -0.11811025865E+04  0.12357197552E+04  0.79274857436E+02 0.  0.
         11    1    3    3    0    0 -0.95008673830E+02 -0.20091225529E+03 -0.10766518560E+03  0.24694974108E+03  0.00000000000E+00 0. -1.
        -11    1    3    3    0    0 -0.24695371673E+02 -0.21768286481E+03 -0.48044041323E+02  0.22428535601E+03  0.00000000000E+00 0.  1.
          4    1    6    6  502    0 -0.22607123601E+03  0.63346541706E+02 -0.75479339215E+03  0.79046445393E+03  0.00000000000E+00 0. -1.
          3    1    5    5  503    0  0.36391342167E+03  0.25483278720E+03 -0.44425049377E+03  0.62827639548E+03  0.00000000000E+00 0. -1.
         -4    1    5    5    0  503  0.77391125012E+02  0.14468635332E+02 -0.89660961301E+02  0.11932231820E+03  0.00000000000E+00 0.  1.
         -3    1    6    6    0  502 -0.95529265170E+02  0.85947155868E+02 -0.42630919435E+03  0.44525530125E+03  0.00000000000E+00 0.  1.
<mgrwt>
<rscale>  0 0.15890965E+04</rscale>
<asrwt>0</asrwt>
<pdfrwt beam="1">  1        1 0.33271361E+00 0.15890965E+04</pdfrwt>
<pdfrwt beam="2">  1       -1 0.44910022E-01 0.15890965E+04</pdfrwt>
<totfact> 0.10915586E+01</totfact>
</mgrwt>
</event>
<event>
12    1  0.1599266E-007  0.2386572E+04  0.7818608E-02  0.8444548E-01
          1   -1    0    0  501    0  0.00000000000E+00  0.00000000000E+00  0.65334173615E+03  0.65334173615E+03  0.00000000000E+00 0. -1.
         -1   -1    0    0    0  501 -0.00000000000E+00 -0.00000000000E+00 -0.21794596584E+04  0.21794596584E+04  0.00000000000E+00 0.  1.
         23    2    1    2    0    0  0.84859158043E+03 -0.52445828874E+03 -0.71892487012E+03  0.12332809938E+04  0.94683017416E+02 0.  0.
        254    2    1    2    0    0 -0.84859158043E+03  0.52445828874E+03 -0.80719305208E+03  0.15995204007E+04  0.95485115172E+03 0.  0.
        -24    2    4    4    0    0  0.10840140853E+03  0.34649731498E+03 -0.75636714903E+02  0.37932504260E+03  0.79720264904E+02 0.  0.
         24    2    4    4    0    0 -0.95699298897E+03  0.17796097376E+03 -0.73155633718E+03  0.12201953581E+04  0.78716887497E+02 0.  0.
         11    1    3    3    0    0  0.71490789069E+03 -0.41182042842E+03 -0.62336519915E+03  0.10340568306E+04  0.00000000000E+00 0.  1.
        -11    1    3    3    0    0  0.13368368975E+03 -0.11263786032E+03 -0.95559670964E+02  0.19922416318E+03  0.00000000000E+00 0. -1.
          2    1    6    6  502    0 -0.33843713428E+03  0.54824812578E+02 -0.21237749894E+03  0.40329847011E+03  0.00000000000E+00 0. -1.
          1    1    5    5  503    0  0.18206144061E+02  0.15726612830E+02 -0.21430301307E+02  0.32218749926E+02  0.00000000000E+00 0. -1.
         -2    1    5    5    0  503  0.90195264472E+02  0.33077070215E+03 -0.54206413596E+02  0.34710629267E+03  0.00000000000E+00 0.  1.
         -1    1    6    6    0  502 -0.61855585468E+03  0.12313616118E+03 -0.51917883824E+03  0.81689688800E+03  0.00000000000E+00 0.  1.
<mgrwt>
<rscale>  0 0.23865724E+04</rscale>
<asrwt>0</asrwt>
<pdfrwt beam="1">  1        1 0.10051411E+00 0.23865724E+04</pdfrwt>
<pdfrwt beam="2">  1       -1 0.33530149E+00 0.23865724E+04</pdfrwt>
<totfact> 0.52709659E-01</totfact>
</mgrwt>
</event>
<event>
12    1  0.1599266E-007  0.2742079E+04  0.7818608E-02  0.8321480E-01
         -1   -1    0    0    0  501 -0.00000000000E+00  0.00000000000E+00  0.13099978431E+04  0.13099978431E+04  0.00000000000E+00 0.  1.
          1   -1    0    0  501    0  0.00000000000E+00 -0.00000000000E+00 -0.14349254601E+04  0.14349254601E+04  0.00000000000E+00 0. -1.
         23    2    1    2    0    0  0.86688983995E+03 -0.83278782495E+03 -0.28028237931E+03  0.12376730909E+04  0.90790483144E+02 0.  0.
        254    2    1    2    0    0 -0.86688983995E+03  0.83278782495E+03  0.15535476228E+03  0.15072502122E+04  0.89589873538E+03 0.  0.
        -24    2    4    4    0    0 -0.50023960814E+03  0.75648100876E+02 -0.24997096518E+03  0.56994110445E+03  0.79906685474E+02 0.  0.
         24    2    4    4    0    0 -0.36665023181E+03  0.75713972408E+03  0.40532572746E+03  0.93730910777E+03  0.81033720739E+02 0.  0.
         11    1    3    3    0    0  0.71117344220E+02 -0.70900729135E+02 -0.49956719544E+02  0.11216177543E+03  0.00000000000E+00 0. -1.
        -11    1    3    3    0    0  0.79577249573E+03 -0.76188709582E+03 -0.23032565976E+03  0.11255113155E+04  0.00000000000E+00 0.  1.
          4    1    6    6  502    0  0.13269221337E+00  0.10897246583E+02 -0.24867059713E+01  0.11178161607E+02  0.00000000000E+00 0. -1.
          1    1    5    5  503    0 -0.13161194235E+02  0.87020263537E+01 -0.24282439813E+02  0.28958231638E+02  0.00000000000E+00 0. -1.
         -2    1    5    5    0  503 -0.48707841391E+03  0.66946074522E+02 -0.22568852537E+03  0.54098287281E+03  0.00000000000E+00 0.  1.
         -3    1    6    6    0  502 -0.36678292402E+03  0.74624247750E+03  0.40781243343E+03  0.92613094616E+03  0.00000000000E+00 0.  1.
<mgrwt>
<rscale>  0 0.27420790E+04</rscale>
<asrwt>0</asrwt>
<pdfrwt beam="1">  1        1 0.22075776E+00 0.27420790E+04</pdfrwt>
<pdfrwt beam="2">  1       -1 0.20153813E+00 0.27420790E+04</pdfrwt>
<totfact> 0.92793780E-01</totfact>
</mgrwt>
</event>
<event>
12    1  0.1599266E-007  0.2216660E+04  0.7818608E-02  0.8511526E-01
         -2   -1    0    0    0  501 -0.00000000000E+00  0.00000000000E+00  0.63481006869E+03  0.63481006869E+03  0.00000000000E+00 0. -1.
          2   -1    0    0  501    0  0.00000000000E+00 -0.00000000000E+00 -0.19350592446E+04  0.19350592446E+04  0.00000000000E+00 0.  1.
         23    2    1    2    0    0 -0.37427038368E+02 -0.18893962043E+03 -0.15870676334E+04  0.16011601345E+04  0.88493726989E+02 0.  0.
        254    2    1    2    0    0  0.37427038368E+02  0.18893962043E+03  0.28681845757E+03  0.96870917878E+03  0.90500479672E+03 0.  0.
        -24    2    4    4    0    0  0.38347255707E+03  0.96395991548E+02 -0.12025731641E+03  0.42060816716E+03  0.78141019425E+02 0.  0.
         24    2    4    4    0    0 -0.34604551870E+03  0.92543628879E+02  0.40707577398E+03  0.54810101162E+03  0.79951290933E+02 0.  0.
         11    1    3    3    0    0 -0.45121049327E+02 -0.12541609724E+03 -0.13117649160E+04  0.13185189803E+04  0.00000000000E+00 0. -1.
        -11    1    3    3    0    0  0.76940109588E+01 -0.63523523188E+02 -0.27530271747E+03  0.28264115420E+03  0.00000000000E+00 0.  1.
          2    1    6    6  502    0 -0.11578051348E+03  0.24198844943E+02  0.19295545812E+03  0.22632392762E+03  0.00000000000E+00 0. -1.
          3    1    5    5  503    0  0.29708611585E+03  0.91769435637E+02 -0.12216999179E+03  0.33407678225E+03  0.00000000000E+00 0. -1.
         -4    1    5    5    0  503  0.86386441221E+02  0.46265559108E+01  0.19126753748E+01  0.86531384905E+02  0.00000000000E+00 0.  1.
         -1    1    6    6    0  502 -0.23026500523E+03  0.68344783936E+02  0.21412031586E+03  0.32177708400E+03  0.00000000000E+00 0.  1.
<mgrwt>
<rscale>  0 0.22166597E+04</rscale>
<asrwt>0</asrwt>
<pdfrwt beam="1">  1        2 0.29770142E+00 0.22166597E+04</pdfrwt>
<pdfrwt beam="2">  1       -2 0.97663087E-01 0.22166597E+04</pdfrwt>
<totfact> 0.57883645E+00</totfact>
</mgrwt>
</event>
<event>
12    1  0.1599266E-007  0.1159718E+04  0.7818608E-02  0.9148864E-01
         -1   -1    0    0    0  501 -0.00000000000E+00  0.00000000000E+00  0.29972500128E+03  0.29972500128E+03  0.00000000000E+00 0.  1.
          1   -1    0    0  501    0  0.00000000000E+00 -0.00000000000E+00 -0.11218172972E+04  0.11218172972E+04  0.00000000000E+00 0. -1.
         23    2    1    2    0    0 -0.10303091860E+02  0.16059278226E+03 -0.39062739324E+03  0.43211776647E+03  0.90773390024E+02 0.  0.
        254    2    1    2    0    0  0.10303091860E+02 -0.16059278226E+03 -0.43146490272E+03  0.98942453205E+03  0.87572983672E+03 0.  0.
        -24    2    4    4    0    0 -0.33915367892E+03  0.27002326743E+02  0.58082627020E+02  0.35434725138E+03  0.80212464244E+02 0.  0.
         24    2    4    4    0    0  0.34945677078E+03 -0.18759510900E+03 -0.48954752974E+03  0.63507728067E+03  0.79714546845E+02 0.  0.
         13    1    3    3    0    0  0.28875229324E+02  0.14791918281E+02 -0.90870121185E+02  0.96488126933E+02  0.00000000000E+00 0.  1.
        -13    1    3    3    0    0 -0.39178321184E+02  0.14580086398E+03 -0.29975727205E+03  0.33562963954E+03  0.00000000000E+00 0. -1.
          4    1    6    6  502    0  0.35157377949E+03 -0.17729790210E+03 -0.48036245511E+03  0.62111734543E+03  0.00000000000E+00 0. -1.
          3    1    5    5  503    0 -0.25922235762E+03 -0.25385096285E+01  0.69450977299E+02  0.26837681153E+03  0.00000000000E+00 0. -1.
         -4    1    5    5    0  503 -0.79931321309E+02  0.29540836371E+02 -0.11368350278E+02  0.85970439848E+02  0.00000000000E+00 0.  1.
         -3    1    6    6    0  502 -0.21170087093E+01 -0.10297206905E+02 -0.91850746346E+01  0.13959935242E+02  0.00000000000E+00 0.  1.
<mgrwt>
<rscale>  0 0.11597184E+04</rscale>
<asrwt>0</asrwt>
<pdfrwt beam="1">  1        1 0.17258727E+00 0.11597184E+04</pdfrwt>
<pdfrwt beam="2">  1       -1 0.46111539E-01 0.11597184E+04</pdfrwt>
<totfact> 0.56666651E+01</totfact>
</mgrwt>
</event>
<event>
12    1  0.1599266E-007  0.1268727E+04  0.7818608E-02  0.9054739E-01
         -3   -1    0    0    0  501 -0.00000000000E+00  0.00000000000E+00  0.25013234470E+03  0.25013234470E+03  0.00000000000E+00 0.  1.
          3   -1    0    0  501    0  0.00000000000E+00 -0.00000000000E+00 -0.16088166556E+04  0.16088166556E+04  0.00000000000E+00 0. -1.
         23    2    1    2    0    0 -0.11303182680E+03 -0.55351651598E+02  0.69494470433E+02  0.16890139575E+03  0.88646493793E+02 0.  0.
        254    2    1    2    0    0  0.11303182680E+03  0.55351651598E+02 -0.14281787813E+04  0.16900476046E+04  0.89483309896E+03 0.  0.
        -24    2    4    4    0    0  0.44284989202E+03 -0.18140185069E+03 -0.85168195949E+03  0.98056297505E+03  0.84373749612E+02 0.  0.
         24    2    4    4    0    0 -0.32981806522E+03  0.23675350229E+03 -0.57649682185E+03  0.70948462951E+03  0.78661788116E+02 0.  0.
         11    1    3    3    0    0 -0.10115009225E+03 -0.41345980865E+01  0.49018215473E+02  0.11247764895E+03  0.00000000000E+00 0.  1.
        -11    1    3    3    0    0 -0.11881734543E+02 -0.51217053512E+02  0.20476254960E+02  0.56423746804E+02  0.00000000000E+00 0. -1.
          2    1    6    6  502    0 -0.41559317054E+02  0.67450547957E+02 -0.10776475071E+03  0.13375348500E+03  0.00000000000E+00 0. -1.
          1    1    5    5  503    0  0.57925465353E+02 -0.86971663340E+01 -0.62304471450E+02  0.85515188132E+02  0.00000000000E+00 0. -1.
         -2    1    5    5    0  503  0.38492442667E+03 -0.17270468436E+03 -0.78937748804E+03  0.89504778692E+03  0.00000000000E+00 0.  1.
         -1    1    6    6    0  502 -0.28825874817E+03  0.16930295433E+03 -0.46873207114E+03  0.57573114451E+03  0.00000000000E+00 0.  1.
<mgrwt>
<rscale>  0 0.12687271E+04</rscale>
<asrwt>0</asrwt>
<pdfrwt beam="1">  1        3 0.24751026E+00 0.12687271E+04</pdfrwt>
<pdfrwt beam="2">  1       -3 0.38481899E-01 0.12687271E+04</pdfrwt>
<totfact> 0.13241423E+00</totfact>
</mgrwt>
</event>
<event>
12    1  0.1599266E-007  0.2756249E+04  0.7818608E-02  0.8316981E-01
          1   -1    0    0  501    0  0.00000000000E+00  0.00000000000E+00  0.19762572940E+04  0.19762572940E+04  0.00000000000E+00 0. -1.
         -1   -1    0    0    0  501 -0.00000000000E+00 -0.00000000000E+00 -0.96102245267E+03  0.96102245267E+03  0.00000000000E+00 0.  1.
         23    2    1    2    0    0  0.46689238938E+03  0.32764189629E+03 -0.70832666953E+03  0.91390200524E+03  0.90291134303E+02 0.  0.
        254    2    1    2    0    0 -0.46689238938E+03 -0.32764189629E+03  0.17235615109E+04  0.20233777414E+04  0.89333951402E+03 0.  0.
        -24    2    4    4    0    0 -0.35501155055E+03  0.12573356867E+03  0.21298384431E+03  0.44040931096E+03  0.82195571228E+02 0.  0.
         24    2    4    4    0    0 -0.11188083883E+03 -0.45337546496E+03  0.15105776665E+04  0.15829684305E+04  0.76665056168E+02 0.  0.
         11    1    3    3    0    0  0.22348634484E+03  0.10677425343E+03 -0.27635552944E+03  0.37110546503E+03  0.00000000000E+00 0.  1.
        -11    1    3    3    0    0  0.24340604455E+03  0.22086764286E+03 -0.43197114010E+03  0.54279654021E+03  0.00000000000E+00 0. -1.
          4    1    6    6  502    0 -0.98841218712E+00 -0.51916058037E+02  0.10758171548E+03  0.11945743822E+03  0.00000000000E+00 0. -1.
          1    1    5    5  503    0 -0.70874890129E+02  0.61664588271E+02  0.59075766611E+02  0.11097620330E+03  0.00000000000E+00 0. -1.
         -2    1    5    5    0  503 -0.28413666042E+03  0.64068980401E+02  0.15390807770E+03  0.32943310766E+03  0.00000000000E+00 0.  1.
         -3    1    6    6    0  502 -0.11089242665E+03 -0.40145940693E+03  0.14029959511E+04  0.14635109922E+04  0.00000000000E+00 0.  1.
<mgrwt>
<rscale>  0 0.27562494E+04</rscale>
<asrwt>0</asrwt>
<pdfrwt beam="1">  1        1 0.30403958E+00 0.27562494E+04</pdfrwt>
<pdfrwt beam="2">  1       -1 0.14784961E+00 0.27562494E+04</pdfrwt>
<totfact> 0.97470363E-01</totfact>
</mgrwt>
</event>
<event>
12    1  0.1599266E-007  0.1878060E+04  0.7818608E-02  0.8665855E-01
          1   -1    0    0  501    0  0.00000000000E+00  0.00000000000E+00  0.10596167198E+04  0.10596167198E+04  0.00000000000E+00 0. -1.
         -1   -1    0    0    0  501 -0.00000000000E+00 -0.00000000000E+00 -0.83216587407E+03  0.83216587407E+03  0.00000000000E+00 0.  1.
         23    2    1    2    0    0 -0.68178258632E+03  0.22566059506E+03  0.17811631614E+03  0.74565917309E+03  0.92368723985E+02 0.  0.
        254    2    1    2    0    0  0.68178258632E+03 -0.22566059506E+03  0.49334529603E+02  0.11461234208E+04  0.89186030337E+03 0.  0.
        -24    2    4    4    0    0 -0.20518471286E+03 -0.19090557478E+02 -0.50367670768E+02  0.22654922013E+03  0.79513716470E+02 0.  0.
         24    2    4    4    0    0  0.88696729917E+03 -0.20657003758E+03  0.99702200372E+02  0.91957420067E+03  0.79334806731E+02 0.  0.
         13    1    3    3    0    0 -0.92357244487E+02  0.57394716923E+02  0.48837282890E+02  0.11920190577E+03  0.00000000000E+00 0.  1.
        -13    1    3    3    0    0 -0.58942534183E+03  0.16826587814E+03  0.12927903325E+03  0.62645726732E+03  0.00000000000E+00 0. -1.
          4    1    6    6  502    0  0.47032890640E+03 -0.69508114959E+02  0.44672495195E+02  0.47753145453E+03  0.00000000000E+00 0. -1.
          3    1    5    5  503    0 -0.55442585109E+02 -0.40828341895E+02 -0.73710586632E+01  0.69247138939E+02  0.00000000000E+00 0. -1.
         -4    1    5    5    0  503 -0.14974212775E+03  0.21737784416E+02 -0.42996612105E+02  0.15730208119E+03  0.00000000000E+00 0.  1.
         -3    1    6    6    0  502  0.41663839278E+03 -0.13706192263E+03  0.55029705177E+02  0.44204274615E+03  0.00000000000E+00 0.  1.
<mgrwt>
<rscale>  0 0.18780595E+04</rscale>
<asrwt>0</asrwt>
<pdfrwt beam="1">  1        1 0.16301796E+00 0.18780595E+04</pdfrwt>
<pdfrwt beam="2">  1       -1 0.12802552E+00 0.18780595E+04</pdfrwt>
<totfact> 0.67236592E+00</totfact>
</mgrwt>
</event>
<event>
12    1  0.1599266E-007  0.1301019E+04  0.7818608E-02  0.9028758E-01
          2   -1    0    0  501    0  0.00000000000E+00  0.00000000000E+00  0.19446731588E+04  0.19446731588E+04  0.00000000000E+00 0. -1.
         -2   -1    0    0    0  501 -0.00000000000E+00 -0.00000000000E+00 -0.21760077386E+03  0.21760077386E+03  0.00000000000E+00 0.  1.
         23    2    1    2    0    0 -0.20398133786E+02 -0.31351029656E+03  0.29538869426E+03  0.44064859403E+03  0.90619605024E+02 0.  0.
        254    2    1    2    0    0  0.20398133786E+02  0.31351029656E+03  0.14316836907E+04  0.17216253386E+04  0.90308960048E+03 0.  0.
        -24    2    4    4    0    0  0.22545545750E+03  0.18051074681E+03  0.35110427623E+02  0.30156166135E+03  0.79324652149E+02 0.  0.
         24    2    4    4    0    0 -0.20505732371E+03  0.13299954976E+03  0.13965732631E+04  0.14200636773E+04  0.80165966458E+02 0.  0.
         13    1    3    3    0    0 -0.31982313642E+02 -0.13491913827E+03  0.78077781719E+02  0.15912945126E+03  0.00000000000E+00 0. -1.
        -13    1    3    3    0    0  0.11584179855E+02 -0.17859115829E+03  0.21731091254E+03  0.28151914278E+03  0.00000000000E+00 0.  1.
          4    1    6    6  502    0 -0.20451365189E+03  0.10921997897E+03  0.13059387910E+04  0.13263600429E+04  0.00000000000E+00 0. -1.
          3    1    5    5  503    0  0.20931333543E+03  0.18425388692E+03  0.20739794811E+02  0.27962779962E+03  0.00000000000E+00 0. -1.
         -4    1    5    5    0  503  0.16142122066E+02 -0.37431401105E+01  0.14370632813E+02  0.21933861724E+02  0.00000000000E+00 0.  1.
         -3    1    6    6    0  502 -0.54367181500E+00  0.23779570782E+02  0.90634472094E+02  0.93703634387E+02  0.00000000000E+00 0.  1.
<mgrwt>
<rscale>  0 0.13010187E+04</rscale>
<asrwt>0</asrwt>
<pdfrwt beam="1">  1        2 0.29918047E+00 0.13010187E+04</pdfrwt>
<pdfrwt beam="2">  1       -2 0.33477043E-01 0.13010187E+04</pdfrwt>
<totfact> 0.58657224E+01</totfact>
</mgrwt>
</event>
<event>
12    1  0.1599266E-007  0.2075677E+04  0.7818608E-02  0.8572034E-01
          1   -1    0    0  501    0  0.00000000000E+00  0.00000000000E+00  0.30514370306E+04  0.30514370306E+04  0.00000000000E+00 0. -1.
         -1   -1    0    0    0  501 -0.00000000000E+00 -0.00000000000E+00 -0.35298407296E+03  0.35298407296E+03  0.00000000000E+00 0.  1.
         23    2    1    2    0    0  0.70682169624E+02 -0.38145764683E+03 -0.13434683992E+03  0.42026444697E+03  0.89817740795E+02 0.  0.
        254    2    1    2    0    0 -0.70682169624E+02  0.38145764683E+03  0.28327997976E+04  0.29841566566E+04  0.85435961551E+03 0.  0.
        -24    2    4    4    0    0 -0.16547380945E+01 -0.11813920168E+03  0.20161659808E+04  0.20211843571E+04  0.79380942691E+02 0.  0.
         24    2    4    4    0    0 -0.69027431530E+02  0.49959684851E+03  0.81663381674E+03  0.96297229949E+03  0.77865663769E+02 0.  0.
         13    1    3    3    0    0 -0.14851642649E+02 -0.15239874974E+03 -0.62853000707E+02  0.16551872978E+03  0.00000000000E+00 0. -1.
        -13    1    3    3    0    0  0.85533812273E+02 -0.22905889709E+03 -0.71493839212E+02  0.25474571719E+03  0.00000000000E+00 0.  1.
          4    1    6    6  502    0 -0.65140619408E+01  0.26398284721E+03  0.47193812884E+03  0.54079106324E+03  0.00000000000E+00 0. -1.
          3    1    5    5  503    0  0.63395068469E+01 -0.35572956590E+01  0.14448094748E+02  0.16173779439E+02  0.00000000000E+00 0. -1.
         -4    1    5    5    0  503 -0.79942449413E+01 -0.11458190602E+03  0.20017178861E+04  0.20050105777E+04  0.00000000000E+00 0.  1.
         -3    1    6    6    0  502 -0.62513369589E+02  0.23561400130E+03  0.34469568790E+03  0.42218123625E+03  0.00000000000E+00 0.  1.
<mgrwt>
<rscale>  0 0.20756769E+04</rscale>
<asrwt>0</asrwt>
<pdfrwt beam="1">  1        1 0.46945183E+00 0.20756769E+04</pdfrwt>
<pdfrwt beam="2">  1       -1 0.54305244E-01 0.20756769E+04</pdfrwt>
<totfact> 0.17326364E+00</totfact>
</mgrwt>
</event>
<event>
12    1  0.1599266E-007  0.1293315E+04  0.7818608E-02  0.9034883E-01
          1   -1    0    0  501    0  0.00000000000E+00  0.00000000000E+00  0.45105534767E+03  0.45105534767E+03  0.00000000000E+00 0. -1.
         -1   -1    0    0    0  501 -0.00000000000E+00 -0.00000000000E+00 -0.92708305173E+03  0.92708305173E+03  0.00000000000E+00 0.  1.
         23    2    1    2    0    0  0.28981831368E+03  0.13499538943E+03 -0.17400189851E+03  0.37523326750E+03  0.91131411928E+02 0.  0.
        254    2    1    2    0    0 -0.28981831368E+03 -0.13499538943E+03 -0.30202580555E+03  0.10029051319E+04  0.90132164418E+03 0.  0.
        -24    2    4    4    0    0  0.59939247383E+02  0.31696204467E+03  0.37215598769E+02  0.33463585917E+03  0.80861030844E+02 0.  0.
         24    2    4    4    0    0 -0.34975756106E+03 -0.45195743410E+03 -0.33924140432E+03  0.66826927273E+03  0.70022972777E+02 0.  0.
         13    1    3    3    0    0  0.99947438088E+02  0.42957998052E+02 -0.12472030981E+02  0.10950082892E+03  0.00000000000E+00 0. -1.
        -13    1    3    3    0    0  0.18987087559E+03  0.92037391375E+02 -0.16152986752E+03  0.26573243858E+03  0.00000000000E+00 0.  1.
          4    1    6    6  502    0 -0.17746748731E+03 -0.27715408627E+03 -0.17272852226E+03  0.37167760087E+03  0.00000000000E+00 0. -1.
          3    1    5    5  503    0 -0.39056405096E+01  0.17489253134E+03  0.37354354808E+02  0.17887984618E+03  0.00000000000E+00 0. -1.
         -4    1    5    5    0  503  0.63844887892E+02  0.14206951334E+03 -0.13875603896E+00  0.15575601299E+03  0.00000000000E+00 0.  1.
         -3    1    6    6    0  502 -0.17229007375E+03 -0.17480334784E+03 -0.16651288206E+03  0.29659167186E+03  0.00000000000E+00 0.  1.
<mgrwt>
<rscale>  0 0.12933148E+04</rscale>
<asrwt>0</asrwt>
<pdfrwt beam="1">  1        1 0.69393132E-01 0.12933148E+04</pdfrwt>
<pdfrwt beam="2">  1       -1 0.14262816E+00 0.12933148E+04</pdfrwt>
<totfact> 0.20030084E+01</totfact>
</mgrwt>
</event>
<event>
12    1  0.1599266E-007  0.2043539E+04  0.7818608E-02  0.8586531E-01
         -2   -1    0    0    0  501 -0.00000000000E+00  0.00000000000E+00  0.12074518422E+04  0.12074518422E+04  0.00000000000E+00 0.  1.
          2   -1    0    0  501    0  0.00000000000E+00 -0.00000000000E+00 -0.86464143934E+03  0.86464143934E+03  0.00000000000E+00 0. -1.
         23    2    1    2    0    0 -0.15867903948E+02  0.72293362841E+03  0.52754004561E+03  0.89971308046E+03  0.91106015033E+02 0.  0.
        254    2    1    2    0    0  0.15867903948E+02 -0.72293362841E+03 -0.18472964278E+03  0.11723802010E+04  0.90413797256E+03 0.  0.
        -24    2    4    4    0    0  0.54169614632E+02  0.88347170629E+02 -0.31912605957E+03  0.34512772184E+03  0.80821610807E+02 0.  0.
         24    2    4    4    0    0 -0.38301710684E+02 -0.81128079903E+03  0.13439641680E+03  0.82725247921E+03  0.81490561299E+02 0.  0.
         11    1    3    3    0    0 -0.15758329567E+02  0.71773976934E+03  0.53144449686E+03  0.89321439459E+03  0.00000000000E+00 0.  1.
        -11    1    3    3    0    0 -0.10957438090E+00  0.51938590616E+01 -0.39044512547E+01  0.64986858746E+01  0.00000000000E+00 0. -1.
          4    1    6    6  502    0 -0.77750369400E+01 -0.21712968935E+02 -0.79112044007E+01  0.24382193799E+02  0.00000000000E+00 0. -1.
          3    1    5    5  503    0  0.71415341040E+01 -0.19563458999E+01  0.24650064787E+01  0.78041691152E+01  0.00000000000E+00 0. -1.
         -4    1    5    5    0  503  0.47028080528E+02  0.90303516529E+02 -0.32159106605E+03  0.33732355272E+03  0.00000000000E+00 0.  1.
         -3    1    6    6    0  502 -0.30526673744E+02 -0.78956783010E+03  0.14230762120E+03  0.80287028541E+03  0.00000000000E+00 0.  1.
<mgrwt>
<rscale>  0 0.20435390E+04</rscale>
<asrwt>0</asrwt>
<pdfrwt beam="1">  1        2 0.13302176E+00 0.20435390E+04</pdfrwt>
<pdfrwt beam="2">  1       -2 0.18576182E+00 0.20435390E+04</pdfrwt>
<totfact> 0.47501014E+00</totfact>
</mgrwt>
</event>
<event>
12    1  0.1599266E-007  0.1211348E+04  0.7818608E-02  0.9102981E-01
         -1   -1    0    0    0  501 -0.00000000000E+00  0.00000000000E+00  0.83753134048E+03  0.83753134048E+03  0.00000000000E+00 0.  1.
          1   -1    0    0  501    0  0.00000000000E+00 -0.00000000000E+00 -0.43800268655E+03  0.43800268655E+03  0.00000000000E+00 0. -1.
         23    2    1    2    0    0  0.20096125033E+03  0.10211339740E+03 -0.53563255132E+02  0.24926842402E+03  0.91941040073E+02 0.  0.
        254    2    1    2    0    0 -0.20096125033E+03 -0.10211339740E+03  0.45309190906E+03  0.10262656030E+04  0.89281366467E+03 0.  0.
        -24    2    4    4    0    0 -0.23032500322E+03 -0.30519375927E+03 -0.12297838791E+03  0.40934765800E+03  0.79050511739E+02 0.  0.
         24    2    4    4    0    0  0.29363752895E+02  0.20308036188E+03  0.57607029697E+03  0.61691794502E+03  0.81405776658E+02 0.  0.
         13    1    3    3    0    0  0.32357578052E+02 -0.15627735292E+02 -0.19296863913E+02  0.40787350057E+02  0.00000000000E+00 0.  1.
        -13    1    3    3    0    0  0.16860367228E+03  0.11774113269E+03 -0.34266391218E+02  0.20848107396E+03  0.00000000000E+00 0. -1.
          4    1    6    6  502    0 -0.20757188393E+01  0.18271385469E+03  0.49370013047E+03  0.52642993848E+03  0.00000000000E+00 0. -1.
          3    1    5    5  503    0 -0.14537547109E+03 -0.15706986013E+03 -0.10272199106E+03  0.23739582137E+03  0.00000000000E+00 0. -1.
         -4    1    5    5    0  503 -0.84949532132E+02 -0.14812389914E+03 -0.20256396850E+02  0.17195183663E+03  0.00000000000E+00 0.  1.
         -3    1    6    6    0  502  0.31439471735E+02  0.20366507182E+02  0.82370166498E+02  0.90488006535E+02  0.00000000000E+00 0.  1.
<mgrwt>
<rscale>  0 0.12113480E+04</rscale>
<asrwt>0</asrwt>
<pdfrwt beam="1">  1        1 0.67385029E-01 0.12113480E+04</pdfrwt>
<pdfrwt beam="2">  1       -1 0.12885097E+00 0.12113480E+04</pdfrwt>
<totfact> 0.27249252E+01</totfact>
</mgrwt>
</event>
<event>
12    1  0.1599266E-007  0.2460916E+04  0.7818608E-02  0.8417043E-01
          2   -1    0    0  501    0  0.00000000000E+00  0.00000000000E+00  0.20990275613E+04  0.20990275613E+04  0.00000000000E+00 0. -1.
         -2   -1    0    0    0  501 -0.00000000000E+00 -0.00000000000E+00 -0.72129923228E+03  0.72129923228E+03  0.00000000000E+00 0.  1.
         23    2    1    2    0    0  0.75657817760E+03  0.71208026085E+03  0.82120627481E+03  0.13274974894E+04  0.91656979370E+02 0.  0.
        254    2    1    2    0    0 -0.75657817760E+03 -0.71208026085E+03  0.55652205422E+03  0.14928293042E+04  0.91616248443E+03 0.  0.
        -24    2    4    4    0    0 -0.27682649402E+03  0.20237941005E+02  0.54119757137E+03  0.61365002539E+03  0.81419041756E+02 0.  0.
         24    2    4    4    0    0 -0.47975168358E+03 -0.73231820186E+03  0.15324482849E+02  0.87917927879E+03  0.79181675935E+02 0.  0.
         11    1    3    3    0    0  0.20137664925E+03  0.14311748386E+03  0.21975428213E+03  0.33064650847E+03  0.00000000000E+00 0.  1.
        -11    1    3    3    0    0  0.55520152835E+03  0.56896277699E+03  0.60145199268E+03  0.99685098093E+03  0.00000000000E+00 0. -1.
          2    1    6    6  502    0 -0.43487785761E+03 -0.61833486045E+03  0.24436371851E+02  0.75634244027E+03  0.00000000000E+00 0. -1.
          1    1    5    5  503    0 -0.25053437472E+03 -0.56903946099E+01  0.49190535899E+03  0.55206044570E+03  0.00000000000E+00 0. -1.
         -2    1    5    5    0  503 -0.26292119301E+02  0.25928335615E+02  0.49292212380E+02  0.61589579690E+02  0.00000000000E+00 0.  1.
         -1    1    6    6    0  502 -0.44873825977E+02 -0.11398334140E+03 -0.91118890014E+01  0.12283683852E+03  0.00000000000E+00 0.  1.
<mgrwt>
<rscale>  0 0.24609161E+04</rscale>
<asrwt>0</asrwt>
<pdfrwt beam="1">  1        2 0.32292732E+00 0.24609161E+04</pdfrwt>
<pdfrwt beam="2">  1       -2 0.11096911E+00 0.24609161E+04</pdfrwt>
<totfact> 0.33854893E+00</totfact>
</mgrwt>
</event>
<event>
12    1  0.1599266E-007  0.1370567E+04  0.7818608E-02  0.8975404E-01
         -1   -1    0    0    0  501 -0.00000000000E+00  0.00000000000E+00  0.68865153925E+03  0.68865153925E+03  0.00000000000E+00 0.  1.
          1   -1    0    0  501    0  0.00000000000E+00 -0.00000000000E+00 -0.68193193388E+03  0.68193193388E+03  0.00000000000E+00 0. -1.
         23    2    1    2    0    0  0.10320051406E+03  0.33484171466E+03 -0.13614071247E+03  0.39109471349E+03  0.10794193508E+03 0.  0.
        254    2    1    2    0    0 -0.10320051406E+03 -0.33484171466E+03  0.14286031784E+03  0.97948875964E+03  0.90344885847E+03 0.  0.
        -24    2    4    4    0    0 -0.53602362543E+01  0.26126172330E+03 -0.14061583156E+03  0.30768832779E+03  0.81319584201E+02 0.  0.
         24    2    4    4    0    0 -0.97840277807E+02 -0.59610343796E+03  0.28347614940E+03  0.67180043186E+03  0.77750011273E+02 0.  0.
         13    1    3    3    0    0  0.35484067648E+02  0.23249004415E+03 -0.48084958640E+02  0.24004770970E+03  0.00000000000E+00 0. -1.
        -13    1    3    3    0    0  0.67716446413E+02  0.10235167051E+03 -0.88055753828E+02  0.15104700379E+03  0.00000000000E+00 0.  1.
          4    1    6    6  502    0 -0.19322050131E+02 -0.24459016535E+03  0.15065826417E+03  0.28791596546E+03  0.00000000000E+00 0. -1.
          3    1    5    5  503    0 -0.11595720296E+02  0.40795787498E+02 -0.58688751106E+02  0.72409436630E+02  0.00000000000E+00 0. -1.
         -4    1    5    5    0  503  0.62354840418E+01  0.22046593581E+03 -0.81927080452E+02  0.23527889116E+03  0.00000000000E+00 0.  1.
         -3    1    6    6    0  502 -0.78518227676E+02 -0.35151327261E+03  0.13281788523E+03  0.38388446639E+03  0.00000000000E+00 0.  1.
<mgrwt>
<rscale>  0 0.13705670E+04</rscale>
<asrwt>0</asrwt>
<pdfrwt beam="1">  1        1 0.10491261E+00 0.13705670E+04</pdfrwt>
<pdfrwt beam="2">  1       -1 0.10594639E+00 0.13705670E+04</pdfrwt>
<totfact> 0.23105935E+01</totfact>
</mgrwt>
</event>
<event>
12    1  0.1599266E-007  0.1587315E+04  0.7818608E-02  0.8828379E-01
          2   -1    0    0  501    0  0.00000000000E+00  0.00000000000E+00  0.30197153347E+04  0.30197153347E+04  0.00000000000E+00 0. -1.
         -2   -1    0    0    0  501 -0.00000000000E+00 -0.00000000000E+00 -0.20859314014E+03  0.20859314014E+03  0.00000000000E+00 0.  1.
         23    2    1    2    0    0 -0.33702100999E+03 -0.44743799478E+02  0.17856800378E+04  0.18205128398E+04  0.10014306672E+03 0.  0.
        254    2    1    2    0    0  0.33702100999E+03  0.44743799478E+02  0.10254421567E+04  0.14077956350E+04  0.90264708735E+03 0.  0.
        -24    2    4    4    0    0  0.90921090037E+02 -0.40005614346E+03  0.64082671881E+03  0.76511657180E+03  0.80205500855E+02 0.  0.
         24    2    4    4    0    0  0.24609991995E+03  0.44479994293E+03  0.38461543792E+03  0.64267906318E+03  0.81824099960E+02 0.  0.
         13    1    3    3    0    0 -0.15513674727E+03 -0.18154144249E+02  0.10821968642E+04  0.10934107353E+04  0.00000000000E+00 0. -1.
        -13    1    3    3    0    0 -0.18188426271E+03 -0.26589655229E+02  0.70348317364E+03  0.72710210451E+03  0.00000000000E+00 0.  1.
          4    1    6    6  502    0 -0.98164626739E+00  0.16212267127E+02  0.29616032072E+02  0.33777368022E+02  0.00000000000E+00 0. -1.
          1    1    5    5  503    0  0.27580456892E+02 -0.28112102199E+02  0.80274338529E+02  0.89414435740E+02  0.00000000000E+00 0. -1.
         -2    1    5    5    0  503  0.63340633146E+02 -0.37194404126E+03  0.56055238029E+03  0.67570213606E+03  0.00000000000E+00 0.  1.
         -3    1    6    6    0  502  0.24708156622E+03  0.42858767581E+03  0.35499940584E+03  0.60890169516E+03  0.00000000000E+00 0.  1.
<mgrwt>
<rscale>  0 0.15873146E+04</rscale>
<asrwt>0</asrwt>
<pdfrwt beam="1">  1        2 0.46457156E+00 0.15873146E+04</pdfrwt>
<pdfrwt beam="2">  1       -2 0.32091255E-01 0.15873146E+04</pdfrwt>
<totfact> 0.14768761E+01</totfact>
</mgrwt>
</event>
<event>
12    1  0.1599266E-007  0.1886442E+04  0.7818608E-02  0.8661634E-01
          2   -1    0    0  501    0  0.00000000000E+00  0.00000000000E+00  0.42188957713E+03  0.42188957713E+03  0.00000000000E+00 0. -1.
         -2   -1    0    0    0  501 -0.00000000000E+00 -0.00000000000E+00 -0.21087654859E+04  0.21087654859E+04  0.00000000000E+00 0.  1.
         23    2    1    2    0    0  0.18259235470E+03  0.69823622924E+03 -0.74289814131E+03  0.10391407257E+04  0.83916622824E+02 0.  0.
        254    2    1    2    0    0 -0.18259235470E+03 -0.69823622924E+03 -0.94397776746E+03  0.14915143374E+04  0.90146946330E+03 0.  0.
        -24    2    4    4    0    0 -0.45320228936E+03 -0.23456654404E+03 -0.76032339987E+03  0.91917205278E+03  0.79823627759E+02 0.  0.
         24    2    4    4    0    0  0.27060993466E+03 -0.46366968520E+03 -0.18365436759E+03  0.57234228458E+03  0.75016333367E+02 0.  0.
         13    1    3    3    0    0  0.29507667903E+02  0.15145224645E+03 -0.11404144178E+03  0.19186958035E+03  0.00000000000E+00 0. -1.
        -13    1    3    3    0    0  0.15308468679E+03  0.54678398279E+03 -0.62885669953E+03  0.84727114533E+03  0.00000000000E+00 0.  1.
          4    1    6    6  502    0  0.18594667122E+03 -0.36171332776E+03 -0.16327326893E+03  0.43825889194E+03  0.00000000000E+00 0. -1.
          1    1    5    5  503    0 -0.16036621772E+03 -0.50482090981E+02 -0.20756512609E+03  0.26711242364E+03  0.00000000000E+00 0. -1.
         -2    1    5    5    0  503 -0.29283607164E+03 -0.18408445306E+03 -0.55275827379E+03  0.65205962914E+03  0.00000000000E+00 0.  1.
         -3    1    6    6    0  502  0.84663263443E+02 -0.10195635744E+03 -0.20381098656E+02  0.13408339264E+03  0.00000000000E+00 0.  1.
<mgrwt>
<rscale>  0 0.18864423E+04</rscale>
<asrwt>0</asrwt>
<pdfrwt beam="1">  1        2 0.64906087E-01 0.18864423E+04</pdfrwt>
<pdfrwt beam="2">  1       -2 0.32442547E+00 0.18864423E+04</pdfrwt>
<totfact> 0.15813799E+00</totfact>
</mgrwt>
</event>
<event>
12    1  0.1599266E-007  0.1596702E+04  0.7818608E-02  0.8822576E-01
         -2   -1    0    0    0  501 -0.00000000000E+00  0.00000000000E+00  0.72082355147E+03  0.72082355147E+03  0.00000000000E+00 0. -1.
          2   -1    0    0  501    0  0.00000000000E+00 -0.00000000000E+00 -0.88421721898E+03  0.88421721898E+03  0.00000000000E+00 0.  1.
         23    2    1    2    0    0  0.22708028610E+03  0.28444047479E+02 -0.55357607813E+03  0.60589357290E+03  0.91027617966E+02 0.  0.
        254    2    1    2    0    0 -0.22708028610E+03 -0.28444047479E+02  0.39018241061E+03  0.99914719755E+03  0.89088623777E+03 0.  0.
        -24    2    4    4    0    0  0.23474319862E+03 -0.18831628912E+03  0.39571125364E+03  0.50384001882E+03  0.81853370528E+02 0.  0.
         24    2    4    4    0    0 -0.46182348472E+03  0.15987224164E+03 -0.55288430227E+01  0.49530717873E+03  0.80365219541E+02 0.  0.
         13    1    3    3    0    0  0.50868713368E+02 -0.26253109938E+02 -0.18600254926E+03  0.19461192182E+03  0.00000000000E+00 0. -1.
        -13    1    3    3    0    0  0.17621157273E+03  0.54697157417E+02 -0.36757352887E+03  0.41128165108E+03  0.00000000000E+00 0.  1.
          4    1    6    6  502    0 -0.36381037310E+03  0.15772948430E+03  0.61432472910E+01  0.39657826123E+03  0.00000000000E+00 0. -1.
          1    1    5    5  503    0  0.13870488958E+03 -0.15995531674E+03  0.26596075625E+03  0.33994098548E+03  0.00000000000E+00 0. -1.
         -4    1    5    5    0  503  0.96038309038E+02 -0.28360972380E+02  0.12975049739E+03  0.16389903334E+03  0.00000000000E+00 0.  1.
         -3    1    6    6    0  502 -0.98013111621E+02  0.21427573349E+01 -0.11672090314E+02  0.98728917501E+02  0.00000000000E+00 0.  1.
<mgrwt>
<rscale>  0 0.15967023E+04</rscale>
<asrwt>0</asrwt>
<pdfrwt beam="1">  1        2 0.13603342E+00 0.15967023E+04</pdfrwt>
<pdfrwt beam="2">  1       -2 0.11089593E+00 0.15967023E+04</pdfrwt>
<totfact> 0.18574004E+01</totfact>
</mgrwt>
</event>
<event>
12    1  0.1599266E-007  0.1609451E+04  0.7818608E-02  0.8814763E-01
         -2   -1    0    0    0  501 -0.00000000000E+00  0.00000000000E+00  0.24859924135E+03  0.24859924135E+03  0.00000000000E+00 0.  1.
          2   -1    0    0  501    0  0.00000000000E+00 -0.00000000000E+00 -0.26049293979E+04  0.26049293979E+04  0.00000000000E+00 0. -1.
         23    2    1    2    0    0  0.99361026332E+02  0.10846746800E+02  0.14183230877E+03  0.19522353536E+03  0.89473792132E+02 0.  0.
        254    2    1    2    0    0 -0.99361026332E+02 -0.10846746800E+02 -0.24981624654E+04  0.26583051039E+04  0.90320543441E+03 0.  0.
        -24    2    4    4    0    0  0.29436499261E+03 -0.23843257520E+03 -0.16256952344E+04  0.16711252797E+04  0.79207722467E+02 0.  0.
         24    2    4    4    0    0 -0.39372601894E+03  0.22758582840E+03 -0.87246723094E+03  0.98717982427E+03  0.80681157024E+02 0.  0.
         13    1    3    3    0    0  0.23633044847E+02 -0.56746248523E+01 -0.87760208553E+01  0.25840679519E+02  0.00000000000E+00 0. -1.
        -13    1    3    3    0    0  0.75727981485E+02  0.16521371652E+02  0.15060832963E+03  0.16938285584E+03  0.00000000000E+00 0.  1.
          2    1    6    6  502    0 -0.68735559940E+02  0.17411211977E+02 -0.93328478810E+02  0.11720892654E+03  0.00000000000E+00 0. -1.
          3    1    5    5  503    0  0.91712891102E+02 -0.61810971933E+02 -0.33675282172E+03  0.35444931031E+03  0.00000000000E+00 0. -1.
         -4    1    5    5    0  503  0.20265210151E+03 -0.17662160327E+03 -0.12889424127E+04  0.13166759693E+04  0.00000000000E+00 0.  1.
         -1    1    6    6    0  502 -0.32499045900E+03  0.21017461642E+03 -0.77913875213E+03  0.86997089773E+03  0.00000000000E+00 0.  1.
<mgrwt>
<rscale>  0 0.16094514E+04</rscale>
<asrwt>0</asrwt>
<pdfrwt beam="1">  1        2 0.40075838E+00 0.16094514E+04</pdfrwt>
<pdfrwt beam="2">  1       -2 0.38246036E-01 0.16094514E+04</pdfrwt>
<totfact> 0.18750967E+01</totfact>
</mgrwt>
</event>
<event>
12    1  0.1599266E-007  0.1687608E+04  0.7818608E-02  0.8768464E-01
         -2   -1    0    0    0  501 -0.00000000000E+00  0.00000000000E+00  0.81549691669E+03  0.81549691669E+03  0.00000000000E+00 0. -1.
          2   -1    0    0  501    0  0.00000000000E+00 -0.00000000000E+00 -0.87309342149E+03  0.87309342149E+03  0.00000000000E+00 0.  1.
         23    2    1    2    0    0  0.32840351332E+03  0.19310917668E+03  0.41202059123E+03  0.56805372817E+03  0.88227256606E+02 0.  0.
        254    2    1    2    0    0 -0.32840351332E+03 -0.19310917668E+03 -0.46961709603E+03  0.11205366100E+04  0.94335680196E+03 0.  0.
        -24    2    4    4    0    0 -0.30672752473E+03  0.34288368061E+03 -0.14588888350E+03  0.48893554002E+03  0.78252176410E+02 0.  0.
         24    2    4    4    0    0 -0.21675988590E+02 -0.53599285729E+03 -0.32372821252E+03  0.63160106998E+03  0.79760669985E+02 0.  0.
         11    1    3    3    0    0  0.24388927907E+03  0.17672326433E+03  0.28532523024E+03  0.41487778877E+03  0.00000000000E+00 0. -1.
        -11    1    3    3    0    0  0.84514234253E+02  0.16385912347E+02  0.12669536099E+03  0.15317593940E+03  0.00000000000E+00 0.  1.
          2    1    6    6  502    0 -0.24536507560E+02 -0.53148135385E+03 -0.30750090442E+03  0.61451710790E+03  0.00000000000E+00 0. -1.
          3    1    5    5  503    0 -0.17292234601E+03  0.24482955737E+03 -0.10942408413E+03  0.31908820113E+03  0.00000000000E+00 0. -1.
         -4    1    5    5    0  503 -0.13380517872E+03  0.98054123241E+02 -0.36464799376E+02  0.16984733890E+03  0.00000000000E+00 0.  1.
         -1    1    6    6    0  502  0.28605189693E+01 -0.45115034443E+01 -0.16227308103E+02  0.17083962081E+02  0.00000000000E+00 0.  1.
<mgrwt>
<rscale>  0 0.16876078E+04</rscale>
<asrwt>0</asrwt>
<pdfrwt beam="1">  1        2 0.13432207E+00 0.16876078E+04</pdfrwt>
<pdfrwt beam="2">  1       -2 0.12546106E+00 0.16876078E+04</pdfrwt>
<totfact> 0.13840235E+01</totfact>
</mgrwt>
</event>
<event>
12    1  0.1599266E-007  0.1698020E+04  0.7818608E-02  0.8762494E-01
          1   -1    0    0  501    0  0.00000000000E+00  0.00000000000E+00  0.66611246003E+03  0.66611246003E+03  0.00000000000E+00 0. -1.
         -1   -1    0    0    0  501 -0.00000000000E+00 -0.00000000000E+00 -0.10821265010E+04  0.10821265010E+04  0.00000000000E+00 0.  1.
         23    2    1    2    0    0  0.49168487097E+03  0.47601929448E+02 -0.54791900690E+03  0.74355901319E+03  0.92977480895E+02 0.  0.
        254    2    1    2    0    0 -0.49168487097E+03 -0.47601929448E+02  0.13190496590E+03  0.10046799479E+04  0.86484849632E+03 0.  0.
        -24    2    4    4    0    0 -0.45946903587E+03 -0.41115006284E+03  0.62394086082E+02  0.62477846280E+03  0.79365839675E+02 0.  0.
         24    2    4    4    0    0 -0.32215835104E+02  0.36354813339E+03  0.69510879813E+02  0.37990148507E+03  0.79298616759E+02 0.  0.
         13    1    3    3    0    0  0.19885299995E+03  0.58819538614E+02 -0.19291636339E+03  0.28322954820E+03  0.00000000000E+00 0. -1.
        -13    1    3    3    0    0  0.29283187102E+03 -0.11217609166E+02 -0.35500264351E+03  0.46032946499E+03  0.00000000000E+00 0.  1.
          4    1    6    6  502    0 -0.16828871978E+02  0.32996384396E+02 -0.12299519680E+02  0.39028841894E+02  0.00000000000E+00 0. -1.
          3    1    5    5  503    0 -0.90175133451E+02 -0.12406714529E+03  0.26499221713E+02  0.15564838574E+03  0.00000000000E+00 0. -1.
         -4    1    5    5    0  503 -0.36929390241E+03 -0.28708291755E+03  0.35894864369E+02  0.46913007705E+03  0.00000000000E+00 0.  1.
         -3    1    6    6    0  502 -0.15386963126E+02  0.33055174899E+03  0.81810399494E+02  0.34087264317E+03  0.00000000000E+00 0.  1.
<mgrwt>
<rscale>  0 0.16980200E+04</rscale>
<asrwt>0</asrwt>
<pdfrwt beam="1">  1        1 0.10247884E+00 0.16980200E+04</pdfrwt>
<pdfrwt beam="2">  1       -1 0.16648100E+00 0.16980200E+04</pdfrwt>
<totfact> 0.73015100E+00</totfact>
</mgrwt>
</event>
<event>
12    1  0.1599266E-007  0.2879455E+04  0.7818608E-02  0.8279017E-01
          2   -1    0    0  501    0  0.00000000000E+00  0.00000000000E+00  0.33231218509E+04  0.33231218509E+04  0.00000000000E+00 0. -1.
         -2   -1    0    0    0  501 -0.00000000000E+00 -0.00000000000E+00 -0.62375545428E+03  0.62375545428E+03  0.00000000000E+00 0.  1.
         23    2    1    2    0    0  0.89465908812E+03  0.45724607886E+03  0.23455272803E+04  0.25532297910E+04  0.89416343129E+02 0.  0.
        254    2    1    2    0    0 -0.89465908812E+03 -0.45724607886E+03  0.35383911623E+03  0.13936475141E+04  0.89864476451E+03 0.  0.
        -24    2    4    4    0    0 -0.44338534526E+03  0.21486471221E+03  0.28957976664E+03  0.57703392718E+03  0.79713881653E+02 0.  0.
         24    2    4    4    0    0 -0.45127374286E+03 -0.67211079107E+03  0.64259349590E+02  0.81661358692E+03  0.85718025295E+02 0.  0.
         11    1    3    3    0    0  0.82204020160E+03  0.44243137111E+03  0.22014188560E+04  0.23911797487E+04  0.00000000000E+00 0.  1.
        -11    1    3    3    0    0  0.72618886522E+02  0.14814707747E+02  0.14410842439E+03  0.16205004235E+03  0.00000000000E+00 0. -1.
          2    1    6    6  502    0 -0.38768922609E+03 -0.62078305233E+03  0.49451560517E+02  0.73356662337E+03  0.00000000000E+00 0. -1.
          1    1    5    5  503    0 -0.16485082969E+03  0.96946225900E+02  0.15413437107E+03  0.24562526562E+03  0.00000000000E+00 0. -1.
         -4    1    5    5    0  503 -0.27853451557E+03  0.11791848631E+03  0.13544539557E+03  0.33140866156E+03  0.00000000000E+00 0.  1.
         -3    1    6    6    0  502 -0.63584516769E+02 -0.51327738739E+02  0.14807789073E+02  0.83046963544E+02  0.00000000000E+00 0.  1.
<mgrwt>
<rscale>  0 0.28794551E+04</rscale>
<asrwt>0</asrwt>
<pdfrwt beam="1">  1        2 0.51124951E+00 0.28794551E+04</pdfrwt>
<pdfrwt beam="2">  1       -2 0.95962379E-01 0.28794551E+04</pdfrwt>
<totfact> 0.84541214E-01</totfact>
</mgrwt>
</event>
<event>
12    1  0.1599266E-007  0.1611851E+04  0.7818608E-02  0.8813301E-01
          2   -1    0    0  501    0  0.00000000000E+00  0.00000000000E+00  0.34195335513E+04  0.34195335513E+04  0.00000000000E+00 0. -1.
         -2   -1    0    0    0  501 -0.00000000000E+00 -0.00000000000E+00 -0.18994278150E+03  0.18994278150E+03  0.00000000000E+00 0.  1.
         23    2    1    2    0    0  0.40886668813E+03 -0.21293321169E+03  0.45049799356E+03  0.65035396466E+03  0.86598590292E+02 0.  0.
        254    2    1    2    0    0 -0.40886668813E+03  0.21293321169E+03  0.27790927762E+04  0.29591223681E+04  0.90583442711E+03 0.  0.
        -24    2    4    4    0    0  0.66802882800E+01  0.28476959547E+03  0.23096478766E+03  0.37517878890E+03  0.79221472748E+02 0.  0.
         24    2    4    4    0    0 -0.41554697641E+03 -0.71836383775E+02  0.25481279885E+04  0.25839435792E+04  0.77255542712E+02 0.  0.
         13    1    3    3    0    0  0.37928053217E+03 -0.21994480461E+03  0.41632312550E+03  0.60461093605E+03  0.00000000000E+00 0.  1.
        -13    1    3    3    0    0  0.29586155955E+02  0.70115929199E+01  0.34174868061E+02  0.45743028611E+02  0.00000000000E+00 0. -1.
          4    1    6    6  502    0 -0.39145618917E+03 -0.62294781444E+02  0.24707145641E+04  0.25023087429E+04  0.00000000000E+00 0. -1.
          1    1    5    5  503    0  0.10002331031E+02  0.55961329683E+02  0.11266332316E+02  0.57953837576E+02  0.00000000000E+00 0. -1.
         -2    1    5    5    0  503 -0.33220427506E+01  0.22880826578E+03  0.21969845535E+03  0.31722495132E+03  0.00000000000E+00 0.  1.
         -3    1    6    6    0  502 -0.24090787239E+02 -0.95416023308E+01  0.77413424448E+02  0.81634836250E+02  0.00000000000E+00 0.  1.
<mgrwt>
<rscale>  0 0.16118508E+04</rscale>
<asrwt>0</asrwt>
<pdfrwt beam="1">  1        2 0.52608204E+00 0.16118508E+04</pdfrwt>
<pdfrwt beam="2">  1       -2 0.29221969E-01 0.16118508E+04</pdfrwt>
<totfact> 0.96396310E+00</totfact>
</mgrwt>
</event>
<event>
12    1  0.1599266E-007  0.1792815E+04  0.7818608E-02  0.8710130E-01
         -1   -1    0    0    0  501 -0.00000000000E+00  0.00000000000E+00  0.47299773107E+03  0.47299773107E+03  0.00000000000E+00 0.  1.
          1   -1    0    0  501    0  0.00000000000E+00 -0.00000000000E+00 -0.16988384117E+04  0.16988384117E+04  0.00000000000E+00 0. -1.
         23    2    1    2    0    0  0.45033337594E+03 -0.20318856599E+02  0.13602000443E+03  0.47941956367E+03  0.90159142694E+02 0.  0.
        254    2    1    2    0    0 -0.45033337594E+03  0.20318856599E+02 -0.13618606851E+04  0.16924165791E+04  0.89799573845E+03 0.  0.
        -24    2    4    4    0    0 -0.50799356663E+02  0.15884703917E+03 -0.12283990394E+04  0.12422075852E+04  0.79388465102E+02 0.  0.
         24    2    4    4    0    0 -0.39953401928E+03 -0.13852818258E+03 -0.13346164568E+03  0.45020899385E+03  0.77837249129E+02 0.  0.
         11    1    3    3    0    0  0.69591950130E+02 -0.21035475563E+01  0.57365223203E+02  0.90212156988E+02  0.00000000000E+00 0. -1.
        -11    1    3    3    0    0  0.38074142581E+03 -0.18215309042E+02  0.78654781224E+02  0.38920740669E+03  0.00000000000E+00 0.  1.
          2    1    6    6  502    0 -0.11537518544E+03 -0.20766967813E+02 -0.63969442138E+01  0.11740366801E+03  0.00000000000E+00 0. -1.
          3    1    5    5  503    0 -0.19081978437E-01  0.40727159476E+02 -0.12801131469E+03  0.13433390700E+03  0.00000000000E+00 0. -1.
         -4    1    5    5    0  503 -0.50780274684E+02  0.11811987970E+03 -0.11003877247E+04  0.11078736782E+04  0.00000000000E+00 0.  1.
         -1    1    6    6    0  502 -0.28415883384E+03 -0.11776121476E+03 -0.12706470146E+03  0.33280532584E+03  0.00000000000E+00 0.  1.
<mgrwt>
<rscale>  0 0.17928153E+04</rscale>
<asrwt>0</asrwt>
<pdfrwt beam="1">  1        1 0.26135977E+00 0.17928153E+04</pdfrwt>
<pdfrwt beam="2">  1       -1 0.72768879E-01 0.17928153E+04</pdfrwt>
<totfact> 0.85839546E+00</totfact>
</mgrwt>
</event>
<event>
12    1  0.1599266E-007  0.1992173E+04  0.7818608E-02  0.8610289E-01
         -2   -1    0    0    0  501 -0.00000000000E+00  0.00000000000E+00  0.30892609719E+03  0.30892609719E+03  0.00000000000E+00 0. -1.
          2   -1    0    0  501    0  0.00000000000E+00 -0.00000000000E+00 -0.32117341410E+04  0.32117341410E+04  0.00000000000E+00 0.  1.
         23    2    1    2    0    0  0.95010615865E+02 -0.70542779491E+03 -0.55247869735E+03  0.90563559462E+03  0.91036960914E+02 0.  0.
        254    2    1    2    0    0 -0.95010615865E+02  0.70542779491E+03 -0.23503293465E+04  0.26150246436E+04  0.89869375135E+03 0.  0.
        -24    2    4    4    0    0 -0.35119636198E+03  0.65324176970E+03 -0.21505113049E+04  0.22762056184E+04  0.79683439070E+02 0.  0.
         24    2    4    4    0    0  0.25618574612E+03  0.52186025207E+02 -0.19981804163E+03  0.33881902522E+03  0.80725239851E+02 0.  0.
         11    1    3    3    0    0  0.45566936892E+02 -0.38794539013E+03 -0.24614341446E+03  0.46169746798E+03  0.00000000000E+00 0. -1.
        -11    1    3    3    0    0  0.49443678973E+02 -0.31748240478E+03 -0.30633528289E+03  0.44393812663E+03  0.00000000000E+00 0.  1.
          2    1    6    6  502    0  0.47268360072E+02  0.34657960091E+02 -0.73668059975E+02  0.94140613563E+02  0.00000000000E+00 0. -1.
          3    1    5    5  503    0 -0.87958065897E+02  0.13257514274E+03 -0.55568924742E+03  0.57801672081E+03  0.00000000000E+00 0. -1.
         -4    1    5    5    0  503 -0.26323829609E+03  0.52066662697E+03 -0.15948220574E+04  0.16981888976E+04  0.00000000000E+00 0.  1.
         -1    1    6    6    0  502  0.20891738605E+03  0.17528065116E+02 -0.12614998165E+03  0.24467841166E+03  0.00000000000E+00 0.  1.
<mgrwt>
<rscale>  0 0.19921732E+04</rscale>
<asrwt>0</asrwt>
<pdfrwt beam="1">  1        2 0.49411296E+00 0.19921732E+04</pdfrwt>
<pdfrwt beam="2">  1       -2 0.47527091E-01 0.19921732E+04</pdfrwt>
<totfact> 0.49872819E+00</totfact>
</mgrwt>
</event>
<event>
12    1  0.1599266E-007  0.2113920E+04  0.7818608E-02  0.8555136E-01
          2   -1    0    0  501    0  0.00000000000E+00  0.00000000000E+00  0.19023876875E+04  0.19023876875E+04  0.00000000000E+00 0. -1.
         -2   -1    0    0    0  501 -0.00000000000E+00 -0.00000000000E+00 -0.58724308445E+03  0.58724308445E+03  0.00000000000E+00 0.  1.
         23    2    1    2    0    0 -0.48643838169E+03  0.99860140732E+02  0.13671845906E+04  0.14574416348E+04  0.91367757701E+02 0.  0.
        254    2    1    2    0    0  0.48643838169E+03 -0.99860140732E+02 -0.52039987579E+02  0.10321891371E+04  0.90338912303E+03 0.  0.
        -24    2    4    4    0    0  0.10821756559E+03  0.16137497400E+03  0.35560229092E+03  0.41281020663E+03  0.78780414159E+02 0.  0.
         24    2    4    4    0    0  0.37822081610E+03 -0.26123511473E+03 -0.40764227850E+03  0.61937893051E+03  0.78506442009E+02 0.  0.
         13    1    3    3    0    0 -0.37499450235E+03  0.64451695915E+02  0.11417967262E+04  0.12035259291E+04  0.00000000000E+00 0. -1.
        -13    1    3    3    0    0 -0.11144387934E+03  0.35408444817E+02  0.22538786434E+03  0.25391570570E+03  0.00000000000E+00 0.  1.
          4    1    6    6  502    0  0.35171042304E+03 -0.24304242758E+03 -0.40180657474E+03  0.58670125855E+03  0.00000000000E+00 0. -1.
          1    1    5    5  503    0  0.53091309837E+02  0.14018908672E+03  0.26979485609E+03  0.30864369682E+03  0.00000000000E+00 0. -1.
         -2    1    5    5    0  503  0.55126255754E+02  0.21185887276E+02  0.85807434827E+02  0.10416650980E+03  0.00000000000E+00 0.  1.
         -1    1    6    6    0  502  0.26510393062E+02 -0.18192687155E+02 -0.58357037521E+01  0.32677671957E+02  0.00000000000E+00 0.  1.
<mgrwt>
<rscale>  0 0.21139196E+04</rscale>
<asrwt>0</asrwt>
<pdfrwt beam="1">  1        2 0.29267503E+00 0.21139196E+04</pdfrwt>
<pdfrwt beam="2">  1       -2 0.90345091E-01 0.21139196E+04</pdfrwt>
<totfact> 0.72990869E+00</totfact>
</mgrwt>
</event>
<event>
12    1  0.1599266E-007  0.2720716E+04  0.7818608E-02  0.8328315E-01
         -1   -1    0    0    0  501 -0.00000000000E+00  0.00000000000E+00  0.87134613567E+03  0.87134613567E+03  0.00000000000E+00 0.  1.
          1   -1    0    0  501    0  0.00000000000E+00 -0.00000000000E+00 -0.21238095735E+04  0.21238095735E+04  0.00000000000E+00 0. -1.
         23    2    1    2    0    0  0.10672209482E+04  0.55037122535E+03 -0.66570682209E+03  0.13771010081E+04  0.10664227852E+03 0.  0.
        254    2    1    2    0    0 -0.10672209482E+04 -0.55037122535E+03 -0.58675661573E+03  0.16180547011E+04  0.91211219249E+03 0.  0.
        -24    2    4    4    0    0 -0.53477133259E+03 -0.17396150961E+03 -0.75021928658E+03  0.94104318331E+03  0.80562459752E+02 0.  0.
         24    2    4    4    0    0 -0.53244961558E+03 -0.37640971574E+03  0.16346267085E+03  0.67701151777E+03  0.80235174325E+02 0.  0.
         13    1    3    3    0    0  0.17367357986E+02 -0.31676918083E+01 -0.17151614769E+02  0.24613762086E+02  0.00000000000E+00 0. -1.
        -13    1    3    3    0    0  0.10498535902E+04  0.55353891715E+03 -0.64855520732E+03  0.13524872460E+04  0.00000000000E+00 0.  1.
          2    1    6    6  502    0 -0.10061129773E+03 -0.68056804580E+02 -0.10317027432E+01  0.12147191564E+03  0.00000000000E+00 0. -1.
          3    1    5    5  503    0 -0.27331596908E+02 -0.30002080250E+02 -0.50562517765E+02  0.64836017858E+02  0.00000000000E+00 0. -1.
         -4    1    5    5    0  503 -0.50743973568E+03 -0.14395942936E+03 -0.69965676881E+03  0.87620716546E+03  0.00000000000E+00 0.  1.
         -1    1    6    6    0  502 -0.43183831786E+03 -0.30835291116E+03  0.16449437359E+03  0.55553960213E+03  0.00000000000E+00 0.  1.
<mgrwt>
<rscale>  0 0.27207155E+04</rscale>
<asrwt>0</asrwt>
<pdfrwt beam="1">  1        1 0.32673993E+00 0.27207155E+04</pdfrwt>
<pdfrwt beam="2">  1       -1 0.13405325E+00 0.27207155E+04</pdfrwt>
<totfact> 0.10034884E+00</totfact>
</mgrwt>
</event>
<event>
12    1  0.1599266E-007  0.3622255E+04  0.7818608E-02  0.8085413E-01
         -2   -1    0    0    0  501 -0.00000000000E+00  0.00000000000E+00  0.15588252080E+04  0.15588252080E+04  0.00000000000E+00 0. -1.
          2   -1    0    0  501    0  0.00000000000E+00 -0.00000000000E+00 -0.21042662075E+04  0.21042662075E+04  0.00000000000E+00 0.  1.
         23    2    1    2    0    0 -0.67151579574E+03  0.11677066435E+04  0.79104498105E+03  0.15647749735E+04  0.91083952469E+02 0.  0.
        254    2    1    2    0    0  0.67151579574E+03 -0.11677066435E+04 -0.13364859805E+04  0.20983164420E+04  0.89569238315E+03 0.  0.
        -24    2    4    4    0    0  0.86135042791E+03 -0.87765117149E+03 -0.11959248743E+04  0.17173805641E+04  0.83447939449E+02 0.  0.
         24    2    4    4    0    0 -0.18983463216E+03 -0.29005547203E+03 -0.14056110622E+03  0.38093587784E+03  0.72009402284E+02 0.  0.
         13    1    3    3    0    0 -0.21478492782E+02  0.18779226427E+02  0.28316762711E+02  0.40197313938E+02  0.00000000000E+00 0.  1.
        -13    1    3    3    0    0 -0.65003730296E+03  0.11489274171E+04  0.76272821834E+03  0.15245776596E+04  0.00000000000E+00 0. -1.
          2    1    6    6  502    0 -0.57623213412E+02 -0.74158845871E+02 -0.72898939658E+02  0.11888744487E+03  0.00000000000E+00 0. -1.
          3    1    5    5  503    0  0.54807355865E+03 -0.51653856410E+03 -0.69203944049E+03  0.10227977811E+04  0.00000000000E+00 0. -1.
         -4    1    5    5    0  503  0.31327686926E+03 -0.36111260739E+03 -0.50388543382E+03  0.69458278300E+03  0.00000000000E+00 0.  1.
         -1    1    6    6    0  502 -0.13221141875E+03 -0.21589662616E+03 -0.67662166566E+02  0.26204843297E+03  0.00000000000E+00 0.  1.
<mgrwt>
<rscale>  0 0.36222552E+04</rscale>
<asrwt>0</asrwt>
<pdfrwt beam="1">  1        2 0.32373326E+00 0.36222552E+04</pdfrwt>
<pdfrwt beam="2">  1       -2 0.23981926E+00 0.36222552E+04</pdfrwt>
<totfact> 0.35309636E-01</totfact>
</mgrwt>
</event>
<event>
12    1  0.1599266E-007  0.1908677E+04  0.7818608E-02  0.8650549E-01
         -1   -1    0    0    0  501 -0.00000000000E+00  0.00000000000E+00  0.13126614140E+04  0.13126614140E+04  0.00000000000E+00 0.  1.
          1   -1    0    0  501    0  0.00000000000E+00 -0.00000000000E+00 -0.69382872065E+03  0.69382872065E+03  0.00000000000E+00 0. -1.
         23    2    1    2    0    0  0.62680729110E+03 -0.24215341955E+02  0.65088529874E+03  0.90858280634E+03  0.91636678718E+02 0.  0.
        254    2    1    2    0    0 -0.62680729110E+03  0.24215341955E+02 -0.32052605395E+02  0.10979073283E+04  0.90049951086E+03 0.  0.
        -24    2    4    4    0    0 -0.40460712938E+03  0.12543314533E+03  0.40471367699E+03  0.59120325223E+03  0.79295157559E+02 0.  0.
         24    2    4    4    0    0 -0.22220016172E+03 -0.10121780338E+03 -0.43676628238E+03  0.50670407607E+03  0.79788969726E+02 0.  0.
         11    1    3    3    0    0  0.33222327641E+03 -0.32340521622E+02  0.28604985640E+03  0.43959382966E+03  0.00000000000E+00 0.  1.
        -11    1    3    3    0    0  0.29458401470E+03  0.81251796675E+01  0.36483544234E+03  0.46898897668E+03  0.00000000000E+00 0. -1.
          4    1    6    6  502    0 -0.69969463640E+02 -0.37173627236E+02 -0.22242747804E+03  0.23611774053E+03  0.00000000000E+00 0. -1.
          1    1    5    5  503    0 -0.14335459523E+03  0.33324973097E+02  0.92582708608E+02  0.17387539141E+03  0.00000000000E+00 0. -1.
         -2    1    5    5    0  503 -0.26125253415E+03  0.92108172237E+02  0.31213096838E+03  0.41732786082E+03  0.00000000000E+00 0.  1.
         -3    1    6    6    0  502 -0.15223069808E+03 -0.64044176143E+02 -0.21433880435E+03  0.27058633555E+03  0.00000000000E+00 0.  1.
<mgrwt>
<rscale>  0 0.19086772E+04</rscale>
<asrwt>0</asrwt>
<pdfrwt beam="1">  1        1 0.10674288E+00 0.19086772E+04</pdfrwt>
<pdfrwt beam="2">  1       -1 0.20194791E+00 0.19086772E+04</pdfrwt>
<totfact> 0.37666517E+00</totfact>
</mgrwt>
</event>
<event>
12    1  0.1599266E-007  0.1285073E+04  0.7818608E-02  0.9041487E-01
          2   -1    0    0  501    0  0.00000000000E+00  0.00000000000E+00  0.36823093891E+04  0.36823093891E+04  0.00000000000E+00 0. -1.
         -2   -1    0    0    0  501 -0.00000000000E+00 -0.00000000000E+00 -0.11211792816E+03  0.11211792816E+03  0.00000000000E+00 0.  1.
         23    2    1    2    0    0  0.10113002104E+03  0.23089414304E+03  0.34404527537E+03  0.43629317143E+03  0.91897733829E+02 0.  0.
        254    2    1    2    0    0 -0.10113002104E+03 -0.23089414304E+03  0.32261461855E+04  0.33581341458E+04  0.89750005250E+03 0.  0.
        -24    2    4    4    0    0 -0.47983808084E+03 -0.17906854161E+03  0.21989598165E+04  0.22591980038E+04  0.79001387404E+02 0.  0.
         24    2    4    4    0    0  0.37870805979E+03 -0.51825601434E+02  0.10271863690E+04  0.10989361420E+04  0.80269047608E+02 0.  0.
         11    1    3    3    0    0  0.64686511623E+02  0.22089588606E+03  0.30283275992E+03  0.38037746746E+03  0.00000000000E+00 0. -1.
        -11    1    3    3    0    0  0.36443509418E+02  0.99982569822E+01  0.41212515446E+02  0.55915703973E+02  0.00000000000E+00 0.  1.
          4    1    6    6  502    0  0.37063165428E+03 -0.55191047248E+02  0.10225234991E+04  0.10890216623E+04  0.00000000000E+00 0. -1.
          3    1    5    5  503    0 -0.44157300085E+03 -0.18629395376E+03  0.20383426874E+04  0.20939276643E+04  0.00000000000E+00 0. -1.
         -4    1    5    5    0  503 -0.38265079985E+02  0.72254121441E+01  0.16061712915E+03  0.16527033945E+03  0.00000000000E+00 0.  1.
         -3    1    6    6    0  502  0.80764055098E+01  0.33654458149E+01  0.46628699618E+01  0.99144797026E+01  0.00000000000E+00 0.  1.
<mgrwt>
<rscale>  0 0.12850726E+04</rscale>
<asrwt>0</asrwt>
<pdfrwt beam="1">  1        2 0.56650904E+00 0.12850726E+04</pdfrwt>
<pdfrwt beam="2">  1       -2 0.17248915E-01 0.12850726E+04</pdfrwt>
<totfact> 0.16750080E+01</totfact>
</mgrwt>
</event>
<event>
12    1  0.1599266E-007  0.1998367E+04  0.7818608E-02  0.8607384E-01
         -2   -1    0    0    0  501 -0.00000000000E+00  0.00000000000E+00  0.72844277024E+03  0.72844277024E+03  0.00000000000E+00 0. -1.
          2   -1    0    0  501    0  0.00000000000E+00 -0.00000000000E+00 -0.13705508596E+04  0.13705508596E+04  0.00000000000E+00 0.  1.
         23    2    1    2    0    0  0.11259035252E+03  0.52559287473E+03  0.35471688121E+03  0.65031270807E+03  0.90322173477E+02 0.  0.
        254    2    1    2    0    0 -0.11259035252E+03 -0.52559287473E+03 -0.99682497060E+03  0.14486809218E+04  0.90337806799E+03 0.  0.
        -24    2    4    4    0    0  0.13289233735E+03  0.21371665149E+03 -0.19523233512E+03  0.32788342055E+03  0.77824754057E+02 0.  0.
         24    2    4    4    0    0 -0.24548268987E+03 -0.73930952622E+03 -0.80159263548E+03  0.11207975012E+04  0.82437606518E+02 0.  0.
         13    1    3    3    0    0  0.15626042659E+02  0.10892564074E+03  0.32497140012E+02  0.11473897563E+03  0.00000000000E+00 0.  1.
        -13    1    3    3    0    0  0.96964309862E+02  0.41666723399E+03  0.32221974120E+03  0.53557373245E+03  0.00000000000E+00 0. -1.
          2    1    6    6  502    0 -0.23520436372E+03 -0.67122435968E+03 -0.75729763404E+03  0.10389239338E+04  0.00000000000E+00 0. -1.
          3    1    5    5  503    0  0.12559256108E+03  0.20521499897E+03 -0.20254616584E+03  0.31450220428E+03  0.00000000000E+00 0. -1.
         -4    1    5    5    0  503  0.72997762742E+01  0.85016525186E+01  0.73138307149E+01  0.13381216272E+02  0.00000000000E+00 0.  1.
         -1    1    6    6    0  502 -0.10278326154E+02 -0.68085166543E+02 -0.44295001438E+02  0.81873567432E+02  0.00000000000E+00 0.  1.
<mgrwt>
<rscale>  0 0.19983672E+04</rscale>
<asrwt>0</asrwt>
<pdfrwt beam="1">  1        2 0.21085398E+00 0.19983672E+04</pdfrwt>
<pdfrwt beam="2">  1       -2 0.11206812E+00 0.19983672E+04</pdfrwt>
<totfact> 0.87804795E+00</totfact>
</mgrwt>
</event>
<event>
12    1  0.1599266E-007  0.1664348E+04  0.7818608E-02  0.8781963E-01
          2   -1    0    0  501    0  0.00000000000E+00  0.00000000000E+00  0.15329257329E+04  0.15329257329E+04  0.00000000000E+00 0. -1.
         -2   -1    0    0    0  501 -0.00000000000E+00 -0.00000000000E+00 -0.45175944481E+03  0.45175944481E+03  0.00000000000E+00 0.  1.
         23    2    1    2    0    0  0.92977032828E+02 -0.48343677769E+03  0.76930048444E+03  0.91793803491E+03  0.91821315108E+02 0.  0.
        254    2    1    2    0    0 -0.92977032828E+02  0.48343677769E+03  0.31186580369E+03  0.10667471428E+04  0.89349501430E+03 0.  0.
        -24    2    4    4    0    0  0.25749521963E+03  0.18166581345E+03 -0.19223596839E+03  0.37802414581E+03  0.81494363973E+02 0.  0.
         24    2    4    4    0    0 -0.35047225246E+03  0.30177096424E+03  0.50410177208E+03  0.68872299703E+03  0.79525187285E+02 0.  0.
         13    1    3    3    0    0  0.10348151741E+03 -0.38097197352E+03  0.64824041872E+03  0.75898860961E+03  0.00000000000E+00 0. -1.
        -13    1    3    3    0    0 -0.10504484577E+02 -0.10246480417E+03  0.12106006572E+03  0.15894942530E+03  0.00000000000E+00 0.  1.
          4    1    6    6  502    0 -0.82358635806E+02  0.10708875979E+03  0.11291786562E+03  0.17607212085E+03  0.00000000000E+00 0. -1.
          3    1    5    5  503    0  0.85920672913E+02  0.87892409208E+02 -0.11329355727E+03  0.16716120288E+03  0.00000000000E+00 0. -1.
         -4    1    5    5    0  503  0.17157454672E+03  0.93773404246E+02 -0.78942411125E+02  0.21086294293E+03  0.00000000000E+00 0.  1.
         -3    1    6    6    0  502 -0.26811361666E+03  0.19468220444E+03  0.39118390647E+03  0.51265087617E+03  0.00000000000E+00 0.  1.
<mgrwt>
<rscale>  0 0.16643481E+04</rscale>
<asrwt>0</asrwt>
<pdfrwt beam="1">  1        2 0.23583473E+00 0.16643481E+04</pdfrwt>
<pdfrwt beam="2">  1       -2 0.69501454E-01 0.16643481E+04</pdfrwt>
<totfact> 0.21910911E+01</totfact>
</mgrwt>
</event>
<event>
12    1  0.1599266E-007  0.1262268E+04  0.7818608E-02  0.9060034E-01
          2   -1    0    0  501    0  0.00000000000E+00  0.00000000000E+00  0.30125121369E+04  0.30125121369E+04  0.00000000000E+00 0. -1.
         -2   -1    0    0    0  501 -0.00000000000E+00 -0.00000000000E+00 -0.13222528300E+03  0.13222528300E+03  0.00000000000E+00 0.  1.
         23    2    1    2    0    0  0.12909673476E+03 -0.20843417410E+03  0.29586416102E+03  0.39479206799E+03  0.90633345492E+02 0.  0.
        254    2    1    2    0    0 -0.12909673476E+03  0.20843417410E+03  0.25844226928E+04  0.27499453519E+04  0.90710970180E+03 0.  0.
        -24    2    4    4    0    0  0.29419787198E+03  0.30585037913E+03  0.17865301158E+04  0.18379798034E+04  0.79894059074E+02 0.  0.
         24    2    4    4    0    0 -0.42329460674E+03 -0.97416205037E+02  0.79789257706E+03  0.91196554851E+03  0.79877130825E+02 0.  0.
         11    1    3    3    0    0  0.11297950143E+03 -0.19160891700E+03  0.21029777639E+03  0.30611027355E+03  0.00000000000E+00 0.  1.
        -11    1    3    3    0    0  0.16117233334E+02 -0.16825257096E+02  0.85566384637E+02  0.88681794448E+02  0.00000000000E+00 0. -1.
          4    1    6    6  502    0 -0.81388232077E+00 -0.63167628493E+01  0.27097518350E+01  0.69214631642E+01  0.00000000000E+00 0. -1.
          1    1    5    5  503    0  0.10993649370E+03  0.89192421745E+02  0.74403232032E+03  0.75738062717E+03  0.00000000000E+00 0. -1.
         -2    1    5    5    0  503  0.18426137828E+03  0.21665795739E+03  0.10424977955E+04  0.10805991762E+04  0.00000000000E+00 0.  1.
         -3    1    6    6    0  502 -0.42248072442E+03 -0.91099442188E+02  0.79518282523E+03  0.90504408534E+03  0.00000000000E+00 0.  1.
<mgrwt>
<rscale>  0 0.12622682E+04</rscale>
<asrwt>0</asrwt>
<pdfrwt beam="1">  1        2 0.46346335E+00 0.12622682E+04</pdfrwt>
<pdfrwt beam="2">  1       -2 0.20342353E-01 0.12622682E+04</pdfrwt>
<totfact> 0.35303551E+01</totfact>
</mgrwt>
</event>
<event>
12    1  0.1599266E-007  0.1782221E+04  0.7818608E-02  0.8715812E-01
          2   -1    0    0  501    0  0.00000000000E+00  0.00000000000E+00  0.42859371826E+04  0.42859371826E+04  0.00000000000E+00 0. -1.
         -2   -1    0    0    0  501 -0.00000000000E+00 -0.00000000000E+00 -0.18527525538E+03  0.18527525538E+03  0.00000000000E+00 0.  1.
         23    2    1    2    0    0 -0.63295363051E+02  0.58016278375E+03  0.75759498103E+03  0.96063483811E+03  0.90961410882E+02 0.  0.
        254    2    1    2    0    0  0.63295363051E+02 -0.58016278375E+03  0.33430669462E+04  0.35105775998E+04  0.89858962790E+03 0.  0.
        -24    2    4    4    0    0 -0.16172031110E+03  0.16628779092E+03  0.44198212620E+03  0.50551578705E+03  0.79955754331E+02 0.  0.
         24    2    4    4    0    0  0.22501567415E+03 -0.74645057466E+03  0.29010848200E+04  0.30050618128E+04  0.79264443698E+02 0.  0.
         13    1    3    3    0    0 -0.74435200629E+02  0.56368565835E+03  0.74465622287E+03  0.93690715163E+03  0.00000000000E+00 0.  1.
        -13    1    3    3    0    0  0.11139837578E+02  0.16477125400E+02  0.12938758166E+02  0.23727686478E+02  0.00000000000E+00 0. -1.
          2    1    6    6  502    0  0.21575076975E+03 -0.62087757231E+03  0.24704902896E+04  0.25564349445E+04  0.00000000000E+00 0. -1.
          3    1    5    5  503    0 -0.14430930020E+03  0.13807511033E+03  0.30497086237E+03  0.36455059609E+03  0.00000000000E+00 0. -1.
         -4    1    5    5    0  503 -0.17411010898E+02  0.28212680590E+02  0.13701126383E+03  0.14096519096E+03  0.00000000000E+00 0.  1.
         -1    1    6    6    0  502  0.92649044016E+01 -0.12557300235E+03  0.43059453033E+03  0.44862686826E+03  0.00000000000E+00 0.  1.
<mgrwt>
<rscale>  0 0.17822212E+04</rscale>
<asrwt>0</asrwt>
<pdfrwt beam="1">  1        2 0.65937488E+00 0.17822212E+04</pdfrwt>
<pdfrwt beam="2">  1       -2 0.28503889E-01 0.17822212E+04</pdfrwt>
<totfact> 0.21233443E+00</totfact>
</mgrwt>
</event>
<event>
12    1  0.1599266E-007  0.2059257E+04  0.7818608E-02  0.8579407E-01
         -1   -1    0    0    0  501 -0.00000000000E+00  0.00000000000E+00  0.18026936278E+04  0.18026936278E+04  0.00000000000E+00 0.  1.
          1   -1    0    0  501    0  0.00000000000E+00 -0.00000000000E+00 -0.58808350368E+03  0.58808350368E+03  0.00000000000E+00 0. -1.
         23    2    1    2    0    0 -0.38595718279E+03 -0.28857751258E+03  0.12526929462E+04  0.13482177973E+04  0.12732511050E+03 0.  0.
        254    2    1    2    0    0  0.38595718279E+03  0.28857751258E+03 -0.38082822073E+02  0.10425593342E+04  0.92370976841E+03 0.  0.
        -24    2    4    4    0    0  0.14446318045E+02 -0.25499559632E+02  0.38420975083E+03  0.39330283705E+03  0.78810312466E+02 0.  0.
         24    2    4    4    0    0  0.37151086475E+03  0.31407707221E+03 -0.42229257290E+03  0.64925649715E+03  0.80859458595E+02 0.  0.
         13    1    3    3    0    0 -0.14294000135E+03 -0.10248994735E+03  0.30220886601E+03  0.34966588623E+03  0.00000000000E+00 0. -1.
        -13    1    3    3    0    0 -0.24301718145E+03 -0.18608756523E+03  0.95048408016E+03  0.99855191104E+03  0.00000000000E+00 0.  1.
          4    1    6    6  502    0  0.15191436349E+03  0.18087408489E+03 -0.19540106765E+03  0.30655339773E+03  0.00000000000E+00 0. -1.
          3    1    5    5  503    0 -0.97909501296E+01 -0.43026314636E+01  0.35276022325E+01  0.11261408414E+02  0.00000000000E+00 0. -1.
         -4    1    5    5    0  503  0.24237268174E+02 -0.21196928169E+02  0.38068214860E+03  0.38204142863E+03  0.00000000000E+00 0.  1.
         -3    1    6    6    0  502  0.21959650126E+03  0.13320298732E+03 -0.22689150525E+03  0.34270309942E+03  0.00000000000E+00 0.  1.
<mgrwt>
<rscale>  0 0.20592566E+04</rscale>
<asrwt>0</asrwt>
<pdfrwt beam="1">  1        1 0.90474386E-01 0.20592566E+04</pdfrwt>
<pdfrwt beam="2">  1       -1 0.27733748E+00 0.20592566E+04</pdfrwt>
<totfact> 0.15071947E+00</totfact>
</mgrwt>
</event>
<event>
12    1  0.1599266E-007  0.1198191E+04  0.7818608E-02  0.9114441E-01
         -2   -1    0    0    0  501 -0.00000000000E+00  0.00000000000E+00  0.38415469784E+03  0.38415469784E+03  0.00000000000E+00 0.  1.
          2   -1    0    0  501    0  0.00000000000E+00 -0.00000000000E+00 -0.93429956888E+03  0.93429956888E+03  0.00000000000E+00 0. -1.
         23    2    1    2    0    0 -0.69480787160E+02  0.37672752493E+02 -0.46537205706E+03  0.48088927030E+03  0.91850545660E+02 0.  0.
        254    2    1    2    0    0  0.69480787160E+02 -0.37672752493E+02 -0.84772813987E+02  0.83756499642E+03  0.82950700852E+03 0.  0.
        -24    2    4    4    0    0 -0.36603788626E+03  0.51747826726E+02 -0.75630220416E+02  0.38499927025E+03  0.76439100611E+02 0.  0.
         24    2    4    4    0    0  0.43551867342E+03 -0.89420579219E+02 -0.91425935708E+01  0.45256572617E+03  0.84021393699E+02 0.  0.
         11    1    3    3    0    0 -0.30878901974E+02 -0.29871723524E+02 -0.14698598733E+03  0.15313623649E+03  0.00000000000E+00 0.  1.
        -11    1    3    3    0    0 -0.38601885186E+02  0.67544476018E+02 -0.31838606972E+03  0.32775303381E+03  0.00000000000E+00 0. -1.
          2    1    6    6  502    0  0.32968011924E+03 -0.10364768500E+03 -0.30704305812E+01  0.34560273606E+03  0.00000000000E+00 0. -1.
          3    1    5    5  503    0 -0.26473502673E+03  0.71645742758E+02 -0.55255466364E+02  0.27976939325E+03  0.00000000000E+00 0. -1.
         -4    1    5    5    0  503 -0.10130285953E+03 -0.19897916033E+02 -0.20374754052E+02  0.10522987700E+03  0.00000000000E+00 0.  1.
         -1    1    6    6    0  502  0.10583855419E+03  0.14227105777E+02 -0.60721629895E+01  0.10696299011E+03  0.00000000000E+00 0.  1.
<mgrwt>
<rscale>  0 0.11981913E+04</rscale>
<asrwt>0</asrwt>
<pdfrwt beam="1">  1        2 0.14373839E+00 0.11981913E+04</pdfrwt>
<pdfrwt beam="2">  1       -2 0.59100723E-01 0.11981913E+04</pdfrwt>
<totfact> 0.73391121E+01</totfact>
</mgrwt>
</event>
<event>
12    1  0.1599266E-007  0.1269183E+04  0.7818608E-02  0.9054367E-01
          2   -1    0    0  501    0  0.00000000000E+00  0.00000000000E+00  0.29402386226E+04  0.29402386226E+04  0.00000000000E+00 0. -1.
         -2   -1    0    0    0  501 -0.00000000000E+00 -0.00000000000E+00 -0.13696376744E+03  0.13696376744E+03  0.00000000000E+00 0.  1.
         23    2    1    2    0    0 -0.20099772586E+03 -0.39042633879E+02  0.12517878021E+04  0.12718819807E+04  0.93737176980E+02 0.  0.
        254    2    1    2    0    0  0.20099772586E+03  0.39042633879E+02  0.15514870531E+04  0.18053204094E+04  0.90008071385E+03 0.  0.
        -24    2    4    4    0    0  0.28373004475E+03 -0.14531583565E+03  0.10961662685E+03  0.34719472762E+03  0.83120055493E+02 0.  0.
         24    2    4    4    0    0 -0.82732318889E+02  0.18435846953E+03  0.14418704263E+04  0.14581256818E+04  0.79419744107E+02 0.  0.
         13    1    3    3    0    0 -0.17852577468E+03 -0.62006321056E+02  0.11403765991E+04  0.11559303715E+04  0.00000000000E+00 0. -1.
        -13    1    3    3    0    0 -0.22471951172E+02  0.22963687176E+02  0.11141120296E+03  0.11595160914E+03  0.00000000000E+00 0.  1.
          2    1    6    6  502    0 -0.59851750660E+02  0.80532446595E+02  0.47853027752E+03  0.48893653322E+03  0.00000000000E+00 0. -1.
          1    1    5    5  503    0  0.30958049755E+02 -0.43642728770E+02  0.37556149000E+02  0.65372417324E+02  0.00000000000E+00 0. -1.
         -2    1    5    5    0  503  0.25277199499E+03 -0.10167310688E+03  0.72060477854E+02  0.28182231030E+03  0.00000000000E+00 0.  1.
         -1    1    6    6    0  502 -0.22880568229E+02  0.10382602293E+03  0.96334014876E+03  0.96918914855E+03  0.00000000000E+00 0.  1.
<mgrwt>
<rscale>  0 0.12691827E+04</rscale>
<asrwt>0</asrwt>
<pdfrwt beam="1">  1        2 0.45234436E+00 0.12691827E+04</pdfrwt>
<pdfrwt beam="2">  1       -2 0.21071351E-01 0.12691827E+04</pdfrwt>
<totfact> 0.36738109E+01</totfact>
</mgrwt>
</event>
<event>
12    1  0.1599266E-007  0.2885835E+04  0.7818608E-02  0.8277104E-01
          2   -1    0    0  501    0  0.00000000000E+00  0.00000000000E+00  0.12517928159E+04  0.12517928159E+04  0.00000000000E+00 0. -1.
         -2   -1    0    0    0  501 -0.00000000000E+00 -0.00000000000E+00 -0.16632234562E+04  0.16632234562E+04  0.00000000000E+00 0.  1.
         23    2    1    2    0    0  0.57663153440E+03  0.47740955781E+03 -0.12643711147E+04  0.14723659593E+04  0.93826382495E+02 0.  0.
        254    2    1    2    0    0 -0.57663153440E+03 -0.47740955781E+03  0.85294047438E+03  0.14426503128E+04  0.89067876353E+03 0.  0.
        -24    2    4    4    0    0 -0.58665300473E+03  0.15378008409E+02  0.70731619869E+03  0.92256668420E+03  0.80217521612E+02 0.  0.
         24    2    4    4    0    0  0.10021470329E+02 -0.49278756622E+03  0.14562427569E+03  0.52008362859E+03  0.79627481225E+02 0.  0.
         11    1    3    3    0    0  0.70359950629E+01  0.27918527035E+02 -0.52747404715E+02  0.60093577714E+02  0.00000000000E+00 0. -1.
        -11    1    3    3    0    0  0.56959553934E+03  0.44949103078E+03 -0.12116237099E+04  0.14122723815E+04  0.00000000000E+00 0.  1.
          2    1    6    6  502    0  0.71970119667E+01 -0.40155756748E+02 -0.89717346040E+01  0.41770489620E+02  0.00000000000E+00 0. -1.
          3    1    5    5  503    0 -0.29471426456E+03 -0.77726050774E+01  0.29719693104E+03  0.41862026581E+03  0.00000000000E+00 0. -1.
         -4    1    5    5    0  503 -0.29193874016E+03  0.23150613486E+02  0.41011926765E+03  0.50394641840E+03  0.00000000000E+00 0.  1.
         -1    1    6    6    0  502  0.28244583620E+01 -0.45263180947E+03  0.15459601029E+03  0.47831313897E+03  0.00000000000E+00 0.  1.
<mgrwt>
<rscale>  0 0.28858352E+04</rscale>
<asrwt>0</asrwt>
<pdfrwt beam="1">  1        2 0.19258351E+00 0.28858352E+04</pdfrwt>
<pdfrwt beam="2">  1       -2 0.25588053E+00 0.28858352E+04</pdfrwt>
<totfact> 0.90151826E-01</totfact>
</mgrwt>
</event>
<event>
12    1  0.1599266E-007  0.1392622E+04  0.7818608E-02  0.8959176E-01
         -1   -1    0    0    0  501 -0.00000000000E+00  0.00000000000E+00  0.69474657018E+03  0.69474657018E+03  0.00000000000E+00 0.  1.
          1   -1    0    0  501    0  0.00000000000E+00 -0.00000000000E+00 -0.69787901469E+03  0.69787901469E+03  0.00000000000E+00 0. -1.
         23    2    1    2    0    0 -0.27124011494E+03 -0.28138904280E+03 -0.52486159459E+02  0.40479201052E+03  0.91382610396E+02 0.  0.
        254    2    1    2    0    0  0.27124011494E+03  0.28138904280E+03  0.49353714947E+02  0.98783357436E+03  0.90588541664E+03 0.  0.
        -24    2    4    4    0    0  0.31186574688E+03 -0.16751456021E+03  0.29630458443E+03  0.46743846756E+03  0.73354906050E+02 0.  0.
         24    2    4    4    0    0 -0.40625631942E+02  0.44890360301E+03 -0.24695086949E+03  0.52039510680E+03  0.81617697040E+02 0.  0.
         13    1    3    3    0    0 -0.11019669690E+02 -0.17531741057E+02  0.18146026701E+02  0.27533131852E+02  0.00000000000E+00 0. -1.
        -13    1    3    3    0    0 -0.26022044525E+03 -0.26385730175E+03 -0.70632186160E+02  0.37725887866E+03  0.00000000000E+00 0.  1.
          2    1    6    6  502    0  0.39339068317E+00  0.18400996605E+03 -0.59831626013E+02  0.19349327077E+03  0.00000000000E+00 0. -1.
          1    1    5    5  503    0  0.24993286447E+03 -0.14953101312E+03  0.20714764999E+03  0.35740188797E+03  0.00000000000E+00 0. -1.
         -2    1    5    5    0  503  0.61932882406E+02 -0.17983547091E+02  0.89156934441E+02  0.11003657959E+03  0.00000000000E+00 0.  1.
         -1    1    6    6    0  502 -0.41019022625E+02  0.26489363697E+03 -0.18711924347E+03  0.32690183603E+03  0.00000000000E+00 0.  1.
<mgrwt>
<rscale>  0 0.13926221E+04</rscale>
<asrwt>0</asrwt>
<pdfrwt beam="1">  1        1 0.10736600E+00 0.13926221E+04</pdfrwt>
<pdfrwt beam="2">  1       -1 0.10688409E+00 0.13926221E+04</pdfrwt>
<totfact> 0.21816911E+01</totfact>
</mgrwt>
</event>
<event>
12    1  0.1599266E-007  0.1730899E+04  0.7818608E-02  0.8743935E-01
         -1   -1    0    0    0  501 -0.00000000000E+00  0.00000000000E+00  0.59045787229E+03  0.59045787229E+03  0.00000000000E+00 0.  1.
          1   -1    0    0  501    0  0.00000000000E+00 -0.00000000000E+00 -0.12685125193E+04  0.12685125193E+04  0.00000000000E+00 0. -1.
         23    2    1    2    0    0  0.54646543540E+02 -0.43093679162E+03  0.23142889675E+03  0.50106836525E+03  0.93901061306E+02 0.  0.
        254    2    1    2    0    0 -0.54646543540E+02  0.43093679162E+03 -0.90948354374E+03  0.13579020263E+04  0.90996968834E+03 0.  0.
        -24    2    4    4    0    0  0.20058653354E+03  0.26980134805E+03 -0.97889139162E+03  0.10381386464E+04  0.80472154579E+02 0.  0.
         24    2    4    4    0    0 -0.25523307708E+03  0.16113544357E+03  0.69407847876E+02  0.31976337996E+03  0.79514872852E+02 0.  0.
         13    1    3    3    0    0  0.23498470595E+02 -0.73873900800E+02  0.62249821363E+01  0.77770699767E+02  0.00000000000E+00 0. -1.
        -13    1    3    3    0    0  0.31148072945E+02 -0.35706289082E+03  0.22520391461E+03  0.42329766548E+03  0.00000000000E+00 0.  1.
          4    1    6    6  502    0 -0.17369040827E+03  0.64398113857E+02  0.33527498276E+02  0.18825399899E+03  0.00000000000E+00 0. -1.
          3    1    5    5  503    0  0.93157392974E+02  0.11012363078E+03 -0.30644765496E+03  0.33869703151E+03  0.00000000000E+00 0. -1.
         -4    1    5    5    0  503  0.10742914057E+03  0.15967771727E+03 -0.67244373665E+03  0.69944161486E+03  0.00000000000E+00 0.  1.
         -3    1    6    6    0  502 -0.81542668815E+02  0.96737329708E+02  0.35880349601E+02  0.13150938097E+03  0.00000000000E+00 0.  1.
<mgrwt>
<rscale>  0 0.17308994E+04</rscale>
<asrwt>0</asrwt>
<pdfrwt beam="1">  1        1 0.19515577E+00 0.17308994E+04</pdfrwt>
<pdfrwt beam="2">  1       -1 0.90839673E-01 0.17308994E+04</pdfrwt>
<totfact> 0.10703598E+01</totfact>
</mgrwt>
</event>
<event>
12    1  0.1599266E-007  0.1269909E+04  0.7818608E-02  0.9053774E-01
          2   -1    0    0  501    0  0.00000000000E+00  0.00000000000E+00  0.20927235237E+04  0.20927235237E+04  0.00000000000E+00 0. -1.
         -2   -1    0    0    0  501 -0.00000000000E+00 -0.00000000000E+00 -0.19265187816E+03  0.19265187816E+03  0.00000000000E+00 0.  1.
         23    2    1    2    0    0  0.86024000633E+02 -0.26773644851E+03  0.83484663165E+03  0.88697444076E+03  0.10330452870E+03 0.  0.
        254    2    1    2    0    0 -0.86024000633E+02  0.26773644851E+03  0.10652250139E+04  0.13984009611E+04  0.86124211652E+03 0.  0.
        -24    2    4    4    0    0 -0.32969272494E+03  0.46957025612E+03  0.70506817625E+03  0.91249077620E+03  0.79528392246E+02 0.  0.
         24    2    4    4    0    0  0.24366872431E+03 -0.20183380761E+03  0.36015683766E+03  0.48591018492E+03  0.79274377924E+02 0.  0.
         13    1    3    3    0    0  0.74163821197E+02 -0.26400810234E+03  0.70377282226E+03  0.75531234323E+03  0.00000000000E+00 0. -1.
        -13    1    3    3    0    0  0.11860179436E+02 -0.37283461715E+01  0.13107380938E+03  0.13166209754E+03  0.00000000000E+00 0.  1.
          4    1    6    6  502    0 -0.44910690368E+01 -0.14152466709E+02  0.20127835137E+02  0.25011832446E+02  0.00000000000E+00 0. -1.
          3    1    5    5  503    0 -0.22686914061E+03  0.26536991191E+03  0.39376759821E+03  0.52625442374E+03  0.00000000000E+00 0. -1.
         -4    1    5    5    0  503 -0.10282358433E+03  0.20420034421E+03  0.31130057804E+03  0.38623635245E+03  0.00000000000E+00 0.  1.
         -3    1    6    6    0  502  0.24815979335E+03 -0.18768134090E+03  0.34002900252E+03  0.46089835248E+03  0.00000000000E+00 0.  1.
<mgrwt>
<rscale>  0 0.12699088E+04</rscale>
<asrwt>0</asrwt>
<pdfrwt beam="1">  1        2 0.32195745E+00 0.12699088E+04</pdfrwt>
<pdfrwt beam="2">  1       -2 0.29638752E-01 0.12699088E+04</pdfrwt>
<totfact> 0.61198395E+01</totfact>
</mgrwt>
</event>
<event>
12    1  0.1599266E-007  0.2387236E+04  0.7818608E-02  0.8444298E-01
          1   -1    0    0  501    0  0.00000000000E+00  0.00000000000E+00  0.36958651304E+04  0.36958651304E+04  0.00000000000E+00 0. -1.
         -1   -1    0    0    0  501 -0.00000000000E+00 -0.00000000000E+00 -0.38549126623E+03  0.38549126623E+03  0.00000000000E+00 0.  1.
         23    2    1    2    0    0  0.93695707310E+03 -0.31048900451E+03  0.19256013040E+04  0.21657314938E+04  0.90335719383E+02 0.  0.
        254    2    1    2    0    0 -0.93695707310E+03  0.31048900451E+03  0.13847725601E+04  0.19156249029E+04  0.88189100600E+03 0.  0.
        -24    2    4    4    0    0 -0.83934070810E+03 -0.86734856101E+02  0.64196973489E+03  0.10638304046E+04  0.87144877041E+02 0.  0.
         24    2    4    4    0    0 -0.97616364994E+02  0.39722386061E+03  0.74280282526E+03  0.85179449834E+03  0.80511365792E+02 0.  0.
         13    1    3    3    0    0  0.89605761151E+02 -0.10814566804E+02  0.22036302411E+03  0.23813023681E+03  0.00000000000E+00 0. -1.
        -13    1    3    3    0    0  0.84735131195E+03 -0.29967443771E+03  0.17052382799E+04  0.19276012570E+04  0.00000000000E+00 0.  1.
          4    1    6    6  502    0 -0.91371393946E+02  0.36037584180E+03  0.61501475118E+03  0.71865334004E+03  0.00000000000E+00 0. -1.
          3    1    5    5  503    0 -0.43645129001E+03 -0.76850835128E+02  0.37369862796E+03  0.57969513018E+03  0.00000000000E+00 0. -1.
         -4    1    5    5    0  503 -0.40288941809E+03 -0.98840209732E+01  0.26827110693E+03  0.48413527437E+03  0.00000000000E+00 0.  1.
         -3    1    6    6    0  502 -0.62449710473E+01  0.36848018812E+02  0.12778807409E+03  0.13314115830E+03  0.00000000000E+00 0.  1.
<mgrwt>
<rscale>  0 0.23872358E+04</rscale>
<asrwt>0</asrwt>
<pdfrwt beam="1">  1        1 0.56859461E+00 0.23872358E+04</pdfrwt>
<pdfrwt beam="2">  1       -1 0.59306351E-01 0.23872358E+04</pdfrwt>
<totfact> 0.45060324E-01</totfact>
</mgrwt>
</event>
<event>
12    1  0.1780411E-007  0.1784502E+04  0.7818608E-02  0.8714585E-01
          3   -1    0    0  501    0  0.00000000000E+00  0.00000000000E+00  0.83505687408E+03  0.83505687408E+03  0.00000000000E+00 0. -1.
         -3   -1    0    0    0  501 -0.00000000000E+00 -0.00000000000E+00 -0.95336240480E+03  0.95336240480E+03  0.00000000000E+00 0.  1.
         23    2    1    2    0    0 -0.75386224349E+02 -0.19734352822E+03  0.57687591314E+03  0.62105144064E+03  0.91057793763E+02 0.  0.
        254    2    1    2    0    0  0.75386224349E+02  0.19734352822E+03 -0.69518144386E+03  0.11673678382E+04  0.91369736724E+03 0.  0.
        -24    2    4    4    0    0  0.11774939055E+03  0.33388179950E+03 -0.86093491109E+03  0.93430453885E+03  0.79837805364E+02 0.  0.
         24    2    4    4    0    0 -0.42363166203E+02 -0.13653827127E+03  0.16575346723E+03  0.23306329939E+03  0.80043439777E+02 0.  0.
         11    1    3    3    0    0  0.16857933930E+02 -0.52803929856E+02  0.18912330956E+03  0.19707884505E+03  0.00000000000E+00 0.  1.
        -11    1    3    3    0    0 -0.92244158279E+02 -0.14453959837E+03  0.38775260358E+03  0.42397259559E+03  0.00000000000E+00 0. -1.
          4    1    6    6  502    0 -0.13940482422E+02 -0.53840437024E+00 -0.32058072088E+01  0.14314472721E+02  0.00000000000E+00 0. -1.
          3    1    5    5  503    0  0.35328955696E+02  0.39498582400E+02 -0.83176679095E+02  0.98623694250E+02  0.00000000000E+00 0. -1.
         -4    1    5    5    0  503  0.82420434856E+02  0.29438321709E+03 -0.77775823200E+03  0.83568084460E+03  0.00000000000E+00 0.  1.
         -3    1    6    6    0  502 -0.28422683782E+02 -0.13599986690E+03  0.16895927444E+03  0.21874882667E+03  0.00000000000E+00 0.  1.
<mgrwt>
<rscale>  0 0.17845020E+04</rscale>
<asrwt>0</asrwt>
<pdfrwt beam="1">  1        3 0.12847029E+00 0.17845020E+04</pdfrwt>
<pdfrwt beam="2">  1       -3 0.14667114E+00 0.17845020E+04</pdfrwt>
<totfact> 0.40483601E-01</totfact>
</mgrwt>
</event>
<event>
12    1  0.1599266E-007  0.1423564E+04  0.7818608E-02  0.8936936E-01
         -3   -1    0    0    0  501 -0.00000000000E+00  0.00000000000E+00  0.61561296487E+03  0.61561296487E+03  0.00000000000E+00 0.  1.
          3   -1    0    0  501    0  0.00000000000E+00 -0.00000000000E+00 -0.82297432133E+03  0.82297432133E+03  0.00000000000E+00 0. -1.
         23    2    1    2    0    0  0.25977535581E+03  0.28822887927E+03  0.83747764866E+02  0.40740361510E+03  0.91678215252E+02 0.  0.
        254    2    1    2    0    0 -0.25977535581E+03 -0.28822887927E+03 -0.29110912132E+03  0.10311836711E+04  0.90996490080E+03 0.  0.
        -24    2    4    4    0    0  0.27857592606E+03 -0.33536649810E+03 -0.13566636911E+03  0.46351917193E+03  0.79808673749E+02 0.  0.
         24    2    4    4    0    0 -0.53835128187E+03  0.47137618836E+02 -0.15544275220E+03  0.56766449917E+03  0.77694765588E+02 0.  0.
         13    1    3    3    0    0  0.11440282397E+03  0.13705966276E+03 -0.74955840310E+01  0.17868839097E+03  0.00000000000E+00 0. -1.
        -13    1    3    3    0    0  0.14537253184E+03  0.15116921651E+03  0.91243348897E+02  0.22871522413E+03  0.00000000000E+00 0.  1.
          4    1    6    6  502    0 -0.11749355440E+03 -0.13294940101E+02 -0.11572939589E+02  0.11880834856E+03  0.00000000000E+00 0. -1.
          1    1    5    5  503    0  0.95655339092E+02 -0.10625183444E+03 -0.84017577617E+02  0.16582626320E+03  0.00000000000E+00 0. -1.
         -4    1    5    5    0  503  0.18292058697E+03 -0.22911466367E+03 -0.51648791495E+02  0.29769290873E+03  0.00000000000E+00 0.  1.
         -3    1    6    6    0  502 -0.42085772747E+03  0.60432558937E+02 -0.14386981262E+03  0.44885615060E+03  0.00000000000E+00 0.  1.
<mgrwt>
<rscale>  0 0.14235641E+04</rscale>
<asrwt>0</asrwt>
<pdfrwt beam="1">  1        3 0.12661143E+00 0.14235641E+04</pdfrwt>
<pdfrwt beam="2">  1       -3 0.94709688E-01 0.14235641E+04</pdfrwt>
<totfact> 0.12534111E+00</totfact>
</mgrwt>
</event>
<event>
12    1  0.1599266E-007  0.1546350E+04  0.7818608E-02  0.8854202E-01
         -1   -1    0    0    0  501 -0.00000000000E+00  0.00000000000E+00  0.60018568946E+03  0.60018568946E+03  0.00000000000E+00 0.  1.
          1   -1    0    0  501    0  0.00000000000E+00 -0.00000000000E+00 -0.99602474950E+03  0.99602474950E+03  0.00000000000E+00 0. -1.
         23    2    1    2    0    0 -0.36623231497E+03  0.34760724153E+03 -0.15731138180E+03  0.53627813778E+03  0.88828302511E+02 0.  0.
        254    2    1    2    0    0  0.36623231497E+03 -0.34760724153E+03 -0.23852767825E+03  0.10599323012E+04  0.90089074083E+03 0.  0.
        -24    2    4    4    0    0 -0.20314131758E+03  0.11082966363E+03 -0.21186919807E+03  0.32412679158E+03  0.81363448028E+02 0.  0.
         24    2    4    4    0    0  0.56937363255E+03 -0.45843690516E+03 -0.26658480171E+02  0.73580550961E+03  0.79676495573E+02 0.  0.
         11    1    3    3    0    0 -0.20470356301E+03  0.17813750832E+03 -0.39604656218E+02  0.27423539045E+03  0.00000000000E+00 0. -1.
        -11    1    3    3    0    0 -0.16152875196E+03  0.16946973321E+03 -0.11770672558E+03  0.26204274733E+03  0.00000000000E+00 0.  1.
          4    1    6    6  502    0  0.43020885996E+03 -0.30541334590E+03 -0.35386296970E+02  0.52878082894E+03  0.00000000000E+00 0. -1.
          3    1    5    5  503    0 -0.18530006557E+03  0.74670980429E+02 -0.14813151021E+03  0.24870628045E+03  0.00000000000E+00 0. -1.
         -2    1    5    5    0  503 -0.17841252014E+02  0.36158683200E+02 -0.63737687865E+02  0.75420511126E+02  0.00000000000E+00 0.  1.
         -3    1    6    6    0  502  0.13916477259E+03 -0.15302355926E+03  0.87278167987E+01  0.20702468066E+03  0.00000000000E+00 0.  1.
<mgrwt>
<rscale>  0 0.15463503E+04</rscale>
<asrwt>0</asrwt>
<pdfrwt beam="1">  1        1 0.15323457E+00 0.15463503E+04</pdfrwt>
<pdfrwt beam="2">  1       -1 0.92336262E-01 0.15463503E+04</pdfrwt>
<totfact> 0.16764510E+01</totfact>
</mgrwt>
</event>
<event>
12    1  0.1599266E-007  0.1461339E+04  0.7818608E-02  0.8910577E-01
          1   -1    0    0  501    0  0.00000000000E+00  0.00000000000E+00  0.67738728809E+03  0.67738728809E+03  0.00000000000E+00 0. -1.
         -1   -1    0    0    0  501 -0.00000000000E+00 -0.00000000000E+00 -0.78814304924E+03  0.78814304924E+03  0.00000000000E+00 0.  1.
         23    2    1    2    0    0 -0.28060378437E+03  0.23432683409E+03 -0.29257664759E+03  0.47665616663E+03  0.89176552381E+02 0.  0.
        254    2    1    2    0    0  0.28060378437E+03 -0.23432683409E+03  0.18182088644E+03  0.98887417070E+03  0.90064740146E+03 0.  0.
        -24    2    4    4    0    0  0.49242092804E+03 -0.91865317014E+02  0.39780644757E+03  0.64506193815E+03  0.83290620553E+02 0.  0.
         24    2    4    4    0    0 -0.21181714368E+03 -0.14246151707E+03 -0.21598556113E+03  0.34381223256E+03  0.79970634839E+02 0.  0.
         13    1    3    3    0    0 -0.42375531884E+02  0.67763780370E+02 -0.99808858390E+02  0.12786486556E+03  0.00000000000E+00 0. -1.
        -13    1    3    3    0    0 -0.23822825248E+03  0.16656305372E+03 -0.19276778920E+03  0.34879130106E+03  0.00000000000E+00 0.  1.
          2    1    6    6  502    0 -0.17332366913E+03 -0.11493634998E+03 -0.12883431221E+03  0.24464206268E+03  0.00000000000E+00 0. -1.
          3    1    5    5  503    0  0.42397978638E+03 -0.99026401730E+02  0.31498853539E+03  0.53738521093E+03  0.00000000000E+00 0. -1.
         -4    1    5    5    0  503  0.68441141661E+02  0.71610847156E+01  0.82817912175E+02  0.10767672721E+03  0.00000000000E+00 0.  1.
         -1    1    6    6    0  502 -0.38493474545E+02 -0.27525167095E+02 -0.87151248915E+02  0.99170169878E+02  0.00000000000E+00 0.  1.
<mgrwt>
<rscale>  0 0.14613392E+04</rscale>
<asrwt>0</asrwt>
<pdfrwt beam="1">  1        1 0.10421343E+00 0.14613392E+04</pdfrwt>
<pdfrwt beam="2">  1       -1 0.12125278E+00 0.14613392E+04</pdfrwt>
<totfact> 0.16772669E+01</totfact>
</mgrwt>
</event>
<event>
12    1  0.1599266E-007  0.1564774E+04  0.7818608E-02  0.8842486E-01
         -2   -1    0    0    0  501 -0.00000000000E+00  0.00000000000E+00  0.29969812050E+03  0.29969812050E+03  0.00000000000E+00 0.  1.
          2   -1    0    0  501    0  0.00000000000E+00 -0.00000000000E+00 -0.20424875199E+04  0.20424875199E+04  0.00000000000E+00 0. -1.
         23    2    1    2    0    0  0.44019712196E+03 -0.21281950059E+03 -0.32109861888E+03  0.59064559392E+03  0.81806164554E+02 0.  0.
        254    2    1    2    0    0 -0.44019712196E+03  0.21281950059E+03 -0.14216907805E+04  0.17515400464E+04  0.89867803634E+03 0.  0.
        -24    2    4    4    0    0 -0.60986217288E+03 -0.25069045392E+02 -0.12727278397E+04  0.14137520070E+04  0.79361553914E+02 0.  0.
         24    2    4    4    0    0  0.16966505092E+03  0.23788854598E+03 -0.14896294077E+03  0.33778803949E+03  0.80830762023E+02 0.  0.
         13    1    3    3    0    0  0.35360593220E+03 -0.16951782910E+03 -0.29399496617E+03  0.49010865102E+03  0.00000000000E+00 0. -1.
        -13    1    3    3    0    0  0.86591189761E+02 -0.43301671495E+02 -0.27103652709E+02  0.10053694291E+03  0.00000000000E+00 0.  1.
          4    1    6    6  502    0  0.26153993258E+02  0.90925681631E+02 -0.24957643915E+02  0.97848837158E+02  0.00000000000E+00 0. -1.
          3    1    5    5  503    0 -0.23028137626E+03 -0.33355464955E+02 -0.41572186459E+03  0.47641029375E+03  0.00000000000E+00 0. -1.
         -4    1    5    5    0  503 -0.37958079662E+03  0.82864195624E+01 -0.85700597513E+03  0.93734171320E+03  0.00000000000E+00 0.  1.
         -3    1    6    6    0  502  0.14351105767E+03  0.14696286435E+03 -0.12400529685E+03  0.23993920234E+03  0.00000000000E+00 0.  1.
<mgrwt>
<rscale>  0 0.15647743E+04</rscale>
<asrwt>0</asrwt>
<pdfrwt beam="1">  1        2 0.31422886E+00 0.15647743E+04</pdfrwt>
<pdfrwt beam="2">  1       -2 0.46107402E-01 0.15647743E+04</pdfrwt>
<totfact> 0.27142183E+01</totfact>
</mgrwt>
</event>
<event>
12    1  0.1599266E-007  0.2061478E+04  0.7818608E-02  0.8578405E-01
         -1   -1    0    0    0  501 -0.00000000000E+00  0.00000000000E+00  0.90992879469E+03  0.90992879469E+03  0.00000000000E+00 0.  1.
          1   -1    0    0  501    0  0.00000000000E+00 -0.00000000000E+00 -0.11675892150E+04  0.11675892150E+04  0.00000000000E+00 0. -1.
         23    2    1    2    0    0 -0.27949969908E+03  0.14870819279E+03  0.67104238496E+03  0.74755107780E+03  0.91107206753E+02 0.  0.
        254    2    1    2    0    0  0.27949969908E+03 -0.14870819279E+03 -0.92870280526E+03  0.13299669319E+04  0.89782455467E+03 0.  0.
        -24    2    4    4    0    0  0.26967739372E+03 -0.12146330366E+03  0.80648278127E+02  0.31683331721E+03  0.79999845689E+02 0.  0.
         24    2    4    4    0    0  0.98223053601E+01 -0.27244889136E+02 -0.10093510834E+04  0.10131336147E+04  0.82530902997E+02 0.  0.
         11    1    3    3    0    0 -0.20486708956E+03  0.63895309848E+02  0.40058756827E+03  0.45444860530E+03  0.00000000000E+00 0.  1.
        -11    1    3    3    0    0 -0.74632609519E+02  0.84812882947E+02  0.27045481669E+03  0.29310247251E+03  0.00000000000E+00 0. -1.
          2    1    6    6  502    0  0.31159139049E+02 -0.12393123429E+02 -0.90402301787E+03  0.90464473596E+03  0.00000000000E+00 0. -1.
          3    1    5    5  503    0  0.89364651694E+01 -0.27153673908E+02  0.21708914481E+01  0.28668714413E+02  0.00000000000E+00 0. -1.
         -4    1    5    5    0  503  0.26074092855E+03 -0.94309629750E+02  0.78477386678E+02  0.28816460280E+03  0.00000000000E+00 0.  1.
         -1    1    6    6    0  502 -0.21336833689E+02 -0.14851765707E+02 -0.10532806551E+03  0.10848887870E+03  0.00000000000E+00 0.  1.
<mgrwt>
<rscale>  0 0.20614782E+04</rscale>
<asrwt>0</asrwt>
<pdfrwt beam="1">  1        1 0.17962911E+00 0.20614782E+04</pdfrwt>
<pdfrwt beam="2">  1       -1 0.13998905E+00 0.20614782E+04</pdfrwt>
<totfact> 0.43674850E+00</totfact>
</mgrwt>
</event>
<event>
12    1  0.1599266E-007  0.1164631E+04  0.7818608E-02  0.9144391E-01
          2   -1    0    0  501    0  0.00000000000E+00  0.00000000000E+00  0.13046535223E+04  0.13046535223E+04  0.00000000000E+00 0. -1.
         -2   -1    0    0    0  501 -0.00000000000E+00 -0.00000000000E+00 -0.25990901963E+03  0.25990901963E+03  0.00000000000E+00 0.  1.
         23    2    1    2    0    0  0.69637555317E+02  0.19798038654E+03  0.14153007107E+03  0.26976465013E+03  0.93255471019E+02 0.  0.
        254    2    1    2    0    0 -0.69637555317E+02 -0.19798038654E+03  0.90321443163E+03  0.12947978918E+04  0.90369223112E+03 0.  0.
        -24    2    4    4    0    0  0.15890235209E+03  0.14667102733E+02 -0.12436642200E+03  0.21755558978E+03  0.79989663827E+02 0.  0.
         24    2    4    4    0    0 -0.22853990741E+03 -0.21264748928E+03  0.10275808536E+04  0.10772423020E+04  0.84137521907E+02 0.  0.
         11    1    3    3    0    0  0.36830432088E+02  0.17517024800E+03  0.14399727299E+03  0.22973095381E+03  0.00000000000E+00 0.  1.
        -11    1    3    3    0    0  0.32807123230E+02  0.22810138545E+02 -0.24672019240E+01  0.40033696312E+02  0.00000000000E+00 0. -1.
          2    1    6    6  502    0 -0.10592085618E+03 -0.46397204050E+02  0.32728499467E+03  0.34711294423E+03  0.00000000000E+00 0. -1.
          3    1    5    5  503    0  0.36104625393E+02 -0.32903957919E+01  0.69060599716E+01  0.36906155904E+02  0.00000000000E+00 0. -1.
         -4    1    5    5    0  503  0.12279772670E+03  0.17957498524E+02 -0.13127248197E+03  0.18064943387E+03  0.00000000000E+00 0.  1.
         -1    1    6    6    0  502 -0.12261905123E+03 -0.16625028523E+03  0.70029585896E+03  0.73012935781E+03  0.00000000000E+00 0.  1.
<mgrwt>
<rscale>  0 0.11646308E+04</rscale>
<asrwt>0</asrwt>
<pdfrwt beam="1">  1        2 0.20071592E+00 0.11646308E+04</pdfrwt>
<pdfrwt beam="2">  1       -2 0.39986004E-01 0.11646308E+04</pdfrwt>
<totfact> 0.96089692E+01</totfact>
</mgrwt>
</event>
<event>
12    1  0.1599266E-007  0.1401720E+04  0.7818608E-02  0.8952575E-01
          1   -1    0    0  501    0  0.00000000000E+00  0.00000000000E+00  0.23371897939E+04  0.23371897939E+04  0.00000000000E+00 0. -1.
         -1   -1    0    0    0  501 -0.00000000000E+00 -0.00000000000E+00 -0.21016886388E+03  0.21016886388E+03  0.00000000000E+00 0.  1.
         23    2    1    2    0    0 -0.30801094028E+03 -0.26742066226E+03  0.47633572888E+03  0.63385372132E+03  0.92142625825E+02 0.  0.
        254    2    1    2    0    0  0.30801094028E+03  0.26742066226E+03  0.16506852012E+04  0.19135049365E+04  0.87769867192E+03 0.  0.
        -24    2    4    4    0    0  0.39948288113E+03 -0.48195155852E+02  0.26619876716E+03  0.48830696845E+03  0.75316441979E+02 0.  0.
         24    2    4    4    0    0 -0.91471940850E+02  0.31561581811E+03  0.13844864340E+04  0.14251979681E+04  0.80038125708E+02 0.  0.
         13    1    3    3    0    0 -0.15893067602E+02 -0.33691933488E+01  0.55067410680E+00  0.16255592994E+02  0.00000000000E+00 0.  1.
        -13    1    3    3    0    0 -0.29211787268E+03 -0.26405146891E+03  0.47578505477E+03  0.61759812833E+03  0.00000000000E+00 0. -1.
          4    1    6    6  502    0 -0.20699837349E+01  0.10693290144E+03  0.34451028549E+03  0.36073018594E+03  0.00000000000E+00 0. -1.
          3    1    5    5  503    0  0.19071699464E+03 -0.57212772704E+02  0.11052041805E+03  0.22773018291E+03  0.00000000000E+00 0. -1.
         -4    1    5    5    0  503  0.20876588649E+03  0.90176168521E+01  0.15567834912E+03  0.26057678554E+03  0.00000000000E+00 0.  1.
         -3    1    6    6    0  502 -0.89401957115E+02  0.20868291667E+03  0.10399761485E+04  0.10644677821E+04  0.00000000000E+00 0.  1.
<mgrwt>
<rscale>  0 0.14017197E+04</rscale>
<asrwt>0</asrwt>
<pdfrwt beam="1">  1        1 0.35956764E+00 0.14017197E+04</pdfrwt>
<pdfrwt beam="2">  1       -1 0.32333673E-01 0.14017197E+04</pdfrwt>
<totfact> 0.15332085E+01</totfact>
</mgrwt>
</event>
<event>
12    1  0.1599266E-007  0.1825282E+04  0.7818608E-02  0.8692969E-01
          2   -1    0    0  501    0  0.00000000000E+00  0.00000000000E+00  0.20028208460E+04  0.20028208460E+04  0.00000000000E+00 0. -1.
         -2   -1    0    0    0  501 -0.00000000000E+00 -0.00000000000E+00 -0.41587010821E+03  0.41587010821E+03  0.00000000000E+00 0.  1.
         23    2    1    2    0    0  0.80296426910E+01 -0.30756036635E+03 -0.21519787295E+03  0.38972249660E+03  0.10447796766E+03 0.  0.
        254    2    1    2    0    0 -0.80296426910E+01  0.30756036635E+03  0.18021486107E+04  0.20289684576E+04  0.87995200588E+03 0.  0.
        -24    2    4    4    0    0 -0.39391486400E+03 -0.32635972795E+02  0.66402701284E+03  0.77693620291E+03  0.80398773684E+02 0.  0.
         24    2    4    4    0    0  0.38588522131E+03  0.34019633914E+03  0.11381215979E+04  0.12520322547E+04  0.87310033717E+02 0.  0.
         11    1    3    3    0    0  0.43385269268E+02 -0.25407199216E+03 -0.19252203402E+03  0.32171352532E+03  0.00000000000E+00 0.  1.
        -11    1    3    3    0    0 -0.35355626577E+02 -0.53488374185E+02 -0.22675838925E+02  0.68008971280E+02  0.00000000000E+00 0. -1.
          2    1    6    6  502    0  0.19370902324E+03  0.12017528370E+03  0.44921497958E+03  0.50374535470E+03  0.00000000000E+00 0. -1.
          3    1    5    5  503    0 -0.20409064657E+03  0.18111284784E+02  0.37728444579E+03  0.42933036660E+03  0.00000000000E+00 0. -1.
         -4    1    5    5    0  503 -0.18982421744E+03 -0.50747257579E+02  0.28674256705E+03  0.34760583631E+03  0.00000000000E+00 0.  1.
         -1    1    6    6    0  502  0.19217619808E+03  0.22002105544E+03  0.68890661829E+03  0.74828689997E+03  0.00000000000E+00 0.  1.
<mgrwt>
<rscale>  0 0.18252817E+04</rscale>
<asrwt>0</asrwt>
<pdfrwt beam="1">  1        2 0.30812628E+00 0.18252817E+04</pdfrwt>
<pdfrwt beam="2">  1       -2 0.63980018E-01 0.18252817E+04</pdfrwt>
<totfact> 0.14165982E+01</totfact>
</mgrwt>
</event>
<event>
12    1  0.1599266E-007  0.1442712E+04  0.7818608E-02  0.8923469E-01
         -3   -1    0    0    0  501 -0.00000000000E+00  0.00000000000E+00  0.59819866407E+03  0.59819866407E+03  0.00000000000E+00 0.  1.
          3   -1    0    0  501    0  0.00000000000E+00 -0.00000000000E+00 -0.86986909253E+03  0.86986909253E+03  0.00000000000E+00 0. -1.
         23    2    1    2    0    0  0.33933096646E+03 -0.27356071867E+03 -0.10477153926E+03  0.45524051687E+03  0.79283549137E+02 0.  0.
        254    2    1    2    0    0 -0.33933096646E+03  0.27356071867E+03 -0.16689888920E+03  0.10128272397E+04  0.89887863848E+03 0.  0.
        -24    2    4    4    0    0  0.59641825967E+01  0.54647548280E+03 -0.83164887589E+02  0.55789781543E+03  0.75249911361E+02 0.  0.
         24    2    4    4    0    0 -0.34529514906E+03 -0.27291476413E+03 -0.83734001609E+02  0.45492942429E+03  0.78982210766E+02 0.  0.
         13    1    3    3    0    0  0.26760527389E+01 -0.90185535392E+01  0.81451380250E+01  0.12443425559E+02  0.00000000000E+00 0.  1.
        -13    1    3    3    0    0  0.33665491372E+03 -0.26454216513E+03 -0.11291667729E+03  0.44279709131E+03  0.00000000000E+00 0. -1.
          2    1    6    6  502    0 -0.65738333994E+02 -0.19377433178E+02 -0.88967523382E+00  0.68540535414E+02  0.00000000000E+00 0. -1.
          1    1    5    5  503    0  0.14050674204E+02  0.32248322985E+03 -0.84843663181E+02  0.33375335528E+03  0.00000000000E+00 0. -1.
         -2    1    5    5    0  503 -0.80864916075E+01  0.22399225296E+03  0.16787755913E+01  0.22414446015E+03  0.00000000000E+00 0.  1.
         -1    1    6    6    0  502 -0.27955681506E+03 -0.25353733095E+03 -0.82844326375E+02  0.38638888888E+03  0.00000000000E+00 0.  1.
<mgrwt>
<rscale>  0 0.14427121E+04</rscale>
<asrwt>0</asrwt>
<pdfrwt beam="1">  1        3 0.13382601E+00 0.14427121E+04</pdfrwt>
<pdfrwt beam="2">  1       -3 0.92030564E-01 0.14427121E+04</pdfrwt>
<totfact> 0.11650914E+00</totfact>
</mgrwt>
</event>
<event>
12    1  0.1599266E-007  0.4207296E+04  0.7818608E-02  0.7963986E-01
          2   -1    0    0  501    0  0.00000000000E+00  0.00000000000E+00  0.42812733778E+04  0.42812733778E+04  0.00000000000E+00 0. -1.
         -2   -1    0    0    0  501 -0.00000000000E+00 -0.00000000000E+00 -0.10336491123E+04  0.10336491123E+04  0.00000000000E+00 0.  1.
         23    2    1    2    0    0 -0.10479359539E+04 -0.94476983829E+03  0.33525534760E+04  0.36385457246E+04  0.92953591644E+02 0.  0.
        254    2    1    2    0    0  0.10479359539E+04  0.94476983829E+03 -0.10492921043E+03  0.16763767655E+04  0.89914910325E+03 0.  0.
        -24    2    4    4    0    0  0.12002725870E+04  0.77715532787E+03 -0.10972372470E+03  0.14363898627E+04  0.80943530117E+02 0.  0.
         24    2    4    4    0    0 -0.15233663318E+03  0.16761451041E+03  0.47945142715E+01  0.23998690276E+03  0.79181135506E+02 0.  0.
         13    1    3    3    0    0 -0.78466917673E+03 -0.69149878452E+03  0.25817953260E+04  0.27855956978E+04  0.00000000000E+00 0. -1.
        -13    1    3    3    0    0 -0.26326677713E+03 -0.25327105376E+03  0.77075814998E+03  0.85295002689E+03  0.00000000000E+00 0.  1.
          4    1    6    6  502    0 -0.13757449622E+03  0.13979030399E+03  0.31556493988E+02  0.19865518723E+03  0.00000000000E+00 0. -1.
          1    1    5    5  503    0  0.11859403824E+04  0.75586117946E+03 -0.10464272779E+03  0.14102236750E+04  0.00000000000E+00 0. -1.
         -2    1    5    5    0  503  0.14332204670E+02  0.21294148417E+02 -0.50809969059E+01  0.26166187668E+02  0.00000000000E+00 0.  1.
         -3    1    6    6    0  502 -0.14762136967E+02  0.27824206420E+02 -0.26761979716E+02  0.41331715535E+02  0.00000000000E+00 0.  1.
<mgrwt>
<rscale>  0 0.42072958E+04</rscale>
<asrwt>0</asrwt>
<pdfrwt beam="1">  1        2 0.65865744E+00 0.42072958E+04</pdfrwt>
<pdfrwt beam="2">  1       -2 0.15902294E+00 0.42072958E+04</pdfrwt>
<totfact> 0.38950764E-02</totfact>
</mgrwt>
</event>
<event>
12    1  0.1599266E-007  0.2548068E+04  0.7818608E-02  0.8386059E-01
         -2   -1    0    0    0  501 -0.00000000000E+00  0.00000000000E+00  0.66846208994E+03  0.66846208994E+03  0.00000000000E+00 0.  1.
          2   -1    0    0  501    0  0.00000000000E+00 -0.00000000000E+00 -0.24282035595E+04  0.24282035595E+04  0.00000000000E+00 0. -1.
         23    2    1    2    0    0  0.70066957702E+03  0.72845718177E+03 -0.13287526502E+04  0.16720288342E+04  0.92244756279E+02 0.  0.
        254    2    1    2    0    0 -0.70066957702E+03 -0.72845718177E+03 -0.43098881935E+03  0.14246368153E+04  0.90678055292E+03 0.  0.
        -24    2    4    4    0    0 -0.90841195139E+03 -0.57419973018E+03 -0.27184835081E+03  0.11112833874E+04  0.78304774446E+02 0.  0.
         24    2    4    4    0    0  0.20774237437E+03 -0.15425745160E+03 -0.15914046854E+03  0.31335342787E+03  0.76892304856E+02 0.  0.
         13    1    3    3    0    0  0.26471969441E+03  0.29315559890E+03 -0.59148353700E+03  0.71124503255E+03  0.00000000000E+00 0. -1.
        -13    1    3    3    0    0  0.43594988260E+03  0.43530158287E+03 -0.73726911317E+03  0.96078380160E+03  0.00000000000E+00 0.  1.
          4    1    6    6  502    0  0.81460697209E+02 -0.88065982660E+02 -0.10937508544E+03  0.16234029631E+03  0.00000000000E+00 0. -1.
          1    1    5    5  503    0 -0.61583158378E+02 -0.64053043865E+02 -0.19633619510E+02  0.90998663942E+02  0.00000000000E+00 0. -1.
         -4    1    5    5    0  503 -0.84682879301E+03 -0.51014668631E+03 -0.25221473130E+03  0.10202847235E+04  0.00000000000E+00 0.  1.
         -3    1    6    6    0  502  0.12628167716E+03 -0.66191468938E+02 -0.49765383099E+02  0.15101313155E+03  0.00000000000E+00 0.  1.
<mgrwt>
<rscale>  0 0.25480675E+04</rscale>
<asrwt>0</asrwt>
<pdfrwt beam="1">  1        2 0.37356978E+00 0.25480675E+04</pdfrwt>
<pdfrwt beam="2">  1       -2 0.10284032E+00 0.25480675E+04</pdfrwt>
<totfact> 0.26282979E+00</totfact>
</mgrwt>
</event>
<event>
12    1  0.1599266E-007  0.1818419E+04  0.7818608E-02  0.8696565E-01
         -1   -1    0    0    0  501 -0.00000000000E+00  0.00000000000E+00  0.18520175528E+04  0.18520175528E+04  0.00000000000E+00 0.  1.
          1   -1    0    0  501    0  0.00000000000E+00 -0.00000000000E+00 -0.44635755450E+03  0.44635755450E+03  0.00000000000E+00 0. -1.
         23    2    1    2    0    0 -0.39427261805E+03  0.56476154162E+03  0.49015245709E+03  0.85026898324E+03  0.91112109155E+02 0.  0.
        254    2    1    2    0    0  0.39427261805E+03 -0.56476154162E+03  0.91550754123E+03  0.14481061241E+04  0.88569226728E+03 0.  0.
        -24    2    4    4    0    0  0.15228222513E+03 -0.58640730610E+03  0.13438292846E+03  0.62610364002E+03  0.82967414388E+02 0.  0.
         24    2    4    4    0    0  0.24199039292E+03  0.21645764483E+02  0.78112461277E+03  0.82200248406E+03  0.80650689635E+02 0.  0.
         13    1    3    3    0    0 -0.35297722904E+03  0.50230211132E+03  0.46868202568E+03  0.77237502319E+03  0.00000000000E+00 0.  1.
        -13    1    3    3    0    0 -0.41295389014E+02  0.62459430299E+02  0.21470431406E+02  0.77893960047E+02  0.00000000000E+00 0. -1.
          4    1    6    6  502    0  0.11257023820E+03 -0.26889120051E+02  0.30501949713E+03  0.32623914071E+03  0.00000000000E+00 0. -1.
          3    1    5    5  503    0  0.34215737253E+02 -0.29108248412E+03  0.53504999736E+02  0.29793038488E+03  0.00000000000E+00 0. -1.
         -4    1    5    5    0  503  0.11806648788E+03 -0.29532482198E+03  0.80877928721E+02  0.32817325515E+03  0.00000000000E+00 0.  1.
         -3    1    6    6    0  502  0.12942015472E+03  0.48534884533E+02  0.47610511565E+03  0.49576334335E+03  0.00000000000E+00 0.  1.
<mgrwt>
<rscale>  0 0.18184191E+04</rscale>
<asrwt>0</asrwt>
<pdfrwt beam="1">  1        1 0.68670394E-01 0.18184191E+04</pdfrwt>
<pdfrwt beam="2">  1       -1 0.28492577E+00 0.18184191E+04</pdfrwt>
<totfact> 0.20186096E+00</totfact>
</mgrwt>
</event>
<event>
12    1  0.1599266E-007  0.1264925E+04  0.7818608E-02  0.9057852E-01
         -2   -1    0    0    0  501 -0.00000000000E+00  0.00000000000E+00  0.27821848541E+03  0.27821848541E+03  0.00000000000E+00 0.  1.
          2   -1    0    0  501    0  0.00000000000E+00 -0.00000000000E+00 -0.14377505311E+04  0.14377505311E+04  0.00000000000E+00 0. -1.
         23    2    1    2    0    0 -0.83262606203E+02 -0.92874402435E+01  0.10425222519E+03  0.15973175671E+03  0.87331492064E+02 0.  0.
        254    2    1    2    0    0  0.83262606203E+02  0.92874402435E+01 -0.12637842708E+04  0.15562372598E+04  0.90427031761E+03 0.  0.
        -24    2    4    4    0    0  0.34992308085E+03 -0.26935407287E+03 -0.95630504444E+03  0.10563930790E+04  0.80307036715E+02 0.  0.
         24    2    4    4    0    0 -0.26666047464E+03  0.27864151312E+03 -0.30747922639E+03  0.49984418081E+03  0.80943368216E+02 0.  0.
         11    1    3    3    0    0 -0.85705185929E+02 -0.14751660002E+02  0.11692278262E+03  0.14571865860E+03  0.00000000000E+00 0.  1.
        -11    1    3    3    0    0  0.24425797255E+01  0.54642197589E+01 -0.12670557425E+02  0.14013098114E+02  0.00000000000E+00 0. -1.
          2    1    6    6  502    0 -0.11426030483E+03  0.10489353142E+03 -0.17341359167E+03  0.23265928730E+03  0.00000000000E+00 0. -1.
          3    1    5    5  503    0  0.27848906624E+03 -0.21203991987E+03 -0.67190465430E+03  0.75761002640E+03  0.00000000000E+00 0. -1.
         -4    1    5    5    0  503  0.71434014606E+02 -0.57314153001E+02 -0.28440039014E+03  0.29878305255E+03  0.00000000000E+00 0.  1.
         -1    1    6    6    0  502 -0.15240016982E+03  0.17374798170E+03 -0.13406563472E+03  0.26718489350E+03  0.00000000000E+00 0.  1.
<mgrwt>
<rscale>  0 0.12649249E+04</rscale>
<asrwt>0</asrwt>
<pdfrwt beam="1">  1        2 0.22119239E+00 0.12649249E+04</pdfrwt>
<pdfrwt beam="2">  1       -2 0.42802843E-01 0.12649249E+04</pdfrwt>
<totfact> 0.69974905E+01</totfact>
</mgrwt>
</event>
<event>
12    1  0.1599266E-007  0.2156883E+04  0.7818608E-02  0.8536592E-01
         -1   -1    0    0    0  501 -0.00000000000E+00  0.00000000000E+00  0.33996519170E+03  0.33996519170E+03  0.00000000000E+00 0.  1.
          1   -1    0    0  501    0  0.00000000000E+00 -0.00000000000E+00 -0.34210446280E+04  0.34210446280E+04  0.00000000000E+00 0. -1.
         23    2    1    2    0    0 -0.59390491066E+02 -0.12708302257E+03 -0.27916975824E+04  0.27967309416E+04  0.91930643131E+02 0.  0.
        254    2    1    2    0    0  0.59390491066E+02  0.12708302257E+03 -0.28938185389E+03  0.96427887808E+03  0.90907346914E+03 0.  0.
        -24    2    4    4    0    0 -0.41144075404E+03  0.80286891788E+02 -0.57590557964E+02  0.43073469802E+03  0.80537125762E+02 0.  0.
         24    2    4    4    0    0  0.47083124511E+03  0.46796130778E+02 -0.23179129593E+03  0.53354418007E+03  0.84084766670E+02 0.  0.
         11    1    3    3    0    0  0.14249412125E+02 -0.74186854271E+02 -0.14571764132E+04  0.14591332476E+04  0.00000000000E+00 0.  1.
        -11    1    3    3    0    0 -0.73639903191E+02 -0.52896168295E+02 -0.13345211692E+04  0.13375976940E+04  0.00000000000E+00 0. -1.
          4    1    6    6  502    0  0.45956617769E+03  0.33966888843E+02 -0.21153395592E+03  0.50705170912E+03  0.00000000000E+00 0. -1.
          1    1    5    5  503    0 -0.35274179377E+03  0.45215941560E+02 -0.66457504387E+02  0.36178426491E+03  0.00000000000E+00 0. -1.
         -2    1    5    5    0  503 -0.58698960273E+02  0.35070950229E+02  0.88669464236E+01  0.68950433109E+02  0.00000000000E+00 0.  1.
         -3    1    6    6    0  502  0.11265067419E+02  0.12829241935E+02 -0.20257340005E+02  0.26492470943E+02  0.00000000000E+00 0.  1.
<mgrwt>
<rscale>  0 0.21568830E+04</rscale>
<asrwt>0</asrwt>
<pdfrwt beam="1">  1        1 0.52631456E+00 0.21568830E+04</pdfrwt>
<pdfrwt beam="2">  1       -1 0.52302337E-01 0.21568830E+04</pdfrwt>
<totfact> 0.97362131E-01</totfact>
</mgrwt>
</event>
<event>
12    1  0.1599266E-007  0.2117034E+04  0.7818608E-02  0.8553777E-01
         -2   -1    0    0    0  501 -0.00000000000E+00  0.00000000000E+00  0.58185827372E+03  0.58185827372E+03  0.00000000000E+00 0.  1.
          2   -1    0    0  501    0  0.00000000000E+00 -0.00000000000E+00 -0.19256543366E+04  0.19256543366E+04  0.00000000000E+00 0. -1.
         23    2    1    2    0    0 -0.61495533372E+03  0.62724420739E+03 -0.62962564236E+03  0.10853113337E+04  0.99332186446E+02 0.  0.
        254    2    1    2    0    0  0.61495533372E+03 -0.62724420739E+03 -0.71417042051E+03  0.14222012766E+04  0.86082037824E+03 0.  0.
        -24    2    4    4    0    0  0.64900042617E+03 -0.77914849156E+03 -0.72074309925E+03  0.12468448627E+04  0.82931124866E+02 0.  0.
         24    2    4    4    0    0 -0.34045092451E+02  0.15190428417E+03  0.65726787406E+01  0.17535641394E+03  0.80453041808E+02 0.  0.
         11    1    3    3    0    0 -0.42863095237E+02  0.48661730131E+02 -0.17685163645E+02  0.67215875548E+02  0.00000000000E+00 0. -1.
        -11    1    3    3    0    0 -0.57209223848E+03  0.57858247726E+03 -0.61194047871E+03  0.10180954581E+04  0.00000000000E+00 0.  1.
          2    1    6    6  502    0 -0.10456665226E+02  0.25095166294E+02  0.33954841120E+02  0.43497591364E+02  0.00000000000E+00 0. -1.
          3    1    5    5  503    0  0.66953319415E+02 -0.46505559025E+02 -0.64569458155E+02  0.10399388889E+03  0.00000000000E+00 0. -1.
         -4    1    5    5    0  503  0.58204710676E+03 -0.73264293253E+03 -0.65617364109E+03  0.11428509738E+04  0.00000000000E+00 0.  1.
         -1    1    6    6    0  502 -0.23588427225E+02  0.12680911787E+03 -0.27382162380E+02  0.13185882258E+03  0.00000000000E+00 0.  1.
<mgrwt>
<rscale>  0 0.21170337E+04</rscale>
<asrwt>0</asrwt>
<pdfrwt beam="1">  1        2 0.29625451E+00 0.21170337E+04</pdfrwt>
<pdfrwt beam="2">  1       -2 0.89516658E-01 0.21170337E+04</pdfrwt>
<totfact> 0.72355469E+00</totfact>
</mgrwt>
</event>
<event>
12    1  0.1599266E-007  0.1123622E+04  0.7818608E-02  0.9182469E-01
          1   -1    0    0  501    0  0.00000000000E+00  0.00000000000E+00  0.41355180515E+03  0.41355180515E+03  0.00000000000E+00 0. -1.
         -1   -1    0    0    0  501 -0.00000000000E+00 -0.00000000000E+00 -0.76322158476E+03  0.76322158476E+03  0.00000000000E+00 0.  1.
         23    2    1    2    0    0  0.52203932823E+02 -0.24263781256E+02  0.11587733678E+03  0.15679808784E+03  0.88566932258E+02 0.  0.
        254    2    1    2    0    0 -0.52203932823E+02  0.24263781256E+02 -0.46554711639E+03  0.10199753021E+04  0.90570498374E+03 0.  0.
        -24    2    4    4    0    0  0.23857997084E+03 -0.31104160818E+03 -0.39984103405E+03  0.56436699531E+03  0.70498002708E+02 0.  0.
         24    2    4    4    0    0 -0.29078390366E+03  0.33530538943E+03 -0.65706082343E+02  0.45560830676E+03  0.79225356528E+02 0.  0.
         13    1    3    3    0    0 -0.30043447689E+01 -0.46146664537E+02  0.50495465135E+02  0.68471400852E+02  0.00000000000E+00 0.  1.
        -13    1    3    3    0    0  0.55208277592E+02  0.21882883281E+02  0.65381871642E+02  0.88326686991E+02  0.00000000000E+00 0. -1.
          2    1    6    6  502    0 -0.13613067987E+03  0.10076638127E+03 -0.13935704160E+02  0.16994007605E+03  0.00000000000E+00 0. -1.
          1    1    5    5  503    0  0.29231988179E+02 -0.10027988524E+02 -0.40914088385E+02  0.51274090095E+02  0.00000000000E+00 0. -1.
         -2    1    5    5    0  503  0.20934798266E+03 -0.30101361965E+03 -0.35892694566E+03  0.51309290522E+03  0.00000000000E+00 0.  1.
         -1    1    6    6    0  502 -0.15465322379E+03  0.23453900817E+03 -0.51770378182E+02  0.28566823071E+03  0.00000000000E+00 0.  1.
<mgrwt>
<rscale>  0 0.11236221E+04</rscale>
<asrwt>0</asrwt>
<pdfrwt beam="1">  1        1 0.63623355E-01 0.11236221E+04</pdfrwt>
<pdfrwt beam="2">  1       -1 0.11741871E+00 0.11236221E+04</pdfrwt>
<totfact> 0.37284089E+01</totfact>
</mgrwt>
</event>
<event>
12    1  0.1599266E-007  0.1888289E+04  0.7818608E-02  0.8660708E-01
          1   -1    0    0  501    0  0.00000000000E+00  0.00000000000E+00  0.19292562594E+04  0.19292562594E+04  0.00000000000E+00 0. -1.
         -1   -1    0    0    0  501 -0.00000000000E+00 -0.00000000000E+00 -0.46204794032E+03  0.46204794032E+03  0.00000000000E+00 0.  1.
         23    2    1    2    0    0 -0.19507025543E+03  0.60383557039E+03  0.10191501097E+04  0.12041473113E+04  0.92919323254E+02 0.  0.
        254    2    1    2    0    0  0.19507025543E+03 -0.60383557039E+03  0.44805820937E+03  0.11871568884E+04  0.89772797553E+03 0.  0.
        -24    2    4    4    0    0  0.77768799678E+02  0.22670318415E+03  0.14973566615E+03  0.29359708839E+03  0.79600004305E+02 0.  0.
         24    2    4    4    0    0  0.11730145576E+03 -0.83053875454E+03  0.29832254322E+03  0.89355980000E+03  0.76801836328E+02 0.  0.
         13    1    3    3    0    0 -0.20318934500E+03  0.59653125406E+03  0.10055649858E+04  0.11867166417E+04  0.00000000000E+00 0. -1.
        -13    1    3    3    0    0  0.81190895662E+01  0.73043163284E+01  0.13585123898E+02  0.17430669630E+02  0.00000000000E+00 0.  1.
          2    1    6    6  502    0 -0.57621974535E+01 -0.99891141113E+01 -0.80500606459E+00  0.11559989403E+02  0.00000000000E+00 0. -1.
          3    1    5    5  503    0  0.73716369910E+01  0.61060084573E+02  0.33388477783E+01  0.61594016467E+02  0.00000000000E+00 0. -1.
         -4    1    5    5    0  503  0.70397162687E+02  0.16564309958E+03  0.14639681837E+03  0.23200307192E+03  0.00000000000E+00 0.  1.
         -1    1    6    6    0  502  0.12306365321E+03 -0.82054964043E+03  0.29912754929E+03  0.88199981060E+03  0.00000000000E+00 0.  1.
<mgrwt>
<rscale>  0 0.18882890E+04</rscale>
<asrwt>0</asrwt>
<pdfrwt beam="1">  1        1 0.29680865E+00 0.18882890E+04</pdfrwt>
<pdfrwt beam="2">  1       -1 0.71084299E-01 0.18882890E+04</pdfrwt>
<totfact> 0.62306867E+00</totfact>
</mgrwt>
</event>
<event>
12    1  0.1599266E-007  0.1714382E+04  0.7818608E-02  0.8753204E-01
         -1   -1    0    0    0  501 -0.00000000000E+00  0.00000000000E+00  0.24664166196E+03  0.24664166196E+03  0.00000000000E+00 0.  1.
          1   -1    0    0  501    0  0.00000000000E+00 -0.00000000000E+00 -0.29791265493E+04  0.29791265493E+04  0.00000000000E+00 0. -1.
         23    2    1    2    0    0 -0.29204099759E+03  0.19559357599E+03 -0.19445333709E+04  0.19781540961E+04  0.91317062311E+02 0.  0.
        254    2    1    2    0    0  0.29204099759E+03 -0.19559357599E+03 -0.78795151643E+03  0.12476141152E+04  0.90118177801E+03 0.  0.
        -24    2    4    4    0    0  0.25279423623E+03 -0.21317294831E+03  0.99924652258E+02  0.35515396522E+03  0.82472850798E+02 0.  0.
         24    2    4    4    0    0  0.39246761366E+02  0.17579372322E+02 -0.88787616868E+03  0.89246015000E+03  0.79446118929E+02 0.  0.
         13    1    3    3    0    0 -0.22388643149E+03  0.14659948918E+03 -0.12342927008E+04  0.12629707106E+04  0.00000000000E+00 0. -1.
        -13    1    3    3    0    0 -0.68154566101E+02  0.48994086812E+02 -0.71024067011E+03  0.71518338550E+03  0.00000000000E+00 0.  1.
          2    1    6    6  502    0  0.57985568496E+01  0.15600248000E+02 -0.76256702316E+03  0.76274861902E+03  0.00000000000E+00 0. -1.
          3    1    5    5  503    0  0.17502508684E+03 -0.19080308922E+03  0.64598628901E+02  0.26685685814E+03  0.00000000000E+00 0. -1.
         -4    1    5    5    0  503  0.77769149390E+02 -0.22369859091E+02  0.35326023357E+02  0.88297107081E+02  0.00000000000E+00 0.  1.
         -1    1    6    6    0  502  0.33448204516E+02  0.19791243215E+01 -0.12530914552E+03  0.12971153098E+03  0.00000000000E+00 0.  1.
<mgrwt>
<rscale>  0 0.17143824E+04</rscale>
<asrwt>0</asrwt>
<pdfrwt beam="1">  1        1 0.45832716E+00 0.17143824E+04</pdfrwt>
<pdfrwt beam="2">  1       -1 0.37944871E-01 0.17143824E+04</pdfrwt>
<totfact> 0.39608709E+00</totfact>
</mgrwt>
</event>
<event>
12    1  0.1599266E-007  0.2144592E+04  0.7818608E-02  0.8541851E-01
         -2   -1    0    0    0  501 -0.00000000000E+00  0.00000000000E+00  0.14979678021E+04  0.14979678021E+04  0.00000000000E+00 0. -1.
          2   -1    0    0  501    0  0.00000000000E+00 -0.00000000000E+00 -0.76758564324E+03  0.76758564324E+03  0.00000000000E+00 0.  1.
         23    2    1    2    0    0 -0.27060673938E+03  0.63152154515E+03 -0.30005907883E+03  0.75518941753E+03  0.90709074383E+02 0.  0.
        254    2    1    2    0    0  0.27060673938E+03 -0.63152154515E+03  0.10304412377E+04  0.15103640279E+04  0.86448995532E+03 0.  0.
        -24    2    4    4    0    0  0.10531172334E+03 -0.82568267383E+03  0.75344484284E+03  0.11254558987E+04  0.78290559473E+02 0.  0.
         24    2    4    4    0    0  0.16529501604E+03  0.19416112867E+03  0.27699639489E+03  0.38490812919E+03  0.80039233655E+02 0.  0.
         11    1    3    3    0    0 -0.87294398401E+02  0.16799634409E+03 -0.42133145304E+02  0.19395433884E+03  0.00000000000E+00 0. -1.
        -11    1    3    3    0    0 -0.18331234098E+03  0.46352520106E+03 -0.25792593352E+03  0.56123507869E+03  0.00000000000E+00 0.  1.
          2    1    6    6  502    0  0.15243321278E+03  0.16701617717E+03  0.19859297592E+03  0.30094759989E+03  0.00000000000E+00 0. -1.
          1    1    5    5  503    0  0.11342094142E+03 -0.67834259431E+03  0.63778118695E+03  0.93796472622E+03  0.00000000000E+00 0. -1.
         -2    1    5    5    0  503 -0.81092180774E+01 -0.14734007952E+03  0.11566365589E+03  0.18749117244E+03  0.00000000000E+00 0.  1.
         -3    1    6    6    0  502  0.12861803256E+02  0.27144951507E+02  0.78403418967E+02  0.83960529304E+02  0.00000000000E+00 0.  1.
<mgrwt>
<rscale>  0 0.21445919E+04</rscale>
<asrwt>0</asrwt>
<pdfrwt beam="1">  1        2 0.11809010E+00 0.21445919E+04</pdfrwt>
<pdfrwt beam="2">  1       -2 0.23045658E+00 0.21445919E+04</pdfrwt>
<totfact> 0.28364121E+00</totfact>
</mgrwt>
</event>
<event>
12    1  0.1599266E-007  0.3805055E+04  0.7818608E-02  0.8045071E-01
         -2   -1    0    0    0  501 -0.00000000000E+00  0.00000000000E+00  0.12762387388E+04  0.12762387388E+04  0.00000000000E+00 0.  1.
          2   -1    0    0  501    0  0.00000000000E+00 -0.00000000000E+00 -0.28361555415E+04  0.28361555415E+04  0.00000000000E+00 0. -1.
         23    2    1    2    0    0 -0.11108634738E+04 -0.40227091977E+03  0.72818310811E+03  0.13908504273E+04  0.91513505921E+02 0.  0.
        254    2    1    2    0    0  0.11108634738E+04  0.40227091977E+03 -0.22880999108E+04  0.27215438530E+04  0.88065895325E+03 0.  0.
        -24    2    4    4    0    0  0.47939764455E+03  0.63080079425E+03 -0.11947066463E+04  0.14358977863E+04  0.82138532073E+02 0.  0.
         24    2    4    4    0    0  0.63146582930E+03 -0.22852987449E+03 -0.10933932645E+04  0.12856460667E+04  0.80012379947E+02 0.  0.
         11    1    3    3    0    0 -0.11707718370E+03 -0.73360404821E+02  0.88184636329E+02  0.16390651611E+03  0.00000000000E+00 0. -1.
        -11    1    3    3    0    0 -0.99378629014E+03 -0.32891051495E+03  0.63999847178E+03  0.12269439112E+04  0.00000000000E+00 0.  1.
          4    1    6    6  502    0  0.10383991761E+03 -0.70096957405E+02 -0.21180180261E+03  0.24608192846E+03  0.00000000000E+00 0. -1.
          1    1    5    5  503    0  0.35093490681E+03  0.43279228929E+03 -0.77729223106E+03  0.95637214878E+03  0.00000000000E+00 0. -1.
         -2    1    5    5    0  503  0.12846273773E+03  0.19800850496E+03 -0.41741441520E+03  0.47952563752E+03  0.00000000000E+00 0.  1.
         -3    1    6    6    0  502  0.52762591168E+03 -0.15843291708E+03 -0.88159146188E+03  0.10395641383E+04  0.00000000000E+00 0.  1.
<mgrwt>
<rscale>  0 0.38050554E+04</rscale>
<asrwt>0</asrwt>
<pdfrwt beam="1">  1        2 0.43633161E+00 0.38050554E+04</pdfrwt>
<pdfrwt beam="2">  1       -2 0.19634443E+00 0.38050554E+04</pdfrwt>
<totfact> 0.24763467E-01</totfact>
</mgrwt>
</event>
<event>
12    1  0.1599266E-007  0.1845476E+04  0.7818608E-02  0.8682483E-01
          2   -1    0    0  501    0  0.00000000000E+00  0.00000000000E+00  0.80167746331E+03  0.80167746331E+03  0.00000000000E+00 0. -1.
         -2   -1    0    0    0  501 -0.00000000000E+00 -0.00000000000E+00 -0.10620800069E+04  0.10620800069E+04  0.00000000000E+00 0.  1.
         23    2    1    2    0    0 -0.18395489603E+02  0.27443488921E+03 -0.71860398724E+03  0.77481563017E+03  0.91075066907E+02 0.  0.
        254    2    1    2    0    0  0.18395489603E+02 -0.27443488921E+03  0.45820144361E+03  0.10889418401E+04  0.94878494176E+03 0.  0.
        -24    2    4    4    0    0 -0.39440147469E+02  0.15075514054E+03  0.60350695144E+03  0.62856619348E+03  0.81192250400E+02 0.  0.
         24    2    4    4    0    0  0.57835637072E+02 -0.42519002975E+03 -0.14530550783E+03  0.46037564660E+03  0.81856722751E+02 0.  0.
         11    1    3    3    0    0 -0.26212003730E+02  0.15112640910E+02 -0.71171165382E+02  0.77335605232E+02  0.00000000000E+00 0. -1.
        -11    1    3    3    0    0  0.78165141265E+01  0.25932224830E+03 -0.64743282186E+03  0.69748002493E+03  0.00000000000E+00 0.  1.
          2    1    6    6  502    0 -0.10301469301E+02 -0.22761545541E+03 -0.76304055963E+02  0.24028571486E+03  0.00000000000E+00 0. -1.
          3    1    5    5  503    0  0.16453321257E+02  0.25201943162E+02  0.50959851311E+02  0.59184087094E+02  0.00000000000E+00 0. -1.
         -4    1    5    5    0  503 -0.55893468725E+02  0.12555319738E+03  0.55254710013E+03  0.56938210639E+03  0.00000000000E+00 0.  1.
         -1    1    6    6    0  502  0.68137106373E+02 -0.19757457434E+03 -0.69001451868E+02  0.22008993174E+03  0.00000000000E+00 0.  1.
<mgrwt>
<rscale>  0 0.18454762E+04</rscale>
<asrwt>0</asrwt>
<pdfrwt beam="1">  1        2 0.12333499E+00 0.18454762E+04</pdfrwt>
<pdfrwt beam="2">  1       -2 0.16339692E+00 0.18454762E+04</pdfrwt>
<totfact> 0.76806982E+00</totfact>
</mgrwt>
</event>
<event>
12    1  0.1599266E-007  0.1251374E+04  0.7818608E-02  0.9069041E-01
         -2   -1    0    0    0  501 -0.00000000000E+00  0.00000000000E+00  0.55733910621E+03  0.55733910621E+03  0.00000000000E+00 0.  1.
          2   -1    0    0  501    0  0.00000000000E+00 -0.00000000000E+00 -0.70241643693E+03  0.70241643693E+03  0.00000000000E+00 0. -1.
         23    2    1    2    0    0  0.17218208816E+03 -0.76641083650E+02 -0.20911808159E+03  0.29772657373E+03  0.96903113856E+02 0.  0.
        254    2    1    2    0    0 -0.17218208816E+03  0.76641083650E+02  0.64040750874E+02  0.96202896941E+03  0.94121091845E+03 0.  0.
        -24    2    4    4    0    0  0.15673597275E+03  0.38282955137E+03 -0.16375244120E+03  0.45179039364E+03  0.78581596030E+02 0.  0.
         24    2    4    4    0    0 -0.32891806091E+03 -0.30618846772E+03  0.22779319207E+03  0.51023857576E+03  0.80716772008E+02 0.  0.
         13    1    3    3    0    0  0.76310682081E+02 -0.19032631599E+02 -0.25415635601E+02  0.82652984206E+02  0.00000000000E+00 0.  1.
        -13    1    3    3    0    0  0.95871406079E+02 -0.57608452051E+02 -0.18370244599E+03  0.21507358953E+03  0.00000000000E+00 0. -1.
          2    1    6    6  502    0 -0.39473634141E+02 -0.26055191326E+02 -0.37442872519E+00  0.47298847599E+02  0.00000000000E+00 0. -1.
          3    1    5    5  503    0  0.70187803649E+02  0.14226339365E+03 -0.24045424671E+02  0.16044744747E+03  0.00000000000E+00 0. -1.
         -4    1    5    5    0  503  0.86548169099E+02  0.24056615772E+03 -0.13970701653E+03  0.29134294617E+03  0.00000000000E+00 0.  1.
         -1    1    6    6    0  502 -0.28944442677E+03 -0.28013327639E+03  0.22816762080E+03  0.46293972816E+03  0.00000000000E+00 0.  1.
<mgrwt>
<rscale>  0 0.12513739E+04</rscale>
<asrwt>0</asrwt>
<pdfrwt beam="1">  1        2 0.10806407E+00 0.12513739E+04</pdfrwt>
<pdfrwt beam="2">  1       -2 0.85744478E-01 0.12513739E+04</pdfrwt>
<totfact> 0.47406745E+01</totfact>
</mgrwt>
</event>
<event>
12    1  0.1599266E-007  0.1341414E+04  0.7818608E-02  0.8997353E-01
         -1   -1    0    0    0  501 -0.00000000000E+00  0.00000000000E+00  0.34754341953E+03  0.34754341953E+03  0.00000000000E+00 0.  1.
          1   -1    0    0  501    0  0.00000000000E+00 -0.00000000000E+00 -0.12943646302E+04  0.12943646302E+04  0.00000000000E+00 0. -1.
         23    2    1    2    0    0 -0.89456104446E+02 -0.28876069810E+01  0.16735351555E+03  0.20961075041E+03  0.88987272243E+02 0.  0.
        254    2    1    2    0    0  0.89456104446E+02  0.28876069810E+01 -0.11141747262E+04  0.14322972993E+04  0.89558891251E+03 0.  0.
        -24    2    4    4    0    0 -0.37616591506E+03 -0.13485514300E+03 -0.47811568407E+03  0.62830447167E+03  0.80530717913E+02 0.  0.
         24    2    4    4    0    0  0.46562201951E+03  0.13774274998E+03 -0.63605904216E+03  0.80399282766E+03  0.77823078808E+02 0.  0.
         13    1    3    3    0    0 -0.45065883338E+02 -0.65460382714E+01  0.15755610088E+03  0.16400521145E+03  0.00000000000E+00 0.  1.
        -13    1    3    3    0    0 -0.44390221108E+02  0.36584312904E+01  0.97974146767E+01  0.45605538961E+02  0.00000000000E+00 0. -1.
          2    1    6    6  502    0  0.25883413519E+02 -0.10157891753E+02 -0.37463061699E+02  0.46654205085E+02  0.00000000000E+00 0. -1.
          3    1    5    5  503    0 -0.25934034771E+03 -0.80407375313E+02 -0.26602828991E+03  0.38012341810E+03  0.00000000000E+00 0. -1.
         -4    1    5    5    0  503 -0.11682556735E+03 -0.54447767686E+02 -0.21208739416E+03  0.24818105358E+03  0.00000000000E+00 0.  1.
         -1    1    6    6    0  502  0.43973860599E+03  0.14790064173E+03 -0.59859598046E+03  0.75733862257E+03  0.00000000000E+00 0.  1.
<mgrwt>
<rscale>  0 0.13414140E+04</rscale>
<asrwt>0</asrwt>
<pdfrwt beam="1">  1        1 0.19913302E+00 0.13414140E+04</pdfrwt>
<pdfrwt beam="2">  1       -1 0.53468218E-01 0.13414140E+04</pdfrwt>
<totfact> 0.31554611E+01</totfact>
</mgrwt>
</event>
<event>
12    1  0.1599266E-007  0.1873225E+04  0.7818608E-02  0.8668300E-01
         -2   -1    0    0    0  501 -0.00000000000E+00  0.00000000000E+00  0.21400780139E+04  0.21400780139E+04  0.00000000000E+00 0.  1.
          2   -1    0    0  501    0  0.00000000000E+00 -0.00000000000E+00 -0.40991181232E+03  0.40991181232E+03  0.00000000000E+00 0. -1.
         23    2    1    2    0    0  0.20434921957E+03  0.63389538768E+03  0.30195596767E+03  0.73685706694E+03  0.90548134298E+02 0.  0.
        254    2    1    2    0    0 -0.20434921957E+03 -0.63389538768E+03  0.14282102339E+04  0.18131327593E+04  0.89670729029E+03 0.  0.
        -24    2    4    4    0    0 -0.12516952630E+03 -0.11934090521E+03  0.12392991377E+04  0.12534643441E+04  0.73490458107E+02 0.  0.
         24    2    4    4    0    0 -0.79179693269E+02 -0.51455448247E+03  0.18891109624E+03  0.55966841513E+03  0.80657258578E+02 0.  0.
         13    1    3    3    0    0 -0.53130150672E+01  0.14887827299E+01  0.39242209447E+00  0.55315999694E+01  0.00000000000E+00 0.  1.
        -13    1    3    3    0    0  0.20966223464E+03  0.63240660495E+03  0.30156354558E+03  0.73132546697E+03  0.00000000000E+00 0. -1.
          2    1    6    6  502    0 -0.57722320608E+02 -0.49308286354E+03  0.17905467702E+03  0.52775292891E+03  0.00000000000E+00 0. -1.
          1    1    5    5  503    0 -0.54910644875E+02 -0.94001953957E+02  0.59778546567E+03  0.60761748596E+03  0.00000000000E+00 0. -1.
         -2    1    5    5    0  503 -0.70258881429E+02 -0.25338951254E+02  0.64151367200E+03  0.64584685819E+03  0.00000000000E+00 0.  1.
         -1    1    6    6    0  502 -0.21457372661E+02 -0.21471618930E+02  0.98564192210E+01  0.31915486223E+02  0.00000000000E+00 0.  1.
<mgrwt>
<rscale>  0 0.18732253E+04</rscale>
<asrwt>0</asrwt>
<pdfrwt beam="1">  1        2 0.63063357E-01 0.18732253E+04</pdfrwt>
<pdfrwt beam="2">  1       -2 0.32924277E+00 0.18732253E+04</pdfrwt>
<totfact> 0.15271793E+00</totfact>
</mgrwt>
</event>
<event>
12    1  0.1599266E-007  0.1962148E+04  0.7818608E-02  0.8624525E-01
          2   -1    0    0  501    0  0.00000000000E+00  0.00000000000E+00  0.12636998613E+04  0.12636998613E+04  0.00000000000E+00 0. -1.
         -2   -1    0    0    0  501 -0.00000000000E+00 -0.00000000000E+00 -0.76165742192E+03  0.76165742192E+03  0.00000000000E+00 0.  1.
         23    2    1    2    0    0 -0.25689624666E+03  0.72513141614E+03  0.30504219066E+03  0.83265416112E+03  0.91929112468E+02 0.  0.
        254    2    1    2    0    0  0.25689624666E+03 -0.72513141614E+03  0.19700024869E+03  0.11927031221E+04  0.88989908821E+03 0.  0.
        -24    2    4    4    0    0  0.85296795974E+02 -0.83207323186E+03 -0.76594537033E+02  0.84383641587E+03  0.81066436091E+02 0.  0.
         24    2    4    4    0    0  0.17159945069E+03  0.10694181572E+03  0.27359478572E+03  0.34886670620E+03  0.77271912726E+02 0.  0.
         13    1    3    3    0    0 -0.26371446620E+03  0.71747237816E+03  0.29936457026E+03  0.82093305392E+03  0.00000000000E+00 0. -1.
        -13    1    3    3    0    0  0.68182195331E+01  0.76590379892E+01  0.56776203991E+01  0.11721107197E+02  0.00000000000E+00 0.  1.
          2    1    6    6  502    0 -0.84561010860E+00 -0.25458663699E+01  0.33622529214E+02  0.33729378334E+02  0.00000000000E+00 0. -1.
          3    1    5    5  503    0  0.15374499436E+02 -0.55876311579E+02  0.12910595498E+02  0.59373570759E+02  0.00000000000E+00 0. -1.
         -4    1    5    5    0  503  0.69922296538E+02 -0.77619692028E+03 -0.89505132531E+02  0.78446284511E+03  0.00000000000E+00 0.  1.
         -1    1    6    6    0  502  0.17244506080E+03  0.10948768209E+03  0.23997225651E+03  0.31513732787E+03  0.00000000000E+00 0.  1.
<mgrwt>
<rscale>  0 0.19621482E+04</rscale>
<asrwt>0</asrwt>
<pdfrwt beam="1">  1        2 0.19441536E+00 0.19621482E+04</pdfrwt>
<pdfrwt beam="2">  1       -2 0.11717806E+00 0.19621482E+04</pdfrwt>
<totfact> 0.91134261E+00</totfact>
</mgrwt>
</event>
<event>
12    1  0.1599266E-007  0.2681664E+04  0.7818608E-02  0.8340979E-01
         -1   -1    0    0    0  501 -0.00000000000E+00  0.00000000000E+00  0.13209797977E+04  0.13209797977E+04  0.00000000000E+00 0.  1.
          1   -1    0    0  501    0  0.00000000000E+00 -0.00000000000E+00 -0.13609823488E+04  0.13609823488E+04  0.00000000000E+00 0. -1.
         23    2    1    2    0    0 -0.55036525872E+03  0.87075070056E+03 -0.60946388318E+03  0.12004228897E+04  0.91979284265E+02 0.  0.
        254    2    1    2    0    0  0.55036525872E+03 -0.87075070056E+03  0.56946133211E+03  0.14815392568E+04  0.89975755629E+03 0.  0.
        -24    2    4    4    0    0  0.34357256706E+03 -0.10318053178E+04  0.41043182674E+03  0.11651066241E+04  0.79717241437E+02 0.  0.
         24    2    4    4    0    0  0.20679269166E+03  0.16105461721E+03  0.15902950537E+03  0.31643263266E+03  0.78341689943E+02 0.  0.
         13    1    3    3    0    0 -0.19303398149E+03  0.30172487272E+03 -0.26347019734E+03  0.44465330508E+03  0.00000000000E+00 0.  1.
        -13    1    3    3    0    0 -0.35733127722E+03  0.56902582783E+03 -0.34599368584E+03  0.75576958464E+03  0.00000000000E+00 0. -1.
          4    1    6    6  502    0  0.18927584795E+03  0.11472769896E+03  0.11167640328E+03  0.24791008567E+03  0.00000000000E+00 0. -1.
          3    1    5    5  503    0  0.27558187282E+03 -0.89547705073E+03  0.33408839582E+03  0.99470577219E+03  0.00000000000E+00 0. -1.
         -4    1    5    5    0  503  0.67990694242E+02 -0.13632826703E+03  0.76343430914E+02  0.17040085193E+03  0.00000000000E+00 0.  1.
         -3    1    6    6    0  502  0.17516843707E+02  0.46326918245E+02  0.47353102098E+02  0.68522546989E+02  0.00000000000E+00 0.  1.
<mgrwt>
<rscale>  0 0.26816638E+04</rscale>
<asrwt>0</asrwt>
<pdfrwt beam="1">  1        1 0.20938190E+00 0.26816638E+04</pdfrwt>
<pdfrwt beam="2">  1       -1 0.20322766E+00 0.26816638E+04</pdfrwt>
<totfact> 0.10236774E+00</totfact>
</mgrwt>
</event>
<event>
12    1  0.1599266E-007  0.2669779E+04  0.7818608E-02  0.8344878E-01
          1   -1    0    0  501    0  0.00000000000E+00  0.00000000000E+00  0.56667746175E+03  0.56667746175E+03  0.00000000000E+00 0. -1.
         -1   -1    0    0    0  501 -0.00000000000E+00 -0.00000000000E+00 -0.31445228309E+04  0.31445228309E+04  0.00000000000E+00 0.  1.
         23    2    1    2    0    0 -0.24622767007E+03 -0.10726927859E+04 -0.53362616465E+03  0.12261687355E+04  0.86226480062E+02 0.  0.
        254    2    1    2    0    0  0.24622767007E+03  0.10726927859E+04 -0.20442192045E+04  0.24850315572E+04  0.88614434811E+03 0.  0.
        -24    2    4    4    0    0 -0.16210593036E+02  0.16240598321E+03 -0.11992933194E+04  0.12129636325E+04  0.79610433692E+02 0.  0.
         24    2    4    4    0    0  0.26243826310E+03  0.91028680268E+03 -0.84492588518E+03  0.12720679247E+04  0.82226203783E+02 0.  0.
         13    1    3    3    0    0 -0.16244153451E+03 -0.77524406547E+03 -0.42290388849E+03  0.89790774140E+03  0.00000000000E+00 0. -1.
        -13    1    3    3    0    0 -0.83786135560E+02 -0.29744872042E+03 -0.11072227616E+03  0.32826099407E+03  0.00000000000E+00 0.  1.
          2    1    6    6  502    0  0.37269967634E+02  0.70296811638E+02 -0.50855523796E+02  0.94429743801E+02  0.00000000000E+00 0. -1.
          1    1    5    5  503    0 -0.15779201425E+02 -0.28503031344E+01 -0.87778896607E+02  0.89231396465E+02  0.00000000000E+00 0. -1.
         -2    1    5    5    0  503 -0.43139161119E+00  0.16525628634E+03 -0.11115144227E+04  0.11237322360E+04  0.00000000000E+00 0.  1.
         -1    1    6    6    0  502  0.22516829547E+03  0.83998999104E+03 -0.79407036138E+03  0.11776381809E+04  0.00000000000E+00 0.  1.
<mgrwt>
<rscale>  0 0.26697792E+04</rscale>
<asrwt>0</asrwt>
<pdfrwt beam="1">  1        1 0.87181148E-01 0.26697792E+04</pdfrwt>
<pdfrwt beam="2">  1       -1 0.48377274E+00 0.26697792E+04</pdfrwt>
<totfact> 0.61859526E-02</totfact>
</mgrwt>
</event>
<event>
12    1  0.1599266E-007  0.3392238E+04  0.7818608E-02  0.8139814E-01
          2   -1    0    0  501    0  0.00000000000E+00  0.00000000000E+00  0.37942017672E+04  0.37942017672E+04  0.00000000000E+00 0. -1.
         -2   -1    0    0    0  501 -0.00000000000E+00 -0.00000000000E+00 -0.75821458979E+03  0.75821458979E+03  0.00000000000E+00 0.  1.
         23    2    1    2    0    0  0.86560921817E+03 -0.27344112179E+03  0.31463932545E+04  0.32759402051E+04  0.89131080457E+02 0.  0.
        254    2    1    2    0    0 -0.86560921817E+03  0.27344112179E+03 -0.11040607707E+03  0.12764761520E+04  0.89059109527E+03 0.  0.
        -24    2    4    4    0    0 -0.14783926144E+03 -0.27548891865E+03  0.11284976000E+03  0.34186213720E+03  0.79900319154E+02 0.  0.
         24    2    4    4    0    0 -0.71776995673E+03  0.54893004044E+03 -0.22325583707E+03  0.93461401475E+03  0.84512056474E+02 0.  0.
         13    1    3    3    0    0  0.68050960789E+03 -0.17583570409E+03  0.24154119899E+04  0.25155966692E+04  0.00000000000E+00 0. -1.
        -13    1    3    3    0    0  0.18509961028E+03 -0.97605417709E+02  0.73098126462E+03  0.76034353586E+03  0.00000000000E+00 0.  1.
          2    1    6    6  502    0 -0.23865657012E+02  0.17490497421E+02 -0.24144879334E+02  0.38189819097E+02  0.00000000000E+00 0. -1.
          1    1    5    5  503    0 -0.14845455140E+02 -0.79120264653E+02  0.55744096004E+02  0.97917353193E+02  0.00000000000E+00 0. -1.
         -4    1    5    5    0  503 -0.13299380630E+03 -0.19636865399E+03  0.57105663996E+02  0.24394478401E+03  0.00000000000E+00 0.  1.
         -1    1    6    6    0  502 -0.69390429972E+03  0.53143954302E+03 -0.19911095774E+03  0.89642419565E+03  0.00000000000E+00 0.  1.
<mgrwt>
<rscale>  0 0.33922377E+04</rscale>
<asrwt>0</asrwt>
<pdfrwt beam="1">  1        2 0.58372334E+00 0.33922377E+04</pdfrwt>
<pdfrwt beam="2">  1       -2 0.11664840E+00 0.33922377E+04</pdfrwt>
<totfact> 0.23373782E-01</totfact>
</mgrwt>
</event>
<event>
12    1  0.1599266E-007  0.1592191E+04  0.7818608E-02  0.8825360E-01
          2   -1    0    0  501    0  0.00000000000E+00  0.00000000000E+00  0.18665237421E+04  0.18665237421E+04  0.00000000000E+00 0. -1.
         -2   -1    0    0    0  501 -0.00000000000E+00 -0.00000000000E+00 -0.33954446172E+03  0.33954446172E+03  0.00000000000E+00 0.  1.
         23    2    1    2    0    0 -0.24040094406E+03 -0.87360260517E+02  0.11583290540E+04  0.11897382484E+04  0.91249512251E+02 0.  0.
        254    2    1    2    0    0  0.24040094406E+03  0.87360260517E+02  0.36865022640E+03  0.10163299554E+04  0.91192058852E+03 0.  0.
        -24    2    4    4    0    0  0.93685348580E+02  0.45261488634E+03 -0.34219864673E+01  0.46906779381E+03  0.79848013879E+02 0.  0.
         24    2    4    4    0    0  0.14671559549E+03 -0.36525462582E+03  0.37207221287E+03  0.54726216158E+03  0.78241512413E+02 0.  0.
         13    1    3    3    0    0 -0.59913674538E+02  0.11288225537E+02  0.37146295680E+03  0.37643299631E+03  0.00000000000E+00 0. -1.
        -13    1    3    3    0    0 -0.18048726953E+03 -0.98648486053E+02  0.78686609716E+03  0.81330525211E+03  0.00000000000E+00 0.  1.
          4    1    6    6  502    0  0.51285683516E+02 -0.12864866880E+03  0.18404999577E+03  0.23033693204E+03  0.00000000000E+00 0. -1.
          1    1    5    5  503    0  0.75544059554E+02  0.27660398269E+03 -0.36535097535E+02  0.28905273139E+03  0.00000000000E+00 0. -1.
         -2    1    5    5    0  503  0.18141289025E+02  0.17601090366E+03  0.33113111068E+02  0.18001506242E+03  0.00000000000E+00 0.  1.
         -3    1    6    6    0  502  0.95429911969E+02 -0.23660595703E+03  0.18802221710E+03  0.31692522955E+03  0.00000000000E+00 0.  1.
<mgrwt>
<rscale>  0 0.15921907E+04</rscale>
<asrwt>0</asrwt>
<pdfrwt beam="1">  1        2 0.28715749E+00 0.15921907E+04</pdfrwt>
<pdfrwt beam="2">  1       -2 0.52237611E-01 0.15921907E+04</pdfrwt>
<totfact> 0.26305254E+01</totfact>
</mgrwt>
</event>
<event>
12    1  0.1599266E-007  0.1439247E+04  0.7818608E-02  0.8925889E-01
          2   -1    0    0  501    0  0.00000000000E+00  0.00000000000E+00  0.17116479060E+04  0.17116479060E+04  0.00000000000E+00 0. -1.
         -2   -1    0    0    0  501 -0.00000000000E+00 -0.00000000000E+00 -0.30254950757E+03  0.30254950757E+03  0.00000000000E+00 0.  1.
         23    2    1    2    0    0 -0.41394928486E+03  0.85666981120E+02  0.31889927501E+03  0.53722949773E+03  0.90696987498E+02 0.  0.
        254    2    1    2    0    0  0.41394928486E+03 -0.85666981120E+02  0.10901991235E+04  0.14769679159E+04  0.90233433585E+03 0.  0.
        -24    2    4    4    0    0  0.68701465008E-01  0.82925094607E+02 -0.13031393856E+03  0.17449413820E+03  0.81178233827E+02 0.  0.
         24    2    4    4    0    0  0.41388058340E+03 -0.16859207573E+03  0.12205130620E+04  0.13024737777E+04  0.84055824786E+02 0.  0.
         13    1    3    3    0    0 -0.34800234519E+03  0.43277943251E+02  0.28469773358E+03  0.45169836410E+03  0.00000000000E+00 0.  1.
        -13    1    3    3    0    0 -0.65946939674E+02  0.42389037869E+02  0.34201541431E+02  0.85531133630E+02  0.00000000000E+00 0. -1.
          4    1    6    6  502    0  0.39738081512E+02 -0.15808709383E+01  0.62167835187E+02  0.73800094899E+02  0.00000000000E+00 0. -1.
          3    1    5    5  503    0  0.85399729116E+00 -0.11825289297E+02  0.17186077911E+01  0.11979999628E+02  0.00000000000E+00 0. -1.
         -4    1    5    5    0  503 -0.78529582615E+00  0.94750383904E+02 -0.13203254635E+03  0.16251413857E+03  0.00000000000E+00 0.  1.
         -3    1    6    6    0  502  0.37414250188E+03 -0.16701120479E+03  0.11583452268E+04  0.12286736828E+04  0.00000000000E+00 0.  1.
<mgrwt>
<rscale>  0 0.14392473E+04</rscale>
<asrwt>0</asrwt>
<pdfrwt beam="1">  1        2 0.26333044E+00 0.14392473E+04</pdfrwt>
<pdfrwt beam="2">  1       -2 0.46546079E-01 0.14392473E+04</pdfrwt>
<totfact> 0.41027922E+01</totfact>
</mgrwt>
</event>
<event>
12    1  0.1599266E-007  0.1192765E+04  0.7818608E-02  0.9119213E-01
          1   -1    0    0  501    0  0.00000000000E+00  0.00000000000E+00  0.13440086274E+04  0.13440086274E+04  0.00000000000E+00 0. -1.
         -1   -1    0    0    0  501 -0.00000000000E+00 -0.00000000000E+00 -0.26463511160E+03  0.26463511160E+03  0.00000000000E+00 0.  1.
         23    2    1    2    0    0 -0.11212903832E+03 -0.20308937663E+02  0.48989998855E+03  0.51119399799E+03  0.91279409618E+02 0.  0.
        254    2    1    2    0    0  0.11212903832E+03  0.20308937663E+02  0.58947352728E+03  0.10974497410E+04  0.91865745549E+03 0.  0.
        -24    2    4    4    0    0 -0.34170140738E+03 -0.57537369470E+02  0.51071146461E+03  0.62295473140E+03  0.84711254287E+02 0.  0.
         24    2    4    4    0    0  0.45383044570E+03  0.77846307132E+02  0.78762062669E+02  0.47449500963E+03  0.83186120642E+02 0.  0.
         11    1    3    3    0    0 -0.11936135506E+03  0.37278421937E+01  0.37383489940E+03  0.39244561648E+03  0.00000000000E+00 0. -1.
        -11    1    3    3    0    0  0.72323167418E+01 -0.24036779857E+02  0.11606508915E+03  0.11874838151E+03  0.00000000000E+00 0.  1.
          4    1    6    6  502    0  0.42510518701E+02  0.27426454681E+02 -0.76995029070E+01  0.51172619257E+02  0.00000000000E+00 0. -1.
          1    1    5    5  503    0 -0.12614349952E+02 -0.40646484394E+01  0.65033017876E+02  0.66369696441E+02  0.00000000000E+00 0. -1.
         -2    1    5    5    0  503 -0.32908705742E+03 -0.53472721030E+02  0.44567844674E+03  0.55658503496E+03  0.00000000000E+00 0.  1.
         -3    1    6    6    0  502  0.41131992700E+03  0.50419852452E+02  0.86461565576E+02  0.42332239037E+03  0.00000000000E+00 0.  1.
<mgrwt>
<rscale>  0 0.11927646E+04</rscale>
<asrwt>0</asrwt>
<pdfrwt beam="1">  1        1 0.20677055E+00 0.11927646E+04</pdfrwt>
<pdfrwt beam="2">  1       -1 0.40713095E-01 0.11927646E+04</pdfrwt>
<totfact> 0.49115608E+01</totfact>
</mgrwt>
</event>
<event>
12    1  0.1599266E-007  0.1085837E+04  0.7818608E-02  0.9219107E-01
         -1   -1    0    0    0  501 -0.00000000000E+00  0.00000000000E+00  0.55988376009E+03  0.55988376009E+03  0.00000000000E+00 0.  1.
          1   -1    0    0  501    0  0.00000000000E+00 -0.00000000000E+00 -0.52646730278E+03  0.52646730278E+03  0.00000000000E+00 0. -1.
         23    2    1    2    0    0  0.81072011614E+02 -0.42172368011E+02  0.11912495486E+03  0.17461290550E+03  0.89150054440E+02 0.  0.
        254    2    1    2    0    0 -0.81072011614E+02  0.42172368011E+02 -0.85708497548E+02  0.91173815736E+03  0.90308877822E+03 0.  0.
        -24    2    4    4    0    0 -0.21385276681E+03 -0.36063360080E+03  0.10550910319E+03  0.43957766814E+03  0.79415084049E+02 0.  0.
         24    2    4    4    0    0  0.13278075520E+03  0.40280596881E+03 -0.19121760074E+03  0.47216048922E+03  0.80547993660E+02 0.  0.
         11    1    3    3    0    0 -0.12975113981E+02  0.13210623367E+02  0.17954536778E+02  0.25792238047E+02  0.00000000000E+00 0. -1.
        -11    1    3    3    0    0  0.94047125596E+02 -0.55382991378E+02  0.10117041808E+03  0.14882066745E+03  0.00000000000E+00 0.  1.
          2    1    6    6  502    0  0.57760558219E+02  0.11623641171E+03 -0.94468051608E+02  0.16053472605E+03  0.00000000000E+00 0. -1.
          1    1    5    5  503    0 -0.78777811524E+02 -0.75112108931E+02  0.86066270645E+01  0.10918720862E+03  0.00000000000E+00 0. -1.
         -2    1    5    5    0  503 -0.13507495529E+03 -0.28552149187E+03  0.96902476125E+02  0.33039045953E+03  0.00000000000E+00 0.  1.
         -1    1    6    6    0  502  0.75020196981E+02  0.28656955710E+03 -0.96749549130E+02  0.31162576317E+03  0.00000000000E+00 0.  1.
<mgrwt>
<rscale>  0 0.10858370E+04</rscale>
<asrwt>0</asrwt>
<pdfrwt beam="1">  1        1 0.80994970E-01 0.10858370E+04</pdfrwt>
<pdfrwt beam="2">  1       -1 0.86135963E-01 0.10858370E+04</pdfrwt>
<totfact> 0.54760169E+01</totfact>
</mgrwt>
</event>
<event>
12    1  0.1599266E-007  0.1775884E+04  0.7818608E-02  0.8719230E-01
          2   -1    0    0  501    0  0.00000000000E+00  0.00000000000E+00  0.31050945603E+04  0.31050945603E+04  0.00000000000E+00 0. -1.
         -2   -1    0    0    0  501 -0.00000000000E+00 -0.00000000000E+00 -0.25391858827E+03  0.25391858827E+03  0.00000000000E+00 0.  1.
         23    2    1    2    0    0  0.61095147371E+03  0.97718644546E+02  0.64998619974E+03  0.90127409899E+03  0.83679776246E+02 0.  0.
        254    2    1    2    0    0 -0.61095147371E+03 -0.97718644546E+02  0.22011897723E+04  0.24577390495E+04  0.90135131075E+03 0.  0.
        -24    2    4    4    0    0 -0.62456850190E+03 -0.30922270556E+03  0.20910441019E+04  0.22055308729E+04  0.78717848786E+02 0.  0.
         24    2    4    4    0    0  0.13617028192E+02  0.21150406101E+03  0.11014567034E+03  0.25220817668E+03  0.80978419412E+02 0.  0.
         11    1    3    3    0    0  0.48412325085E+03  0.43459953436E+02  0.51831873976E+03  0.71057610821E+03  0.00000000000E+00 0.  1.
        -11    1    3    3    0    0  0.12682822286E+03  0.54258691110E+02  0.13166745998E+03  0.19069799079E+03  0.00000000000E+00 0. -1.
          2    1    6    6  502    0  0.44427623779E+02  0.81183725730E+02  0.37446457876E+02  0.99834103820E+02  0.00000000000E+00 0. -1.
          1    1    5    5  503    0 -0.13083461526E+03 -0.57731703433E+02  0.33814231615E+03  0.36713876410E+03  0.00000000000E+00 0. -1.
         -2    1    5    5    0  503 -0.49373388664E+03 -0.25149100213E+03  0.17529017858E+04  0.18383921088E+04  0.00000000000E+00 0.  1.
         -1    1    6    6    0  502 -0.30810595587E+02  0.13032033528E+03  0.72699212463E+02  0.15237407286E+03  0.00000000000E+00 0.  1.
<mgrwt>
<rscale>  0 0.17758843E+04</rscale>
<asrwt>0</asrwt>
<pdfrwt beam="1">  1        2 0.47770683E+00 0.17758843E+04</pdfrwt>
<pdfrwt beam="2">  1       -2 0.39064400E-01 0.17758843E+04</pdfrwt>
<totfact> 0.87943630E+00</totfact>
</mgrwt>
</event>
<event>
12    1  0.1599266E-007  0.2779096E+04  0.7818608E-02  0.8309788E-01
         -1   -1    0    0    0  501 -0.00000000000E+00  0.00000000000E+00  0.76761995525E+03  0.76761995525E+03  0.00000000000E+00 0.  1.
          1   -1    0    0  501    0  0.00000000000E+00 -0.00000000000E+00 -0.25153635474E+04  0.25153635474E+04  0.00000000000E+00 0. -1.
         23    2    1    2    0    0 -0.29263542342E+02  0.31006427724E+03  0.63773331657E+03  0.71544283171E+03  0.90324146558E+02 0.  0.
        254    2    1    2    0    0  0.29263542342E+02 -0.31006427724E+03 -0.23854769087E+04  0.25675406709E+04  0.89708907249E+03 0.  0.
        -24    2    4    4    0    0 -0.33163115144E+03 -0.29363417896E+03 -0.63934338541E+03  0.78266966164E+03  0.87244387286E+02 0.  0.
         24    2    4    4    0    0  0.36089469378E+03 -0.16430098273E+02 -0.17461335233E+04  0.17848710093E+04  0.79166347115E+02 0.  0.
         11    1    3    3    0    0  0.38789401591E+01  0.25322179404E+03  0.55241195460E+03  0.60769670950E+03  0.00000000000E+00 0.  1.
        -11    1    3    3    0    0 -0.33142482501E+02  0.56842483199E+02  0.85321361969E+02  0.10774612221E+03  0.00000000000E+00 0. -1.
          2    1    6    6  502    0  0.22186998952E+03 -0.44613752189E+01 -0.12473492623E+04  0.12669358225E+04  0.00000000000E+00 0. -1.
          1    1    5    5  503    0 -0.82693262426E+02 -0.62536950700E+02 -0.92628364631E+02  0.13902898902E+03  0.00000000000E+00 0. -1.
         -4    1    5    5    0  503 -0.24893788901E+03 -0.23109722826E+03 -0.54671502078E+03  0.64364067262E+03  0.00000000000E+00 0.  1.
         -1    1    6    6    0  502  0.13902470426E+03 -0.11968723054E+02 -0.49878426102E+03  0.51793518684E+03  0.00000000000E+00 0.  1.
<mgrwt>
<rscale>  0 0.27790957E+04</rscale>
<asrwt>0</asrwt>
<pdfrwt beam="1">  1        1 0.38697901E+00 0.27790957E+04</pdfrwt>
<pdfrwt beam="2">  1       -1 0.11809538E+00 0.27790957E+04</pdfrwt>
<totfact> 0.73770591E-01</totfact>
</mgrwt>
</event>
<event>
12    1  0.1599266E-007  0.2915912E+04  0.7818608E-02  0.8268159E-01
          1   -1    0    0  501    0  0.00000000000E+00  0.00000000000E+00  0.14435093058E+04  0.14435093058E+04  0.00000000000E+00 0. -1.
         -1   -1    0    0    0  501 -0.00000000000E+00 -0.00000000000E+00 -0.14725472207E+04  0.14725472207E+04  0.00000000000E+00 0.  1.
         23    2    1    2    0    0 -0.55792267431E+03 -0.88874097426E+03 -0.80970808170E+03  0.13283388505E+04  0.87856099747E+02 0.  0.
        254    2    1    2    0    0  0.55792267431E+03  0.88874097426E+03  0.78067016677E+03  0.15877176760E+04  0.90014625446E+03 0.  0.
        -24    2    4    4    0    0  0.72724455135E+03  0.40734374001E+03  0.63547246888E+03  0.10511728781E+04  0.79533646561E+02 0.  0.
         24    2    4    4    0    0 -0.16932187704E+03  0.48139723425E+03  0.14519769790E+03  0.53654479787E+03  0.79904652265E+02 0.  0.
         11    1    3    3    0    0 -0.45311056089E+03 -0.77020301971E+03 -0.70987331323E+03  0.11412458074E+04  0.00000000000E+00 0.  1.
        -11    1    3    3    0    0 -0.10481211342E+03 -0.11853795456E+03 -0.99834768469E+02  0.18709304312E+03  0.00000000000E+00 0. -1.
          2    1    6    6  502    0 -0.12323904458E+03  0.40711730002E+03  0.95351007376E+02  0.43591762145E+03  0.00000000000E+00 0. -1.
          1    1    5    5  503    0  0.71045302793E+03  0.39282377173E+03  0.63173689791E+03  0.10286620090E+04  0.00000000000E+00 0. -1.
         -2    1    5    5    0  503  0.16791523417E+02  0.14519968283E+02  0.37355709625E+01  0.22510869108E+02  0.00000000000E+00 0.  1.
         -1    1    6    6    0  502 -0.46082832467E+02  0.74279934233E+02  0.49846690524E+02  0.10062717642E+03  0.00000000000E+00 0.  1.
<mgrwt>
<rscale>  0 0.29159119E+04</rscale>
<asrwt>0</asrwt>
<pdfrwt beam="1">  1        1 0.22207835E+00 0.29159119E+04</pdfrwt>
<pdfrwt beam="2">  1       -1 0.22654573E+00 0.29159119E+04</pdfrwt>
<totfact> 0.61093825E-01</totfact>
</mgrwt>
</event>
<event>
12    1  0.1599266E-007  0.1576021E+04  0.7818608E-02  0.8835416E-01
          1   -1    0    0  501    0  0.00000000000E+00  0.00000000000E+00  0.23536708291E+04  0.23536708291E+04  0.00000000000E+00 0. -1.
         -1   -1    0    0    0  501 -0.00000000000E+00 -0.00000000000E+00 -0.26382656581E+03  0.26382656581E+03  0.00000000000E+00 0.  1.
         23    2    1    2    0    0  0.20597277196E+03  0.27066138035E+03  0.13698029430E+04  0.14142945492E+04  0.90479851025E+02 0.  0.
        254    2    1    2    0    0 -0.20597277196E+03 -0.27066138035E+03  0.72004132025E+03  0.12032028457E+04  0.90197295942E+03 0.  0.
        -24    2    4    4    0    0 -0.21704646918E+03 -0.47257143282E+03  0.86581906949E+02  0.53330355642E+03  0.80519114374E+02 0.  0.
         24    2    4    4    0    0  0.11073697220E+02  0.20191005247E+03  0.63345941330E+03  0.66989928932E+03  0.81264589333E+02 0.  0.
         13    1    3    3    0    0  0.52211510501E+02  0.40120126555E+02  0.41129549884E+03  0.41653289636E+03  0.00000000000E+00 0.  1.
        -13    1    3    3    0    0  0.15376126146E+03  0.23054125379E+03  0.95850744418E+03  0.99776165279E+03  0.00000000000E+00 0. -1.
          4    1    6    6  502    0 -0.33836406505E+02  0.11408778087E+03  0.36356616732E+03  0.38254579095E+03  0.00000000000E+00 0. -1.
          1    1    5    5  503    0 -0.11154620671E+03 -0.25608442918E+03  0.61158793404E+01  0.27939075697E+03  0.00000000000E+00 0. -1.
         -2    1    5    5    0  503 -0.10550026247E+03 -0.21648700364E+03  0.80466027609E+02  0.25391279945E+03  0.00000000000E+00 0.  1.
         -3    1    6    6    0  502  0.44910103725E+02  0.87822271593E+02  0.26989324597E+03  0.28735349837E+03  0.00000000000E+00 0.  1.
<mgrwt>
<rscale>  0 0.15760214E+04</rscale>
<asrwt>0</asrwt>
<pdfrwt beam="1">  1        1 0.36210319E+00 0.15760214E+04</pdfrwt>
<pdfrwt beam="2">  1       -1 0.40588704E-01 0.15760214E+04</pdfrwt>
<totfact> 0.97622160E+00</totfact>
</mgrwt>
</event>
<event>
12    1  0.1599266E-007  0.2456124E+04  0.7818608E-02  0.8418785E-01
          1   -1    0    0  501    0  0.00000000000E+00  0.00000000000E+00  0.98706218948E+03  0.98706218948E+03  0.00000000000E+00 0. -1.
         -1   -1    0    0    0  501 -0.00000000000E+00 -0.00000000000E+00 -0.15279042010E+04  0.15279042010E+04  0.00000000000E+00 0.  1.
         23    2    1    2    0    0 -0.30817396784E+03 -0.86990737053E+03 -0.78013144286E+03  0.12118543766E+04  0.90972161949E+02 0.  0.
        254    2    1    2    0    0  0.30817396784E+03  0.86990737053E+03  0.23928943129E+03  0.13031120139E+04  0.88833071606E+03 0.  0.
        -24    2    4    4    0    0  0.58690845931E+03  0.44477431246E+03  0.26807908863E+03  0.78775685485E+03  0.80054581215E+02 0.  0.
         24    2    4    4    0    0 -0.27873449147E+03  0.42513305806E+03 -0.28789657337E+02  0.51535515905E+03  0.79567969633E+02 0.  0.
         13    1    3    3    0    0 -0.16187933222E+02 -0.82400442629E+02 -0.10370127048E+03  0.13343850879E+03  0.00000000000E+00 0. -1.
        -13    1    3    3    0    0 -0.29198603461E+03 -0.78750692790E+03 -0.67643017238E+03  0.10784158678E+04  0.00000000000E+00 0.  1.
          4    1    6    6  502    0 -0.15800202486E+03  0.28965893650E+03  0.86711557917E+01  0.33006382458E+03  0.00000000000E+00 0. -1.
          3    1    5    5  503    0  0.34060806081E+03  0.20805233493E+03  0.14453036662E+03  0.42448633904E+03  0.00000000000E+00 0. -1.
         -4    1    5    5    0  503  0.24630039850E+03  0.23672197753E+03  0.12354872201E+03  0.36327051581E+03  0.00000000000E+00 0.  1.
         -3    1    6    6    0  502 -0.12073246661E+03  0.13547412156E+03 -0.37460813128E+02  0.18529133446E+03  0.00000000000E+00 0.  1.
<mgrwt>
<rscale>  0 0.24561242E+04</rscale>
<asrwt>0</asrwt>
<pdfrwt beam="1">  1        1 0.15185572E+00 0.24561242E+04</pdfrwt>
<pdfrwt beam="2">  1       -1 0.23506218E+00 0.24561242E+04</pdfrwt>
<totfact> 0.12069305E+00</totfact>
</mgrwt>
</event>
<event>
12    1  0.1599266E-007  0.2122599E+04  0.7818608E-02  0.8551353E-01
         -2   -1    0    0    0  501 -0.00000000000E+00  0.00000000000E+00  0.49918573192E+03  0.49918573192E+03  0.00000000000E+00 0. -1.
          2   -1    0    0  501    0  0.00000000000E+00 -0.00000000000E+00 -0.22563868588E+04  0.22563868588E+04  0.00000000000E+00 0.  1.
         23    2    1    2    0    0 -0.76282054126E+03 -0.41208933198E+03 -0.76664494208E+03  0.11610175451E+04  0.92219721428E+02 0.  0.
        254    2    1    2    0    0  0.76282054126E+03  0.41208933198E+03 -0.99055618475E+03  0.15945550456E+04  0.89982856293E+03 0.  0.
        -24    2    4    4    0    0  0.67206275919E+03  0.53258681302E+03 -0.34658045938E+03  0.92841915925E+03  0.80790189794E+02 0.  0.
         24    2    4    4    0    0  0.90757782073E+02 -0.12049748104E+03 -0.64397572538E+03  0.66613588636E+03  0.79219103018E+02 0.  0.
         11    1    3    3    0    0 -0.20495197859E+03 -0.85779359983E+02 -0.24255698167E+03  0.32893358218E+03  0.00000000000E+00 0.  1.
        -11    1    3    3    0    0 -0.55786856267E+03 -0.32630997199E+03 -0.52408796041E+03  0.83208396288E+03  0.00000000000E+00 0. -1.
          2    1    6    6  502    0  0.46812027826E+02 -0.44732920568E+02 -0.43125989762E+03  0.43609345263E+03  0.00000000000E+00 0. -1.
          1    1    5    5  503    0  0.31710968809E+03  0.20367707684E+03 -0.13602368066E+03  0.40068110464E+03  0.00000000000E+00 0. -1.
         -4    1    5    5    0  503  0.35495307109E+03  0.32890973617E+03 -0.21055677872E+03  0.52773805462E+03  0.00000000000E+00 0.  1.
         -1    1    6    6    0  502  0.43945754247E+02 -0.75764560470E+02 -0.21271582776E+03  0.23004243373E+03  0.00000000000E+00 0.  1.
<mgrwt>
<rscale>  0 0.21225985E+04</rscale>
<asrwt>0</asrwt>
<pdfrwt beam="1">  1        2 0.34713644E+00 0.21225985E+04</pdfrwt>
<pdfrwt beam="2">  1       -2 0.76797806E-01 0.21225985E+04</pdfrwt>
<totfact> 0.66867868E+00</totfact>
</mgrwt>
</event>
<event>
12    1  0.1599266E-007  0.3443096E+04  0.7818608E-02  0.8127409E-01
         -1   -1    0    0    0  501 -0.00000000000E+00  0.00000000000E+00  0.17011701104E+04  0.17011701104E+04  0.00000000000E+00 0.  1.
          1   -1    0    0  501    0  0.00000000000E+00 -0.00000000000E+00 -0.17421702495E+04  0.17421702495E+04  0.00000000000E+00 0. -1.
         23    2    1    2    0    0  0.40318870920E+03 -0.31737035931E+03  0.15005922639E+04  0.15884006320E+04  0.89187133587E+02 0.  0.
        254    2    1    2    0    0 -0.40318870920E+03  0.31737035931E+03 -0.15415924031E+04  0.18549397279E+04  0.89499116023E+03 0.  0.
        -24    2    4    4    0    0 -0.63881466432E+03  0.32627276592E+03 -0.13759194281E+04  0.15537552425E+04  0.80392711151E+02 0.  0.
         24    2    4    4    0    0  0.23562595513E+03 -0.89024066141E+01 -0.16567297500E+03  0.30118448541E+03  0.87554074893E+02 0.  0.
         13    1    3    3    0    0  0.11200279655E+03 -0.13330402061E+03  0.57497255811E+03  0.60075621588E+03  0.00000000000E+00 0. -1.
        -13    1    3    3    0    0  0.29118591265E+03 -0.18406633870E+03  0.92561970583E+03  0.98764441607E+03  0.00000000000E+00 0.  1.
          2    1    6    6  502    0  0.12724001379E+03 -0.33659931091E+02 -0.12853507559E+03  0.18396814324E+03  0.00000000000E+00 0. -1.
          1    1    5    5  503    0 -0.51512620827E+03  0.24608372055E+03 -0.11515779045E+04  0.12853185901E+04  0.00000000000E+00 0. -1.
         -2    1    5    5    0  503 -0.12368845606E+03  0.80189045373E+02 -0.22434152352E+03  0.26843665237E+03  0.00000000000E+00 0.  1.
         -1    1    6    6    0  502  0.10838594134E+03  0.24757524477E+02 -0.37137899405E+02  0.11721634216E+03  0.00000000000E+00 0.  1.
<mgrwt>
<rscale>  0 0.34430963E+04</rscale>
<asrwt>0</asrwt>
<pdfrwt beam="1">  1        1 0.26802619E+00 0.34430963E+04</pdfrwt>
<pdfrwt beam="2">  1       -1 0.26171848E+00 0.34430963E+04</pdfrwt>
<totfact> 0.21382712E-01</totfact>
</mgrwt>
</event>
<event>
12    1  0.1599266E-007  0.1455201E+04  0.7818608E-02  0.8914802E-01
         -2   -1    0    0    0  501 -0.00000000000E+00  0.00000000000E+00  0.59160151009E+03  0.59160151009E+03  0.00000000000E+00 0.  1.
          2   -1    0    0  501    0  0.00000000000E+00 -0.00000000000E+00 -0.89486372834E+03  0.89486372834E+03  0.00000000000E+00 0. -1.
         23    2    1    2    0    0  0.29792676201E+03 -0.11367258545E+03  0.22483628083E+03  0.40072505341E+03  0.91364123413E+02 0.  0.
        254    2    1    2    0    0 -0.29792676201E+03  0.11367258545E+03 -0.52809849907E+03  0.10857401850E+04  0.89345504220E+03 0.  0.
        -24    2    4    4    0    0 -0.39975679065E+03 -0.26725739136E+03 -0.98773161826E+02  0.49735651954E+03  0.79845883543E+02 0.  0.
         24    2    4    4    0    0  0.10183002864E+03  0.38092997681E+03 -0.42932533725E+03  0.58838366548E+03  0.79988065559E+02 0.  0.
         11    1    3    3    0    0  0.24012039182E+03 -0.62852887825E+02  0.13543648611E+03  0.28275666189E+03  0.00000000000E+00 0. -1.
        -11    1    3    3    0    0  0.57806370196E+02 -0.50819697626E+02  0.89399794714E+02  0.11796839152E+03  0.00000000000E+00 0.  1.
          4    1    6    6  502    0  0.93581352022E+02  0.38249432041E+03 -0.41776954930E+03  0.57409996596E+03  0.00000000000E+00 0. -1.
          1    1    5    5  503    0 -0.34989917322E+03 -0.26191213538E+03 -0.93311840290E+02  0.44691665623E+03  0.00000000000E+00 0. -1.
         -2    1    5    5    0  503 -0.49857617427E+02 -0.53452559844E+01 -0.54613215359E+01  0.50439863303E+02  0.00000000000E+00 0.  1.
         -3    1    6    6    0  502  0.82486766175E+01 -0.15643435992E+01 -0.11555787945E+02  0.14283699516E+02  0.00000000000E+00 0.  1.
<mgrwt>
<rscale>  0 0.14552013E+04</rscale>
<asrwt>0</asrwt>
<pdfrwt beam="1">  1        2 0.13767134E+00 0.14552013E+04</pdfrwt>
<pdfrwt beam="2">  1       -2 0.91015617E-01 0.14552013E+04</pdfrwt>
<totfact> 0.29513953E+01</totfact>
</mgrwt>
</event>
<event>
12    1  0.1599266E-007  0.1557780E+04  0.7818608E-02  0.8846914E-01
         -2   -1    0    0    0  501 -0.00000000000E+00  0.00000000000E+00  0.13999494206E+04  0.13999494206E+04  0.00000000000E+00 0.  1.
          2   -1    0    0  501    0  0.00000000000E+00 -0.00000000000E+00 -0.43335099187E+03  0.43335099187E+03  0.00000000000E+00 0. -1.
         23    2    1    2    0    0  0.53993695088E+02 -0.43607953210E+03  0.63883912054E+03  0.78079595708E+03  0.91903358157E+02 0.  0.
        254    2    1    2    0    0 -0.53993695088E+02  0.43607953210E+03  0.32775930818E+03  0.10525044554E+04  0.89847581329E+03 0.  0.
        -24    2    4    4    0    0  0.26149567166E+03  0.33971691586E+02 -0.17906721487E+03  0.32873565488E+03  0.80423884649E+02 0.  0.
         24    2    4    4    0    0 -0.31548936675E+03  0.40210784051E+03  0.50682652305E+03  0.72376880049E+03  0.75788496252E+02 0.  0.
         11    1    3    3    0    0  0.34751006663E+02 -0.45221612702E+02  0.68903125902E+02  0.89444214338E+02  0.00000000000E+00 0. -1.
        -11    1    3    3    0    0  0.19242688425E+02 -0.39085791939E+03  0.56993599464E+03  0.69135174274E+03  0.00000000000E+00 0.  1.
          4    1    6    6  502    0 -0.13426627761E+03  0.23239771168E+03  0.26067638466E+03  0.37415011321E+03  0.00000000000E+00 0. -1.
          3    1    5    5  503    0  0.11004378032E+03 -0.34426204679E+01 -0.11750169133E+03  0.16102214969E+03  0.00000000000E+00 0. -1.
         -4    1    5    5    0  503  0.15145189134E+03  0.37414312054E+02 -0.61565523537E+02  0.16771350520E+03  0.00000000000E+00 0.  1.
         -3    1    6    6    0  502 -0.18122308914E+03  0.16971012883E+03  0.24615013839E+03  0.34961868728E+03  0.00000000000E+00 0.  1.
<mgrwt>
<rscale>  0 0.15577798E+04</rscale>
<asrwt>0</asrwt>
<pdfrwt beam="1">  1        2 0.66669384E-01 0.15577798E+04</pdfrwt>
<pdfrwt beam="2">  1       -2 0.21537683E+00 0.15577798E+04</pdfrwt>
<totfact> 0.73820844E+00</totfact>
</mgrwt>
</event>
<event>
12    1  0.1599266E-007  0.2082330E+04  0.7818608E-02  0.8569067E-01
         -1   -1    0    0    0  501 -0.00000000000E+00  0.00000000000E+00  0.63864506068E+03  0.63864506068E+03  0.00000000000E+00 0. -1.
          1   -1    0    0  501    0  0.00000000000E+00 -0.00000000000E+00 -0.16973814340E+04  0.16973814340E+04  0.00000000000E+00 0.  1.
         23    2    1    2    0    0 -0.69277827505E+03  0.40987137125E+03 -0.71613330557E+03  0.10812271355E+04  0.90933645586E+02 0.  0.
        254    2    1    2    0    0  0.69277827505E+03 -0.40987137125E+03 -0.34260306779E+03  0.12547993592E+04  0.89956005381E+03 0.  0.
        -24    2    4    4    0    0  0.80163300943E+03 -0.20574728713E+03 -0.49401722763E+03  0.96721581771E+03  0.80659710266E+02 0.  0.
         24    2    4    4    0    0 -0.10885473438E+03 -0.20412408412E+03  0.15141415984E+03  0.28758354148E+03  0.79133119585E+02 0.  0.
         13    1    3    3    0    0 -0.10018442159E+03  0.40558132885E+02 -0.62913948728E+02  0.12506016718E+03  0.00000000000E+00 0. -1.
        -13    1    3    3    0    0 -0.59259385346E+03  0.36931323836E+03 -0.65321935684E+03  0.95616696834E+03  0.00000000000E+00 0.  1.
          4    1    6    6  502    0  0.11053671074E+02 -0.84212004847E+01  0.28625972449E+01  0.14187837214E+02  0.00000000000E+00 0. -1.
          3    1    5    5  503    0  0.49572682214E+03 -0.16256586415E+03 -0.28844324820E+03  0.59613106764E+03  0.00000000000E+00 0. -1.
         -4    1    5    5    0  503  0.30590618729E+03 -0.43181422979E+02 -0.20557397943E+03  0.37108475007E+03  0.00000000000E+00 0.  1.
         -3    1    6    6    0  502 -0.11990840546E+03 -0.19570288364E+03  0.14855156259E+03  0.27339570427E+03  0.00000000000E+00 0.  1.
<mgrwt>
<rscale>  0 0.20823297E+04</rscale>
<asrwt>0</asrwt>
<pdfrwt beam="1">  1        1 0.26113560E+00 0.20823297E+04</pdfrwt>
<pdfrwt beam="2">  1       -1 0.98253088E-01 0.20823297E+04</pdfrwt>
<totfact> 0.43733517E+00</totfact>
</mgrwt>
</event>
<event>
12    1  0.1599266E-007  0.2163433E+04  0.7818608E-02  0.8533804E-01
         -2   -1    0    0    0  501 -0.00000000000E+00  0.00000000000E+00  0.89157684509E+03  0.89157684509E+03  0.00000000000E+00 0.  1.
          2   -1    0    0  501    0  0.00000000000E+00 -0.00000000000E+00 -0.13124055277E+04  0.13124055277E+04  0.00000000000E+00 0. -1.
         23    2    1    2    0    0 -0.59068700528E+03  0.67592564771E+03 -0.65202425210E+02  0.90446084160E+03  0.89506638358E+02 0.  0.
        254    2    1    2    0    0  0.59068700528E+03 -0.67592564771E+03 -0.35562625737E+03  0.12995215312E+04  0.86976982908E+03 0.  0.
        -24    2    4    4    0    0 -0.13329254786E-01  0.17311802360E+03  0.29598081423E+02  0.19311696489E+03  0.80301092357E+02 0.  0.
         24    2    4    4    0    0  0.59070033453E+03 -0.84904367131E+03 -0.38522433880E+03  0.11064045663E+04  0.77014492428E+02 0.  0.
         11    1    3    3    0    0 -0.28244193514E+02  0.15853956339E+02 -0.15311954660E+02  0.35826503518E+02  0.00000000000E+00 0. -1.
        -11    1    3    3    0    0 -0.56244281176E+03  0.66007169137E+03 -0.49890470551E+02  0.86863433809E+03  0.00000000000E+00 0.  1.
          2    1    6    6  502    0  0.55650016936E+03 -0.82271963050E+03 -0.36042953879E+03  0.10566311946E+04  0.00000000000E+00 0. -1.
          1    1    5    5  503    0 -0.34083813977E+02  0.12123443585E+03  0.40642728899E+01  0.12600005209E+03  0.00000000000E+00 0. -1.
         -4    1    5    5    0  503  0.34070484722E+02  0.51883587746E+02  0.25533808533E+02  0.67116912807E+02  0.00000000000E+00 0.  1.
         -1    1    6    6    0  502  0.34200165172E+02 -0.26324040804E+02 -0.24794800006E+02  0.49773371690E+02  0.00000000000E+00 0.  1.
<mgrwt>
<rscale>  0 0.21634328E+04</rscale>
<asrwt>0</asrwt>
<pdfrwt beam="1">  1        2 0.20190854E+00 0.21634328E+04</pdfrwt>
<pdfrwt beam="2">  1       -2 0.13716567E+00 0.21634328E+04</pdfrwt>
<totfact> 0.56459675E+00</totfact>
</mgrwt>
</event>
<event>
12    1  0.1599266E-007  0.1779469E+04  0.7818608E-02  0.8717295E-01
          2   -1    0    0  501    0  0.00000000000E+00  0.00000000000E+00  0.20734634666E+04  0.20734634666E+04  0.00000000000E+00 0. -1.
         -2   -1    0    0    0  501 -0.00000000000E+00 -0.00000000000E+00 -0.38178975077E+03  0.38178975077E+03  0.00000000000E+00 0.  1.
         23    2    1    2    0    0 -0.16625112949E+03  0.59577473622E+03  0.43633575075E+03  0.76241704912E+03  0.91125710001E+02 0.  0.
        254    2    1    2    0    0  0.16625112949E+03 -0.59577473622E+03  0.12553379651E+04  0.16928361683E+04  0.95248827373E+03 0.  0.
        -24    2    4    4    0    0  0.11578593050E+02 -0.23731136763E+03 -0.10739914373E+03  0.27298062262E+03  0.80827564772E+02 0.  0.
         24    2    4    4    0    0  0.15467253644E+03 -0.35846336859E+03  0.13627371088E+04  0.14198555456E+04  0.80732661200E+02 0.  0.
         11    1    3    3    0    0 -0.13412141314E+03  0.53167334990E+03  0.35141552132E+03  0.65127411516E+03  0.00000000000E+00 0.  1.
        -11    1    3    3    0    0 -0.32129716357E+02  0.64101386322E+02  0.84920229431E+02  0.11114293396E+03  0.00000000000E+00 0. -1.
          4    1    6    6  502    0  0.11029510545E+03 -0.16548406207E+03  0.74986561962E+03  0.77578890981E+03  0.00000000000E+00 0. -1.
          3    1    5    5  503    0 -0.11988969942E+02 -0.22237356955E+03 -0.99968138929E+02  0.24410524090E+03  0.00000000000E+00 0. -1.
         -4    1    5    5    0  503  0.23567562991E+02 -0.14937798076E+02 -0.74310048065E+01  0.28875381714E+02  0.00000000000E+00 0.  1.
         -3    1    6    6    0  502  0.44377430998E+02 -0.19297930652E+03  0.61287148919E+03  0.64406663583E+03  0.00000000000E+00 0.  1.
<mgrwt>
<rscale>  0 0.17794686E+04</rscale>
<asrwt>0</asrwt>
<pdfrwt beam="1">  1        2 0.31899437E+00 0.17794686E+04</pdfrwt>
<pdfrwt beam="2">  1       -2 0.58736886E-01 0.17794686E+04</pdfrwt>
<totfact> 0.15576592E+01</totfact>
</mgrwt>
</event>
<event>
12    1  0.1599266E-007  0.1810165E+04  0.7818608E-02  0.8700912E-01
         -2   -1    0    0    0  501 -0.00000000000E+00  0.00000000000E+00  0.26928875369E+04  0.26928875369E+04  0.00000000000E+00 0.  1.
          2   -1    0    0  501    0  0.00000000000E+00 -0.00000000000E+00 -0.30419932388E+03  0.30419932388E+03  0.00000000000E+00 0. -1.
         23    2    1    2    0    0 -0.32399679322E+03 -0.70742829706E+02  0.18858108786E+04  0.19159236886E+04  0.67100229251E+02 0.  0.
        254    2    1    2    0    0  0.32399679322E+03  0.70742829706E+02  0.50287733443E+03  0.10811631722E+04  0.89780271855E+03 0.  0.
        -24    2    4    4    0    0 -0.14877859129E+03  0.35779183230E+03  0.24789369211E+03  0.46684315795E+03  0.79631570696E+02 0.  0.
         24    2    4    4    0    0  0.47277538451E+03 -0.28704900260E+03  0.25498364233E+03  0.61432001424E+03  0.80366211498E+02 0.  0.
         11    1    3    3    0    0 -0.23017554021E+03 -0.39579599002E+02  0.11478005458E+04  0.11713212271E+04  0.00000000000E+00 0.  1.
        -11    1    3    3    0    0 -0.93821253008E+02 -0.31163230703E+02  0.73801033278E+03  0.74460246155E+03  0.00000000000E+00 0. -1.
          4    1    6    6  502    0  0.62868683841E+02 -0.16752399149E+02  0.10808619379E+02  0.65954079010E+02  0.00000000000E+00 0. -1.
          1    1    5    5  503    0 -0.31494096086E+02  0.20070681928E+02  0.15455425532E+02  0.40417577113E+02  0.00000000000E+00 0. -1.
         -2    1    5    5    0  503 -0.11728449521E+03  0.33772115037E+03  0.23243826657E+03  0.42642558084E+03  0.00000000000E+00 0.  1.
         -3    1    6    6    0  502  0.40990670067E+03 -0.27029660345E+03  0.24417502295E+03  0.54836593523E+03  0.00000000000E+00 0.  1.
<mgrwt>
<rscale>  0 0.18101653E+04</rscale>
<asrwt>0</asrwt>
<pdfrwt beam="1">  1        2 0.46799898E-01 0.18101653E+04</pdfrwt>
<pdfrwt beam="2">  1       -2 0.41429037E+00 0.18101653E+04</pdfrwt>
<totfact> 0.61258617E-01</totfact>
</mgrwt>
</event>
<event>
12    1  0.1599266E-007  0.1462146E+04  0.7818608E-02  0.8910023E-01
          1   -1    0    0  501    0  0.00000000000E+00  0.00000000000E+00  0.72746155468E+03  0.72746155468E+03  0.00000000000E+00 0. -1.
         -1   -1    0    0    0  501 -0.00000000000E+00 -0.00000000000E+00 -0.73470253628E+03  0.73470253628E+03  0.00000000000E+00 0.  1.
         23    2    1    2    0    0  0.51785103510E+02 -0.36366999794E+03  0.24704231905E+03  0.45231338359E+03  0.92843552458E+02 0.  0.
        254    2    1    2    0    0 -0.51785103510E+02  0.36366999794E+03 -0.25428330065E+03  0.10098507074E+04  0.90564942988E+03 0.  0.
        -24    2    4    4    0    0 -0.35603563165E+03 -0.12309772984E+03 -0.17942033296E+03  0.42533890972E+03  0.82505212826E+02 0.  0.
         24    2    4    4    0    0  0.30425052814E+03  0.48676772778E+03 -0.74862967692E+02  0.58451179765E+03  0.80860206433E+02 0.  0.
         13    1    3    3    0    0  0.71347655000E+02 -0.26818724558E+03  0.15310638745E+03  0.31694865900E+03  0.00000000000E+00 0.  1.
        -13    1    3    3    0    0 -0.19562551490E+02 -0.95482752354E+02  0.93935931596E+02  0.13536472459E+03  0.00000000000E+00 0. -1.
          2    1    6    6  502    0  0.19042434333E+03  0.26227772679E+03 -0.75583946048E+02  0.33281221342E+03  0.00000000000E+00 0. -1.
          3    1    5    5  503    0 -0.22822587940E+03 -0.86024735596E+02 -0.71969956727E+02  0.25429703465E+03  0.00000000000E+00 0. -1.
         -4    1    5    5    0  503 -0.12780975225E+03 -0.37072994247E+02 -0.10745037623E+03  0.17104187506E+03  0.00000000000E+00 0.  1.
         -1    1    6    6    0  502  0.11382618481E+03  0.22449000099E+03  0.72097835605E+00  0.25169958423E+03  0.00000000000E+00 0.  1.
<mgrwt>
<rscale>  0 0.14621462E+04</rscale>
<asrwt>0</asrwt>
<pdfrwt beam="1">  1        1 0.11191716E+00 0.14621462E+04</pdfrwt>
<pdfrwt beam="2">  1       -1 0.11303116E+00 0.14621462E+04</pdfrwt>
<totfact> 0.17833805E+01</totfact>
</mgrwt>
</event>
<event>
12    1  0.1599266E-007  0.1637283E+04  0.7818608E-02  0.8797966E-01
          2   -1    0    0  501    0  0.00000000000E+00  0.00000000000E+00  0.11724208421E+04  0.11724208421E+04  0.00000000000E+00 0. -1.
         -2   -1    0    0    0  501 -0.00000000000E+00 -0.00000000000E+00 -0.57161521820E+03  0.57161521820E+03  0.00000000000E+00 0.  1.
         23    2    1    2    0    0 -0.22405772375E+03 -0.23628079928E+03  0.70589576114E+03  0.78286709810E+03  0.92528849622E+02 0.  0.
        254    2    1    2    0    0  0.22405772375E+03  0.23628079928E+03 -0.10509013719E+03  0.96116896224E+03  0.89820451867E+03 0.  0.
        -24    2    4    4    0    0 -0.12794821822E+03 -0.34169518462E+01  0.32025922835E+03  0.35417463868E+03  0.80568475451E+02 0.  0.
         24    2    4    4    0    0  0.35200594197E+03  0.23969775113E+03 -0.42534936554E+03  0.60699432356E+03  0.78465476369E+02 0.  0.
         13    1    3    3    0    0 -0.22541163462E+03 -0.24302988181E+03  0.68781685781E+03  0.76352207457E+03  0.00000000000E+00 0. -1.
        -13    1    3    3    0    0  0.13539108677E+01  0.67490825299E+01  0.18078903334E+02  0.19345023531E+02  0.00000000000E+00 0.  1.
          4    1    6    6  502    0  0.54907815921E+01 -0.41856090406E+01 -0.17731271139E+02  0.19028031473E+02  0.00000000000E+00 0. -1.
          1    1    5    5  503    0 -0.39099555542E+02  0.36442192617E+02  0.12623598980E+03  0.13708513328E+03  0.00000000000E+00 0. -1.
         -2    1    5    5    0  503 -0.88848662681E+02 -0.39859144463E+02  0.19402323855E+03  0.21708950540E+03  0.00000000000E+00 0.  1.
         -3    1    6    6    0  502  0.34651516038E+03  0.24388336017E+03 -0.40761809441E+03  0.58796629208E+03  0.00000000000E+00 0.  1.
<mgrwt>
<rscale>  0 0.16372826E+04</rscale>
<asrwt>0</asrwt>
<pdfrwt beam="1">  1        2 0.18037244E+00 0.16372826E+04</pdfrwt>
<pdfrwt beam="2">  1       -2 0.87940803E-01 0.16372826E+04</pdfrwt>
<totfact> 0.20976922E+01</totfact>
</mgrwt>
</event>
<event>
12    1  0.1599266E-007  0.1653825E+04  0.7818608E-02  0.8788147E-01
         -2   -1    0    0    0  501 -0.00000000000E+00  0.00000000000E+00  0.71096783676E+03  0.71096783676E+03  0.00000000000E+00 0.  1.
          2   -1    0    0  501    0  0.00000000000E+00 -0.00000000000E+00 -0.96176589202E+03  0.96176589202E+03  0.00000000000E+00 0. -1.
         23    2    1    2    0    0 -0.17483052482E+03 -0.24084715086E+03  0.36000283041E+03  0.47865088054E+03  0.10455412502E+03 0.  0.
        254    2    1    2    0    0  0.17483052482E+03  0.24084715086E+03 -0.61080088566E+03  0.11940828482E+04  0.98192823773E+03 0.  0.
        -24    2    4    4    0    0 -0.27406857110E+03 -0.20815252049E+03 -0.79092306119E+02  0.36194598605E+03  0.79424495461E+02 0.  0.
         24    2    4    4    0    0  0.44889909592E+03  0.44899967135E+03 -0.53170857954E+03  0.83213686219E+03  0.81404180895E+02 0.  0.
         13    1    3    3    0    0 -0.14029907920E+03 -0.11093599225E+03  0.17749088486E+03  0.25197944402E+03  0.00000000000E+00 0. -1.
        -13    1    3    3    0    0 -0.34531445619E+02 -0.12991115862E+03  0.18251194555E+03  0.22667143653E+03  0.00000000000E+00 0.  1.
          2    1    6    6  502    0  0.21987120071E+02  0.66966431217E+01 -0.72857405865E+01  0.24111418333E+02  0.00000000000E+00 0. -1.
          3    1    5    5  503    0 -0.78993239689E+01 -0.21770405293E+02  0.96794690600E+01  0.25100637185E+02  0.00000000000E+00 0. -1.
         -4    1    5    5    0  503 -0.26616924713E+03 -0.18638211519E+03 -0.88771775179E+02  0.33684534886E+03  0.00000000000E+00 0.  1.
         -1    1    6    6    0  502  0.42691197585E+03  0.44230302823E+03 -0.52442283896E+03  0.80802544386E+03  0.00000000000E+00 0.  1.
<mgrwt>
<rscale>  0 0.16538254E+04</rscale>
<asrwt>0</asrwt>
<pdfrwt beam="1">  1        2 0.14796398E+00 0.16538254E+04</pdfrwt>
<pdfrwt beam="2">  1       -2 0.10937967E+00 0.16538254E+04</pdfrwt>
<totfact> 0.16967127E+01</totfact>
</mgrwt>
</event>
<event>
12    1  0.1599266E-007  0.2075635E+04  0.7818608E-02  0.8572053E-01
          2   -1    0    0  501    0  0.00000000000E+00  0.00000000000E+00  0.25736409770E+04  0.25736409770E+04  0.00000000000E+00 0. -1.
         -2   -1    0    0    0  501 -0.00000000000E+00 -0.00000000000E+00 -0.41849875596E+03  0.41849875596E+03  0.00000000000E+00 0.  1.
         23    2    1    2    0    0  0.10840040103E+03 -0.55832980019E+03 -0.12545477967E+02  0.57621513060E+03  0.91562410356E+02 0.  0.
        254    2    1    2    0    0 -0.10840040103E+03  0.55832980019E+03  0.21676876990E+04  0.24159246023E+04  0.90240728670E+03 0.  0.
        -24    2    4    4    0    0 -0.41716421448E+03  0.47981396587E+03  0.89111821427E+03  0.10975791294E+04  0.79629452998E+02 0.  0.
         24    2    4    4    0    0  0.30876381344E+03  0.78515834318E+02  0.12765694847E+04  0.13183454729E+04  0.83098182829E+02 0.  0.
         13    1    3    3    0    0  0.11015855190E+03 -0.48748609758E+03 -0.37257693507E+02  0.50116438183E+03  0.00000000000E+00 0. -1.
        -13    1    3    3    0    0 -0.17581508657E+01 -0.70843702617E+02  0.24712215539E+02  0.75050748776E+02  0.00000000000E+00 0.  1.
          2    1    6    6  502    0  0.25452352458E+03  0.77230229826E+02  0.11548004999E+04  0.11850362558E+04  0.00000000000E+00 0. -1.
          1    1    5    5  503    0 -0.33491359683E+03  0.42038610038E+03  0.71766099576E+03  0.89662082039E+03  0.00000000000E+00 0. -1.
         -2    1    5    5    0  503 -0.82250617653E+02  0.59427865493E+02  0.17345721852E+03  0.20095830900E+03  0.00000000000E+00 0.  1.
         -1    1    6    6    0  502  0.54240288860E+02  0.12856044924E+01  0.12176898478E+03  0.13330921712E+03  0.00000000000E+00 0.  1.
<mgrwt>
<rscale>  0 0.20756354E+04</rscale>
<asrwt>0</asrwt>
<pdfrwt beam="1">  1        2 0.39594476E+00 0.20756354E+04</pdfrwt>
<pdfrwt beam="2">  1       -2 0.64384425E-01 0.20756354E+04</pdfrwt>
<totfact> 0.64919411E+00</totfact>
</mgrwt>
</event>
<event>
12    1  0.1599266E-007  0.3366661E+04  0.7818608E-02  0.8146138E-01
          2   -1    0    0  501    0  0.00000000000E+00  0.00000000000E+00  0.13180114154E+04  0.13180114154E+04  0.00000000000E+00 0.  1.
         -2   -1    0    0    0  501 -0.00000000000E+00 -0.00000000000E+00 -0.21499067853E+04  0.21499067853E+04  0.00000000000E+00 0. -1.
         23    2    1    2    0    0 -0.12012986664E+04 -0.25154449133E+03 -0.14013188737E+04  0.18651564527E+04  0.93385706814E+02 0.  0.
        254    2    1    2    0    0  0.12012986664E+04  0.25154449133E+03  0.56942350379E+03  0.16027617481E+04  0.85919088540E+03 0.  0.
        -24    2    4    4    0    0  0.55152304383E+03  0.53550232832E+03  0.19475578861E+03  0.79693052533E+03  0.78917890806E+02 0.  0.
         24    2    4    4    0    0  0.64977562256E+03 -0.28395783699E+03  0.37466771518E+03  0.80583122278E+03  0.78406950944E+02 0.  0.
         13    1    3    3    0    0 -0.77490105499E+02 -0.26715831713E+01 -0.62703238600E+02  0.99717350235E+02  0.00000000000E+00 0.  1.
        -13    1    3    3    0    0 -0.11238085609E+04 -0.24887290816E+03 -0.13386156351E+04  0.17654391024E+04  0.00000000000E+00 0. -1.
          4    1    6    6  502    0  0.39762987542E+03 -0.20839180164E+03  0.21271452422E+03  0.49677372076E+03  0.00000000000E+00 0. -1.
          1    1    5    5  503    0  0.47997527676E+03  0.49687961223E+03  0.18390188989E+03  0.71490245520E+03  0.00000000000E+00 0. -1.
         -2    1    5    5    0  503  0.71547767067E+02  0.38622716090E+02  0.10853898720E+02  0.82028070122E+02  0.00000000000E+00 0.  1.
         -3    1    6    6    0  502  0.25214574714E+03 -0.75566035344E+02  0.16195319096E+03  0.30905750203E+03  0.00000000000E+00 0.  1.
<mgrwt>
<rscale>  0 0.33666611E+04</rscale>
<asrwt>0</asrwt>
<pdfrwt beam="1">  1        2 0.20277099E+00 0.33666611E+04</pdfrwt>
<pdfrwt beam="2">  1       -2 0.33075489E+00 0.33666611E+04</pdfrwt>
<totfact> 0.27518837E-01</totfact>
</mgrwt>
</event>
<event>
12    1  0.1599266E-007  0.1321471E+04  0.7818608E-02  0.9012710E-01
         -1   -1    0    0    0  501 -0.00000000000E+00  0.00000000000E+00  0.19931086187E+04  0.19931086187E+04  0.00000000000E+00 0.  1.
          1   -1    0    0  501    0  0.00000000000E+00 -0.00000000000E+00 -0.21904033865E+03  0.21904033865E+03  0.00000000000E+00 0. -1.
         23    2    1    2    0    0 -0.57105868500E+02  0.16762331535E+03  0.10199425289E+04  0.10395091618E+04  0.94540357808E+02 0.  0.
        254    2    1    2    0    0  0.57105868500E+02 -0.16762331535E+03  0.75412575117E+03  0.11726397955E+04  0.88035208034E+03 0.  0.
        -24    2    4    4    0    0  0.42129986091E+03 -0.22654703067E+03  0.25740045352E+03  0.54886299708E+03  0.78603219914E+02 0.  0.
         24    2    4    4    0    0 -0.36419399241E+03  0.58923715319E+02  0.49672529765E+03  0.62377679843E+03  0.79070883425E+02 0.  0.
         11    1    3    3    0    0 -0.46628976528E+02  0.16171765075E+03  0.10099357142E+04  0.10238637638E+04  0.00000000000E+00 0.  1.
        -11    1    3    3    0    0 -0.10476891972E+02  0.59056646057E+01  0.10006814710E+02  0.15645398060E+02  0.00000000000E+00 0. -1.
          2    1    6    6  502    0 -0.34951846617E+03  0.71952706058E+02  0.46054139956E+03  0.58261370634E+03  0.00000000000E+00 0. -1.
          1    1    5    5  503    0  0.21938390450E+03 -0.10585003697E+03  0.88069789719E+02  0.25901701824E+03  0.00000000000E+00 0. -1.
         -2    1    5    5    0  503  0.20191595641E+03 -0.12069699370E+03  0.16933066380E+03  0.28984597883E+03  0.00000000000E+00 0.  1.
         -3    1    6    6    0  502 -0.14675526239E+02 -0.13028990738E+02  0.36183898088E+02  0.41163092096E+02  0.00000000000E+00 0.  1.
<mgrwt>
<rscale>  0 0.13214707E+04</rscale>
<asrwt>0</asrwt>
<pdfrwt beam="1">  1        1 0.33698515E-01 0.13214707E+04</pdfrwt>
<pdfrwt beam="2">  1       -1 0.30663208E+00 0.13214707E+04</pdfrwt>
<totfact> 0.38953290E+00</totfact>
</mgrwt>
</event>
<event>
12    1  0.1599266E-007  0.1432121E+04  0.7818608E-02  0.8930890E-01
         -2   -1    0    0    0  501 -0.00000000000E+00  0.00000000000E+00  0.39816065119E+03  0.39816065119E+03  0.00000000000E+00 0.  1.
          2   -1    0    0  501    0  0.00000000000E+00 -0.00000000000E+00 -0.12877785236E+04  0.12877785236E+04  0.00000000000E+00 0. -1.
         23    2    1    2    0    0 -0.38352764377E+03 -0.64423531332E+02 -0.12371279572E+03  0.41892186704E+03  0.94587683830E+02 0.  0.
        254    2    1    2    0    0  0.38352764377E+03  0.64423531332E+02 -0.76590507667E+03  0.12670173077E+04  0.93138521928E+03 0.  0.
        -24    2    4    4    0    0 -0.23229551051E+03  0.12248954072E+03 -0.53704532991E+03  0.60274823855E+03  0.76960125437E+02 0.  0.
         24    2    4    4    0    0  0.61582315428E+03 -0.58066009385E+02 -0.22885974677E+03  0.66426906919E+03  0.79163083535E+02 0.  0.
         11    1    3    3    0    0 -0.34024499603E+03 -0.62261413202E+02 -0.75394133909E+02  0.35401612439E+03  0.00000000000E+00 0.  1.
        -11    1    3    3    0    0 -0.43282647743E+02 -0.21621181304E+01 -0.48318661808E+02  0.64905742653E+02  0.00000000000E+00 0. -1.
          2    1    6    6  502    0  0.64220482226E+02  0.11738896966E+02 -0.42354105241E+02  0.77819934914E+02  0.00000000000E+00 0. -1.
          1    1    5    5  503    0 -0.19874825043E+02 -0.26397404361E+01 -0.90231863107E+02  0.92432494394E+02  0.00000000000E+00 0. -1.
         -2    1    5    5    0  503 -0.21242068547E+03  0.12512928115E+03 -0.44681346680E+03  0.51031574415E+03  0.00000000000E+00 0.  1.
         -1    1    6    6    0  502  0.55160267206E+03 -0.69804906351E+02 -0.18650564153E+03  0.58644913427E+03  0.00000000000E+00 0.  1.
<mgrwt>
<rscale>  0 0.14321211E+04</rscale>
<asrwt>0</asrwt>
<pdfrwt beam="1">  1        2 0.19811978E+00 0.14321211E+04</pdfrwt>
<pdfrwt beam="2">  1       -2 0.61255484E-01 0.14321211E+04</pdfrwt>
<totfact> 0.40446917E+01</totfact>
</mgrwt>
</event>
<event>
12    1  0.1599266E-007  0.2250141E+04  0.7818608E-02  0.8497843E-01
         -2   -1    0    0    0  501 -0.00000000000E+00  0.00000000000E+00  0.49616973472E+03  0.49616973472E+03  0.00000000000E+00 0.  1.
          2   -1    0    0  501    0  0.00000000000E+00 -0.00000000000E+00 -0.25511102643E+04  0.25511102643E+04  0.00000000000E+00 0. -1.
         23    2    1    2    0    0  0.19918710478E+03 -0.11583145514E+03  0.37127668017E+03  0.44979277877E+03  0.10665243498E+03 0.  0.
        254    2    1    2    0    0 -0.19918710478E+03  0.11583145514E+03 -0.24262172097E+04  0.25974872202E+04  0.89850847616E+03 0.  0.
        -24    2    4    4    0    0 -0.15356854918E+03  0.19709209141E+03 -0.24596217140E+04  0.24735342846E+04  0.78767311875E+02 0.  0.
         24    2    4    4    0    0 -0.45618555605E+02 -0.81260636273E+02  0.33404504283E+02  0.12395293559E+03  0.74593067457E+02 0.  0.
         11    1    3    3    0    0  0.21060362619E+03 -0.10631865106E+03  0.32796877490E+03  0.40400626262E+03  0.00000000000E+00 0.  1.
        -11    1    3    3    0    0 -0.11416521408E+02 -0.95128040769E+01  0.43307905263E+02  0.45786516145E+02  0.00000000000E+00 0. -1.
          4    1    6    6  502    0 -0.19910547807E+02 -0.14072242626E+02  0.44908473757E+02  0.51100185339E+02  0.00000000000E+00 0. -1.
          3    1    5    5  503    0 -0.15886402692E+03  0.17986836690E+03 -0.21418649458E+04  0.21552670031E+04  0.00000000000E+00 0. -1.
         -4    1    5    5    0  503  0.52954777463E+01  0.17223724506E+02 -0.31775676822E+03  0.31826728158E+03  0.00000000000E+00 0.  1.
         -3    1    6    6    0  502 -0.25708007798E+02 -0.67188393647E+02 -0.11503969474E+02  0.72852750253E+02  0.00000000000E+00 0.  1.
<mgrwt>
<rscale>  0 0.22501411E+04</rscale>
<asrwt>0</asrwt>
<pdfrwt beam="1">  1        2 0.39247849E+00 0.22501411E+04</pdfrwt>
<pdfrwt beam="2">  1       -2 0.76333807E-01 0.22501411E+04</pdfrwt>
<totfact> 0.45438513E+00</totfact>
</mgrwt>
</event>
<event>
12    1  0.1599266E-007  0.1408270E+04  0.7818608E-02  0.8947854E-01
         -3   -1    0    0    0  501 -0.00000000000E+00  0.00000000000E+00  0.28595967184E+03  0.28595967184E+03  0.00000000000E+00 0.  1.
          3   -1    0    0  501    0  0.00000000000E+00 -0.00000000000E+00 -0.17338321067E+04  0.17338321067E+04  0.00000000000E+00 0. -1.
         23    2    1    2    0    0 -0.36042356606E+03 -0.13329780589E+03 -0.22924215378E+03  0.45671854280E+03  0.91468083154E+02 0.  0.
        254    2    1    2    0    0  0.36042356606E+03  0.13329780589E+03 -0.12186302811E+04  0.15630732357E+04  0.90025814425E+03 0.  0.
        -24    2    4    4    0    0  0.64038348044E+03  0.16292124918E+02 -0.67101689166E+03  0.93108404289E+03  0.79356100431E+02 0.  0.
         24    2    4    4    0    0 -0.27995991438E+03  0.11700568097E+03 -0.54761338942E+03  0.63198919285E+03  0.86383057177E+02 0.  0.
         13    1    3    3    0    0 -0.31279861149E+03 -0.11908089085E+03 -0.23151104628E+03  0.40696510227E+03  0.00000000000E+00 0.  1.
        -13    1    3    3    0    0 -0.47624954570E+02 -0.14216915040E+02  0.22688924963E+01  0.49753440526E+02  0.00000000000E+00 0. -1.
          2    1    6    6  502    0 -0.25499736185E+03  0.74014307959E+02 -0.45180456694E+03  0.52405070274E+03  0.00000000000E+00 0. -1.
          1    1    5    5  503    0  0.57009352460E+03  0.36733950796E+02 -0.61054416798E+03  0.83613407477E+03  0.00000000000E+00 0. -1.
         -2    1    5    5    0  503  0.70289955834E+02 -0.20441825878E+02 -0.60472723678E+02  0.94949968118E+02  0.00000000000E+00 0.  1.
         -1    1    6    6    0  502 -0.24962552530E+02  0.42991373016E+02 -0.95808822473E+02  0.10793849011E+03  0.00000000000E+00 0.  1.
<mgrwt>
<rscale>  0 0.14082699E+04</rscale>
<asrwt>0</asrwt>
<pdfrwt beam="1">  1        3 0.26674340E+00 0.14082699E+04</pdfrwt>
<pdfrwt beam="2">  1       -3 0.43993796E-01 0.14082699E+04</pdfrwt>
<totfact> 0.78020048E-01</totfact>
</mgrwt>
</event>
<event>
12    1  0.1599266E-007  0.2063364E+04  0.7818608E-02  0.8577556E-01
         -1   -1    0    0    0  501 -0.00000000000E+00  0.00000000000E+00  0.33886699863E+03  0.33886699863E+03  0.00000000000E+00 0.  1.
          1   -1    0    0  501    0  0.00000000000E+00 -0.00000000000E+00 -0.31409593652E+04  0.31409593652E+04  0.00000000000E+00 0. -1.
         23    2    1    2    0    0  0.11803811178E+03  0.32002292766E+03 -0.24530840110E+04  0.24782113215E+04  0.86962744201E+02 0.  0.
        254    2    1    2    0    0 -0.11803811178E+03 -0.32002292766E+03 -0.34900835559E+03  0.10016150424E+04  0.87468748177E+03 0.  0.
        -24    2    4    4    0    0 -0.40363158882E+03 -0.18438229912E+03 -0.47231128124E+03  0.65294836665E+03  0.79676416861E+02 0.  0.
         24    2    4    4    0    0  0.28559347705E+03 -0.13564062854E+03  0.12330292565E+03  0.34866667572E+03  0.80017654554E+02 0.  0.
         11    1    3    3    0    0  0.55406868917E+02  0.66804464388E+02 -0.45843345299E+03  0.46657688370E+03  0.00000000000E+00 0.  1.
        -11    1    3    3    0    0  0.62631242860E+02  0.25321846327E+03 -0.19946505580E+04  0.20116344377E+04  0.00000000000E+00 0. -1.
          4    1    6    6  502    0  0.11774201560E+03 -0.98009312681E+02  0.71182132906E+02  0.16892573414E+03  0.00000000000E+00 0. -1.
          1    1    5    5  503    0 -0.16557219651E+03 -0.42077205323E+02 -0.21511807322E+03  0.27470061683E+03  0.00000000000E+00 0. -1.
         -2    1    5    5    0  503 -0.23805939232E+03 -0.14230509380E+03 -0.25719320802E+03  0.37824774982E+03  0.00000000000E+00 0.  1.
         -3    1    6    6    0  502  0.16785146145E+03 -0.37631315858E+02  0.52120792743E+02  0.17974094158E+03  0.00000000000E+00 0.  1.
<mgrwt>
<rscale>  0 0.20633637E+04</rscale>
<asrwt>0</asrwt>
<pdfrwt beam="1">  1        1 0.48322452E+00 0.20633637E+04</pdfrwt>
<pdfrwt beam="2">  1       -1 0.52133384E-01 0.20633637E+04</pdfrwt>
<totfact> 0.16119257E+00</totfact>
</mgrwt>
</event>
<event>
12    1  0.1599266E-007  0.1156779E+04  0.7818608E-02  0.9151552E-01
          2   -1    0    0  501    0  0.00000000000E+00  0.00000000000E+00  0.10825346605E+04  0.10825346605E+04  0.00000000000E+00 0. -1.
         -2   -1    0    0    0  501 -0.00000000000E+00 -0.00000000000E+00 -0.30902878004E+03  0.30902878004E+03  0.00000000000E+00 0.  1.
         23    2    1    2    0    0  0.26403798306E+02 -0.95246878899E+02  0.38471174652E+03  0.40781362314E+03  0.92410469137E+02 0.  0.
        254    2    1    2    0    0 -0.26403798306E+02  0.95246878899E+02  0.38879413397E+03  0.98374981743E+03  0.89823921990E+03 0.  0.
        -24    2    4    4    0    0 -0.19762241531E+03 -0.12933128890E+03  0.58167820515E+03  0.63281941600E+03  0.79559270963E+02 0.  0.
         24    2    4    4    0    0  0.17121861700E+03  0.22457816780E+03 -0.19288407118E+03  0.35093040143E+03  0.78719206513E+02 0.  0.
         13    1    3    3    0    0  0.32767857287E+02  0.59389788869E+01  0.11289804324E+03  0.11770714553E+03  0.00000000000E+00 0. -1.
        -13    1    3    3    0    0 -0.63640589807E+01 -0.10118585779E+03  0.27181370328E+03  0.29010647761E+03  0.00000000000E+00 0.  1.
          2    1    6    6  502    0  0.14540215712E+03  0.22404674289E+03 -0.17159747483E+03  0.31746562596E+03  0.00000000000E+00 0. -1.
          1    1    5    5  503    0 -0.87349459955E+02 -0.11947527190E+02  0.20466529579E+03  0.22284648272E+03  0.00000000000E+00 0. -1.
         -2    1    5    5    0  503 -0.11027295535E+03 -0.11738376171E+03  0.37701290936E+03  0.40997293328E+03  0.00000000000E+00 0.  1.
         -1    1    6    6    0  502  0.25816459886E+02  0.53142490364E+00 -0.21286596347E+02  0.33464775474E+02  0.00000000000E+00 0.  1.
<mgrwt>
<rscale>  0 0.11567789E+04</rscale>
<asrwt>0</asrwt>
<pdfrwt beam="1">  1        2 0.16654379E+00 0.11567789E+04</pdfrwt>
<pdfrwt beam="2">  1       -2 0.47542890E-01 0.11567789E+04</pdfrwt>
<totfact> 0.92626061E+01</totfact>
</mgrwt>
</event>
<event>
12    1  0.1599266E-007  0.1626386E+04  0.7818608E-02  0.8804500E-01
         -1   -1    0    0    0  501 -0.00000000000E+00  0.00000000000E+00  0.69145524131E+03  0.69145524131E+03  0.00000000000E+00 0.  1.
          1   -1    0    0  501    0  0.00000000000E+00 -0.00000000000E+00 -0.95636432093E+03  0.95636432093E+03  0.00000000000E+00 0. -1.
         23    2    1    2    0    0  0.25479772786E+02  0.55448195807E+03 -0.34040673718E+02  0.56536029536E+03  0.10185300909E+03 0.  0.
        254    2    1    2    0    0 -0.25479772786E+02 -0.55448195807E+03 -0.23086840591E+03  0.10824592669E+04  0.90017686205E+03 0.  0.
        -24    2    4    4    0    0  0.31982194317E+03 -0.24440573431E+03  0.18982977087E+03  0.45098250493E+03  0.73004380276E+02 0.  0.
         24    2    4    4    0    0 -0.34530171596E+03 -0.31007622375E+03 -0.42069817677E+03  0.63147676195E+03  0.79971278373E+02 0.  0.
         11    1    3    3    0    0 -0.12942117064E+02  0.11933560603E+02  0.89651851597E+01  0.19755576624E+02  0.00000000000E+00 0. -1.
        -11    1    3    3    0    0  0.38421889850E+02  0.54254839746E+03 -0.43005858877E+02  0.54560471874E+03  0.00000000000E+00 0.  1.
          2    1    6    6  502    0 -0.44601853238E+02 -0.58723745872E+02 -0.35085852010E+02  0.81662847445E+02  0.00000000000E+00 0. -1.
          1    1    5    5  503    0  0.22758644409E+03 -0.20149199387E+03  0.11626857805E+03  0.32544276819E+03  0.00000000000E+00 0. -1.
         -2    1    5    5    0  503  0.92235499081E+02 -0.42913740445E+02  0.73561192816E+02  0.12553973673E+03  0.00000000000E+00 0.  1.
         -1    1    6    6    0  502 -0.30069986272E+03 -0.25135247788E+03 -0.38561232476E+03  0.54981391451E+03  0.00000000000E+00 0.  1.
<mgrwt>
<rscale>  0 0.16263863E+04</rscale>
<asrwt>0</asrwt>
<pdfrwt beam="1">  1        1 0.14713297E+00 0.16263863E+04</pdfrwt>
<pdfrwt beam="2">  1       -1 0.10637773E+00 0.16263863E+04</pdfrwt>
<totfact> 0.12955738E+01</totfact>
</mgrwt>
</event>
<event>
12    1  0.1777170E-007  0.2476711E+04  0.7818608E-02  0.8411330E-01
         -1   -1    0    0    0  501 -0.00000000000E+00  0.00000000000E+00  0.10125177576E+04  0.10125177576E+04  0.00000000000E+00 0.  1.
          1   -1    0    0  501    0  0.00000000000E+00 -0.00000000000E+00 -0.15145649464E+04  0.15145649464E+04  0.00000000000E+00 0. -1.
         23    2    1    2    0    0 -0.47330773927E+03 -0.23190937904E+03 -0.11720806764E+04  0.12883969287E+04  0.91604354350E+02 0.  0.
        254    2    1    2    0    0  0.47330773927E+03  0.23190937904E+03  0.67003348755E+03  0.12386857754E+04  0.89866311797E+03 0.  0.
        -24    2    4    4    0    0  0.73273455734E+03  0.19176007638E+03  0.43577183920E+03  0.87743861588E+03  0.79558597148E+02 0.  0.
         24    2    4    4    0    0 -0.25942681807E+03  0.40149302654E+02  0.23426164836E+03  0.36124715952E+03  0.81894749104E+02 0.  0.
         11    1    3    3    0    0 -0.47398446057E+02 -0.42401756921E+02 -0.20837958100E+03  0.21786824334E+03  0.00000000000E+00 0.  1.
        -11    1    3    3    0    0 -0.42590929321E+03 -0.18950762212E+03 -0.96370109537E+03  0.10705286853E+04  0.00000000000E+00 0. -1.
          4    1    6    6  502    0 -0.23032107386E+03  0.48147554070E+02  0.17011464213E+03  0.29035319094E+03  0.00000000000E+00 0. -1.
          3    1    5    5  503    0  0.70885502754E+03  0.19825384651E+03  0.41411630136E+03  0.84455452682E+03  0.00000000000E+00 0. -1.
         -4    1    5    5    0  503  0.23879529804E+02 -0.64937701291E+01  0.21655537832E+02  0.32884089055E+02  0.00000000000E+00 0.  1.
         -3    1    6    6    0  502 -0.29105744216E+02 -0.79982514168E+01  0.64147006229E+02  0.70893968574E+02  0.00000000000E+00 0.  1.
<mgrwt>
<rscale>  0 0.24767106E+04</rscale>
<asrwt>0</asrwt>
<pdfrwt beam="1">  1        1 0.23300999E+00 0.24767106E+04</pdfrwt>
<pdfrwt beam="2">  1       -1 0.15577196E+00 0.24767106E+04</pdfrwt>
<totfact> 0.17910879E+00</totfact>
</mgrwt>
</event>
<event>
12    1  0.1599266E-007  0.1541962E+04  0.7818608E-02  0.8857019E-01
          2   -1    0    0  501    0  0.00000000000E+00  0.00000000000E+00  0.24189905030E+04  0.24189905030E+04  0.00000000000E+00 0. -1.
         -2   -1    0    0    0  501 -0.00000000000E+00 -0.00000000000E+00 -0.24572710512E+03  0.24572710512E+03  0.00000000000E+00 0.  1.
         23    2    1    2    0    0  0.17193123584E+03 -0.41965947686E+03  0.11774466526E+04  0.12651120667E+04  0.91942891942E+02 0.  0.
        254    2    1    2    0    0 -0.17193123584E+03  0.41965947686E+03  0.99581674527E+03  0.13996055414E+04  0.87267992691E+03 0.  0.
        -24    2    4    4    0    0 -0.49790445604E+03  0.28981669489E+03  0.80342817580E+03  0.99178930191E+03  0.79035572542E+02 0.  0.
         24    2    4    4    0    0  0.32597322020E+03  0.12984278197E+03  0.19238856947E+03  0.40781623944E+03  0.78632278155E+02 0.  0.
         11    1    3    3    0    0  0.30719012942E+02 -0.19105134672E+02  0.12703621349E+03  0.13208657565E+03  0.00000000000E+00 0.  1.
        -11    1    3    3    0    0  0.14121222290E+03 -0.40055434219E+03  0.10504104391E+04  0.11330254911E+04  0.00000000000E+00 0. -1.
          4    1    6    6  502    0  0.21638752611E+03  0.67160902354E+02  0.16033869711E+03  0.27756557072E+03  0.00000000000E+00 0. -1.
          3    1    5    5  503    0 -0.48905273252E+03  0.29396554908E+03  0.78023763750E+03  0.96662251691E+03  0.00000000000E+00 0. -1.
         -4    1    5    5    0  503 -0.88517235218E+01 -0.41488541885E+01  0.23190538300E+02  0.25166784996E+02  0.00000000000E+00 0.  1.
         -3    1    6    6    0  502  0.10958569410E+03  0.62681879619E+02  0.32049872364E+02  0.13025066872E+03  0.00000000000E+00 0.  1.
<mgrwt>
<rscale>  0 0.15419618E+04</rscale>
<asrwt>0</asrwt>
<pdfrwt beam="1">  1        2 0.37215237E+00 0.15419618E+04</pdfrwt>
<pdfrwt beam="2">  1       -2 0.37804172E-01 0.15419618E+04</pdfrwt>
<totfact> 0.24705102E+01</totfact>
</mgrwt>
</event>
<event>
12    1  0.1599266E-007  0.1755985E+04  0.7818608E-02  0.8730063E-01
         -1   -1    0    0    0  501 -0.00000000000E+00  0.00000000000E+00  0.15141951800E+04  0.15141951800E+04  0.00000000000E+00 0.  1.
          1   -1    0    0  501    0  0.00000000000E+00 -0.00000000000E+00 -0.50909598894E+03  0.50909598894E+03  0.00000000000E+00 0. -1.
         23    2    1    2    0    0  0.14136509597E+03  0.58825782297E+03  0.61752251066E+03  0.86923031142E+03  0.90531356287E+02 0.  0.
        254    2    1    2    0    0 -0.14136509597E+03 -0.58825782297E+03  0.38757668039E+03  0.11540608575E+04  0.90311096939E+03 0.  0.
        -24    2    4    4    0    0 -0.14086771562E+02  0.41282506247E+02 -0.23705720548E+03  0.25460895863E+03  0.82017807126E+02 0.  0.
         24    2    4    4    0    0 -0.12727832441E+03 -0.62954032922E+03  0.62463388587E+03  0.89945189890E+03  0.79532566111E+02 0.  0.
         13    1    3    3    0    0  0.71161555674E+01  0.44222086229E+02  0.17090102315E+02  0.47940631802E+02  0.00000000000E+00 0. -1.
        -13    1    3    3    0    0  0.13424894041E+03  0.54403573674E+03  0.60043240835E+03  0.82128967962E+03  0.00000000000E+00 0.  1.
          2    1    6    6  502    0  0.26554953244E+01 -0.18982271415E+02  0.47980281651E+01  0.19758526205E+02  0.00000000000E+00 0. -1.
          3    1    5    5  503    0  0.21261013649E+02 -0.33640689965E+01 -0.17365662387E+02  0.27657076703E+02  0.00000000000E+00 0. -1.
         -2    1    5    5    0  503 -0.35347785211E+02  0.44646575243E+02 -0.21969154310E+03  0.22695188192E+03  0.00000000000E+00 0.  1.
         -1    1    6    6    0  502 -0.12993381974E+03 -0.61055805780E+03  0.61983585771E+03  0.87969337269E+03  0.00000000000E+00 0.  1.
<mgrwt>
<rscale>  0 0.17559848E+04</rscale>
<asrwt>0</asrwt>
<pdfrwt beam="1">  1        1 0.78322461E-01 0.17559848E+04</pdfrwt>
<pdfrwt beam="2">  1       -1 0.23295310E+00 0.17559848E+04</pdfrwt>
<totfact> 0.36942408E+00</totfact>
</mgrwt>
</event>
<event>
12    1  0.1599266E-007  0.1755443E+04  0.7818608E-02  0.8730360E-01
         -1   -1    0    0    0  501 -0.00000000000E+00  0.00000000000E+00  0.24077323618E+04  0.24077323618E+04  0.00000000000E+00 0.  1.
          1   -1    0    0  501    0  0.00000000000E+00 -0.00000000000E+00 -0.31996694348E+03  0.31996694348E+03  0.00000000000E+00 0. -1.
         23    2    1    2    0    0 -0.36987612471E+03 -0.27535730862E+03  0.75527690497E+02  0.47282024036E+03  0.72281066823E+02 0.  0.
        254    2    1    2    0    0  0.36987612471E+03  0.27535730862E+03  0.20122377278E+04  0.22548790649E+04  0.90705508604E+03 0.  0.
        -24    2    4    4    0    0  0.26001808442E+03  0.55042884756E+02  0.57748004445E+02  0.28328309319E+03  0.79217141347E+02 0.  0.
         24    2    4    4    0    0  0.10985804029E+03  0.22031442387E+03  0.19544897234E+04  0.19715959718E+04  0.80952841703E+02 0.  0.
         11    1    3    3    0    0 -0.30661640798E+03 -0.25559478586E+03  0.52278598778E+02  0.40258585183E+03  0.00000000000E+00 0. -1.
        -11    1    3    3    0    0 -0.63259716733E+02 -0.19762522759E+02  0.23249091719E+02  0.70234388534E+02  0.00000000000E+00 0.  1.
          4    1    6    6  502    0  0.31519865546E+02  0.15018408457E+03  0.10957341968E+04  0.11064276710E+04  0.00000000000E+00 0. -1.
          1    1    5    5  503    0  0.17972540160E+02  0.16845964439E+02 -0.13505623199E+02  0.28092713925E+02  0.00000000000E+00 0. -1.
         -2    1    5    5    0  503  0.24204554426E+03  0.38196920317E+02  0.71253627644E+02  0.25519037927E+03  0.00000000000E+00 0.  1.
         -3    1    6    6    0  502  0.78338174746E+02  0.70130339292E+02  0.85875552661E+03  0.86516830074E+03  0.00000000000E+00 0.  1.
<mgrwt>
<rscale>  0 0.17554427E+04</rscale>
<asrwt>0</asrwt>
<pdfrwt beam="1">  1        1 0.49225685E-01 0.17554427E+04</pdfrwt>
<pdfrwt beam="2">  1       -1 0.37042035E+00 0.17554427E+04</pdfrwt>
<totfact> 0.86928804E-01</totfact>
</mgrwt>
</event>
<event>
12    1  0.1599266E-007  0.1455817E+04  0.7818608E-02  0.8914377E-01
         -1   -1    0    0    0  501 -0.00000000000E+00  0.00000000000E+00  0.21302356000E+03  0.21302356000E+03  0.00000000000E+00 0.  1.
          1   -1    0    0  501    0  0.00000000000E+00 -0.00000000000E+00 -0.24872883847E+04  0.24872883847E+04  0.00000000000E+00 0. -1.
         23    2    1    2    0    0 -0.11725332387E+03  0.29718219843E+03 -0.14141125248E+03  0.36074680397E+03  0.89863859373E+02 0.  0.
        254    2    1    2    0    0  0.11725332387E+03 -0.29718219843E+03 -0.21328535722E+04  0.23395651407E+04  0.90688206850E+03 0.  0.
        -24    2    4    4    0    0  0.10061033332E+02 -0.49026779069E+03 -0.55693915466E+03  0.74629091160E+03  0.79405111700E+02 0.  0.
         24    2    4    4    0    0  0.10719229054E+03  0.19308559226E+03 -0.15759144176E+04  0.15932742291E+04  0.79020786251E+02 0.  0.
         13    1    3    3    0    0 -0.12207589063E+03  0.28348715280E+03 -0.15073190431E+03  0.34349322534E+03  0.00000000000E+00 0.  1.
        -13    1    3    3    0    0  0.48225667569E+01  0.13695045626E+02  0.93206518317E+01  0.17253578625E+02  0.00000000000E+00 0. -1.
          2    1    6    6  502    0  0.10068888130E+03  0.11459778625E+03 -0.90694461282E+03  0.91968442096E+03  0.00000000000E+00 0. -1.
          3    1    5    5  503    0 -0.31634032171E+02 -0.30758752605E+03 -0.35621402123E+03  0.47169823732E+03  0.00000000000E+00 0. -1.
         -4    1    5    5    0  503  0.41695065503E+02 -0.18268026464E+03 -0.20072513343E+03  0.27459267427E+03  0.00000000000E+00 0.  1.
         -1    1    6    6    0  502  0.65034092410E+01  0.78487806006E+02 -0.66896980475E+03  0.67358980819E+03  0.00000000000E+00 0.  1.
<mgrwt>
<rscale>  0 0.14558173E+04</rscale>
<asrwt>0</asrwt>
<pdfrwt beam="1">  1        1 0.38265973E+00 0.14558173E+04</pdfrwt>
<pdfrwt beam="2">  1       -1 0.32772857E-01 0.14558173E+04</pdfrwt>
<totfact> 0.11747579E+01</totfact>
</mgrwt>
</event>
<event>
12    1  0.1599266E-007  0.2540824E+04  0.7818608E-02  0.8388584E-01
          1   -1    0    0  501    0  0.00000000000E+00  0.00000000000E+00  0.21954738046E+04  0.21954738046E+04  0.00000000000E+00 0. -1.
         -1   -1    0    0    0  501 -0.00000000000E+00 -0.00000000000E+00 -0.73512477879E+03  0.73512477879E+03  0.00000000000E+00 0.  1.
         23    2    1    2    0    0  0.10911183708E+03 -0.86294163379E+03  0.14222034412E+04  0.16694982564E+04  0.89376414616E+02 0.  0.
        254    2    1    2    0    0 -0.10911183708E+03  0.86294163379E+03  0.38145584615E+02  0.12611003270E+04  0.91232959664E+03 0.  0.
        -24    2    4    4    0    0 -0.49841991002E+03  0.36921235385E+03 -0.87038553384E+01  0.62553312828E+03  0.80472160070E+02 0.  0.
         24    2    4    4    0    0  0.38930807293E+03  0.49372927995E+03  0.46849439954E+02  0.63556719875E+03  0.80133741844E+02 0.  0.
         13    1    3    3    0    0  0.25047399578E+02 -0.59852909305E+02  0.13862652478E+03  0.15305899630E+03  0.00000000000E+00 0.  1.
        -13    1    3    3    0    0  0.84064437504E+02 -0.80308872449E+03  0.12835769164E+04  0.15164392600E+04  0.00000000000E+00 0. -1.
          2    1    6    6  502    0  0.72156731804E+02  0.52769673501E+02 -0.73911500990E+01  0.89698726222E+02  0.00000000000E+00 0. -1.
          1    1    5    5  503    0 -0.54953457935E+02  0.72276101587E+02 -0.13630282976E+02  0.91812319509E+02  0.00000000000E+00 0. -1.
         -2    1    5    5    0  503 -0.44346645208E+03  0.29693625226E+03  0.49264276373E+01  0.53372080877E+03  0.00000000000E+00 0.  1.
         -1    1    6    6    0  502  0.31715134113E+03  0.44095960644E+03  0.54240590053E+02  0.54586847253E+03  0.00000000000E+00 0.  1.
<mgrwt>
<rscale>  0 0.25408244E+04</rscale>
<asrwt>0</asrwt>
<pdfrwt beam="1">  1        1 0.33776520E+00 0.25408244E+04</pdfrwt>
<pdfrwt beam="2">  1       -1 0.11309612E+00 0.25408244E+04</pdfrwt>
<totfact> 0.13872736E+00</totfact>
</mgrwt>
</event>
<event>
12    1  0.1599266E-007  0.1090578E+04  0.7818608E-02  0.9214424E-01
          1   -1    0    0  501    0  0.00000000000E+00  0.00000000000E+00  0.57953340496E+03  0.57953340496E+03  0.00000000000E+00 0. -1.
         -1   -1    0    0    0  501 -0.00000000000E+00 -0.00000000000E+00 -0.51306799154E+03  0.51306799154E+03  0.00000000000E+00 0.  1.
         23    2    1    2    0    0  0.71503956440E+02  0.80636742848E+02  0.12968783262E+03  0.19085895194E+03  0.89404169489E+02 0.  0.
        254    2    1    2    0    0 -0.71503956440E+02 -0.80636742848E+02 -0.63222419208E+02  0.90174244456E+03  0.89304381860E+03 0.  0.
        -24    2    4    4    0    0  0.22220128413E+03  0.30925908585E+03 -0.11093907723E+03  0.40447212269E+03  0.79218850879E+02 0.  0.
         24    2    4    4    0    0 -0.29370524057E+03 -0.38989582869E+03  0.47716658021E+02  0.49727032186E+03  0.81971751142E+02 0.  0.
         13    1    3    3    0    0 -0.18261912674E+02 -0.21255394649E+00  0.10093188305E+02  0.20866602115E+02  0.00000000000E+00 0.  1.
        -13    1    3    3    0    0  0.89765869113E+02  0.80849296794E+02  0.11959464432E+03  0.16999234982E+03  0.00000000000E+00 0. -1.
          4    1    6    6  502    0 -0.19700951576E+03 -0.19497715805E+03  0.19536800255E+02  0.27786782474E+03  0.00000000000E+00 0. -1.
          1    1    5    5  503    0  0.20487908523E+03  0.27669366000E+03 -0.73762884489E+02  0.35210195140E+03  0.00000000000E+00 0. -1.
         -2    1    5    5    0  503  0.17322198895E+02  0.32565425847E+02 -0.37176192740E+02  0.52370171298E+02  0.00000000000E+00 0.  1.
         -3    1    6    6    0  502 -0.96695724808E+02 -0.19491867064E+03  0.28179857766E+02  0.21940249712E+03  0.00000000000E+00 0.  1.
<mgrwt>
<rscale>  0 0.10905779E+04</rscale>
<asrwt>0</asrwt>
<pdfrwt beam="1">  1        1 0.89158985E-01 0.10905779E+04</pdfrwt>
<pdfrwt beam="2">  1       -1 0.78933537E-01 0.10905779E+04</pdfrwt>
<totfact> 0.57655819E+01</totfact>
</mgrwt>
</event>
<event>
12    1  0.1599266E-007  0.1914938E+04  0.7818608E-02  0.8647457E-01
         -2   -1    0    0    0  501 -0.00000000000E+00  0.00000000000E+00  0.66540849777E+03  0.66540849777E+03  0.00000000000E+00 0. -1.
          2   -1    0    0  501    0  0.00000000000E+00 -0.00000000000E+00 -0.13777198359E+04  0.13777198359E+04  0.00000000000E+00 0.  1.
         23    2    1    2    0    0  0.21918101097E+03  0.40449362385E+03  0.34246905393E+03  0.58095167025E+03  0.92543951582E+02 0.  0.
        254    2    1    2    0    0 -0.21918101097E+03 -0.40449362385E+03 -0.10547803921E+04  0.14621766635E+04  0.90207733165E+03 0.  0.
        -24    2    4    4    0    0  0.10806761629E+03 -0.25876033157E+02 -0.92998758834E+03  0.93996347225E+03  0.79411812175E+02 0.  0.
         24    2    4    4    0    0 -0.32724862726E+03 -0.37861759069E+03 -0.12479280376E+03  0.52221319120E+03  0.81795043702E+02 0.  0.
         11    1    3    3    0    0  0.67343022228E+02  0.73627566077E+02  0.39441669221E+02  0.10729280684E+03  0.00000000000E+00 0.  1.
        -11    1    3    3    0    0  0.15183798874E+03  0.33086605777E+03  0.30302738471E+03  0.47365886341E+03  0.00000000000E+00 0. -1.
          4    1    6    6  502    0 -0.81382966485E+02 -0.10360045593E+03 -0.70262194600E+02  0.14930846491E+03  0.00000000000E+00 0. -1.
          1    1    5    5  503    0  0.46722175415E+02  0.15295427878E+02 -0.18854187124E+03  0.19484596224E+03  0.00000000000E+00 0. -1.
         -2    1    5    5    0  503  0.61345440876E+02 -0.41171461036E+02 -0.74144571710E+03  0.74511751001E+03  0.00000000000E+00 0.  1.
         -3    1    6    6    0  502 -0.24586566077E+03 -0.27501713476E+03 -0.54530609161E+02  0.37290472630E+03  0.00000000000E+00 0.  1.
<mgrwt>
<rscale>  0 0.19149376E+04</rscale>
<asrwt>0</asrwt>
<pdfrwt beam="1">  1        2 0.21195689E+00 0.19149376E+04</pdfrwt>
<pdfrwt beam="2">  1       -2 0.10237054E+00 0.19149376E+04</pdfrwt>
<totfact> 0.10891659E+01</totfact>
</mgrwt>
</event>
<event>
12    1  0.1599266E-007  0.1641411E+04  0.7818608E-02  0.8795504E-01
          2   -1    0    0  501    0  0.00000000000E+00  0.00000000000E+00  0.97536186823E+03  0.97536186823E+03  0.00000000000E+00 0. -1.
         -2   -1    0    0    0  501 -0.00000000000E+00 -0.00000000000E+00 -0.69057207928E+03  0.69057207928E+03  0.00000000000E+00 0.  1.
         23    2    1    2    0    0 -0.15002501580E+03  0.50470457509E+03  0.33091622810E+03  0.62850148071E+03  0.90963441844E+02 0.  0.
        254    2    1    2    0    0  0.15002501580E+03 -0.50470457509E+03 -0.46126439152E+02  0.10374324668E+04  0.89269494303E+03 0.  0.
        -24    2    4    4    0    0  0.23311598143E+03  0.11850901169E+03 -0.25180156262E+03  0.37162634957E+03  0.79464898587E+02 0.  0.
         24    2    4    4    0    0 -0.83090965635E+02 -0.62321358678E+03  0.20567512346E+03  0.66580611724E+03  0.75473478948E+02 0.  0.
         11    1    3    3    0    0 -0.79901979316E+02  0.27243538499E+03  0.23138006243E+03  0.36625414480E+03  0.00000000000E+00 0. -1.
        -11    1    3    3    0    0 -0.70123036481E+02  0.23226919010E+03  0.99536165670E+02  0.26224733591E+03  0.00000000000E+00 0.  1.
          2    1    6    6  502    0 -0.34229231548E+02 -0.14498979697E+03  0.79263261179E+02  0.16874935878E+03  0.00000000000E+00 0. -1.
          3    1    5    5  503    0  0.23028758301E+03  0.10142900753E+03 -0.21507922000E+03  0.33102762020E+03  0.00000000000E+00 0. -1.
         -4    1    5    5    0  503  0.28283984259E+01  0.17080004162E+02 -0.36722342611E+02  0.40598729373E+02  0.00000000000E+00 0.  1.
         -1    1    6    6    0  502 -0.48861734086E+02 -0.47822378981E+03  0.12641186228E+03  0.49705675845E+03  0.00000000000E+00 0.  1.
<mgrwt>
<rscale>  0 0.16414112E+04</rscale>
<asrwt>0</asrwt>
<pdfrwt beam="1">  1        2 0.15005567E+00 0.16414112E+04</pdfrwt>
<pdfrwt beam="2">  1       -2 0.10624186E+00 0.16414112E+04</pdfrwt>
<totfact> 0.17851679E+01</totfact>
</mgrwt>
</event>
<event>
12    1  0.1599266E-007  0.1353666E+04  0.7818608E-02  0.8988058E-01
         -2   -1    0    0    0  501 -0.00000000000E+00  0.00000000000E+00  0.18009258573E+03  0.18009258573E+03  0.00000000000E+00 0.  1.
          2   -1    0    0  501    0  0.00000000000E+00 -0.00000000000E+00 -0.25437071375E+04  0.25437071375E+04  0.00000000000E+00 0. -1.
         23    2    1    2    0    0  0.11567728463E+03  0.88593426550E+02 -0.11588693563E+04  0.11715585229E+04  0.91329942285E+02 0.  0.
        254    2    1    2    0    0 -0.11567728463E+03 -0.88593426550E+02 -0.12047451955E+04  0.15522412003E+04  0.96789034936E+03 0.  0.
        -24    2    4    4    0    0 -0.29909320163E+03  0.32905033684E+03 -0.87216441575E+03  0.98219282703E+03  0.79379556157E+02 0.  0.
         24    2    4    4    0    0  0.18341591700E+03 -0.41764376339E+03 -0.33258077972E+03  0.57004837324E+03  0.79230430245E+02 0.  0.
         13    1    3    3    0    0  0.47134092986E+02  0.70694680971E+02 -0.86959432704E+03  0.87373546011E+03  0.00000000000E+00 0. -1.
        -13    1    3    3    0    0  0.68543191640E+02  0.17898745578E+02 -0.28927502923E+03  0.29782306282E+03  0.00000000000E+00 0.  1.
          4    1    6    6  502    0  0.29283616407E+02 -0.41799921075E+02 -0.68932467895E+02  0.85769742461E+02  0.00000000000E+00 0. -1.
          3    1    5    5  503    0 -0.23080153927E+02  0.62989420554E+02 -0.15759405360E+03  0.17127827165E+03  0.00000000000E+00 0. -1.
         -4    1    5    5    0  503 -0.27601304770E+03  0.26606091629E+03 -0.71457036214E+03  0.81091455538E+03  0.00000000000E+00 0.  1.
         -3    1    6    6    0  502  0.15413230059E+03 -0.37584384232E+03 -0.26364831183E+03  0.48427863078E+03  0.00000000000E+00 0.  1.
<mgrwt>
<rscale>  0 0.13536658E+04</rscale>
<asrwt>0</asrwt>
<pdfrwt beam="1">  1        2 0.39133954E+00 0.13536658E+04</pdfrwt>
<pdfrwt beam="2">  1       -2 0.27706553E-01 0.13536658E+04</pdfrwt>
<totfact> 0.38282534E+01</totfact>
</mgrwt>
</event>
<event>
12    1  0.1621504E-007  0.1437236E+04  0.7818608E-02  0.8927298E-01
          2   -1    0    0  501    0  0.00000000000E+00  0.00000000000E+00  0.90591568840E+03  0.90591568840E+03  0.00000000000E+00 0. -1.
         -2   -1    0    0    0  501 -0.00000000000E+00 -0.00000000000E+00 -0.57004389691E+03  0.57004389691E+03  0.00000000000E+00 0.  1.
         23    2    1    2    0    0  0.90026665002E+02  0.10517952255E+03  0.52436699345E+03  0.55094217837E+03  0.97000039745E+02 0.  0.
        254    2    1    2    0    0 -0.90026665002E+02 -0.10517952255E+03 -0.18849520196E+03  0.92501740694E+03  0.89496325601E+03 0.  0.
        -24    2    4    4    0    0 -0.28919138201E+03 -0.27901159720E+03 -0.40326413846E+03  0.57504015233E+03  0.81056058537E+02 0.  0.
         24    2    4    4    0    0  0.19916471700E+03  0.17383207466E+03  0.21476893650E+03  0.34997725461E+03  0.80462463192E+02 0.  0.
         13    1    3    3    0    0  0.14789885316E+02  0.92859736514E+00  0.46082310769E+01  0.15518981745E+02  0.00000000000E+00 0.  1.
        -13    1    3    3    0    0  0.75236779686E+02  0.10425092518E+03  0.51975876238E+03  0.53542319663E+03  0.00000000000E+00 0. -1.
          2    1    6    6  502    0  0.95271448798E+01  0.28246441218E+02  0.54598318396E+02  0.62206143610E+02  0.00000000000E+00 0. -1.
          1    1    5    5  503    0 -0.10179371624E+02  0.53960919977E+01 -0.11155344254E+02  0.16036805197E+02  0.00000000000E+00 0. -1.
         -2    1    5    5    0  503 -0.27901201038E+03 -0.28440768920E+03 -0.39210879420E+03  0.55900334713E+03  0.00000000000E+00 0.  1.
         -1    1    6    6    0  502  0.18963757212E+03  0.14558563344E+03  0.16017061810E+03  0.28777111100E+03  0.00000000000E+00 0.  1.
<mgrwt>
<rscale>  0 0.14372358E+04</rscale>
<asrwt>0</asrwt>
<pdfrwt beam="1">  1        2 0.13937164E+00 0.14372358E+04</pdfrwt>
<pdfrwt beam="2">  1       -2 0.87699061E-01 0.14372358E+04</pdfrwt>
<totfact> 0.31643693E+01</totfact>
</mgrwt>
</event>
<event>
12    1  0.1599266E-007  0.1880568E+04  0.7818608E-02  0.8664590E-01
         -1   -1    0    0    0  501 -0.00000000000E+00  0.00000000000E+00  0.79895839306E+03  0.79895839306E+03  0.00000000000E+00 0.  1.
          1   -1    0    0  501    0  0.00000000000E+00 -0.00000000000E+00 -0.11066081912E+04  0.11066081912E+04  0.00000000000E+00 0. -1.
         23    2    1    2    0    0  0.36736403173E+03  0.48997424065E+03  0.26340661943E+03  0.67351046683E+03  0.95928168253E+02 0.  0.
        254    2    1    2    0    0 -0.36736403173E+03 -0.48997424065E+03 -0.57105641756E+03  0.12320561174E+04  0.90378413139E+03 0.  0.
        -24    2    4    4    0    0  0.24400269901E+03 -0.22073276033E+03  0.16014919330E+02  0.33916747440E+03  0.80733075272E+02 0.  0.
         24    2    4    4    0    0 -0.61136673074E+03 -0.26924148031E+03 -0.58707133689E+03  0.89288864303E+03  0.79606030401E+02 0.  0.
         11    1    3    3    0    0  0.36278682909E+03  0.47331356945E+03  0.27049623765E+03  0.65483450808E+03  0.00000000000E+00 0. -1.
        -11    1    3    3    0    0  0.45772026395E+01  0.16660671196E+02 -0.70896182231E+01  0.18675958751E+02  0.00000000000E+00 0.  1.
          4    1    6    6  502    0 -0.58995411810E+03 -0.24747179347E+03 -0.54219136984E+03  0.83860576646E+03  0.00000000000E+00 0. -1.
          1    1    5    5  503    0  0.13805268944E+03 -0.16148013649E+03 -0.17685432950E+02  0.21318338134E+03  0.00000000000E+00 0. -1.
         -2    1    5    5    0  503  0.10595000957E+03 -0.59252623843E+02  0.33700352279E+02  0.12598409306E+03  0.00000000000E+00 0.  1.
         -3    1    6    6    0  502 -0.21412612647E+02 -0.21769686844E+02 -0.44879967057E+02  0.54282876570E+02  0.00000000000E+00 0.  1.
<mgrwt>
<rscale>  0 0.18805679E+04</rscale>
<asrwt>0</asrwt>
<pdfrwt beam="1">  1        1 0.17024741E+00 0.18805679E+04</pdfrwt>
<pdfrwt beam="2">  1       -1 0.12291668E+00 0.18805679E+04</pdfrwt>
<totfact> 0.68549528E+00</totfact>
</mgrwt>
</event>
<event>
12    1  0.1599266E-007  0.1734249E+04  0.7818608E-02  0.8742069E-01
          2   -1    0    0  501    0  0.00000000000E+00  0.00000000000E+00  0.87363142925E+03  0.87363142925E+03  0.00000000000E+00 0. -1.
         -2   -1    0    0    0  501 -0.00000000000E+00 -0.00000000000E+00 -0.86066561115E+03  0.86066561115E+03  0.00000000000E+00 0.  1.
         23    2    1    2    0    0 -0.45949358785E+03 -0.35009084890E+03 -0.23894273107E+03  0.63170721044E+03  0.90897806559E+02 0.  0.
        254    2    1    2    0    0  0.45949358785E+03  0.35009084890E+03  0.25190854917E+03  0.11025898300E+04  0.90473667785E+03 0.  0.
        -24    2    4    4    0    0  0.52183972611E+03  0.58189401723E+03  0.66168593210E+02  0.78838300682E+03  0.79070447645E+02 0.  0.
         24    2    4    4    0    0 -0.62346138259E+02 -0.23180316833E+03  0.18573995596E+03  0.31420682314E+03  0.81282511444E+02 0.  0.
         11    1    3    3    0    0 -0.29734961824E+02 -0.26015239015E+02 -0.44256093435E+02  0.59325900093E+02  0.00000000000E+00 0. -1.
        -11    1    3    3    0    0 -0.42975862602E+03 -0.32407560988E+03 -0.19468663764E+03  0.57238131035E+03  0.00000000000E+00 0.  1.
          4    1    6    6  502    0 -0.69768886676E+02 -0.16915581050E+03  0.16865393982E+03  0.24884842212E+03  0.00000000000E+00 0. -1.
          1    1    5    5  503    0  0.25895976919E+03  0.25793173319E+03 -0.28579844862E+01  0.36550938309E+03  0.00000000000E+00 0. -1.
         -2    1    5    5    0  503  0.26287995691E+03  0.32396228403E+03  0.69026577696E+02  0.42287362373E+03  0.00000000000E+00 0.  1.
         -3    1    6    6    0  502  0.74227484165E+01 -0.62647357832E+02  0.17086016141E+02  0.65358401028E+02  0.00000000000E+00 0.  1.
<mgrwt>
<rscale>  0 0.17342486E+04</rscale>
<asrwt>0</asrwt>
<pdfrwt beam="1">  1        2 0.13440484E+00 0.17342486E+04</pdfrwt>
<pdfrwt beam="2">  1       -2 0.13241009E+00 0.17342486E+04</pdfrwt>
<totfact> 0.12020744E+01</totfact>
</mgrwt>
</event>
<event>
12    1  0.1599266E-007  0.1449171E+04  0.7818608E-02  0.8918976E-01
          1   -1    0    0  501    0  0.00000000000E+00  0.00000000000E+00  0.11233524660E+04  0.11233524660E+04  0.00000000000E+00 0.  1.
         -1   -1    0    0    0  501 -0.00000000000E+00 -0.00000000000E+00 -0.46737234258E+03  0.46737234258E+03  0.00000000000E+00 0. -1.
         23    2    1    2    0    0  0.83226817369E+02 -0.88183948684E+02 -0.26617377397E+03  0.30636164866E+03  0.91136545289E+02 0.  0.
        254    2    1    2    0    0 -0.83226817369E+02  0.88183948684E+02  0.92215389734E+03  0.12843631599E+04  0.88573009665E+03 0.  0.
        -24    2    4    4    0    0  0.31249263115E+03  0.20611752031E+03  0.16154735226E+03  0.41540741603E+03  0.79559396479E+02 0.  0.
         24    2    4    4    0    0 -0.39571944852E+03 -0.11793357162E+03  0.76060654508E+03  0.86895574384E+03  0.77843169770E+02 0.  0.
         11    1    3    3    0    0  0.22556916897E+01 -0.41136304643E+02 -0.26354114855E+02  0.48906268253E+02  0.00000000000E+00 0.  1.
        -11    1    3    3    0    0  0.80971125679E+02 -0.47047644041E+02 -0.23981965912E+03  0.25745538041E+03  0.00000000000E+00 0. -1.
          2    1    6    6  502    0 -0.32660222284E+03 -0.85510431280E+02  0.55484381596E+03  0.64948649403E+03  0.00000000000E+00 0. -1.
          3    1    5    5  503    0  0.15151448182E+03  0.10946239190E+03  0.12290570000E+03  0.22370620138E+03  0.00000000000E+00 0. -1.
         -4    1    5    5    0  503  0.16097814933E+03  0.96655128409E+02  0.38641652258E+02  0.19170121465E+03  0.00000000000E+00 0.  1.
         -1    1    6    6    0  502 -0.69117225678E+02 -0.32423140342E+02  0.20576272912E+03  0.21946924981E+03  0.00000000000E+00 0.  1.
<mgrwt>
<rscale>  0 0.14491706E+04</rscale>
<asrwt>0</asrwt>
<pdfrwt beam="1">  1        1 0.17282345E+00 0.14491706E+04</pdfrwt>
<pdfrwt beam="2">  1       -1 0.71903438E-01 0.14491706E+04</pdfrwt>
<totfact> 0.23089899E+01</totfact>
</mgrwt>
</event>
<event>
12    1  0.1599266E-007  0.3738823E+04  0.7818608E-02  0.8059412E-01
         -2   -1    0    0    0  501 -0.00000000000E+00  0.00000000000E+00  0.11002985886E+04  0.11002985886E+04  0.00000000000E+00 0.  1.
          2   -1    0    0  501    0  0.00000000000E+00 -0.00000000000E+00 -0.31761374898E+04  0.31761374898E+04  0.00000000000E+00 0. -1.
         23    2    1    2    0    0  0.12738983042E+04 -0.12147530844E+04 -0.99541496154E+03  0.20242211884E+04  0.90435218535E+02 0.  0.
        254    2    1    2    0    0 -0.12738983042E+04  0.12147530844E+04 -0.10804239397E+04  0.22522148899E+04  0.89817263125E+03 0.  0.
        -24    2    4    4    0    0 -0.30742500304E+03  0.50389818428E+03 -0.83421323584E+03  0.10249930509E+04  0.79218173027E+02 0.  0.
         24    2    4    4    0    0 -0.96647330114E+03  0.71085490008E+03 -0.24621070384E+03  0.12272218390E+04  0.77899939971E+02 0.  0.
         11    1    3    3    0    0  0.11790505213E+03 -0.15027741234E+03 -0.10093315282E+03  0.21603796730E+03  0.00000000000E+00 0. -1.
        -11    1    3    3    0    0  0.11559932520E+04 -0.10644756720E+04 -0.89448180871E+03  0.18081832211E+04  0.00000000000E+00 0.  1.
          4    1    6    6  502    0 -0.81054982948E+03  0.61239550046E+03 -0.18268693241E+03  0.10321791464E+04  0.00000000000E+00 0. -1.
          1    1    5    5  503    0 -0.23042953235E+03  0.31731467142E+03 -0.58521576708E+03  0.70445998049E+03  0.00000000000E+00 0. -1.
         -2    1    5    5    0  503 -0.76995470690E+02  0.18658351287E+03 -0.24899746875E+03  0.32053307041E+03  0.00000000000E+00 0.  1.
         -3    1    6    6    0  502 -0.15592347166E+03  0.98459399621E+02 -0.63523771423E+02  0.19504269256E+03  0.00000000000E+00 0.  1.
<mgrwt>
<rscale>  0 0.37388231E+04</rscale>
<asrwt>0</asrwt>
<pdfrwt beam="1">  1        2 0.48863654E+00 0.37388231E+04</pdfrwt>
<pdfrwt beam="2">  1       -2 0.16927670E+00 0.37388231E+04</pdfrwt>
<totfact> 0.23336199E-01</totfact>
</mgrwt>
</event>
<event>
12    1  0.1599266E-007  0.1671041E+04  0.7818608E-02  0.8778056E-01
          2   -1    0    0  501    0  0.00000000000E+00  0.00000000000E+00  0.77106163944E+03  0.77106163944E+03  0.00000000000E+00 0. -1.
         -2   -1    0    0    0  501 -0.00000000000E+00 -0.00000000000E+00 -0.90536747508E+03  0.90536747508E+03  0.00000000000E+00 0.  1.
         23    2    1    2    0    0  0.91376496659E+02 -0.51254006762E+03 -0.39028533174E+02  0.52919052740E+03  0.86443061196E+02 0.  0.
        254    2    1    2    0    0 -0.91376496659E+02  0.51254006762E+03 -0.95277302469E+02  0.11472385871E+04  0.10178563879E+04 0.  0.
        -24    2    4    4    0    0 -0.14871687850E+03  0.30190522619E+03 -0.54302245150E+03  0.64413760878E+03  0.82318896099E+02 0.  0.
         24    2    4    4    0    0  0.57340381842E+02  0.21063484142E+03  0.44774514903E+03  0.50310097834E+03  0.70568549077E+02 0.  0.
         13    1    3    3    0    0  0.94461336424E+02 -0.51202908535E+03 -0.32181253785E+02  0.52166307270E+03  0.00000000000E+00 0. -1.
        -13    1    3    3    0    0 -0.30848397650E+01 -0.51098227332E+00 -0.68472793889E+01  0.75274547019E+01  0.00000000000E+00 0.  1.
          2    1    6    6  502    0  0.71658985350E+02  0.19590609276E+03  0.40003208305E+03  0.45115393696E+03  0.00000000000E+00 0. -1.
          3    1    5    5  503    0 -0.15003973646E+03  0.30599948677E+03 -0.54096711206E+03  0.63936923976E+03  0.00000000000E+00 0. -1.
         -2    1    5    5    0  503  0.13228579608E+01 -0.40942605777E+01 -0.20553394385E+01  0.47683690158E+01  0.00000000000E+00 0.  1.
         -1    1    6    6    0  502 -0.14318603508E+02  0.14728748660E+02  0.47713065974E+02  0.51947041381E+02  0.00000000000E+00 0.  1.
<mgrwt>
<rscale>  0 0.16710405E+04</rscale>
<asrwt>0</asrwt>
<pdfrwt beam="1">  1        2 0.11862487E+00 0.16710405E+04</pdfrwt>
<pdfrwt beam="2">  1       -2 0.13928730E+00 0.16710405E+04</pdfrwt>
<totfact> 0.12549676E+01</totfact>
</mgrwt>
</event>
<event>
12    1  0.1599266E-007  0.1733187E+04  0.7818608E-02  0.8742660E-01
          1   -1    0    0  501    0  0.00000000000E+00  0.00000000000E+00  0.16167555537E+04  0.16167555537E+04  0.00000000000E+00 0. -1.
         -1   -1    0    0    0  501 -0.00000000000E+00 -0.00000000000E+00 -0.46450090577E+03  0.46450090577E+03  0.00000000000E+00 0.  1.
         23    2    1    2    0    0  0.16979990099E+03  0.37235782142E+02  0.11391805162E+04  0.11560233517E+04  0.91865288637E+02 0.  0.
        254    2    1    2    0    0 -0.16979990099E+03 -0.37235782142E+02  0.13074131734E+02  0.92523310780E+03  0.90866212698E+03 0.  0.
        -24    2    4    4    0    0 -0.36173170314E+03 -0.41237534187E+02 -0.34701588789E+03  0.50927570793E+03  0.79945987688E+02 0.  0.
         24    2    4    4    0    0  0.19193180215E+03  0.40017520445E+01  0.36009001963E+03  0.41595739988E+03  0.80634394525E+02 0.  0.
         13    1    3    3    0    0  0.97873673480E+02  0.30572397649E+02  0.90924895997E+03  0.91501234891E+03  0.00000000000E+00 0. -1.
        -13    1    3    3    0    0  0.71926227515E+02  0.66633844937E+01  0.22993155626E+03  0.24101100278E+03  0.00000000000E+00 0.  1.
          2    1    6    6  502    0  0.33587753078E+02 -0.24357014443E+02  0.39565817021E+02  0.57331101385E+02  0.00000000000E+00 0. -1.
          3    1    5    5  503    0 -0.55303931937E+01  0.85924186121E+01 -0.23049950182E+02  0.25213391479E+02  0.00000000000E+00 0. -1.
         -4    1    5    5    0  503 -0.35620130995E+03 -0.49829952799E+02 -0.32396593771E+03  0.48406231645E+03  0.00000000000E+00 0.  1.
         -1    1    6    6    0  502  0.15834404907E+03  0.28358766488E+02  0.32052420261E+03  0.35862629849E+03  0.00000000000E+00 0.  1.
<mgrwt>
<rscale>  0 0.17331871E+04</rscale>
<asrwt>0</asrwt>
<pdfrwt beam="1">  1        1 0.24873162E+00 0.17331871E+04</pdfrwt>
<pdfrwt beam="2">  1       -1 0.71461678E-01 0.17331871E+04</pdfrwt>
<totfact> 0.10195163E+01</totfact>
</mgrwt>
</event>
<event>
12    1  0.1599266E-007  0.1535010E+04  0.7818608E-02  0.8861500E-01
          2   -1    0    0  501    0  0.00000000000E+00  0.00000000000E+00  0.45191040763E+03  0.45191040763E+03  0.00000000000E+00 0. -1.
         -2   -1    0    0    0  501 -0.00000000000E+00 -0.00000000000E+00 -0.13034972902E+04  0.13034972902E+04  0.00000000000E+00 0.  1.
         23    2    1    2    0    0 -0.74531332897E+02 -0.25570273354E+03  0.19765884191E+03  0.34396802790E+03  0.91138240635E+02 0.  0.
        254    2    1    2    0    0  0.74531332897E+02  0.25570273354E+03 -0.10492457245E+04  0.14114396700E+04  0.90570775861E+03 0.  0.
        -24    2    4    4    0    0  0.46567205921E+03  0.96124591085E+01 -0.46522244522E+03  0.66250556935E+03  0.74423382019E+02 0.  0.
         24    2    4    4    0    0 -0.39114072631E+03  0.24609027443E+03 -0.58402327930E+03  0.74893410061E+03  0.79168209174E+02 0.  0.
         13    1    3    3    0    0  0.89550702588E+01 -0.48332871275E+02  0.60188695958E+01  0.49522585960E+02  0.00000000000E+00 0.  1.
        -13    1    3    3    0    0 -0.83486403155E+02 -0.20736986227E+03  0.19163997232E+03  0.29444544194E+03  0.00000000000E+00 0. -1.
          2    1    6    6  502    0 -0.33811297696E+03  0.23627607004E+03 -0.48963209485E+03  0.64022367558E+03  0.00000000000E+00 0. -1.
          3    1    5    5  503    0  0.29872510243E+03  0.37575355107E+02 -0.27357898168E+03  0.40680960332E+03  0.00000000000E+00 0. -1.
         -4    1    5    5    0  503  0.16694695678E+03 -0.27962895998E+02 -0.19164346354E+03  0.25569596604E+03  0.00000000000E+00 0.  1.
         -1    1    6    6    0  502 -0.53027749352E+02  0.98142043925E+01 -0.94391184452E+02  0.10871042504E+03  0.00000000000E+00 0.  1.
<mgrwt>
<rscale>  0 0.15350101E+04</rscale>
<asrwt>0</asrwt>
<pdfrwt beam="1">  1        2 0.69524679E-01 0.15350101E+04</pdfrwt>
<pdfrwt beam="2">  1       -2 0.20053804E+00 0.15350101E+04</pdfrwt>
<totfact> 0.87898483E+00</totfact>
</mgrwt>
</event>
<event>
12    1  0.1599266E-007  0.2886105E+04  0.7818608E-02  0.8277024E-01
         -1   -1    0    0    0  501 -0.00000000000E+00  0.00000000000E+00  0.33271205076E+04  0.33271205076E+04  0.00000000000E+00 0.  1.
          1   -1    0    0  501    0  0.00000000000E+00 -0.00000000000E+00 -0.62588683898E+03  0.62588683898E+03  0.00000000000E+00 0. -1.
         23    2    1    2    0    0 -0.11416199742E+03 -0.73136196852E+03 -0.24347485099E+03  0.78465354757E+03  0.92075490792E+02 0.  0.
        254    2    1    2    0    0  0.11416199742E+03  0.73136196852E+03  0.29447085196E+04  0.31683537990E+04  0.90511559458E+03 0.  0.
        -24    2    4    4    0    0  0.48330479064E+03  0.51003833281E+03  0.15003689718E+04  0.16590595196E+04  0.87457512416E+02 0.  0.
         24    2    4    4    0    0 -0.36914279322E+03  0.22132363571E+03  0.14443395478E+04  0.15092942794E+04  0.81252316499E+02 0.  0.
         13    1    3    3    0    0 -0.10816591047E+03 -0.45582443352E+03 -0.12655110756E+03  0.48527410935E+03  0.00000000000E+00 0. -1.
        -13    1    3    3    0    0 -0.59960869457E+01 -0.27553753500E+03 -0.11692374344E+03  0.29937943822E+03  0.00000000000E+00 0.  1.
          4    1    6    6  502    0 -0.29122638589E+03  0.13671159391E+03  0.10113717008E+04  0.10613084306E+04  0.00000000000E+00 0. -1.
          1    1    5    5  503    0  0.43204961787E+03  0.48420219109E+03  0.14073096395E+04  0.15497222512E+04  0.00000000000E+00 0. -1.
         -2    1    5    5    0  503  0.51255172765E+02  0.25836141718E+02  0.93059332275E+02  0.10933726847E+03  0.00000000000E+00 0.  1.
         -3    1    6    6    0  502 -0.77916407329E+02  0.84612041795E+02  0.43296784702E+03  0.44798584877E+03  0.00000000000E+00 0.  1.
<mgrwt>
<rscale>  0 0.28861053E+04</rscale>
<asrwt>0</asrwt>
<pdfrwt beam="1">  1        1 0.96290285E-01 0.28861053E+04</pdfrwt>
<pdfrwt beam="2">  1       -1 0.51186468E+00 0.28861053E+04</pdfrwt>
<totfact> 0.34520008E-02</totfact>
</mgrwt>
</event>
<event>
12    1  0.1599266E-007  0.1180969E+04  0.7818608E-02  0.9129679E-01
          1   -1    0    0  501    0  0.00000000000E+00  0.00000000000E+00  0.38441698336E+03  0.38441698336E+03  0.00000000000E+00 0. -1.
         -1   -1    0    0    0  501 -0.00000000000E+00 -0.00000000000E+00 -0.90701529366E+03  0.90701529366E+03  0.00000000000E+00 0.  1.
         23    2    1    2    0    0  0.28096913285E+01  0.80875042144E+02 -0.33837168774E+03  0.35985051221E+03  0.91914771739E+02 0.  0.
        254    2    1    2    0    0 -0.28096913285E+01 -0.80875042144E+02 -0.18422662256E+03  0.93158176482E+03  0.90959137489E+03 0.  0.
        -24    2    4    4    0    0 -0.25847989179E+03  0.57007861548E+02  0.26987632663E+03  0.38627293815E+03  0.79446839689E+02 0.  0.
         24    2    4    4    0    0  0.25567020046E+03 -0.13788290369E+03 -0.45410294919E+03  0.54530882666E+03  0.82299948025E+02 0.  0.
         11    1    3    3    0    0 -0.10457136583E+02  0.15182135233E+02 -0.24065181206E+03  0.24135688012E+03  0.00000000000E+00 0.  1.
        -11    1    3    3    0    0  0.13266827912E+02  0.65692906911E+02 -0.97719875688E+02  0.11849363209E+03  0.00000000000E+00 0. -1.
          2    1    6    6  502    0  0.14508460966E+03 -0.11208488891E+03 -0.32684052504E+03  0.37474964321E+03  0.00000000000E+00 0. -1.
          1    1    5    5  503    0 -0.25232848482E+03  0.48234373354E+02  0.22943673903E+03  0.34443785541E+03  0.00000000000E+00 0. -1.
         -2    1    5    5    0  503 -0.61514069711E+01  0.87734881936E+01  0.40439587599E+02  0.41835082741E+02  0.00000000000E+00 0.  1.
         -1    1    6    6    0  502  0.11058559080E+03 -0.25798014777E+02 -0.12726242415E+03  0.17055918345E+03  0.00000000000E+00 0.  1.
<mgrwt>
<rscale>  0 0.11809692E+04</rscale>
<asrwt>0</asrwt>
<pdfrwt beam="1">  1        1 0.59141075E-01 0.11809692E+04</pdfrwt>
<pdfrwt beam="2">  1       -1 0.13954081E+00 0.11809692E+04</pdfrwt>
<totfact> 0.26509018E+01</totfact>
</mgrwt>
</event>
<event>
12    1  0.1599266E-007  0.2028470E+04  0.7818608E-02  0.8593425E-01
         -3   -1    0    0    0  501 -0.00000000000E+00  0.00000000000E+00  0.11278651001E+04  0.11278651001E+04  0.00000000000E+00 0.  1.
          3   -1    0    0  501    0  0.00000000000E+00 -0.00000000000E+00 -0.91205270617E+03  0.91205270617E+03  0.00000000000E+00 0. -1.
         23    2    1    2    0    0 -0.78483859284E+02  0.64947075818E+03  0.42623931048E+03  0.78531211957E+03  0.84042807197E+02 0.  0.
        254    2    1    2    0    0  0.78483859284E+02 -0.64947075818E+03 -0.21042691656E+03  0.12546056867E+04  0.10496589732E+04 0.  0.
        -24    2    4    4    0    0  0.25912433985E+03 -0.11698743771E+02 -0.46641745404E+03  0.53957601868E+03  0.79465428868E+02 0.  0.
         24    2    4    4    0    0 -0.18064048057E+03 -0.63777201441E+03  0.25599053748E+03  0.71502966802E+03  0.79700346787E+02 0.  0.
         13    1    3    3    0    0 -0.18200108077E+02  0.18885747133E+03  0.17018947643E+03  0.25487810086E+03  0.00000000000E+00 0.  1.
        -13    1    3    3    0    0 -0.60283751207E+02  0.46061328685E+03  0.25604983404E+03  0.53043401870E+03  0.00000000000E+00 0. -1.
          2    1    6    6  502    0 -0.12573106751E+03 -0.44533445778E+03  0.13874807615E+03  0.48309637678E+03  0.00000000000E+00 0. -1.
          1    1    5    5  503    0  0.29561479930E+02  0.22294836176E+02 -0.90710726856E+02  0.97976409316E+02  0.00000000000E+00 0. -1.
         -2    1    5    5    0  503  0.22956285993E+03 -0.33993579947E+02 -0.37570672719E+03  0.44159960936E+03  0.00000000000E+00 0.  1.
         -1    1    6    6    0  502 -0.54909413066E+02 -0.19243755663E+03  0.11724246133E+03  0.23193329124E+03  0.00000000000E+00 0.  1.
<mgrwt>
<rscale>  0 0.20284698E+04</rscale>
<asrwt>0</asrwt>
<pdfrwt beam="1">  1        3 0.14031580E+00 0.20284698E+04</pdfrwt>
<pdfrwt beam="2">  1       -3 0.17351771E+00 0.20284698E+04</pdfrwt>
<totfact> 0.20339911E-01</totfact>
</mgrwt>
</event>
<event>
12    1  0.1599266E-007  0.1336545E+04  0.7818608E-02  0.9001076E-01
         -2   -1    0    0    0  501 -0.00000000000E+00  0.00000000000E+00  0.24448824654E+03  0.24448824654E+03  0.00000000000E+00 0.  1.
          2   -1    0    0  501    0  0.00000000000E+00 -0.00000000000E+00 -0.18266246762E+04  0.18266246762E+04  0.00000000000E+00 0. -1.
         23    2    1    2    0    0 -0.49633320935E+02 -0.27914572833E+03 -0.78088382204E+03  0.83541202145E+03  0.88022144164E+02 0.  0.
        254    2    1    2    0    0  0.49633320935E+02  0.27914572833E+03 -0.80125260761E+03  0.12357009013E+04  0.89697556936E+03 0.  0.
        -24    2    4    4    0    0  0.82662059796E+02  0.57470556848E+03 -0.32963832134E+03  0.67243619379E+03  0.79934380986E+02 0.  0.
         24    2    4    4    0    0 -0.33028738861E+02 -0.29555984015E+03 -0.47161428627E+03  0.56326470749E+03  0.80003618569E+02 0.  0.
         13    1    3    3    0    0 -0.63959185615E+01 -0.14447939082E+03 -0.50618799382E+03  0.52644229241E+03  0.00000000000E+00 0.  1.
        -13    1    3    3    0    0 -0.43237402373E+02 -0.13466633751E+03 -0.27469582822E+03  0.30896972904E+03  0.00000000000E+00 0. -1.
          4    1    6    6  502    0 -0.88639023693E+01 -0.23811940303E+02 -0.10510114140E+02  0.27496177288E+02  0.00000000000E+00 0. -1.
          1    1    5    5  503    0  0.35752233148E+01  0.10198724040E+03 -0.26873774595E+02  0.10552904429E+03  0.00000000000E+00 0. -1.
         -2    1    5    5    0  503  0.79086836481E+02  0.47271832807E+03 -0.30276454674E+03  0.56690714951E+03  0.00000000000E+00 0.  1.
         -3    1    6    6    0  502 -0.24164836492E+02 -0.27174789985E+03 -0.46110417213E+03  0.53576853020E+03  0.00000000000E+00 0.  1.
<mgrwt>
<rscale>  0 0.13365452E+04</rscale>
<asrwt>0</asrwt>
<pdfrwt beam="1">  1        2 0.28101917E+00 0.13365452E+04</pdfrwt>
<pdfrwt beam="2">  1       -2 0.37613578E-01 0.13365452E+04</pdfrwt>
<totfact> 0.54378483E+01</totfact>
</mgrwt>
</event>
<event>
12    1  0.1599266E-007  0.1626625E+04  0.7818608E-02  0.8804356E-01
         -1   -1    0    0    0  501 -0.00000000000E+00  0.00000000000E+00  0.29893559540E+03  0.29893559540E+03  0.00000000000E+00 0.  1.
          1   -1    0    0  501    0  0.00000000000E+00 -0.00000000000E+00 -0.22127746803E+04  0.22127746803E+04  0.00000000000E+00 0. -1.
         23    2    1    2    0    0 -0.12083913975E+02  0.52563912030E+03 -0.37862135812E+03  0.65420874519E+03  0.90512119042E+02 0.  0.
        254    2    1    2    0    0  0.12083913975E+02 -0.52563912030E+03 -0.15352177268E+04  0.18575015305E+04  0.90386722557E+03 0.  0.
        -24    2    4    4    0    0  0.16702128424E+03 -0.40224811667E+03 -0.15786244298E+04  0.16395971217E+04  0.80771124577E+02 0.  0.
         24    2    4    4    0    0 -0.15493737026E+03 -0.12339100363E+03  0.43406702929E+02  0.21790440883E+03  0.79795119210E+02 0.  0.
         11    1    3    3    0    0  0.30559282060E+02  0.23127221029E+03 -0.13349874011E+03  0.26877987012E+03  0.00000000000E+00 0.  1.
        -11    1    3    3    0    0 -0.42643196034E+02  0.29436691001E+03 -0.24512261800E+03  0.38542887507E+03  0.00000000000E+00 0. -1.
          4    1    6    6  502    0 -0.44066539609E+02 -0.61046007587E+01 -0.13945388787E+02  0.46621882544E+02  0.00000000000E+00 0. -1.
          3    1    5    5  503    0  0.56146185422E+02 -0.56054341643E+02 -0.29761143735E+03  0.30800495288E+03  0.00000000000E+00 0. -1.
         -4    1    5    5    0  503  0.11087509881E+03 -0.34619377502E+03 -0.12810129924E+04  0.13315921688E+04  0.00000000000E+00 0.  1.
         -3    1    6    6    0  502 -0.11087083065E+03 -0.11728640287E+03  0.57352091716E+02  0.17128252629E+03  0.00000000000E+00 0.  1.
<mgrwt>
<rscale>  0 0.16266249E+04</rscale>
<asrwt>0</asrwt>
<pdfrwt beam="1">  1        1 0.34042687E+00 0.16266249E+04</pdfrwt>
<pdfrwt beam="2">  1       -1 0.45990092E-01 0.16266249E+04</pdfrwt>
<totfact> 0.96204167E+00</totfact>
</mgrwt>
</event>
<event>
12    1  0.2229268E-007  0.1659559E+04  0.7818608E-02  0.8784772E-01
         -4   -1    0    0    0  501 -0.00000000000E+00  0.00000000000E+00  0.65035437722E+03  0.65035437722E+03  0.00000000000E+00 0.  1.
          4   -1    0    0  501    0  0.00000000000E+00 -0.00000000000E+00 -0.10587053993E+04  0.10587053993E+04  0.00000000000E+00 0. -1.
         23    2    1    2    0    0  0.47676998585E+03  0.58793233269E+02 -0.54179019756E+03  0.73276802085E+03  0.11245483766E+03 0.  0.
        254    2    1    2    0    0 -0.47676998585E+03 -0.58793233269E+02  0.13343917545E+03  0.97629175570E+03  0.83938865552E+03 0.  0.
        -24    2    4    4    0    0  0.59466368084E+02  0.17548276357E+03  0.30089770260E+03  0.36202207794E+03  0.78677240952E+02 0.  0.
         24    2    4    4    0    0 -0.53623635394E+03 -0.23427599684E+03 -0.16745852715E+03  0.61426967775E+03  0.82765987668E+02 0.  0.
         13    1    3    3    0    0  0.34277071246E+03  0.41579401004E+02 -0.30771683152E+03  0.46250433112E+03  0.00000000000E+00 0. -1.
        -13    1    3    3    0    0  0.13399927339E+03  0.17213832264E+02 -0.23407336605E+03  0.27026368972E+03  0.00000000000E+00 0.  1.
          2    1    6    6  502    0 -0.35135293623E+02 -0.37459222612E+02 -0.34463145776E+01  0.51473870078E+02  0.00000000000E+00 0. -1.
          3    1    5    5  503    0  0.12113804468E+02  0.36666325995E+02  0.16423626219E+02  0.41963069702E+02  0.00000000000E+00 0. -1.
         -4    1    5    5    0  503  0.47352563616E+02  0.13881643758E+03  0.28447407638E+03  0.32005900824E+03  0.00000000000E+00 0.  1.
         -1    1    6    6    0  502 -0.50110106031E+03 -0.19681677423E+03 -0.16401221257E+03  0.56279580768E+03  0.00000000000E+00 0.  1.
<mgrwt>
<rscale>  0 0.16595586E+04</rscale>
<asrwt>0</asrwt>
<pdfrwt beam="1">  1        4 0.16287775E+00 0.16595586E+04</pdfrwt>
<pdfrwt beam="2">  1       -4 0.10005452E+00 0.16595586E+04</pdfrwt>
<totfact> 0.37512532E-01</totfact>
</mgrwt>
</event>
<event>
12    1  0.1599266E-007  0.1782532E+04  0.7818608E-02  0.8715644E-01
          1   -1    0    0  501    0  0.00000000000E+00  0.00000000000E+00  0.77323269401E+03  0.77323269401E+03  0.00000000000E+00 0. -1.
         -1   -1    0    0    0  501 -0.00000000000E+00 -0.00000000000E+00 -0.10273173181E+04  0.10273173181E+04  0.00000000000E+00 0.  1.
         23    2    1    2    0    0 -0.67138742466E+02  0.15509180722E+03 -0.74288475241E+03  0.76718946577E+03  0.90226612625E+02 0.  0.
        254    2    1    2    0    0  0.67138742466E+02 -0.15509180722E+03  0.48880012829E+03  0.10333605464E+04  0.89462135787E+03 0.  0.
        -24    2    4    4    0    0 -0.31340555119E+03 -0.82870151849E+02 -0.79466328589E+02  0.34145128165E+03  0.71997074787E+02 0.  0.
         24    2    4    4    0    0  0.38054429366E+03 -0.72221655367E+02  0.56826645688E+03  0.69190926471E+03  0.76037738242E+02 0.  0.
         13    1    3    3    0    0 -0.71393166336E+02  0.87782771458E+02 -0.57930635430E+03  0.59025304006E+03  0.00000000000E+00 0.  1.
        -13    1    3    3    0    0  0.42544238700E+01  0.67309035758E+02 -0.16357839810E+03  0.17693642571E+03  0.00000000000E+00 0. -1.
          4    1    6    6  502    0  0.72935809371E+02 -0.12584382935E+02  0.16803666756E+03  0.18361459808E+03  0.00000000000E+00 0. -1.
          1    1    5    5  503    0 -0.97893933211E+02  0.63835476092E+01 -0.13397234968E+02  0.99012412072E+02  0.00000000000E+00 0. -1.
         -2    1    5    5    0  503 -0.21551161798E+03 -0.89253699458E+02 -0.66069093622E+02  0.24243886958E+03  0.00000000000E+00 0.  1.
         -3    1    6    6    0  502  0.30760848429E+03 -0.59637272432E+02  0.40022978932E+03  0.50829466663E+03  0.00000000000E+00 0.  1.
<mgrwt>
<rscale>  0 0.17825323E+04</rscale>
<asrwt>0</asrwt>
<pdfrwt beam="1">  1        1 0.11895888E+00 0.17825323E+04</pdfrwt>
<pdfrwt beam="2">  1       -1 0.15804882E+00 0.17825323E+04</pdfrwt>
<totfact> 0.66714067E+00</totfact>
</mgrwt>
</event>
<event>
12    1  0.1599266E-007  0.2152292E+04  0.7818608E-02  0.8538552E-01
          1   -1    0    0  501    0  0.00000000000E+00  0.00000000000E+00  0.99069361709E+03  0.99069361709E+03  0.00000000000E+00 0. -1.
         -1   -1    0    0    0  501 -0.00000000000E+00 -0.00000000000E+00 -0.11689693969E+04  0.11689693969E+04  0.00000000000E+00 0.  1.
         23    2    1    2    0    0 -0.48367713198E+03 -0.74327778654E+03 -0.90239024974E+02  0.89497108580E+03  0.80154393552E+02 0.  0.
        254    2    1    2    0    0  0.48367713198E+03  0.74327778654E+03 -0.88036754879E+02  0.12646919282E+04  0.89737938864E+03 0.  0.
        -24    2    4    4    0    0  0.71545061913E+03  0.43948411627E+03 -0.18176957964E+03  0.86330027791E+03  0.85037126582E+02 0.  0.
         24    2    4    4    0    0 -0.23177348714E+03  0.30379367028E+03  0.93732824766E+02  0.40139165033E+03  0.79497616761E+02 0.  0.
         11    1    3    3    0    0 -0.87867914589E+02 -0.12233392190E+03 -0.45077167391E+02  0.15722057716E+03  0.00000000000E+00 0. -1.
        -11    1    3    3    0    0 -0.39580921740E+03 -0.62094386465E+03 -0.45161857583E+02  0.73775050864E+03  0.00000000000E+00 0.  1.
          4    1    6    6  502    0 -0.21243675201E+03  0.30402342198E+03  0.87475241199E+02  0.38106630990E+03  0.00000000000E+00 0. -1.
          1    1    5    5  503    0  0.33654385130E+03  0.18278708936E+03 -0.44908179100E+02  0.38560294142E+03  0.00000000000E+00 0. -1.
         -2    1    5    5    0  503  0.37890676782E+03  0.25669702691E+03 -0.13686140054E+03  0.47769733649E+03  0.00000000000E+00 0.  1.
         -1    1    6    6    0  502 -0.19336735130E+02 -0.22975170360E+00  0.62575835668E+01  0.20325340426E+02  0.00000000000E+00 0.  1.
<mgrwt>
<rscale>  0 0.21522923E+04</rscale>
<asrwt>0</asrwt>
<pdfrwt beam="1">  1        1 0.15241440E+00 0.21522923E+04</pdfrwt>
<pdfrwt beam="2">  1       -1 0.17984145E+00 0.21522923E+04</pdfrwt>
<totfact> 0.29394841E+00</totfact>
</mgrwt>
</event>
<event>
12    1  0.1599266E-007  0.1418293E+04  0.7818608E-02  0.8940683E-01
          1   -1    0    0  501    0  0.00000000000E+00  0.00000000000E+00  0.12331825913E+04  0.12331825913E+04  0.00000000000E+00 0. -1.
         -1   -1    0    0    0  501 -0.00000000000E+00 -0.00000000000E+00 -0.40779736143E+03  0.40779736143E+03  0.00000000000E+00 0.  1.
         23    2    1    2    0    0 -0.29518020701E+02 -0.26931610524E+03 -0.10909304105E+03  0.30602286846E+03  0.91357683454E+02 0.  0.
        254    2    1    2    0    0  0.29518020701E+02  0.26931610524E+03  0.93447827089E+03  0.13349570843E+04  0.91403408029E+03 0.  0.
        -24    2    4    4    0    0  0.30641921604E+03 -0.21828859068E+03  0.42859227000E+03  0.57556879234E+03  0.77752530746E+02 0.  0.
         24    2    4    4    0    0 -0.27690119534E+03  0.48760469592E+03  0.50588600089E+03  0.75938829191E+03  0.79481573505E+02 0.  0.
         13    1    3    3    0    0  0.16672256533E+02 -0.17433419201E+02  0.66144941378E+01  0.25012792240E+02  0.00000000000E+00 0. -1.
        -13    1    3    3    0    0 -0.46190277234E+02 -0.25188268604E+03 -0.11570753518E+03  0.28101007622E+03  0.00000000000E+00 0.  1.
          4    1    6    6  502    0 -0.16577053695E+03  0.36226649519E+03  0.36971676499E+03  0.54351391038E+03  0.00000000000E+00 0. -1.
          3    1    5    5  503    0  0.44037856373E+02 -0.67766516888E+02  0.10666143919E+03  0.13382188243E+03  0.00000000000E+00 0. -1.
         -4    1    5    5    0  503  0.26238135966E+03 -0.15052207379E+03  0.32193083081E+03  0.44174690992E+03  0.00000000000E+00 0.  1.
         -3    1    6    6    0  502 -0.11113065839E+03  0.12533820073E+03  0.13616923590E+03  0.21587438153E+03  0.00000000000E+00 0.  1.
<mgrwt>
<rscale>  0 0.14182928E+04</rscale>
<asrwt>0</asrwt>
<pdfrwt beam="1">  1        1 0.18972040E+00 0.14182928E+04</pdfrwt>
<pdfrwt beam="2">  1       -1 0.62738056E-01 0.14182928E+04</pdfrwt>
<totfact> 0.25357170E+01</totfact>
</mgrwt>
</event>
<event>
12    1  0.1599266E-007  0.2038269E+04  0.7818608E-02  0.8588935E-01
         -1   -1    0    0    0  501 -0.00000000000E+00  0.00000000000E+00  0.36991659858E+03  0.36991659858E+03  0.00000000000E+00 0.  1.
          1   -1    0    0  501    0  0.00000000000E+00 -0.00000000000E+00 -0.28077545240E+04  0.28077545240E+04  0.00000000000E+00 0. -1.
         23    2    1    2    0    0 -0.51899278339E+03 -0.20790619768E+03 -0.19093083506E+04  0.19916007358E+04  0.91851059033E+02 0.  0.
        254    2    1    2    0    0  0.51899278339E+03  0.20790619768E+03 -0.52852957490E+03  0.11860703868E+04  0.90268541293E+03 0.  0.
        -24    2    4    4    0    0  0.55138279325E+02  0.59128311777E+02  0.24370574996E+03  0.26947600773E+03  0.81782877667E+02 0.  0.
         24    2    4    4    0    0  0.46385450407E+03  0.14877788591E+03 -0.77223532485E+03  0.91659437909E+03  0.80634971077E+02 0.  0.
         11    1    3    3    0    0 -0.41310456600E+03 -0.12633175969E+03 -0.15048668788E+04  0.15656434521E+04  0.00000000000E+00 0. -1.
        -11    1    3    3    0    0 -0.10588821739E+03 -0.81574437992E+02 -0.40444147173E+03  0.42595728374E+03  0.00000000000E+00 0.  1.
          2    1    6    6  502    0  0.17120318496E+03  0.35952231785E+02 -0.21527310689E+03  0.27739070651E+03  0.00000000000E+00 0. -1.
          3    1    5    5  503    0 -0.67783583209E+01  0.52183322683E+02  0.11636921231E+03  0.12771389463E+03  0.00000000000E+00 0. -1.
         -4    1    5    5    0  503  0.61916637646E+02  0.69449890942E+01  0.12733653765E+03  0.14176211310E+03  0.00000000000E+00 0.  1.
         -1    1    6    6    0  502  0.29265131911E+03  0.11282565412E+03 -0.55696221796E+03  0.63920367258E+03  0.00000000000E+00 0.  1.
<mgrwt>
<rscale>  0 0.20382689E+04</rscale>
<asrwt>0</asrwt>
<pdfrwt beam="1">  1        1 0.43196222E+00 0.20382689E+04</pdfrwt>
<pdfrwt beam="2">  1       -1 0.56910248E-01 0.20382689E+04</pdfrwt>
<totfact> 0.23806830E+00</totfact>
</mgrwt>
</event>
<event>
12    1  0.1599266E-007  0.2732838E+04  0.7818608E-02  0.8324428E-01
         -1   -1    0    0    0  501 -0.00000000000E+00  0.00000000000E+00  0.28498557056E+04  0.28498557056E+04  0.00000000000E+00 0.  1.
          1   -1    0    0  501    0  0.00000000000E+00 -0.00000000000E+00 -0.65515618551E+03  0.65515618551E+03  0.00000000000E+00 0. -1.
         23    2    1    2    0    0 -0.46539604540E+03 -0.11310223546E+04  0.98409820626E+03  0.15724324551E+04  0.91046693920E+02 0.  0.
        254    2    1    2    0    0  0.46539604540E+03  0.11310223546E+04  0.12106013139E+04  0.19325794361E+04  0.87949001693E+03 0.  0.
        -24    2    4    4    0    0 -0.33408054408E+02  0.87281591621E+03  0.45602409794E+03  0.98852573481E+03  0.79381539354E+02 0.  0.
         24    2    4    4    0    0  0.49880409981E+03  0.25820643840E+03  0.75457721591E+03  0.94405370125E+03  0.79840599056E+02 0.  0.
         13    1    3    3    0    0 -0.36399807072E+03 -0.97086898221E+03  0.83238525417E+03  0.13296414507E+04  0.00000000000E+00 0.  1.
        -13    1    3    3    0    0 -0.10139797468E+03 -0.16015337240E+03  0.15171295208E+03  0.24279100434E+03  0.00000000000E+00 0. -1.
          2    1    6    6  502    0  0.49293219259E+03  0.26343775620E+03  0.73849283450E+03  0.92614969875E+03  0.00000000000E+00 0. -1.
          1    1    5    5  503    0  0.75206861196E+01  0.67121244196E+03  0.35483014730E+03  0.75926749989E+03  0.00000000000E+00 0. -1.
         -4    1    5    5    0  503 -0.40928740527E+02  0.20160347425E+03  0.10119395065E+03  0.22925823492E+03  0.00000000000E+00 0.  1.
         -1    1    6    6    0  502  0.58719072117E+01 -0.52313177961E+01  0.16084381408E+02  0.17904002499E+02  0.00000000000E+00 0.  1.
<mgrwt>
<rscale>  0 0.27328378E+04</rscale>
<asrwt>0</asrwt>
<pdfrwt beam="1">  1        1 0.10079326E+00 0.27328378E+04</pdfrwt>
<pdfrwt beam="2">  1       -1 0.43843933E+00 0.27328378E+04</pdfrwt>
<totfact> 0.10182648E-01</totfact>
</mgrwt>
</event>
<event>
12    1  0.1599266E-007  0.1179163E+04  0.7818608E-02  0.9131293E-01
          1   -1    0    0  501    0  0.00000000000E+00  0.00000000000E+00  0.22129199558E+03  0.22129199558E+03  0.00000000000E+00 0. -1.
         -1   -1    0    0    0  501 -0.00000000000E+00 -0.00000000000E+00 -0.15708041124E+04  0.15708041124E+04  0.00000000000E+00 0.  1.
         23    2    1    2    0    0 -0.81426393220E+02 -0.13162843636E+03 -0.23687079835E+02  0.17922374270E+03  0.87199595315E+02 0.  0.
        254    2    1    2    0    0  0.81426393220E+02  0.13162843636E+03 -0.13258250369E+04  0.16128723653E+04  0.90531151281E+03 0.  0.
        -24    2    4    4    0    0  0.17465384172E+03  0.47126145055E+03 -0.10189371066E+04  0.11389435407E+04  0.79801269517E+02 0.  0.
         24    2    4    4    0    0 -0.93227448496E+02 -0.33963301419E+03 -0.30688793039E+03  0.47392882453E+03  0.79914876114E+02 0.  0.
         11    1    3    3    0    0 -0.21097376918E+02  0.12860703146E+01 -0.25660982295E+02  0.33245139525E+02  0.00000000000E+00 0.  1.
        -11    1    3    3    0    0 -0.60329016303E+02 -0.13291450668E+03  0.19739024608E+01  0.14597860317E+03  0.00000000000E+00 0. -1.
          2    1    6    6  502    0 -0.10061415735E+03 -0.25758242913E+03 -0.21325248786E+03  0.34921131143E+03  0.00000000000E+00 0. -1.
          3    1    5    5  503    0  0.10825715065E+03  0.36801571389E+03 -0.81793285737E+03  0.90342090716E+03  0.00000000000E+00 0. -1.
         -4    1    5    5    0  503  0.66396691069E+02  0.10324573666E+03 -0.20100424919E+03  0.23552263356E+03  0.00000000000E+00 0.  1.
         -1    1    6    6    0  502  0.73867088510E+01 -0.82050585066E+02 -0.93635442523E+02  0.12471751310E+03  0.00000000000E+00 0.  1.
<mgrwt>
<rscale>  0 0.11791631E+04</rscale>
<asrwt>0</asrwt>
<pdfrwt beam="1">  1        1 0.34044921E-01 0.11791631E+04</pdfrwt>
<pdfrwt beam="2">  1       -1 0.24166218E+00 0.11791631E+04</pdfrwt>
<totfact> 0.10239107E+01</totfact>
</mgrwt>
</event>
<event>
12    1  0.1599266E-007  0.1671531E+04  0.7818608E-02  0.8777770E-01
          2   -1    0    0  501    0  0.00000000000E+00  0.00000000000E+00  0.14684018670E+04  0.14684018670E+04  0.00000000000E+00 0. -1.
         -2   -1    0    0    0  501 -0.00000000000E+00 -0.00000000000E+00 -0.47568990662E+03  0.47568990662E+03  0.00000000000E+00 0.  1.
         23    2    1    2    0    0 -0.12856631662E+03 -0.48627236707E+03  0.71391066393E+03  0.87809991186E+03  0.91656458480E+02 0.  0.
        254    2    1    2    0    0  0.12856631662E+03  0.48627236707E+03  0.27880129645E+03  0.10659918618E+04  0.89756246229E+03 0.  0.
        -24    2    4    4    0    0 -0.17327151714E+03  0.63258643724E+03  0.28806247817E+03  0.72072666266E+03  0.79235798161E+02 0.  0.
         24    2    4    4    0    0  0.30183783376E+03 -0.14631407017E+03 -0.92611817265E+01  0.34526519910E+03  0.81292085770E+02 0.  0.
         13    1    3    3    0    0 -0.14051335288E+03 -0.47016295140E+03  0.67767777580E+03  0.83668654287E+03  0.00000000000E+00 0.  1.
        -13    1    3    3    0    0  0.11947036257E+02 -0.16109415677E+02  0.36232888130E+02  0.41413368989E+02  0.00000000000E+00 0. -1.
          2    1    6    6  502    0  0.16468881797E+03 -0.10084169164E+03  0.30261282332E+02  0.19546661799E+03  0.00000000000E+00 0. -1.
          3    1    5    5  503    0 -0.10173185585E+03  0.49561808278E+03  0.21351652544E+03  0.54915932215E+03  0.00000000000E+00 0. -1.
         -4    1    5    5    0  503 -0.71539661285E+02  0.13696835447E+03  0.74545952728E+02  0.17156734051E+03  0.00000000000E+00 0.  1.
         -1    1    6    6    0  502  0.13714901578E+03 -0.45472378523E+02 -0.39522464059E+02  0.14979858111E+03  0.00000000000E+00 0.  1.
<mgrwt>
<rscale>  0 0.16715310E+04</rscale>
<asrwt>0</asrwt>
<pdfrwt beam="1">  1        2 0.22590798E+00 0.16715310E+04</pdfrwt>
<pdfrwt beam="2">  1       -2 0.73183063E-01 0.16715310E+04</pdfrwt>
<totfact> 0.21266475E+01</totfact>
</mgrwt>
</event>
<event>
12    1  0.1599266E-007  0.2271109E+04  0.7818608E-02  0.8489400E-01
          1   -1    0    0  501    0  0.00000000000E+00  0.00000000000E+00  0.10877908892E+04  0.10877908892E+04  0.00000000000E+00 0. -1.
         -1   -1    0    0    0  501 -0.00000000000E+00 -0.00000000000E+00 -0.11854155531E+04  0.11854155531E+04  0.00000000000E+00 0.  1.
         23    2    1    2    0    0 -0.54729127978E+03  0.36519163354E+03  0.62445644736E+03  0.91172020271E+03  0.91625319929E+02 0.  0.
        254    2    1    2    0    0  0.54729127978E+03 -0.36519163354E+03 -0.72208111126E+03  0.13614862397E+04  0.94834117037E+03 0.  0.
        -24    2    4    4    0    0  0.38881602838E+03 -0.46518456973E+03 -0.60805038825E+00  0.61187704264E+03  0.82574558702E+02 0.  0.
         24    2    4    4    0    0  0.15847525139E+03  0.99992936194E+02 -0.72147306087E+03  0.74960919701E+03  0.79231168709E+02 0.  0.
         11    1    3    3    0    0 -0.31663304485E+03  0.19120700092E+03  0.40801656849E+03  0.55072145633E+03  0.00000000000E+00 0. -1.
        -11    1    3    3    0    0 -0.23065823492E+03  0.17398463262E+03  0.21643987887E+03  0.36099874638E+03  0.00000000000E+00 0.  1.
          2    1    6    6  502    0 -0.90307016731E+01  0.46564380568E+01 -0.50031394057E+02  0.51052682392E+02  0.00000000000E+00 0. -1.
          1    1    5    5  503    0  0.67781548831E+02 -0.12563767036E+03 -0.20221242183E+02  0.14418065478E+03  0.00000000000E+00 0. -1.
         -2    1    5    5    0  503  0.32103447955E+03 -0.33954689937E+03  0.19613191795E+02  0.46769638787E+03  0.00000000000E+00 0.  1.
         -1    1    6    6    0  502  0.16750595307E+03  0.95336498137E+02 -0.67144166681E+03  0.69855651462E+03  0.00000000000E+00 0.  1.
<mgrwt>
<rscale>  0 0.22711092E+04</rscale>
<asrwt>0</asrwt>
<pdfrwt beam="1">  1        1 0.16735244E+00 0.22711092E+04</pdfrwt>
<pdfrwt beam="2">  1       -1 0.18237162E+00 0.22711092E+04</pdfrwt>
<totfact> 0.23485494E+00</totfact>
</mgrwt>
</event>
<event>
12    1  0.1599266E-007  0.1529402E+04  0.7818608E-02  0.8865133E-01
         -2   -1    0    0    0  501 -0.00000000000E+00  0.00000000000E+00  0.51200209054E+03  0.51200209054E+03  0.00000000000E+00 0.  1.
          2   -1    0    0  501    0  0.00000000000E+00 -0.00000000000E+00 -0.11421189262E+04  0.11421189262E+04  0.00000000000E+00 0. -1.
         23    2    1    2    0    0 -0.18783051570E+02  0.46142096179E+03 -0.25995408517E+02  0.47145603790E+03  0.91284869548E+02 0.  0.
        254    2    1    2    0    0  0.18783051570E+02 -0.46142096179E+03 -0.60412142713E+03  0.11826649788E+04  0.90579889955E+03 0.  0.
        -24    2    4    4    0    0  0.30722609024E+03  0.15513392760E+02 -0.52560499727E+03  0.61413758478E+03  0.79220098433E+02 0.  0.
         24    2    4    4    0    0 -0.28844303867E+03 -0.47693435455E+03 -0.78516429856E+02  0.56852739405E+03  0.79955005644E+02 0.  0.
         11    1    3    3    0    0 -0.46878684447E+02  0.38455980956E+03 -0.35697217139E+02  0.38904774706E+03  0.00000000000E+00 0. -1.
        -11    1    3    3    0    0  0.28095632878E+02  0.76861152230E+02  0.97018086215E+01  0.82408290842E+02  0.00000000000E+00 0.  1.
          4    1    6    6  502    0 -0.23367714314E+03 -0.32575901280E+03 -0.73987810272E+02  0.40767405818E+03  0.00000000000E+00 0. -1.
          3    1    5    5  503    0  0.26791887612E+03 -0.37967056692E+01 -0.40300456744E+03  0.48395001864E+03  0.00000000000E+00 0. -1.
         -4    1    5    5    0  503  0.39307214118E+02  0.19310098429E+02 -0.12260042983E+03  0.13018756614E+03  0.00000000000E+00 0.  1.
         -3    1    6    6    0  502 -0.54765895535E+02 -0.15117534175E+03 -0.45286195843E+01  0.16085333588E+03  0.00000000000E+00 0.  1.
<mgrwt>
<rscale>  0 0.15294016E+04</rscale>
<asrwt>0</asrwt>
<pdfrwt beam="1">  1        2 0.17571060E+00 0.15294016E+04</pdfrwt>
<pdfrwt beam="2">  1       -2 0.78769554E-01 0.15294016E+04</pdfrwt>
<totfact> 0.28330082E+01</totfact>
</mgrwt>
</event>
<event>
12    1  0.1599266E-007  0.1671598E+04  0.7818608E-02  0.8777731E-01
          2   -1    0    0  501    0  0.00000000000E+00  0.00000000000E+00  0.24684145302E+04  0.24684145302E+04  0.00000000000E+00 0.  1.
         -2   -1    0    0    0  501 -0.00000000000E+00 -0.00000000000E+00 -0.28299947696E+03  0.28299947696E+03  0.00000000000E+00 0. -1.
         23    2    1    2    0    0  0.17352741551E+03 -0.28924170497E+03  0.15306743761E+04  0.15700985699E+04  0.92048604526E+02 0.  0.
        254    2    1    2    0    0 -0.17352741551E+03  0.28924170497E+03  0.65474067714E+03  0.11813154373E+04  0.92360612833E+03 0.  0.
        -24    2    4    4    0    0  0.67849101054E+02 -0.30258455757E+03  0.11053040022E+03  0.33866232218E+03  0.79462469767E+02 0.  0.
         24    2    4    4    0    0 -0.24137651656E+03  0.59182626254E+03  0.54421027692E+03  0.84265311512E+03  0.73338251504E+02 0.  0.
         11    1    3    3    0    0  0.61089429878E+01 -0.20490199301E+02  0.33013887364E+02  0.39332991377E+02  0.00000000000E+00 0. -1.
        -11    1    3    3    0    0  0.16741847252E+03 -0.26875150567E+03  0.14976604888E+04  0.15307655785E+04  0.00000000000E+00 0.  1.
          2    1    6    6  502    0 -0.61022864570E+02  0.22375022887E+03  0.22502029616E+03  0.32314406788E+03  0.00000000000E+00 0. -1.
          3    1    5    5  503    0  0.22111645511E+02 -0.51943781524E+02 -0.91197082867E+01  0.57186103080E+02  0.00000000000E+00 0. -1.
         -4    1    5    5    0  503  0.45737455543E+02 -0.25064077605E+03  0.11965010850E+03  0.28147621910E+03  0.00000000000E+00 0.  1.
         -1    1    6    6    0  502 -0.18035365199E+03  0.36807603367E+03  0.31918998076E+03  0.51950904724E+03  0.00000000000E+00 0.  1.
<mgrwt>
<rscale>  0 0.16715981E+04</rscale>
<asrwt>0</asrwt>
<pdfrwt beam="1">  1        2 0.37975607E+00 0.16715981E+04</pdfrwt>
<pdfrwt beam="2">  1       -2 0.43538383E-01 0.16715981E+04</pdfrwt>
<totfact> 0.17349193E+01</totfact>
</mgrwt>
</event>
<event>
12    1  0.1599266E-007  0.1414324E+04  0.7818608E-02  0.8943515E-01
         -1   -1    0    0    0  501 -0.00000000000E+00  0.00000000000E+00  0.33879869617E+03  0.33879869617E+03  0.00000000000E+00 0.  1.
          1   -1    0    0  501    0  0.00000000000E+00 -0.00000000000E+00 -0.14760333382E+04  0.14760333382E+04  0.00000000000E+00 0. -1.
         23    2    1    2    0    0  0.35332562145E+02 -0.30355804099E+03  0.20903679926E+02  0.32005595541E+03  0.92752232104E+02 0.  0.
        254    2    1    2    0    0 -0.35332562145E+02  0.30355804099E+03 -0.11581383219E+04  0.14947760789E+04  0.89424564815E+03 0.  0.
        -24    2    4    4    0    0 -0.23690252409E+03  0.39301186211E+03 -0.11707809551E+04  0.12601077252E+04  0.81008053431E+02 0.  0.
         24    2    4    4    0    0  0.20156996194E+03 -0.89453821121E+02  0.12642633154E+02  0.23466835370E+03  0.79227295717E+02 0.  0.
         13    1    3    3    0    0  0.31977837858E+02 -0.28239381080E+03  0.45078123880E+02  0.28775142701E+03  0.00000000000E+00 0.  1.
        -13    1    3    3    0    0  0.33547242869E+01 -0.21164230185E+02 -0.24174443954E+02  0.32304528395E+02  0.00000000000E+00 0. -1.
          2    1    6    6  502    0  0.17724420087E+03 -0.66355461544E+02 -0.16843832149E+02  0.19000597017E+03  0.00000000000E+00 0. -1.
          3    1    5    5  503    0 -0.21283050361E+03  0.28792373325E+03 -0.91224420728E+03  0.97999305771E+03  0.00000000000E+00 0. -1.
         -4    1    5    5    0  503 -0.24072020473E+02  0.10508812886E+03 -0.25853674781E+03  0.28011466753E+03  0.00000000000E+00 0.  1.
         -1    1    6    6    0  502  0.24325761073E+02 -0.23098359578E+02  0.29486465304E+02  0.44662383536E+02  0.00000000000E+00 0.  1.
<mgrwt>
<rscale>  0 0.14143241E+04</rscale>
<asrwt>0</asrwt>
<pdfrwt beam="1">  1        1 0.22708205E+00 0.14143241E+04</pdfrwt>
<pdfrwt beam="2">  1       -1 0.52122876E-01 0.14143241E+04</pdfrwt>
<totfact> 0.24538173E+01</totfact>
</mgrwt>
</event>
<event>
12    1  0.1599266E-007  0.2855855E+04  0.7818608E-02  0.8286134E-01
          1   -1    0    0  501    0  0.00000000000E+00  0.00000000000E+00  0.11775041711E+04  0.11775041711E+04  0.00000000000E+00 0. -1.
         -1   -1    0    0    0  501 -0.00000000000E+00 -0.00000000000E+00 -0.17316096094E+04  0.17316096094E+04  0.00000000000E+00 0.  1.
         23    2    1    2    0    0 -0.79762888698E+03  0.99807152287E+03 -0.24407691615E+03  0.13039788254E+04  0.91807571061E+02 0.  0.
        254    2    1    2    0    0  0.79762888698E+03 -0.99807152287E+03 -0.31002852219E+03  0.16051349551E+04  0.92085934502E+03 0.  0.
        -24    2    4    4    0    0  0.42493066313E+03  0.65529792631E+02 -0.15816525992E+03  0.46494999591E+03  0.79385307583E+02 0.  0.
         24    2    4    4    0    0  0.37269822385E+03 -0.10636013155E+04 -0.15186326227E+03  0.11401849592E+04  0.82507977000E+02 0.  0.
         13    1    3    3    0    0 -0.40319414618E+03  0.49907169955E+03 -0.16916443364E+03  0.66351690741E+03  0.00000000000E+00 0.  1.
        -13    1    3    3    0    0 -0.39443474079E+03  0.49899982332E+03 -0.74912482515E+02  0.64046191804E+03  0.00000000000E+00 0. -1.
          2    1    6    6  502    0  0.24953765319E+03 -0.72904469554E+03 -0.14199760935E+03  0.78354229593E+03  0.00000000000E+00 0. -1.
          1    1    5    5  503    0  0.41216407963E+03  0.76941569350E+02 -0.15724955400E+03  0.44780202753E+03  0.00000000000E+00 0. -1.
         -2    1    5    5    0  503  0.12766583503E+02 -0.11411776719E+02 -0.91570592890E+00  0.17147968380E+02  0.00000000000E+00 0.  1.
         -1    1    6    6    0  502  0.12316057066E+03 -0.33455661996E+03 -0.98656529157E+01  0.35664266323E+03  0.00000000000E+00 0.  1.
<mgrwt>
<rscale>  0 0.28558554E+04</rscale>
<asrwt>0</asrwt>
<pdfrwt beam="1">  1        1 0.18115449E+00 0.28558554E+04</pdfrwt>
<pdfrwt beam="2">  1       -1 0.26640148E+00 0.28558554E+04</pdfrwt>
<totfact> 0.52142676E-01</totfact>
</mgrwt>
</event>
<event>
12    1  0.1599266E-007  0.1173942E+04  0.7818608E-02  0.9135976E-01
         -2   -1    0    0    0  501 -0.00000000000E+00  0.00000000000E+00  0.23854668840E+03  0.23854668840E+03  0.00000000000E+00 0. -1.
          2   -1    0    0  501    0  0.00000000000E+00 -0.00000000000E+00 -0.14443089175E+04  0.14443089175E+04  0.00000000000E+00 0.  1.
         23    2    1    2    0    0 -0.14542535880E+03 -0.15816239906E+03 -0.48890880918E+03  0.54170807341E+03  0.90840154361E+02 0.  0.
        254    2    1    2    0    0  0.14542535880E+03  0.15816239906E+03 -0.71685341991E+03  0.11411475325E+04  0.86149578397E+03 0.  0.
        -24    2    4    4    0    0  0.18115467134E+03 -0.32843269941E+03 -0.39973741457E+03  0.55382741651E+03  0.79055383648E+02 0.  0.
         24    2    4    4    0    0 -0.35729312537E+02  0.48659509847E+03 -0.31711600534E+03  0.58732011597E+03  0.79567481787E+02 0.  0.
         11    1    3    3    0    0 -0.68650663242E+02 -0.80202953469E+02 -0.34584190390E+03  0.36159652902E+03  0.00000000000E+00 0. -1.
        -11    1    3    3    0    0 -0.76774695557E+02 -0.77959445588E+02 -0.14306690528E+03  0.18011154439E+03  0.00000000000E+00 0.  1.
          2    1    6    6  502    0  0.84874874382E+01  0.11888057629E+03 -0.43602586655E+02  0.12690868538E+03  0.00000000000E+00 0. -1.
          1    1    5    5  503    0  0.42575592929E+02 -0.31630518289E+02 -0.80733833300E+02  0.96597736205E+02  0.00000000000E+00 0. -1.
         -2    1    5    5    0  503  0.13857907841E+03 -0.29680218112E+03 -0.31900358127E+03  0.45722968031E+03  0.00000000000E+00 0.  1.
         -1    1    6    6    0  502 -0.44216799975E+02  0.36771452218E+03 -0.27351341868E+03  0.46041143059E+03  0.00000000000E+00 0.  1.
<mgrwt>
<rscale>  0 0.11739423E+04</rscale>
<asrwt>0</asrwt>
<pdfrwt beam="1">  1        2 0.22220137E+00 0.11739423E+04</pdfrwt>
<pdfrwt beam="2">  1       -2 0.36699491E-01 0.11739423E+04</pdfrwt>
<totfact> 0.94294284E+01</totfact>
</mgrwt>
</event>
<event>
12    1  0.1599266E-007  0.1691191E+04  0.7818608E-02  0.8766404E-01
          2   -1    0    0  501    0  0.00000000000E+00  0.00000000000E+00  0.38978022040E+04  0.38978022040E+04  0.00000000000E+00 0. -1.
         -2   -1    0    0    0  501 -0.00000000000E+00 -0.00000000000E+00 -0.18344490586E+03  0.18344490586E+03  0.00000000000E+00 0.  1.
         23    2    1    2    0    0 -0.45165158042E+03  0.34274253514E+03  0.86682643213E+03  0.10396503682E+04  0.89572480026E+02 0.  0.
        254    2    1    2    0    0  0.45165158042E+03 -0.34274253514E+03  0.28475308661E+04  0.30415967417E+04  0.90632064442E+03 0.  0.
        -24    2    4    4    0    0 -0.17483829364E+03 -0.39068057255E+03  0.11371573262E+04  0.12176563349E+04  0.79752283512E+02 0.  0.
         24    2    4    4    0    0  0.62648987406E+03  0.47938037413E+02  0.17103735398E+04  0.18239404068E+04  0.81199408632E+02 0.  0.
         13    1    3    3    0    0 -0.14450611716E+03  0.10662159555E+03  0.35388751676E+03  0.39684575978E+03  0.00000000000E+00 0. -1.
        -13    1    3    3    0    0 -0.30714546326E+03  0.23612093959E+03  0.51293891536E+03  0.64280460842E+03  0.00000000000E+00 0.  1.
          4    1    6    6  502    0  0.97939713523E+02 -0.20549233638E+02  0.24472379462E+03  0.26439401306E+03  0.00000000000E+00 0. -1.
          1    1    5    5  503    0 -0.85008752219E+01 -0.97262719955E+02  0.27943298979E+03  0.29599847526E+03  0.00000000000E+00 0. -1.
         -2    1    5    5    0  503 -0.16633741841E+03 -0.29341785259E+03  0.85772433645E+03  0.92165785969E+03  0.00000000000E+00 0.  1.
         -3    1    6    6    0  502  0.52855016053E+03  0.68487271051E+02  0.14656497452E+04  0.15595463937E+04  0.00000000000E+00 0.  1.
<mgrwt>
<rscale>  0 0.16911912E+04</rscale>
<asrwt>0</asrwt>
<pdfrwt beam="1">  1        2 0.59966182E+00 0.16911912E+04</pdfrwt>
<pdfrwt beam="2">  1       -2 0.28222296E-01 0.16911912E+04</pdfrwt>
<totfact> 0.45864532E+00</totfact>
</mgrwt>
</event>
<event>
12    1  0.1599266E-007  0.2016176E+04  0.7818608E-02  0.8599095E-01
          2   -1    0    0  501    0  0.00000000000E+00  0.00000000000E+00  0.26286363021E+04  0.26286363021E+04  0.00000000000E+00 0. -1.
         -2   -1    0    0    0  501 -0.00000000000E+00 -0.00000000000E+00 -0.38660390666E+03  0.38660390666E+03  0.00000000000E+00 0.  1.
         23    2    1    2    0    0  0.48248354793E+03  0.31648691415E+02 -0.55678224085E+02  0.49519829725E+03  0.91264863291E+02 0.  0.
        254    2    1    2    0    0 -0.48248354793E+03 -0.31648691415E+02  0.22977106195E+04  0.25200419115E+04  0.91506564298E+03 0.  0.
        -24    2    4    4    0    0  0.14730462167E+03  0.11659220670E+03  0.10059126436E+03  0.22819574816E+03  0.81622930519E+02 0.  0.
         24    2    4    4    0    0 -0.62978816959E+03 -0.14824089812E+03  0.21971193552E+04  0.22918461633E+04  0.81344164711E+02 0.  0.
         13    1    3    3    0    0  0.62436810684E+01 -0.93790435306E+01  0.67510160194E+01  0.13134923986E+02  0.00000000000E+00 0. -1.
        -13    1    3    3    0    0  0.47623986686E+03  0.41027734946E+02 -0.62429240105E+02  0.48206337326E+03  0.00000000000E+00 0.  1.
          4    1    6    6  502    0 -0.11493566940E+03 -0.36405352697E+02  0.31190482711E+03  0.33439524365E+03  0.00000000000E+00 0. -1.
          1    1    5    5  503    0 -0.67256803233E+01  0.15915468089E+01 -0.53223398207E+01  0.87232504391E+01  0.00000000000E+00 0. -1.
         -2    1    5    5    0  503  0.15403030199E+03  0.11500065989E+03  0.10591360418E+03  0.21947249772E+03  0.00000000000E+00 0.  1.
         -3    1    6    6    0  502 -0.51485250020E+03 -0.11183554542E+03  0.18852145281E+04  0.19574509197E+04  0.00000000000E+00 0.  1.
<mgrwt>
<rscale>  0 0.20161757E+04</rscale>
<asrwt>0</asrwt>
<pdfrwt beam="1">  1        2 0.40440557E+00 0.20161757E+04</pdfrwt>
<pdfrwt beam="2">  1       -2 0.59477526E-01 0.20161757E+04</pdfrwt>
<totfact> 0.71720376E+00</totfact>
</mgrwt>
</event>
<event>
12    1  0.1599266E-007  0.1483078E+04  0.7818608E-02  0.8895784E-01
         -2   -1    0    0    0  501 -0.00000000000E+00  0.00000000000E+00  0.38418669870E+03  0.38418669870E+03  0.00000000000E+00 0.  1.
          2   -1    0    0  501    0  0.00000000000E+00 -0.00000000000E+00 -0.14312842015E+04  0.14312842015E+04  0.00000000000E+00 0. -1.
         23    2    1    2    0    0  0.71891855131E+02  0.44564963255E+03 -0.46663806914E+03  0.65565069371E+03  0.91404106971E+02 0.  0.
        254    2    1    2    0    0 -0.71891855131E+02 -0.44564963255E+03 -0.58045943370E+03  0.11598202065E+04  0.89692682168E+03 0.  0.
        -24    2    4    4    0    0 -0.32416549696E+03 -0.29558471893E+03  0.60957420451E+02  0.45006703981E+03  0.79943340776E+02 0.  0.
         24    2    4    4    0    0  0.25227364183E+03 -0.15006491362E+03 -0.64141685415E+03  0.70975316671E+03  0.78565311680E+02 0.  0.
         11    1    3    3    0    0 -0.19974901858E+02  0.70591841837E+02 -0.58888749353E+02  0.94074915033E+02  0.00000000000E+00 0.  1.
        -11    1    3    3    0    0  0.91866756989E+02  0.37505779071E+03 -0.40774931978E+03  0.56157577868E+03  0.00000000000E+00 0. -1.
          2    1    6    6  502    0  0.14480712629E+03 -0.12962742668E+03 -0.40071429400E+03  0.44535864086E+03  0.00000000000E+00 0. -1.
          3    1    5    5  503    0 -0.14961479564E+03 -0.12886163400E+03  0.67273316716E+02  0.20860394755E+03  0.00000000000E+00 0. -1.
         -4    1    5    5    0  503 -0.17455070132E+03 -0.16672308493E+03 -0.63158962653E+01  0.24146309226E+03  0.00000000000E+00 0.  1.
         -1    1    6    6    0  502  0.10746651554E+03 -0.20437486939E+02 -0.24070256015E+03  0.26439452585E+03  0.00000000000E+00 0.  1.
<mgrwt>
<rscale>  0 0.14830784E+04</rscale>
<asrwt>0</asrwt>
<pdfrwt beam="1">  1        2 0.22019757E+00 0.14830784E+04</pdfrwt>
<pdfrwt beam="2">  1       -2 0.59105646E-01 0.14830784E+04</pdfrwt>
<totfact> 0.35911909E+01</totfact>
</mgrwt>
</event>
<event>
12    1  0.1599266E-007  0.2820273E+04  0.7818608E-02  0.8297002E-01
         -2   -1    0    0    0  501 -0.00000000000E+00  0.00000000000E+00  0.24234795867E+04  0.24234795867E+04  0.00000000000E+00 0.  1.
          2   -1    0    0  501    0  0.00000000000E+00 -0.00000000000E+00 -0.82050812446E+03  0.82050812446E+03  0.00000000000E+00 0. -1.
         23    2    1    2    0    0 -0.11134319556E+04  0.56843627374E+03  0.95567553639E+03  0.15778500813E+04  0.11595098649E+03 0.  0.
        254    2    1    2    0    0  0.11134319556E+04 -0.56843627374E+03  0.64729592585E+03  0.16661376298E+04  0.89116332339E+03 0.  0.
        -24    2    4    4    0    0 -0.17669648304E+01 -0.36370647620E+03  0.29897777398E+03  0.47722358127E+03  0.77904519731E+02 0.  0.
         24    2    4    4    0    0  0.11151989204E+04 -0.20472979755E+03  0.34831815187E+03  0.11889140486E+04  0.81290576873E+02 0.  0.
         13    1    3    3    0    0 -0.78829800212E+03  0.37523379162E+03  0.60591312396E+03  0.10627063810E+04  0.00000000000E+00 0. -1.
        -13    1    3    3    0    0 -0.32513395346E+03  0.19320248212E+03  0.34976241244E+03  0.51514370028E+03  0.00000000000E+00 0.  1.
          2    1    6    6  502    0  0.87694341908E+03 -0.16192812926E+03  0.23857409173E+03  0.92312950151E+03  0.00000000000E+00 0. -1.
          3    1    5    5  503    0  0.23407838899E+02 -0.32109843924E+03  0.25024606483E+03  0.40776859561E+03  0.00000000000E+00 0. -1.
         -4    1    5    5    0  503 -0.25174803729E+02 -0.42608036956E+02  0.48731709154E+02  0.69454985660E+02  0.00000000000E+00 0.  1.
         -1    1    6    6    0  502  0.23825550133E+03 -0.42801668284E+02  0.10974406014E+03  0.26578454706E+03  0.00000000000E+00 0.  1.
<mgrwt>
<rscale>  0 0.28202728E+04</rscale>
<asrwt>0</asrwt>
<pdfrwt beam="1">  1        2 0.12623202E+00 0.28202728E+04</pdfrwt>
<pdfrwt beam="2">  1       -2 0.37284301E+00 0.28202728E+04</pdfrwt>
<totfact> 0.32196046E-01</totfact>
</mgrwt>
</event>
<event>
12    1  0.1599266E-007  0.1577703E+04  0.7818608E-02  0.8834364E-01
         -1   -1    0    0    0  501 -0.00000000000E+00  0.00000000000E+00  0.55228482872E+03  0.55228482872E+03  0.00000000000E+00 0.  1.
          1   -1    0    0  501    0  0.00000000000E+00 -0.00000000000E+00 -0.11267499647E+04  0.11267499647E+04  0.00000000000E+00 0. -1.
         23    2    1    2    0    0 -0.37380899614E+03 -0.33226518755E+03 -0.63402761966E+01  0.50845629680E+03  0.91401784454E+02 0.  0.
        254    2    1    2    0    0  0.37380899614E+03  0.33226518755E+03 -0.56812485982E+03  0.11705784967E+04  0.89294727730E+03 0.  0.
        -24    2    4    4    0    0  0.71888175273E+01 -0.28560247971E+03 -0.11918361313E+03  0.31970430326E+03  0.79910276988E+02 0.  0.
         24    2    4    4    0    0  0.36662017861E+03  0.61786766727E+03 -0.44894124669E+03  0.85087419340E+03  0.79169693661E+02 0.  0.
         11    1    3    3    0    0 -0.30040696264E+03 -0.21464590552E+03 -0.15249153112E+02  0.36952637880E+03  0.00000000000E+00 0.  1.
        -11    1    3    3    0    0 -0.73402033496E+02 -0.11761928203E+03  0.89088769156E+01  0.13892991800E+03  0.00000000000E+00 0. -1.
          2    1    6    6  502    0  0.28181183915E+03  0.43066911039E+03 -0.28750300403E+03  0.58953521749E+03  0.00000000000E+00 0. -1.
          1    1    5    5  503    0 -0.33574303661E+02 -0.16634609160E+03 -0.80827071132E+02  0.18796614452E+03  0.00000000000E+00 0. -1.
         -2    1    5    5    0  503  0.40763121189E+02 -0.11925638811E+03 -0.38356542000E+02  0.13173815874E+03  0.00000000000E+00 0.  1.
         -3    1    6    6    0  502  0.84808339462E+02  0.18719855687E+03 -0.16143824266E+03  0.26133897591E+03  0.00000000000E+00 0.  1.
<mgrwt>
<rscale>  0 0.15777033E+04</rscale>
<asrwt>0</asrwt>
<pdfrwt beam="1">  1        1 0.17334615E+00 0.15777033E+04</pdfrwt>
<pdfrwt beam="2">  1       -1 0.84966897E-01 0.15777033E+04</pdfrwt>
<totfact> 0.15947935E+01</totfact>
</mgrwt>
</event>
<event>
12    1  0.1599266E-007  0.2592429E+04  0.7818608E-02  0.8370777E-01
         -2   -1    0    0    0  501 -0.00000000000E+00  0.00000000000E+00  0.55850185627E+03  0.55850185627E+03  0.00000000000E+00 0.  1.
          2   -1    0    0  501    0  0.00000000000E+00 -0.00000000000E+00 -0.30083558035E+04  0.30083558035E+04  0.00000000000E+00 0. -1.
         23    2    1    2    0    0  0.10577429818E+04 -0.38888857189E+03 -0.87060862660E+03  0.14272083872E+04  0.94392071111E+02 0.  0.
        254    2    1    2    0    0 -0.10577429818E+04  0.38888857189E+03 -0.15792453206E+04  0.21396492725E+04  0.90223538499E+03 0.  0.
        -24    2    4    4    0    0 -0.12464871620E+03  0.10457949787E+03 -0.97003284323E+03  0.98681939515E+03  0.79841266770E+02 0.  0.
         24    2    4    4    0    0 -0.93309426555E+03  0.28430907402E+03 -0.60921247738E+03  0.11528298774E+04  0.79876940184E+02 0.  0.
         13    1    3    3    0    0  0.10235358958E+04 -0.38446844955E+03 -0.86019748262E+03  0.13911798690E+04  0.00000000000E+00 0.  1.
        -13    1    3    3    0    0  0.34207085913E+02 -0.44201223462E+01 -0.10411143981E+02  0.36028518249E+02  0.00000000000E+00 0. -1.
          4    1    6    6  502    0 -0.18624709591E+02 -0.16358813652E+01 -0.27651484174E+01  0.18899787326E+02  0.00000000000E+00 0. -1.
          3    1    5    5  503    0 -0.96243971820E+02  0.31374129585E+02 -0.48262151831E+03  0.49312348154E+03  0.00000000000E+00 0. -1.
         -4    1    5    5    0  503 -0.28404744380E+02  0.73205368281E+02 -0.48741132493E+03  0.49369591361E+03  0.00000000000E+00 0.  1.
         -3    1    6    6    0  502 -0.91446955596E+03  0.28594495539E+03 -0.60644732896E+03  0.11339300900E+04  0.00000000000E+00 0.  1.
<mgrwt>
<rscale>  0 0.25924292E+04</rscale>
<asrwt>0</asrwt>
<pdfrwt beam="1">  1        2 0.46282396E+00 0.25924292E+04</pdfrwt>
<pdfrwt beam="2">  1       -2 0.85923364E-01 0.25924292E+04</pdfrwt>
<totfact> 0.17898195E+00</totfact>
</mgrwt>
</event>
<event>
12    1  0.1599266E-007  0.1377751E+04  0.7818608E-02  0.8970083E-01
         -2   -1    0    0    0  501 -0.00000000000E+00  0.00000000000E+00  0.35258926520E+03  0.35258926520E+03  0.00000000000E+00 0.  1.
          2   -1    0    0  501    0  0.00000000000E+00 -0.00000000000E+00 -0.13458990855E+04  0.13458990855E+04  0.00000000000E+00 0. -1.
         23    2    1    2    0    0 -0.19119547215E+03  0.31740284683E+03 -0.20677081269E+03  0.43404134278E+03  0.91309597091E+02 0.  0.
        254    2    1    2    0    0  0.19119547215E+03 -0.31740284683E+03 -0.78653900758E+03  0.12644470079E+04  0.91808624299E+03 0.  0.
        -24    2    4    4    0    0  0.18634967514E+03 -0.60095830792E+03 -0.72608906145E+03  0.96415691412E+03  0.80722615196E+02 0.  0.
         24    2    4    4    0    0  0.48457970088E+01  0.28355546109E+03 -0.60449946134E+02  0.30029009377E+03  0.78056153925E+02 0.  0.
         11    1    3    3    0    0 -0.19116932765E+03  0.30686614817E+03 -0.17716503481E+03  0.40261643569E+03  0.00000000000E+00 0.  1.
        -11    1    3    3    0    0 -0.26144495786E-01  0.10536698655E+02 -0.29605777874E+02  0.31424907090E+02  0.00000000000E+00 0. -1.
          4    1    6    6  502    0  0.38715650350E+01  0.22184453238E+03 -0.79511675224E+02  0.23569491310E+03  0.00000000000E+00 0. -1.
          1    1    5    5  503    0  0.12124197597E+03 -0.39521243566E+03 -0.53347283931E+03  0.67489684866E+03  0.00000000000E+00 0. -1.
         -2    1    5    5    0  503  0.65107699171E+02 -0.20574587225E+03 -0.19261622213E+03  0.28926006546E+03  0.00000000000E+00 0.  1.
         -3    1    6    6    0  502  0.97423197380E+00  0.61710928711E+02  0.19061729090E+02  0.64595180673E+02  0.00000000000E+00 0.  1.
<mgrwt>
<rscale>  0 0.13777512E+04</rscale>
<asrwt>0</asrwt>
<pdfrwt beam="1">  1        2 0.20706140E+00 0.13777512E+04</pdfrwt>
<pdfrwt beam="2">  1       -2 0.54244502E-01 0.13777512E+04</pdfrwt>
<totfact> 0.48485026E+01</totfact>
</mgrwt>
</event>
<event>
12    1  0.1599266E-007  0.1861005E+04  0.7818608E-02  0.8674514E-01
         -1   -1    0    0    0  501 -0.00000000000E+00  0.00000000000E+00  0.54556779956E+03  0.54556779956E+03  0.00000000000E+00 0.  1.
          1   -1    0    0  501    0  0.00000000000E+00 -0.00000000000E+00 -0.15870342166E+04  0.15870342166E+04  0.00000000000E+00 0. -1.
         23    2    1    2    0    0  0.32708231824E+03 -0.28648529203E+03  0.24031274641E+03  0.50692160893E+03  0.10080990060E+03 0.  0.
        254    2    1    2    0    0 -0.32708231824E+03  0.28648529203E+03 -0.12817791634E+04  0.16256804072E+04  0.90045671588E+03 0.  0.
        -24    2    4    4    0    0  0.17815311081E+03  0.15107425515E+03 -0.99198529748E+03  0.10225426022E+04  0.83645569801E+02 0.  0.
         24    2    4    4    0    0 -0.50523542904E+03  0.13541103688E+03 -0.28979386594E+03  0.60313780506E+03  0.78713019795E+02 0.  0.
         11    1    3    3    0    0  0.81880822977E+02 -0.11193352087E+03  0.36452992250E+02  0.14339596546E+03  0.00000000000E+00 0. -1.
        -11    1    3    3    0    0  0.24520149526E+03 -0.17455177115E+03  0.20385975416E+03  0.36352564346E+03  0.00000000000E+00 0.  1.
          4    1    6    6  502    0 -0.42265233762E+03  0.90089076702E+02 -0.21400852967E+03  0.48223509932E+03  0.00000000000E+00 0. -1.
          1    1    5    5  503    0  0.14419764192E+03  0.10362976894E+03 -0.58379475951E+03  0.61020358093E+03  0.00000000000E+00 0. -1.
         -2    1    5    5    0  503  0.33955468889E+02  0.47444486211E+02 -0.40819053797E+03  0.41233902123E+03  0.00000000000E+00 0.  1.
         -3    1    6    6    0  502 -0.82583091420E+02  0.45321960177E+02 -0.75785336267E+02  0.12090270574E+03  0.00000000000E+00 0.  1.
<mgrwt>
<rscale>  0 0.18610049E+04</rscale>
<asrwt>0</asrwt>
<pdfrwt beam="1">  1        1 0.24415911E+00 0.18610049E+04</pdfrwt>
<pdfrwt beam="2">  1       -1 0.83933508E-01 0.18610049E+04</pdfrwt>
<totfact> 0.75228554E+00</totfact>
</mgrwt>
</event>
<event>
12    1  0.1599266E-007  0.1292357E+04  0.7818608E-02  0.9035648E-01
          2   -1    0    0  501    0  0.00000000000E+00  0.00000000000E+00  0.20341426934E+03  0.20341426934E+03  0.00000000000E+00 0. -1.
         -2   -1    0    0    0  501 -0.00000000000E+00 -0.00000000000E+00 -0.20526900802E+04  0.20526900802E+04  0.00000000000E+00 0.  1.
         23    2    1    2    0    0  0.10662887241E+03 -0.27179760500E+03 -0.73661433673E+03  0.79768841736E+03  0.91991714789E+02 0.  0.
        254    2    1    2    0    0 -0.10662887241E+03  0.27179760500E+03 -0.11126614741E+04  0.14584159322E+04  0.89650310693E+03 0.  0.
        -24    2    4    4    0    0 -0.32691359690E+03  0.33058398478E+03 -0.19644027287E+03  0.51091957069E+03  0.79320590487E+02 0.  0.
         24    2    4    4    0    0  0.22028472450E+03 -0.58786379782E+02 -0.91622120124E+03  0.94749636148E+03  0.79415786360E+02 0.  0.
         11    1    3    3    0    0  0.10231974603E+03 -0.24107618246E+03 -0.71018500386E+03  0.75693447265E+03  0.00000000000E+00 0. -1.
        -11    1    3    3    0    0  0.43091263775E+01 -0.30721422543E+02 -0.26429332874E+02  0.40753944710E+02  0.00000000000E+00 0.  1.
          2    1    6    6  502    0  0.10946842455E+03 -0.61108598135E+02 -0.38729180764E+03  0.40707805272E+03  0.00000000000E+00 0. -1.
          3    1    5    5  503    0 -0.26898076172E+03  0.30632384835E+03 -0.15753107291E+03  0.43703659936E+03  0.00000000000E+00 0. -1.
         -4    1    5    5    0  503 -0.57932835181E+02  0.24260136433E+02 -0.38909199957E+02  0.73882971334E+02  0.00000000000E+00 0.  1.
         -1    1    6    6    0  502  0.11081629994E+03  0.23222183527E+01 -0.52892939360E+03  0.54041830877E+03  0.00000000000E+00 0.  1.
<mgrwt>
<rscale>  0 0.12923567E+04</rscale>
<asrwt>0</asrwt>
<pdfrwt beam="1">  1        2 0.31294503E-01 0.12923567E+04</pdfrwt>
<pdfrwt beam="2">  1       -2 0.31579847E+00 0.12923567E+04</pdfrwt>
<totfact> 0.42658729E+00</totfact>
</mgrwt>
</event>
<event>
12    1  0.1599266E-007  0.2773653E+04  0.7818608E-02  0.8311495E-01
         -2   -1    0    0    0  501 -0.00000000000E+00  0.00000000000E+00  0.73704375945E+03  0.73704375945E+03  0.00000000000E+00 0.  1.
          2   -1    0    0  501    0  0.00000000000E+00 -0.00000000000E+00 -0.26094623630E+04  0.26094623630E+04  0.00000000000E+00 0. -1.
         23    2    1    2    0    0 -0.10548765376E+04 -0.38672818825E+03 -0.14674010422E+04  0.18503377834E+04  0.90337660841E+02 0.  0.
        254    2    1    2    0    0  0.10548765376E+04  0.38672818825E+03 -0.40501756137E+03  0.14961683390E+04  0.90119768778E+03 0.  0.
        -24    2    4    4    0    0  0.77312140355E+03  0.40197394262E+03  0.13136170581E+03  0.88486623259E+03  0.80203470351E+02 0.  0.
         24    2    4    4    0    0  0.28175513407E+03 -0.15245754369E+02 -0.53637926718E+03  0.61130210643E+03  0.79807007594E+02 0.  0.
         11    1    3    3    0    0 -0.58311996703E+03 -0.24321345627E+03 -0.88174109496E+03  0.10847345481E+04  0.00000000000E+00 0. -1.
        -11    1    3    3    0    0 -0.47175657059E+03 -0.14351473198E+03 -0.58565994724E+03  0.76560323536E+03  0.00000000000E+00 0.  1.
          2    1    6    6  502    0  0.22119792292E+03 -0.44883909679E+02 -0.41993274591E+03  0.47674584166E+03  0.00000000000E+00 0. -1.
          3    1    5    5  503    0  0.51406556275E+03  0.30893920460E+03  0.94452764770E+02  0.60714756008E+03  0.00000000000E+00 0. -1.
         -4    1    5    5    0  503  0.25905584080E+03  0.93034738025E+02  0.36908941043E+02  0.27771867251E+03  0.00000000000E+00 0.  1.
         -1    1    6    6    0  502  0.60557211154E+02  0.29638155310E+02 -0.11644652127E+03  0.13455626477E+03  0.00000000000E+00 0.  1.
<mgrwt>
<rscale>  0 0.27736532E+04</rscale>
<asrwt>0</asrwt>
<pdfrwt beam="1">  1        2 0.40145575E+00 0.27736532E+04</pdfrwt>
<pdfrwt beam="2">  1       -2 0.11339135E+00 0.27736532E+04</pdfrwt>
<totfact> 0.15984605E+00</totfact>
</mgrwt>
</event>
<event>
12    1  0.1599266E-007  0.2779824E+04  0.7818608E-02  0.8309560E-01
         -2   -1    0    0    0  501 -0.00000000000E+00  0.00000000000E+00  0.78008302663E+03  0.78008302663E+03  0.00000000000E+00 0.  1.
          2   -1    0    0  501    0  0.00000000000E+00 -0.00000000000E+00 -0.24764731798E+04  0.24764731798E+04  0.00000000000E+00 0. -1.
         23    2    1    2    0    0  0.97571953120E+03  0.54720682491E+03 -0.12823284960E+03  0.11297439291E+04  0.91726597830E+02 0.  0.
        254    2    1    2    0    0 -0.97571953120E+03 -0.54720682491E+03 -0.15681573035E+04  0.21268122773E+04  0.90152605154E+03 0.  0.
        -24    2    4    4    0    0  0.92578057896E+02 -0.25476956822E+03 -0.55784729535E+03  0.62547027348E+03  0.80877860945E+02 0.  0.
         24    2    4    4    0    0 -0.10682975891E+04 -0.29243725670E+03 -0.10103100082E+04  0.15013420039E+04  0.80760212539E+02 0.  0.
         11    1    3    3    0    0  0.67436662067E+03  0.33591795213E+03 -0.10848481812E+03  0.76117026046E+03  0.00000000000E+00 0.  1.
        -11    1    3    3    0    0  0.30135291053E+03  0.21128887278E+03 -0.19748031476E+02  0.36857366861E+03  0.00000000000E+00 0. -1.
          2    1    6    6  502    0 -0.88303484487E+03 -0.25106098723E+03 -0.79622700225E+03  0.12152199783E+04  0.00000000000E+00 0. -1.
          1    1    5    5  503    0  0.19921228601E+02 -0.16847718793E+03 -0.35156559227E+03  0.39035853247E+03  0.00000000000E+00 0. -1.
         -2    1    5    5    0  503  0.72656829294E+02 -0.86292380281E+02 -0.20628170308E+03  0.23511174101E+03  0.00000000000E+00 0.  1.
         -1    1    6    6    0  502 -0.18526274422E+03 -0.41376269465E+02 -0.21408300595E+03  0.28612202556E+03  0.00000000000E+00 0.  1.
<mgrwt>
<rscale>  0 0.27798235E+04</rscale>
<asrwt>0</asrwt>
<pdfrwt beam="1">  1        2 0.38099587E+00 0.27798235E+04</pdfrwt>
<pdfrwt beam="2">  1       -2 0.12001278E+00 0.27798235E+04</pdfrwt>
<totfact> 0.16616877E+00</totfact>
</mgrwt>
</event>
<event>
12    1  0.1599266E-007  0.1918111E+04  0.7818608E-02  0.8645893E-01
          1   -1    0    0  501    0  0.00000000000E+00  0.00000000000E+00  0.21621016380E+04  0.21621016380E+04  0.00000000000E+00 0. -1.
         -1   -1    0    0    0  501 -0.00000000000E+00 -0.00000000000E+00 -0.42541372687E+03  0.42541372687E+03  0.00000000000E+00 0.  1.
         23    2    1    2    0    0  0.43444601367E+03  0.27655569787E+03  0.14056145597E+04  0.14998242391E+04  0.92163251544E+02 0.  0.
        254    2    1    2    0    0 -0.43444601367E+03 -0.27655569787E+03  0.33107335145E+03  0.10876911258E+04  0.89901948158E+03 0.  0.
        -24    2    4    4    0    0  0.24315725373E+02 -0.36676955708E+03 -0.15645851647E+03  0.40756180734E+03  0.80722964046E+02 0.  0.
         24    2    4    4    0    0 -0.45876173904E+03  0.90213859212E+02  0.48753186792E+03  0.68012931845E+03  0.79294980741E+02 0.  0.
         11    1    3    3    0    0  0.41457808809E+03  0.27636144093E+03  0.13813591309E+04  0.14684698450E+04  0.00000000000E+00 0. -1.
        -11    1    3    3    0    0  0.19867925573E+02  0.19425694086E+00  0.24255428741E+02  0.31354394042E+02  0.00000000000E+00 0.  1.
          4    1    6    6  502    0 -0.16931640062E+03 -0.37228635744E+00  0.20205875101E+03  0.26362079010E+03  0.00000000000E+00 0. -1.
          3    1    5    5  503    0  0.40751271665E+02 -0.32167281067E+03 -0.11467658463E+03  0.34392554765E+03  0.00000000000E+00 0. -1.
         -4    1    5    5    0  503 -0.16435546292E+02 -0.45096746410E+02 -0.41781931834E+02  0.63636259683E+02  0.00000000000E+00 0.  1.
         -3    1    6    6    0  502 -0.28944533842E+03  0.90586145569E+02  0.28547311692E+03  0.41650852834E+03  0.00000000000E+00 0.  1.
<mgrwt>
<rscale>  0 0.19181113E+04</rscale>
<asrwt>0</asrwt>
<pdfrwt beam="1">  1        1 0.33263102E+00 0.19181113E+04</pdfrwt>
<pdfrwt beam="2">  1       -1 0.65448267E-01 0.19181113E+04</pdfrwt>
<totfact> 0.51122492E+00</totfact>
</mgrwt>
</event>
<event>
12    1  0.1599266E-007  0.2214644E+04  0.7818608E-02  0.8512357E-01
          2   -1    0    0  501    0  0.00000000000E+00  0.00000000000E+00  0.60466992847E+03  0.60466992847E+03  0.00000000000E+00 0. -1.
         -2   -1    0    0    0  501 -0.00000000000E+00 -0.00000000000E+00 -0.20278212630E+04  0.20278212630E+04  0.00000000000E+00 0.  1.
         23    2    1    2    0    0 -0.36618082641E+03 -0.82677065690E+03 -0.79819896554E+03  0.12095361262E+04  0.90652828334E+02 0.  0.
        254    2    1    2    0    0  0.36618082641E+03  0.82677065690E+03 -0.62495236895E+03  0.14229550652E+04  0.90365786523E+03 0.  0.
        -24    2    4    4    0    0  0.58230927369E+03  0.57955570683E+03 -0.14850836496E+03  0.83868415105E+03  0.79796385942E+02 0.  0.
         24    2    4    4    0    0 -0.21612844728E+03  0.24721495008E+03 -0.47644400399E+03  0.58427091416E+03  0.80912761249E+02 0.  0.
         11    1    3    3    0    0 -0.80208545889E+02 -0.28415821335E+03 -0.26959669929E+03  0.39982706427E+03  0.00000000000E+00 0. -1.
        -11    1    3    3    0    0 -0.28597228053E+03 -0.54261244355E+03 -0.52860226624E+03  0.80970906195E+03  0.00000000000E+00 0.  1.
          4    1    6    6  502    0 -0.56659075719E+02  0.11657527389E+03 -0.21873678519E+03  0.25425543561E+03  0.00000000000E+00 0. -1.
          1    1    5    5  503    0  0.19333131705E+03  0.15910554021E+03 -0.16761894400E+02  0.25094328479E+03  0.00000000000E+00 0. -1.
         -2    1    5    5    0  503  0.38897795665E+03  0.42045016662E+03 -0.13174647056E+03  0.58774086626E+03  0.00000000000E+00 0.  1.
         -3    1    6    6    0  502 -0.15946937156E+03  0.13063967619E+03 -0.25770721880E+03  0.33001547855E+03  0.00000000000E+00 0.  1.
<mgrwt>
<rscale>  0 0.22146445E+04</rscale>
<asrwt>0</asrwt>
<pdfrwt beam="1">  1        2 0.93026142E-01 0.22146445E+04</pdfrwt>
<pdfrwt beam="2">  1       -2 0.31197250E+00 0.22146445E+04</pdfrwt>
<totfact> 0.12045563E+00</totfact>
</mgrwt>
</event>
<event>
12    1  0.1599266E-007  0.2405936E+04  0.7818608E-02  0.8437285E-01
          2   -1    0    0  501    0  0.00000000000E+00  0.00000000000E+00  0.15230562631E+04  0.15230562631E+04  0.00000000000E+00 0. -1.
         -2   -1    0    0    0  501 -0.00000000000E+00 -0.00000000000E+00 -0.95014992773E+03  0.95014992773E+03  0.00000000000E+00 0.  1.
         23    2    1    2    0    0 -0.25444638496E+03 -0.40153454694E+02 -0.77918152384E+03  0.82644935225E+03  0.97669964679E+02 0.  0.
        254    2    1    2    0    0  0.25444638496E+03  0.40153454694E+02  0.13520878592E+04  0.16467568385E+04  0.90405267746E+03 0.  0.
        -24    2    4    4    0    0 -0.10574664269E+03 -0.33139879088E+03  0.84761253388E+03  0.91960112540E+03  0.78814409896E+02 0.  0.
         24    2    4    4    0    0  0.36019302765E+03  0.37155224558E+03  0.50447532529E+03  0.72715571314E+03  0.80436241612E+02 0.  0.
         11    1    3    3    0    0 -0.13372208743E+03  0.53168020436E+01 -0.27229733113E+03  0.30340682523E+03  0.00000000000E+00 0. -1.
        -11    1    3    3    0    0 -0.12072429753E+03 -0.45470256738E+02 -0.50688419271E+03  0.52304252703E+03  0.00000000000E+00 0.  1.
          4    1    6    6  502    0  0.12973012079E+03  0.19105763357E+03  0.21873017081E+03  0.31808145373E+03  0.00000000000E+00 0. -1.
          3    1    5    5  503    0 -0.84518025089E+01 -0.13779648089E+03  0.37770214458E+03  0.40214203104E+03  0.00000000000E+00 0. -1.
         -4    1    5    5    0  503 -0.97294840179E+02 -0.19360230999E+03  0.46991038931E+03  0.51745909436E+03  0.00000000000E+00 0.  1.
         -3    1    6    6    0  502  0.23046290686E+03  0.18049461201E+03  0.28574515448E+03  0.40907425941E+03  0.00000000000E+00 0.  1.
<mgrwt>
<rscale>  0 0.24059358E+04</rscale>
<asrwt>0</asrwt>
<pdfrwt beam="1">  1        2 0.23431635E+00 0.24059358E+04</pdfrwt>
<pdfrwt beam="2">  1       -2 0.14617691E+00 0.24059358E+04</pdfrwt>
<totfact> 0.35523963E+00</totfact>
</mgrwt>
</event>
<event>
12    1  0.1599266E-007  0.1359458E+04  0.7818608E-02  0.8983699E-01
          1   -1    0    0  501    0  0.00000000000E+00  0.00000000000E+00  0.83067702146E+03  0.83067702146E+03  0.00000000000E+00 0. -1.
         -1   -1    0    0    0  501 -0.00000000000E+00 -0.00000000000E+00 -0.55621107046E+03  0.55621107046E+03  0.00000000000E+00 0.  1.
         23    2    1    2    0    0 -0.21071898883E+03 -0.81081082961E+02 -0.22500609581E+03  0.33115125261E+03  0.89759538144E+02 0.  0.
        254    2    1    2    0    0  0.21071898883E+03  0.81081082961E+02  0.49947204681E+03  0.10557368393E+04  0.90229225535E+03 0.  0.
        -24    2    4    4    0    0  0.10677327678E+03 -0.40388442601E+03  0.26872021316E+03  0.50302356148E+03  0.79366165550E+02 0.  0.
         24    2    4    4    0    0  0.10394571205E+03  0.48496550897E+03  0.23075183365E+03  0.55271327783E+03  0.79052531932E+02 0.  0.
         13    1    3    3    0    0 -0.11911658931E+03 -0.42286818666E+02 -0.18471569436E+03  0.22382319948E+03  0.00000000000E+00 0.  1.
        -13    1    3    3    0    0 -0.91602399527E+02 -0.38794264295E+02 -0.40290401447E+02  0.10732805314E+03  0.00000000000E+00 0. -1.
          4    1    6    6  502    0  0.66145924455E+01  0.43498661378E+02  0.47966309476E+02  0.65089578425E+02  0.00000000000E+00 0. -1.
          3    1    5    5  503    0  0.67057700077E+02 -0.15024425312E+03  0.72021960519E+02  0.17960298865E+03  0.00000000000E+00 0. -1.
         -4    1    5    5    0  503  0.39715576703E+02 -0.25364017290E+03  0.19669825264E+03  0.32342057283E+03  0.00000000000E+00 0.  1.
         -3    1    6    6    0  502  0.97331119607E+02  0.44146684760E+03  0.18278552418E+03  0.48762369940E+03  0.00000000000E+00 0.  1.
<mgrwt>
<rscale>  0 0.13594584E+04</rscale>
<asrwt>0</asrwt>
<pdfrwt beam="1">  1        1 0.12779647E+00 0.13594584E+04</pdfrwt>
<pdfrwt beam="2">  1       -1 0.85570934E-01 0.13594584E+04</pdfrwt>
<totfact> 0.27462384E+01</totfact>
</mgrwt>
</event>
<event>
12    1  0.1599266E-007  0.2439477E+04  0.7818608E-02  0.8424870E-01
         -1   -1    0    0    0  501 -0.00000000000E+00  0.00000000000E+00  0.13802737789E+04  0.13802737789E+04  0.00000000000E+00 0.  1.
          1   -1    0    0  501    0  0.00000000000E+00 -0.00000000000E+00 -0.10778741896E+04  0.10778741896E+04  0.00000000000E+00 0. -1.
         23    2    1    2    0    0 -0.20403812321E+03 -0.86988028761E+03  0.69447966687E+03  0.11356749457E+04  0.95563089797E+02 0.  0.
        254    2    1    2    0    0  0.20403812321E+03  0.86988028761E+03 -0.39208007758E+03  0.13224730228E+04  0.89268406413E+03 0.  0.
        -24    2    4    4    0    0 -0.54256067540E+02  0.55711511809E+03 -0.62921661645E+03  0.84589234935E+03  0.79368385380E+02 0.  0.
         24    2    4    4    0    0  0.25829419075E+03  0.31276516952E+03  0.23713653887E+03  0.47658067347E+03  0.79733681847E+02 0.  0.
         11    1    3    3    0    0 -0.33913047611E+02 -0.31786952047E+03  0.21867549535E+03  0.38731137229E+03  0.00000000000E+00 0. -1.
        -11    1    3    3    0    0 -0.17012507560E+03 -0.55201076714E+03  0.47580417152E+03  0.74836357342E+03  0.00000000000E+00 0.  1.
          2    1    6    6  502    0  0.22318348534E+03  0.21811306499E+03  0.17032409190E+03  0.35552000440E+03  0.00000000000E+00 0. -1.
          3    1    5    5  503    0 -0.57009414074E+02  0.55707376929E+03 -0.61640572167E+03  0.83278885165E+03  0.00000000000E+00 0. -1.
         -4    1    5    5    0  503  0.27533465348E+01  0.41348800387E-01 -0.12810894778E+02  0.13103497697E+02  0.00000000000E+00 0.  1.
         -1    1    6    6    0  502  0.35110705412E+02  0.94652104528E+02  0.66812446971E+02  0.12106066907E+03  0.00000000000E+00 0.  1.
<mgrwt>
<rscale>  0 0.24394766E+04</rscale>
<asrwt>0</asrwt>
<pdfrwt beam="1">  1        1 0.16582680E+00 0.24394766E+04</pdfrwt>
<pdfrwt beam="2">  1       -1 0.21234981E+00 0.24394766E+04</pdfrwt>
<totfact> 0.14583368E+00</totfact>
</mgrwt>
</event>
<event>
12    1  0.1599266E-007  0.2024904E+04  0.7818608E-02  0.8595065E-01
          2   -1    0    0  501    0  0.00000000000E+00  0.00000000000E+00  0.16884567736E+04  0.16884567736E+04  0.00000000000E+00 0. -1.
         -2   -1    0    0    0  501 -0.00000000000E+00 -0.00000000000E+00 -0.60709847331E+03  0.60709847331E+03  0.00000000000E+00 0.  1.
         23    2    1    2    0    0 -0.55607715629E+03 -0.40113583756E+03 -0.68760734946E+02  0.69541367680E+03  0.93489995688E+02 0.  0.
        254    2    1    2    0    0  0.55607715629E+03  0.40113583756E+03  0.11501190353E+04  0.16001415701E+04  0.87609787426E+03 0.  0.
        -24    2    4    4    0    0  0.76590100367E+03  0.42022991680E+03  0.99357876650E+03  0.13254976366E+04  0.80917790950E+02 0.  0.
         24    2    4    4    0    0 -0.20982384738E+03 -0.19094079238E+02  0.15654026878E+03  0.27464393359E+03  0.80831947373E+02 0.  0.
         13    1    3    3    0    0 -0.82962404907E+02 -0.57006715161E+02  0.22932512065E+02  0.10323965474E+03  0.00000000000E+00 0. -1.
        -13    1    3    3    0    0 -0.47311475138E+03 -0.34412912240E+03 -0.91693247011E+02  0.59217402206E+03  0.00000000000E+00 0.  1.
          4    1    6    6  502    0 -0.15617244753E+03 -0.41842771276E+02  0.85948036214E+02  0.18310575033E+03  0.00000000000E+00 0. -1.
          1    1    5    5  503    0  0.13883255739E+03  0.11305555852E+03  0.19730466297E+03  0.26643041931E+03  0.00000000000E+00 0. -1.
         -2    1    5    5    0  503  0.62706844627E+03  0.30717435828E+03  0.79627410352E+03  0.10590672172E+04  0.00000000000E+00 0.  1.
         -3    1    6    6    0  502 -0.53651399852E+02  0.22748692037E+02  0.70592232568E+02  0.91538183259E+02  0.00000000000E+00 0.  1.
<mgrwt>
<rscale>  0 0.20249045E+04</rscale>
<asrwt>0</asrwt>
<pdfrwt beam="1">  1        2 0.25976258E+00 0.20249045E+04</pdfrwt>
<pdfrwt beam="2">  1       -2 0.93399766E-01 0.20249045E+04</pdfrwt>
<totfact> 0.89490752E+00</totfact>
</mgrwt>
</event>
<event>
12    1  0.1599266E-007  0.2195099E+04  0.7818608E-02  0.8520471E-01
          2   -1    0    0  501    0  0.00000000000E+00  0.00000000000E+00  0.22098255174E+04  0.22098255174E+04  0.00000000000E+00 0. -1.
         -2   -1    0    0    0  501 -0.00000000000E+00 -0.00000000000E+00 -0.54511747149E+03  0.54511747149E+03  0.00000000000E+00 0.  1.
         23    2    1    2    0    0  0.22979860048E+03  0.11780977790E+03 -0.39628592217E+03  0.48210180866E+03  0.93236694784E+02 0.  0.
        254    2    1    2    0    0 -0.22979860048E+03 -0.11780977790E+03  0.20609939681E+04  0.22728411802E+04  0.92272658658E+03 0.  0.
        -24    2    4    4    0    0 -0.35115521230E+03  0.14990954959E+03  0.18803802739E+04  0.19203737526E+04  0.78882943351E+02 0.  0.
         24    2    4    4    0    0  0.12135661182E+03 -0.26771932748E+03  0.18061369415E+03  0.35246742767E+03  0.72186671319E+02 0.  0.
         13    1    3    3    0    0  0.29776767749E+02  0.15429660605E+02 -0.12713655106E+03  0.13148548566E+03  0.00000000000E+00 0. -1.
        -13    1    3    3    0    0  0.20002183273E+03  0.10238011729E+03 -0.26914937111E+03  0.35061632300E+03  0.00000000000E+00 0.  1.
          2    1    6    6  502    0  0.29340349702E+02 -0.65480737730E+02  0.10247739504E+02  0.72481716999E+02  0.00000000000E+00 0. -1.
          1    1    5    5  503    0 -0.21706164460E+02 -0.15059922195E+01  0.51648132310E+02  0.56044225030E+02  0.00000000000E+00 0. -1.
         -2    1    5    5    0  503 -0.32944904784E+03  0.15141554181E+03  0.18287321416E+04  0.18643295275E+04  0.00000000000E+00 0.  1.
         -1    1    6    6    0  502  0.92016262119E+02 -0.20223858976E+03  0.17036595464E+03  0.27998571067E+03  0.00000000000E+00 0.  1.
<mgrwt>
<rscale>  0 0.21950986E+04</rscale>
<asrwt>0</asrwt>
<pdfrwt beam="1">  1        2 0.33997315E+00 0.21950986E+04</pdfrwt>
<pdfrwt beam="2">  1       -2 0.83864228E-01 0.21950986E+04</pdfrwt>
<totfact> 0.57913641E+00</totfact>
</mgrwt>
</event>
<event>
12    1  0.1599266E-007  0.1783735E+04  0.7818608E-02  0.8714997E-01
         -1   -1    0    0    0  501 -0.00000000000E+00  0.00000000000E+00  0.26667831038E+04  0.26667831038E+04  0.00000000000E+00 0.  1.
          1   -1    0    0  501    0  0.00000000000E+00 -0.00000000000E+00 -0.29827250577E+03  0.29827250577E+03  0.00000000000E+00 0. -1.
         23    2    1    2    0    0  0.61899333425E+03  0.18907363206E+03  0.11163784599E+04  0.12936206765E+04  0.90840534561E+02 0.  0.
        254    2    1    2    0    0 -0.61899333425E+03 -0.18907363206E+03  0.12521321381E+04  0.16714349331E+04  0.89830855390E+03 0.  0.
        -24    2    4    4    0    0 -0.33283741888E+03 -0.38791230793E+02 -0.31657442860E+02  0.34565148574E+03  0.78659067586E+02 0.  0.
         24    2    4    4    0    0 -0.28615591537E+03 -0.15028240127E+03  0.12837895810E+04  0.13257834473E+04  0.71526589354E+02 0.  0.
         13    1    3    3    0    0  0.16797664727E+02 -0.62487032849E+01  0.54216526597E+02  0.57102010378E+02  0.00000000000E+00 0. -1.
        -13    1    3    3    0    0  0.60219566952E+03  0.19532233535E+03  0.10621619333E+04  0.12365186661E+04  0.00000000000E+00 0.  1.
          4    1    6    6  502    0 -0.46102929123E+02  0.31515346898E-01  0.23133439201E+03  0.23588361960E+03  0.00000000000E+00 0. -1.
          1    1    5    5  503    0 -0.35123476469E+02 -0.21623227663E+02  0.14850939117E+02  0.43838031052E+02  0.00000000000E+00 0. -1.
         -2    1    5    5    0  503 -0.29771394241E+03 -0.17168003130E+02 -0.46508381977E+02  0.30181345469E+03  0.00000000000E+00 0.  1.
         -3    1    6    6    0  502 -0.24005298625E+03 -0.15031391661E+03  0.10524551889E+04  0.10898998277E+04  0.00000000000E+00 0.  1.
<mgrwt>
<rscale>  0 0.17837355E+04</rscale>
<asrwt>0</asrwt>
<pdfrwt beam="1">  1        1 0.45888080E-01 0.17837355E+04</pdfrwt>
<pdfrwt beam="2">  1       -1 0.41027431E+00 0.17837355E+04</pdfrwt>
<totfact> 0.50941437E-01</totfact>
</mgrwt>
</event>
<event>
12    1  0.1599266E-007  0.1971262E+04  0.7818608E-02  0.8620176E-01
         -1   -1    0    0    0  501 -0.00000000000E+00  0.00000000000E+00  0.33050198462E+03  0.33050198462E+03  0.00000000000E+00 0.  1.
          1   -1    0    0  501    0  0.00000000000E+00 -0.00000000000E+00 -0.29393734678E+04  0.29393734678E+04  0.00000000000E+00 0. -1.
         23    2    1    2    0    0 -0.22252937407E+03 -0.18358971426E+03 -0.22105515087E+04  0.22312582782E+04  0.93546919334E+02 0.  0.
        254    2    1    2    0    0  0.22252937407E+03  0.18358971426E+03 -0.39831997452E+03  0.10386171742E+04  0.91479086516E+03 0.  0.
        -24    2    4    4    0    0  0.50272080467E+02  0.53304911683E+03 -0.12448773843E+03  0.55486278816E+03  0.75543852436E+02 0.  0.
         24    2    4    4    0    0  0.17225729360E+03 -0.34945940257E+03 -0.27383223609E+03  0.48375438605E+03  0.85086798392E+02 0.  0.
         13    1    3    3    0    0 -0.18067227705E+03 -0.10716535350E+03 -0.17474118872E+04  0.17599929511E+04  0.00000000000E+00 0. -1.
        -13    1    3    3    0    0 -0.41857097016E+02 -0.76424360760E+02 -0.46313962152E+03  0.47126532708E+03  0.00000000000E+00 0.  1.
          4    1    6    6  502    0  0.10427598617E+03 -0.28156103565E+03 -0.22962040641E+03  0.37798892726E+03  0.00000000000E+00 0. -1.
          3    1    5    5  503    0  0.69522194619E+02  0.41070315258E+03 -0.10394935254E+03  0.42932025689E+03  0.00000000000E+00 0. -1.
         -4    1    5    5    0  503 -0.19250114152E+02  0.12234596426E+03 -0.20538385892E+02  0.12554253128E+03  0.00000000000E+00 0.  1.
         -3    1    6    6    0  502  0.67981307437E+02 -0.67898366916E+02 -0.44211829677E+02  0.10576545879E+03  0.00000000000E+00 0.  1.
<mgrwt>
<rscale>  0 0.19712623E+04</rscale>
<asrwt>0</asrwt>
<pdfrwt beam="1">  1        1 0.45221129E+00 0.19712623E+04</pdfrwt>
<pdfrwt beam="2">  1       -1 0.50846460E-01 0.19712623E+04</pdfrwt>
<totfact> 0.23961363E+00</totfact>
</mgrwt>
</event>
<event>
12    1  0.1599266E-007  0.1603476E+04  0.7818608E-02  0.8818416E-01
         -1   -1    0    0    0  501 -0.00000000000E+00  0.00000000000E+00  0.24262686914E+03  0.24262686914E+03  0.00000000000E+00 0.  1.
          1   -1    0    0  501    0  0.00000000000E+00 -0.00000000000E+00 -0.26492676296E+04  0.26492676296E+04  0.00000000000E+00 0. -1.
         23    2    1    2    0    0 -0.17359280761E+01 -0.19807842113E+03 -0.17308531020E+04  0.17444603606E+04  0.89729675533E+02 0.  0.
        254    2    1    2    0    0  0.17359280761E+01  0.19807842113E+03 -0.67578765851E+03  0.11474341382E+04  0.90591283671E+03 0.  0.
        -24    2    4    4    0    0  0.43723008877E+03  0.10742443726E+03 -0.22839360648E+03  0.51098788761E+03  0.78960886262E+02 0.  0.
         24    2    4    4    0    0 -0.43549416069E+03  0.90653983872E+02 -0.44739405203E+03  0.63644625057E+03  0.83839628373E+02 0.  0.
         13    1    3    3    0    0  0.21005848384E+02 -0.44722252247E+01 -0.12686325652E+03  0.12866830348E+03  0.00000000000E+00 0.  1.
        -13    1    3    3    0    0 -0.22741776460E+02 -0.19360619591E+03 -0.16039898454E+04  0.16157920571E+04  0.00000000000E+00 0. -1.
          2    1    6    6  502    0 -0.42910212452E+02  0.28582002597E+02 -0.28145189907E+02  0.58739840994E+02  0.00000000000E+00 0. -1.
          1    1    5    5  503    0  0.28298139035E+02  0.71856413388E+01  0.49492620078E+01  0.29612722075E+02  0.00000000000E+00 0. -1.
         -2    1    5    5    0  503  0.40893194974E+03  0.10023879592E+03 -0.23334286849E+03  0.48137516554E+03  0.00000000000E+00 0.  1.
         -1    1    6    6    0  502 -0.39258394824E+03  0.62071981275E+02 -0.41924886212E+03  0.57770640958E+03  0.00000000000E+00 0.  1.
<mgrwt>
<rscale>  0 0.16034756E+04</rscale>
<asrwt>0</asrwt>
<pdfrwt beam="1">  1        1 0.40757962E+00 0.16034756E+04</pdfrwt>
<pdfrwt beam="2">  1       -1 0.37327212E-01 0.16034756E+04</pdfrwt>
<totfact> 0.70815930E+00</totfact>
</mgrwt>
</event>
<event>
12    1  0.1784651E-007  0.1829622E+04  0.7818608E-02  0.8690703E-01
          1   -1    0    0  501    0  0.00000000000E+00  0.00000000000E+00  0.26448711504E+04  0.26448711504E+04  0.00000000000E+00 0. -1.
         -1   -1    0    0    0  501 -0.00000000000E+00 -0.00000000000E+00 -0.31641590009E+03  0.31641590009E+03  0.00000000000E+00 0.  1.
         23    2    1    2    0    0  0.33652611935E+03  0.45909382023E+03  0.26554327682E+03  0.63469444600E+03  0.91141884667E+02 0.  0.
        254    2    1    2    0    0 -0.33652611935E+03 -0.45909382023E+03  0.20629119735E+04  0.23265926045E+04  0.91291312409E+03 0.  0.
        -24    2    4    4    0    0 -0.60731065512E+03 -0.49839015989E+03  0.14833460046E+04  0.16804395339E+04  0.79640909344E+02 0.  0.
         24    2    4    4    0    0  0.27078453577E+03  0.39296339660E+02  0.57956596890E+03  0.64615307060E+03  0.82149931310E+02 0.  0.
         13    1    3    3    0    0  0.30200295517E+02  0.41158716296E+02  0.55939716456E+02  0.75732091306E+02  0.00000000000E+00 0. -1.
        -13    1    3    3    0    0  0.30632582383E+03  0.41793510394E+03  0.20960356036E+03  0.55896235469E+03  0.00000000000E+00 0.  1.
          4    1    6    6  502    0  0.22758766041E+03  0.54838786192E+02  0.42866076158E+03  0.48841937324E+03  0.00000000000E+00 0. -1.
          3    1    5    5  503    0 -0.53949839889E+03 -0.46228402601E+03  0.13738087307E+04  0.15466465245E+04  0.00000000000E+00 0. -1.
         -4    1    5    5    0  503 -0.67812256226E+02 -0.36106133883E+02  0.10953727385E+03  0.13379300939E+03  0.00000000000E+00 0.  1.
         -3    1    6    6    0  502  0.43196875363E+02 -0.15542446532E+02  0.15090520732E+03  0.15773369735E+03  0.00000000000E+00 0.  1.
<mgrwt>
<rscale>  0 0.18296221E+04</rscale>
<asrwt>0</asrwt>
<pdfrwt beam="1">  1        1 0.40690324E+00 0.18296221E+04</pdfrwt>
<pdfrwt beam="2">  1       -1 0.48679371E-01 0.18296221E+04</pdfrwt>
<totfact> 0.42723355E+00</totfact>
</mgrwt>
</event>
<event>
12    1  0.1599266E-007  0.1510250E+04  0.7818608E-02  0.8877665E-01
         -2   -1    0    0    0  501 -0.00000000000E+00  0.00000000000E+00  0.34265174762E+03  0.34265174762E+03  0.00000000000E+00 0. -1.
          2   -1    0    0  501    0  0.00000000000E+00 -0.00000000000E+00 -0.16641197170E+04  0.16641197170E+04  0.00000000000E+00 0.  1.
         23    2    1    2    0    0  0.15847980377E+03 -0.44651747715E+03 -0.41425232152E+03  0.63581331577E+03  0.90332059794E+02 0.  0.
        254    2    1    2    0    0 -0.15847980377E+03  0.44651747715E+03 -0.90721564783E+03  0.13709581488E+04  0.91213612392E+03 0.  0.
        -24    2    4    4    0    0  0.26733268979E+03  0.32100594441E+03 -0.85811792807E+02  0.43409632974E+03  0.81020838856E+02 0.  0.
         24    2    4    4    0    0 -0.42581249356E+03  0.12551153274E+03 -0.82140385503E+03  0.93686181909E+03  0.77047715647E+02 0.  0.
         11    1    3    3    0    0  0.82911458908E+02 -0.15555328410E+03 -0.10827053375E+03  0.20686624348E+03  0.00000000000E+00 0. -1.
        -11    1    3    3    0    0  0.75568344861E+02 -0.29096419304E+03 -0.30598178777E+03  0.42894707229E+03  0.00000000000E+00 0.  1.
          4    1    6    6  502    0 -0.14204901935E+03  0.13544327788E+02 -0.31238511348E+03  0.34343242689E+03  0.00000000000E+00 0. -1.
          3    1    5    5  503    0  0.28613053561E+02  0.85619867753E+02 -0.18989197932E+02  0.92249976836E+02  0.00000000000E+00 0. -1.
         -4    1    5    5    0  503  0.23871963623E+03  0.23538607666E+03 -0.66822594875E+02  0.34184635290E+03  0.00000000000E+00 0.  1.
         -3    1    6    6    0  502 -0.28376347421E+03  0.11196720495E+03 -0.50901874154E+03  0.59342939220E+03  0.00000000000E+00 0.  1.
<mgrwt>
<rscale>  0 0.15102497E+04</rscale>
<asrwt>0</asrwt>
<pdfrwt beam="1">  1        2 0.25601842E+00 0.15102497E+04</pdfrwt>
<pdfrwt beam="2">  1       -2 0.52715654E-01 0.15102497E+04</pdfrwt>
<totfact> 0.33651046E+01</totfact>
</mgrwt>
</event>
<event>
12    1  0.1599266E-007  0.1099126E+04  0.7818608E-02  0.9206044E-01
          1   -1    0    0  501    0  0.00000000000E+00  0.00000000000E+00  0.42953880857E+03  0.42953880857E+03  0.00000000000E+00 0. -1.
         -1   -1    0    0    0  501 -0.00000000000E+00 -0.00000000000E+00 -0.70312545427E+03  0.70312545427E+03  0.00000000000E+00 0.  1.
         23    2    1    2    0    0 -0.93606680543E+02  0.62375902933E+02  0.66869777566E+02  0.15935616622E+03  0.90938752199E+02 0.  0.
        254    2    1    2    0    0  0.93606680543E+02 -0.62375902933E+02 -0.34045642327E+03  0.97330809662E+03  0.90485640346E+03 0.  0.
        -24    2    4    4    0    0  0.16045617230E+03 -0.34417965469E+03  0.13508230444E+03  0.41061184417E+03  0.78415812623E+02 0.  0.
         24    2    4    4    0    0 -0.66849491756E+02  0.28180375176E+03 -0.47553872770E+03  0.56269625245E+03  0.81288264332E+02 0.  0.
         13    1    3    3    0    0 -0.11006650422E+03  0.43587320676E+02  0.46739502624E+02  0.12727557103E+03  0.00000000000E+00 0.  1.
        -13    1    3    3    0    0  0.16459823676E+02  0.18788582257E+02  0.20130274942E+02  0.32080595193E+02  0.00000000000E+00 0. -1.
          4    1    6    6  502    0 -0.74398154597E+01  0.19720514687E+03 -0.31873440226E+03  0.37488243489E+03  0.00000000000E+00 0. -1.
          1    1    5    5  503    0  0.42963881753E+02 -0.17070935992E+03  0.39942368896E+02  0.18050754425E+03  0.00000000000E+00 0. -1.
         -2    1    5    5    0  503  0.11749229055E+03 -0.17347029477E+03  0.95139935540E+02  0.23010429992E+03  0.00000000000E+00 0.  1.
         -3    1    6    6    0  502 -0.59409676296E+02  0.84598604887E+02 -0.15680432545E+03  0.18781381756E+03  0.00000000000E+00 0.  1.
<mgrwt>
<rscale>  0 0.10991263E+04</rscale>
<asrwt>0</asrwt>
<pdfrwt beam="1">  1        1 0.66082895E-01 0.10991263E+04</pdfrwt>
<pdfrwt beam="2">  1       -1 0.10817315E+00 0.10991263E+04</pdfrwt>
<totfact> 0.43167455E+01</totfact>
</mgrwt>
</event>
<event>
12    1  0.1599266E-007  0.2030630E+04  0.7818608E-02  0.8592432E-01
         -1   -1    0    0    0  501 -0.00000000000E+00  0.00000000000E+00  0.38816790783E+03  0.38816790783E+03  0.00000000000E+00 0.  1.
          1   -1    0    0  501    0  0.00000000000E+00 -0.00000000000E+00 -0.26557188461E+04  0.26557188461E+04  0.00000000000E+00 0. -1.
         23    2    1    2    0    0  0.33818193506E+03  0.74114510679E+03 -0.95706465543E+03  0.12601401172E+04  0.91199066591E+02 0.  0.
        254    2    1    2    0    0 -0.33818193506E+03 -0.74114510679E+03 -0.13104862828E+04  0.17837466367E+04  0.89482661788E+03 0.  0.
        -24    2    4    4    0    0  0.24579194205E+03 -0.14857602723E+03 -0.10306044896E+03  0.31531610774E+03  0.79462425184E+02 0.  0.
         24    2    4    4    0    0 -0.58397387711E+03 -0.59256907956E+03 -0.12074258339E+04  0.14684305290E+04  0.79040945060E+02 0.  0.
         11    1    3    3    0    0  0.18682441740E+03  0.42312299207E+03 -0.61145252252E+03  0.76668808302E+03  0.00000000000E+00 0. -1.
        -11    1    3    3    0    0  0.15135751767E+03  0.31802211471E+03 -0.34561213291E+03  0.49345203416E+03  0.00000000000E+00 0.  1.
          2    1    6    6  502    0 -0.24698596462E+03 -0.20501030508E+03 -0.42736012700E+03  0.53447915774E+03  0.00000000000E+00 0. -1.
          3    1    5    5  503    0  0.19138483517E+02 -0.65477528564E+01  0.12678533147E+02  0.23872574674E+02  0.00000000000E+00 0. -1.
         -4    1    5    5    0  503  0.22665345853E+03 -0.14202827437E+03 -0.11573898211E+03  0.29144353307E+03  0.00000000000E+00 0.  1.
         -1    1    6    6    0  502 -0.33698791250E+03 -0.38755877447E+03 -0.78006570686E+03  0.93395137125E+03  0.00000000000E+00 0.  1.
<mgrwt>
<rscale>  0 0.20306303E+04</rscale>
<asrwt>0</asrwt>
<pdfrwt beam="1">  1        1 0.40857214E+00 0.20306303E+04</pdfrwt>
<pdfrwt beam="2">  1       -1 0.59718138E-01 0.20306303E+04</pdfrwt>
<totfact> 0.27756805E+00</totfact>
</mgrwt>
</event>
<event>
12    1  0.1599266E-007  0.2040736E+04  0.7818608E-02  0.8587809E-01
          2   -1    0    0  501    0  0.00000000000E+00  0.00000000000E+00  0.17640821908E+04  0.17640821908E+04  0.00000000000E+00 0.  1.
         -2   -1    0    0    0  501 -0.00000000000E+00 -0.00000000000E+00 -0.59019398530E+03  0.59019398530E+03  0.00000000000E+00 0. -1.
         23    2    1    2    0    0 -0.65151966361E+03  0.50776939421E+03  0.55012127559E+03  0.99660880046E+03  0.91038747429E+02 0.  0.
        254    2    1    2    0    0  0.65151966361E+03 -0.50776939421E+03  0.62376692993E+03  0.13576673757E+04  0.87856012334E+03 0.  0.
        -24    2    4    4    0    0  0.46750155243E+03  0.12538278459E+03  0.46232215095E+03  0.67418389514E+03  0.80644956495E+02 0.  0.
         24    2    4    4    0    0  0.18401811117E+03 -0.63315217880E+03  0.16144477898E+03  0.68348348053E+03  0.79629798044E+02 0.  0.
         13    1    3    3    0    0 -0.33880531575E+03  0.22746666527E+03  0.31335692220E+03  0.51451208584E+03  0.00000000000E+00 0. -1.
        -13    1    3    3    0    0 -0.31271434786E+03  0.28030272894E+03  0.23676435339E+03  0.48209671462E+03  0.00000000000E+00 0.  1.
          2    1    6    6  502    0  0.45606012563E+02 -0.16192361456E+03  0.77533229525E+02  0.18523111784E+03  0.00000000000E+00 0. -1.
          3    1    5    5  503    0  0.30526629279E+02  0.23679582698E+02  0.17561733471E+02  0.42438334256E+02  0.00000000000E+00 0. -1.
         -4    1    5    5    0  503  0.43697492315E+03  0.10170320189E+03  0.44476041748E+03  0.63174556089E+03  0.00000000000E+00 0.  1.
         -1    1    6    6    0  502  0.13841209861E+03 -0.47122856424E+03  0.83911549455E+02  0.49825236269E+03  0.00000000000E+00 0.  1.
<mgrwt>
<rscale>  0 0.20407358E+04</rscale>
<asrwt>0</asrwt>
<pdfrwt beam="1">  1        2 0.27139726E+00 0.20407358E+04</pdfrwt>
<pdfrwt beam="2">  1       -2 0.90799076E-01 0.20407358E+04</pdfrwt>
<totfact> 0.86620629E+00</totfact>
</mgrwt>
</event>
<event>
12    1  0.1599266E-007  0.1326897E+04  0.7818608E-02  0.9008503E-01
         -2   -1    0    0    0  501 -0.00000000000E+00  0.00000000000E+00  0.29499534694E+03  0.29499534694E+03  0.00000000000E+00 0.  1.
          2   -1    0    0  501    0  0.00000000000E+00 -0.00000000000E+00 -0.14921053333E+04  0.14921053333E+04  0.00000000000E+00 0. -1.
         23    2    1    2    0    0  0.84680753930E+02 -0.10579977519E+03  0.10271380322E+03  0.19290055878E+03  0.91082806764E+02 0.  0.
        254    2    1    2    0    0 -0.84680753930E+02  0.10579977519E+03 -0.12998237896E+04  0.15942001215E+04  0.91299929944E+03 0.  0.
        -24    2    4    4    0    0  0.34322838076E+03 -0.28178185386E+02 -0.96830925078E+03  0.10306967190E+04  0.78186891426E+02 0.  0.
         24    2    4    4    0    0 -0.42790913469E+03  0.13397796058E+03 -0.33151453882E+03  0.56350340244E+03  0.81104091398E+02 0.  0.
         13    1    3    3    0    0  0.94446556336E+02 -0.67167836752E+02  0.99806039120E+02  0.15294742803E+03  0.00000000000E+00 0.  1.
        -13    1    3    3    0    0 -0.97658024062E+01 -0.38631938439E+02  0.29077641041E+01  0.39953130744E+02  0.00000000000E+00 0. -1.
          4    1    6    6  502    0 -0.32535262663E+03  0.10356282430E+03 -0.20673601650E+03  0.39914830671E+03  0.00000000000E+00 0. -1.
          3    1    5    5  503    0  0.26283857561E+03 -0.53955055252E+02 -0.75708589120E+03  0.80322743446E+03  0.00000000000E+00 0. -1.
         -4    1    5    5    0  503  0.80389805151E+02  0.25776869866E+02 -0.21122335957E+03  0.22746928457E+03  0.00000000000E+00 0.  1.
         -3    1    6    6    0  502 -0.10255650806E+03  0.30415136281E+02 -0.12477852232E+03  0.16435509573E+03  0.00000000000E+00 0.  1.
<mgrwt>
<rscale>  0 0.13268973E+04</rscale>
<asrwt>0</asrwt>
<pdfrwt beam="1">  1        2 0.22955467E+00 0.13268973E+04</pdfrwt>
<pdfrwt beam="2">  1       -2 0.45383899E-01 0.13268973E+04</pdfrwt>
<totfact> 0.57750708E+01</totfact>
</mgrwt>
</event>
<event>
12    1  0.1599266E-007  0.1844086E+04  0.7818608E-02  0.8683200E-01
          2   -1    0    0  501    0  0.00000000000E+00  0.00000000000E+00  0.15751207894E+04  0.15751207894E+04  0.00000000000E+00 0. -1.
         -2   -1    0    0    0  501 -0.00000000000E+00 -0.00000000000E+00 -0.53974496341E+03  0.53974496341E+03  0.00000000000E+00 0.  1.
         23    2    1    2    0    0  0.53557794905E+03 -0.36696969619E+02  0.91862872884E+03  0.10678333921E+04  0.90548355249E+02 0.  0.
        254    2    1    2    0    0 -0.53557794905E+03  0.36696969619E+02  0.11674709713E+03  0.10470323607E+04  0.89132287789E+03 0.  0.
        -24    2    4    4    0    0 -0.27321949230E+03 -0.20351514843E+02 -0.38099092332E+03  0.47598910243E+03  0.79677266821E+02 0.  0.
         24    2    4    4    0    0 -0.26235845675E+03  0.57048484462E+02  0.49773802045E+03  0.57104325831E+03  0.79125068422E+02 0.  0.
         11    1    3    3    0    0  0.45994663379E+03 -0.60043084498E+02  0.81025099594E+03  0.93362880972E+03  0.00000000000E+00 0. -1.
        -11    1    3    3    0    0  0.75631315259E+02  0.23346114880E+02  0.10837773291E+03  0.13420458233E+03  0.00000000000E+00 0.  1.
          4    1    6    6  502    0 -0.80541095952E+02  0.45041216229E+02  0.11753896996E+03  0.14943556724E+03  0.00000000000E+00 0. -1.
          1    1    5    5  503    0 -0.33385249371E+02 -0.11918384660E+02 -0.15353972200E+02  0.38631169161E+02  0.00000000000E+00 0. -1.
         -2    1    5    5    0  503 -0.23983424293E+03 -0.84331301835E+01 -0.36563695112E+03  0.43735793326E+03  0.00000000000E+00 0.  1.
         -3    1    6    6    0  502 -0.18181736080E+03  0.12007268233E+02  0.38019905049E+03  0.42160769107E+03  0.00000000000E+00 0.  1.
<mgrwt>
<rscale>  0 0.18440862E+04</rscale>
<asrwt>0</asrwt>
<pdfrwt beam="1">  1        2 0.24232627E+00 0.18440862E+04</pdfrwt>
<pdfrwt beam="2">  1       -2 0.83037688E-01 0.18440862E+04</pdfrwt>
<totfact> 0.13764987E+01</totfact>
</mgrwt>
</event>
<event>
12    1  0.1599266E-007  0.1515175E+04  0.7818608E-02  0.8874424E-01
          2   -1    0    0  501    0  0.00000000000E+00  0.00000000000E+00  0.12507830189E+04  0.12507830189E+04  0.00000000000E+00 0. -1.
         -2   -1    0    0    0  501 -0.00000000000E+00 -0.00000000000E+00 -0.45886344668E+03  0.45886344668E+03  0.00000000000E+00 0.  1.
         23    2    1    2    0    0 -0.27535427668E+03  0.31256709367E+03  0.43863543813E+03  0.61199237710E+03  0.92819482411E+02 0.  0.
        254    2    1    2    0    0  0.27535427668E+03 -0.31256709367E+03  0.35328413406E+03  0.10976540885E+04  0.95211168084E+03 0.  0.
        -24    2    4    4    0    0 -0.12302979548E+03  0.53865678641E+02  0.50610986067E+03  0.52950047456E+03  0.78649345716E+02 0.  0.
         24    2    4    4    0    0  0.39838407216E+03 -0.36643277231E+03 -0.15282572661E+03  0.56815361390E+03  0.80374005092E+02 0.  0.
         13    1    3    3    0    0 -0.21299165927E+03  0.26446300378E+03  0.30275294720E+03  0.45493458247E+03  0.00000000000E+00 0.  1.
        -13    1    3    3    0    0 -0.62362617409E+02  0.48104089898E+02  0.13588249093E+03  0.15705779464E+03  0.00000000000E+00 0. -1.
          4    1    6    6  502    0  0.34832588548E+03 -0.30393568076E+03 -0.10229043597E+03  0.47346716235E+03  0.00000000000E+00 0. -1.
          1    1    5    5  503    0 -0.72706814159E+02  0.40241990795E+02  0.16837453704E+03  0.18776496844E+03  0.00000000000E+00 0. -1.
         -2    1    5    5    0  503 -0.50322981323E+02  0.13623687846E+02  0.33773532362E+03  0.34173550612E+03  0.00000000000E+00 0.  1.
         -3    1    6    6    0  502  0.50058186680E+02 -0.62497091556E+02 -0.50535290638E+02  0.94686451547E+02  0.00000000000E+00 0.  1.
<mgrwt>
<rscale>  0 0.15151747E+04</rscale>
<asrwt>0</asrwt>
<pdfrwt beam="1">  1        2 0.19242815E+00 0.15151747E+04</pdfrwt>
<pdfrwt beam="2">  1       -2 0.70594377E-01 0.15151747E+04</pdfrwt>
<totfact> 0.31119138E+01</totfact>
</mgrwt>
</event>
<event>
12    1  0.1599266E-007  0.2118868E+04  0.7818608E-02  0.8552977E-01
          1   -1    0    0  501    0  0.00000000000E+00  0.00000000000E+00  0.20232022440E+04  0.20232022440E+04  0.00000000000E+00 0. -1.
         -1   -1    0    0    0  501 -0.00000000000E+00 -0.00000000000E+00 -0.55476413012E+03  0.55476413012E+03  0.00000000000E+00 0.  1.
         23    2    1    2    0    0  0.37502479180E+03 -0.49357524247E+03  0.14028609055E+04  0.15372353882E+04  0.10398944154E+03 0.  0.
        254    2    1    2    0    0 -0.37502479180E+03  0.49357524247E+03  0.65577208325E+02  0.10407309859E+04  0.83340296397E+03 0.  0.
        -24    2    4    4    0    0  0.20506412117E+03  0.12184894470E+03 -0.17477465689E+03  0.30670819166E+03  0.81395792429E+02 0.  0.
         24    2    4    4    0    0 -0.58008891298E+03  0.37172629777E+03  0.24035186521E+03  0.73402279426E+03  0.79604371483E+02 0.  0.
         11    1    3    3    0    0  0.12330124316E+03 -0.14661669455E+03  0.55581690430E+03  0.58790482461E+03  0.00000000000E+00 0. -1.
        -11    1    3    3    0    0  0.25172354864E+03 -0.34695854792E+03  0.84704400124E+03  0.94933056358E+03  0.00000000000E+00 0.  1.
          2    1    6    6  502    0 -0.41837492043E+03  0.23810090287E+03  0.13903831752E+03  0.50106014383E+03  0.00000000000E+00 0. -1.
          1    1    5    5  503    0  0.69017638174E+02  0.61552473840E+02 -0.25496814246E+02  0.95928248976E+02  0.00000000000E+00 0. -1.
         -2    1    5    5    0  503  0.13604648300E+03  0.60296470860E+02 -0.14927784264E+03  0.21077994269E+03  0.00000000000E+00 0.  1.
         -1    1    6    6    0  502 -0.16171399255E+03  0.13362539491E+03  0.10131354769E+03  0.23296265043E+03  0.00000000000E+00 0.  1.
<mgrwt>
<rscale>  0 0.21188677E+04</rscale>
<asrwt>0</asrwt>
<pdfrwt beam="1">  1        1 0.31126188E+00 0.21188677E+04</pdfrwt>
<pdfrwt beam="2">  1       -1 0.85348329E-01 0.21188677E+04</pdfrwt>
<totfact> 0.35801590E+00</totfact>
</mgrwt>
</event>
<event>
12    1  0.1599266E-007  0.2383075E+04  0.7818608E-02  0.8445867E-01
         -2   -1    0    0    0  501 -0.00000000000E+00  0.00000000000E+00  0.81607026603E+03  0.81607026603E+03  0.00000000000E+00 0.  1.
          2   -1    0    0  501    0  0.00000000000E+00 -0.00000000000E+00 -0.17397542627E+04  0.17397542627E+04  0.00000000000E+00 0. -1.
         23    2    1    2    0    0  0.48537403361E+03 -0.25286667667E+02  0.56601354557E+03  0.75179433367E+03  0.92714714557E+02 0.  0.
        254    2    1    2    0    0 -0.48537403361E+03  0.25286667667E+02 -0.14896975422E+04  0.18040301951E+04  0.89392326811E+03 0.  0.
        -24    2    4    4    0    0 -0.31181869582E+03 -0.41290476371E+03 -0.61609486359E+03  0.80822547040E+03  0.77034324198E+02 0.  0.
         24    2    4    4    0    0 -0.17355533779E+03  0.43819143138E+03 -0.87360267865E+03  0.99580472466E+03  0.79449504054E+02 0.  0.
         13    1    3    3    0    0  0.45308939946E+03 -0.37838208286E+01  0.49637188876E+03  0.67207839807E+03  0.00000000000E+00 0.  1.
        -13    1    3    3    0    0  0.32284634158E+02 -0.21502846839E+02  0.69641656812E+02  0.79715935599E+02  0.00000000000E+00 0. -1.
          4    1    6    6  502    0  0.28442132301E+01  0.19798044688E+02 -0.69928079567E+02  0.72732306675E+02  0.00000000000E+00 0. -1.
          1    1    5    5  503    0 -0.58890350941E+02 -0.47952863812E+02 -0.61151309895E+02  0.97504016756E+02  0.00000000000E+00 0. -1.
         -2    1    5    5    0  503 -0.25292834488E+03 -0.36495189990E+03 -0.55494355370E+03  0.71072145365E+03  0.00000000000E+00 0.  1.
         -3    1    6    6    0  502 -0.17639955102E+03  0.41839338669E+03 -0.80367459909E+03  0.92307241798E+03  0.00000000000E+00 0.  1.
<mgrwt>
<rscale>  0 0.23830751E+04</rscale>
<asrwt>0</asrwt>
<pdfrwt beam="1">  1        2 0.26765450E+00 0.23830751E+04</pdfrwt>
<pdfrwt beam="2">  1       -2 0.12554927E+00 0.23830751E+04</pdfrwt>
<totfact> 0.39803945E+00</totfact>
</mgrwt>
</event>
<event>
12    1  0.1599266E-007  0.1319170E+04  0.7818608E-02  0.9014499E-01
          2   -1    0    0  501    0  0.00000000000E+00  0.00000000000E+00  0.86263708204E+03  0.86263708204E+03  0.00000000000E+00 0. -1.
         -2   -1    0    0    0  501 -0.00000000000E+00 -0.00000000000E+00 -0.50432871696E+03  0.50432871696E+03  0.00000000000E+00 0.  1.
         23    2    1    2    0    0  0.77506121807E+02  0.14112841507E+03  0.41970992270E+03  0.45890476183E+03  0.92264471820E+02 0.  0.
        254    2    1    2    0    0 -0.77506121807E+02 -0.14112841507E+03 -0.61401557619E+02  0.90806103717E+03  0.89156057982E+03 0.  0.
        -24    2    4    4    0    0 -0.10641863570E+03 -0.37865320589E+03 -0.34459088035E+03  0.52904058440E+03  0.80236455355E+02 0.  0.
         24    2    4    4    0    0  0.28912513893E+02  0.23752479082E+03  0.28318932273E+03  0.37902045277E+03  0.78780399806E+02 0.  0.
         11    1    3    3    0    0  0.12611277958E+02  0.31522402937E+02  0.21598257857E+03  0.21863481074E+03  0.00000000000E+00 0. -1.
        -11    1    3    3    0    0  0.64894843849E+02  0.10960601213E+03  0.20372734413E+03  0.24026995109E+03  0.00000000000E+00 0.  1.
          2    1    6    6  502    0  0.83285783678E+01  0.10070116423E+01 -0.12923110913E+01  0.84881893259E+01  0.00000000000E+00 0. -1.
          1    1    5    5  503    0 -0.11122709150E+02 -0.31029571427E+01 -0.22111236947E+02  0.24944935382E+02  0.00000000000E+00 0. -1.
         -2    1    5    5    0  503 -0.95295926551E+02 -0.37555024874E+03 -0.32247964341E+03  0.50409564902E+03  0.00000000000E+00 0.  1.
         -1    1    6    6    0  502  0.20583935526E+02  0.23651777918E+03  0.28448163383E+03  0.37053226344E+03  0.00000000000E+00 0.  1.
<mgrwt>
<rscale>  0 0.13191704E+04</rscale>
<asrwt>0</asrwt>
<pdfrwt beam="1">  1        2 0.13271340E+00 0.13191704E+04</pdfrwt>
<pdfrwt beam="2">  1       -2 0.77589033E-01 0.13191704E+04</pdfrwt>
<totfact> 0.45092419E+01</totfact>
</mgrwt>
</event>
<event>
12    1  0.1599266E-007  0.1293351E+04  0.7818608E-02  0.9034855E-01
         -2   -1    0    0    0  501 -0.00000000000E+00  0.00000000000E+00  0.14008849887E+03  0.14008849887E+03  0.00000000000E+00 0.  1.
          2   -1    0    0  501    0  0.00000000000E+00 -0.00000000000E+00 -0.29851786237E+04  0.29851786237E+04  0.00000000000E+00 0. -1.
         23    2    1    2    0    0  0.20905133775E+02 -0.26442721713E+03 -0.30300111940E+03  0.41031604557E+03  0.78681644079E+02 0.  0.
        254    2    1    2    0    0 -0.20905133775E+02  0.26442721713E+03 -0.25420890055E+04  0.27149510771E+04  0.91563314775E+03 0.  0.
        -24    2    4    4    0    0  0.84967847365E+02  0.20658757590E+02  0.36149328616E+02  0.12178797892E+03  0.76676062094E+02 0.  0.
         24    2    4    4    0    0 -0.10587298114E+03  0.24376845954E+03 -0.25782383341E+04  0.25931630981E+04  0.80930810912E+02 0.  0.
         13    1    3    3    0    0  0.31832067104E+02 -0.74009243859E+02 -0.55416725087E+02  0.97783751677E+02  0.00000000000E+00 0.  1.
        -13    1    3    3    0    0 -0.10926933329E+02 -0.19041797327E+03 -0.24758439431E+03  0.31253229389E+03  0.00000000000E+00 0. -1.
          4    1    6    6  502    0 -0.11483772754E+03  0.18701146904E+03 -0.19536731765E+04  0.19659602931E+04  0.00000000000E+00 0. -1.
          1    1    5    5  503    0  0.17722477742E+02  0.28881494418E+02  0.41796446038E+02  0.53806782459E+02  0.00000000000E+00 0. -1.
         -2    1    5    5    0  503  0.67245369623E+02 -0.82227368283E+01 -0.56471174226E+01  0.67981196458E+02  0.00000000000E+00 0.  1.
         -3    1    6    6    0  502  0.89647463964E+01  0.56756990495E+02 -0.62456515755E+03  0.62720280506E+03  0.00000000000E+00 0.  1.
<mgrwt>
<rscale>  0 0.12933510E+04</rscale>
<asrwt>0</asrwt>
<pdfrwt beam="1">  1        2 0.45925825E+00 0.12933510E+04</pdfrwt>
<pdfrwt beam="2">  1       -2 0.21552077E-01 0.12933510E+04</pdfrwt>
<totfact> 0.33041998E+01</totfact>
</mgrwt>
</event>
<event>
12    1  0.1599266E-007  0.1253967E+04  0.7818608E-02  0.9066888E-01
          2   -1    0    0  501    0  0.00000000000E+00  0.00000000000E+00  0.59806054657E+03  0.59806054657E+03  0.00000000000E+00 0. -1.
         -2   -1    0    0    0  501 -0.00000000000E+00 -0.00000000000E+00 -0.65730491192E+03  0.65730491192E+03  0.00000000000E+00 0.  1.
         23    2    1    2    0    0  0.17642455247E+03  0.15065831765E+03  0.19972218829E+03  0.31846224881E+03  0.87782116796E+02 0.  0.
        254    2    1    2    0    0 -0.17642455247E+03 -0.15065831765E+03 -0.25896655364E+03  0.93690320968E+03  0.87000022817E+03 0.  0.
        -24    2    4    4    0    0 -0.16492472560E+03  0.25109625019E+03  0.16198250677E+03  0.34942518621E+03  0.74900843047E+02 0.  0.
         24    2    4    4    0    0 -0.11499826867E+02 -0.40175456784E+03 -0.42094906041E+03  0.58747802347E+03  0.79958350444E+02 0.  0.
         13    1    3    3    0    0  0.73561573666E+02  0.56644450251E+02  0.27314059894E+02  0.96777873155E+02  0.00000000000E+00 0.  1.
        -13    1    3    3    0    0  0.10286297880E+03  0.94013867398E+02  0.17240812840E+03  0.22168437565E+03  0.00000000000E+00 0. -1.
          4    1    6    6  502    0  0.10595574127E+02 -0.15322852667E+03 -0.21342780483E+03  0.26294994857E+03  0.00000000000E+00 0. -1.
          3    1    5    5  503    0 -0.15264294008E+03  0.21058812863E+03  0.16324588976E+03  0.30707726650E+03  0.00000000000E+00 0. -1.
         -4    1    5    5    0  503 -0.12281785519E+02  0.40508121559E+02 -0.12633829911E+01  0.42347919717E+02  0.00000000000E+00 0.  1.
         -3    1    6    6    0  502 -0.22095400994E+02 -0.24852604117E+03 -0.20752125557E+03  0.32452807490E+03  0.00000000000E+00 0.  1.
<mgrwt>
<rscale>  0 0.12539667E+04</rscale>
<asrwt>0</asrwt>
<pdfrwt beam="1">  1        2 0.92009315E-01 0.12539667E+04</pdfrwt>
<pdfrwt beam="2">  1       -2 0.10112383E+00 0.12539667E+04</pdfrwt>
<totfact> 0.39386071E+01</totfact>
</mgrwt>
</event>
<event>
12    1  0.1599266E-007  0.1363236E+04  0.7818608E-02  0.8980869E-01
          1   -1    0    0  501    0  0.00000000000E+00  0.00000000000E+00  0.43581751333E+03  0.43581751333E+03  0.00000000000E+00 0. -1.
         -1   -1    0    0    0  501 -0.00000000000E+00 -0.00000000000E+00 -0.10660497982E+04  0.10660497982E+04  0.00000000000E+00 0.  1.
         23    2    1    2    0    0  0.22719998706E+03  0.12846316117E+03  0.99489576784E+02  0.29896516298E+03  0.10658036821E+03 0.  0.
        254    2    1    2    0    0 -0.22719998706E+03 -0.12846316117E+03 -0.72972186167E+03  0.12029021486E+04  0.91997661151E+03 0.  0.
        -24    2    4    4    0    0 -0.34328883504E+03 -0.25754992631E+03 -0.86485561506E+03  0.96877376718E+03  0.79800929050E+02 0.  0.
         24    2    4    4    0    0  0.11608884798E+03  0.12908676514E+03  0.13513375338E+03  0.23412838139E+03  0.80093408648E+02 0.  0.
         11    1    3    3    0    0  0.12034850471E+03  0.79362149323E+02  0.10937708057E+03  0.18095706421E+03  0.00000000000E+00 0. -1.
        -11    1    3    3    0    0  0.10685148235E+03  0.49101011848E+02 -0.98875037887E+01  0.11800809877E+03  0.00000000000E+00 0.  1.
          2    1    6    6  502    0  0.41999068729E+02 -0.35804412614E+00  0.27618227159E+02  0.50267449121E+02  0.00000000000E+00 0. -1.
          3    1    5    5  503    0 -0.78272582628E+02 -0.98265386247E+02 -0.21267567048E+03  0.24700936043E+03  0.00000000000E+00 0. -1.
         -4    1    5    5    0  503 -0.26501625241E+03 -0.15928454006E+03 -0.65217994457E+03  0.72176440675E+03  0.00000000000E+00 0.  1.
         -1    1    6    6    0  502  0.74089779249E+02  0.12944480926E+03  0.10751552622E+03  0.18386093227E+03  0.00000000000E+00 0.  1.
<mgrwt>
<rscale>  0 0.13632361E+04</rscale>
<asrwt>0</asrwt>
<pdfrwt beam="1">  1        1 0.67048848E-01 0.13632361E+04</pdfrwt>
<pdfrwt beam="2">  1       -1 0.16400766E+00 0.13632361E+04</pdfrwt>
<totfact> 0.14253204E+01</totfact>
</mgrwt>
</event>
<event>
12    1  0.1599266E-007  0.2104785E+04  0.7818608E-02  0.8559138E-01
         -1   -1    0    0    0  501 -0.00000000000E+00  0.00000000000E+00  0.23955171186E+04  0.23955171186E+04  0.00000000000E+00 0.  1.
          1   -1    0    0  501    0  0.00000000000E+00 -0.00000000000E+00 -0.46233456503E+03  0.46233456503E+03  0.00000000000E+00 0. -1.
         23    2    1    2    0    0  0.26070234434E+03  0.15281214506E+02  0.18747746520E+04  0.18951229181E+04  0.92258609138E+02 0.  0.
        254    2    1    2    0    0 -0.26070234434E+03 -0.15281214506E+02  0.58407901552E+02  0.96272876553E+03  0.92478968699E+03 0.  0.
        -24    2    4    4    0    0  0.23398912686E+03  0.46440174218E+02 -0.26421069108E+03  0.36301812186E+03  0.71184733239E+02 0.  0.
         24    2    4    4    0    0 -0.49469147120E+03 -0.61721388724E+02  0.32261859263E+03  0.59971064367E+03  0.83910180023E+02 0.  0.
         11    1    3    3    0    0  0.15408254053E+03 -0.14621285695E+02  0.81397077944E+03  0.82855515271E+03  0.00000000000E+00 0. -1.
        -11    1    3    3    0    0  0.10661980381E+03  0.29902500202E+02  0.10608038726E+04  0.10665677654E+04  0.00000000000E+00 0.  1.
          2    1    6    6  502    0 -0.49384628607E+03 -0.62597557776E+02  0.32671506998E+03  0.59543710454E+03  0.00000000000E+00 0. -1.
          3    1    5    5  503    0  0.23242126358E+03  0.38173241413E+02 -0.23539070409E+03  0.33299493043E+03  0.00000000000E+00 0. -1.
         -4    1    5    5    0  503  0.15678632882E+01  0.82669328050E+01 -0.28819986997E+02  0.30023191432E+02  0.00000000000E+00 0.  1.
         -1    1    6    6    0  502 -0.84518512889E+00  0.87616905205E+00 -0.40964773428E+01  0.42735391340E+01  0.00000000000E+00 0.  1.
<mgrwt>
<rscale>  0 0.21047854E+04</rscale>
<asrwt>0</asrwt>
<pdfrwt beam="1">  1        1 0.71128396E-01 0.21047854E+04</pdfrwt>
<pdfrwt beam="2">  1       -1 0.36854109E+00 0.21047854E+04</pdfrwt>
<totfact> 0.53096074E-01</totfact>
</mgrwt>
</event>
<event>
12    1  0.1599266E-007  0.2898275E+04  0.7818608E-02  0.8273391E-01
          1   -1    0    0  501    0  0.00000000000E+00  0.00000000000E+00  0.40011451286E+04  0.40011451286E+04  0.00000000000E+00 0. -1.
         -1   -1    0    0    0  501 -0.00000000000E+00 -0.00000000000E+00 -0.52484976755E+03  0.52484976755E+03  0.00000000000E+00 0.  1.
         23    2    1    2    0    0 -0.56464232139E+03 -0.68832442908E+03  0.30704851092E+04  0.31982717977E+04  0.91935930882E+02 0.  0.
        254    2    1    2    0    0  0.56464232139E+03  0.68832442908E+03  0.40581025184E+03  0.13277230984E+04  0.89752726693E+03 0.  0.
        -24    2    4    4    0    0  0.76418042271E+03  0.68935516134E+03  0.41217436997E+03  0.11115686399E+04  0.80714763029E+02 0.  0.
         24    2    4    4    0    0 -0.19953810133E+03 -0.10307322685E+01 -0.63641181291E+01  0.21615445857E+03  0.82859710775E+02 0.  0.
         13    1    3    3    0    0 -0.13146652764E+03 -0.14965691198E+03  0.83065844009E+03  0.85420962491E+03  0.00000000000E+00 0.  1.
        -13    1    3    3    0    0 -0.43317579375E+03 -0.53866751710E+03  0.22398266692E+04  0.23440621728E+04  0.00000000000E+00 0. -1.
          4    1    6    6  502    0 -0.77078546781E+02 -0.39885716685E+02  0.65351458671E+01  0.87032642731E+02  0.00000000000E+00 0. -1.
          3    1    5    5  503    0  0.55069018787E+03  0.53826288670E+03  0.28943763173E+03  0.82265470331E+03  0.00000000000E+00 0. -1.
         -4    1    5    5    0  503  0.21349023484E+03  0.15109227465E+03  0.12273673824E+03  0.28891393657E+03  0.00000000000E+00 0.  1.
         -3    1    6    6    0  502 -0.12245955455E+03  0.38854984417E+02 -0.12899263996E+02  0.12912181584E+03  0.00000000000E+00 0.  1.
<mgrwt>
<rscale>  0 0.28982754E+04</rscale>
<asrwt>0</asrwt>
<pdfrwt beam="1">  1        1 0.61556077E+00 0.28982754E+04</pdfrwt>
<pdfrwt beam="2">  1       -1 0.80746121E-01 0.28982754E+04</pdfrwt>
<totfact> 0.12565522E-01</totfact>
</mgrwt>
</event>
<event>
12    1  0.1599266E-007  0.1645796E+04  0.7818608E-02  0.8792897E-01
          1   -1    0    0  501    0  0.00000000000E+00  0.00000000000E+00  0.23136222649E+04  0.23136222649E+04  0.00000000000E+00 0. -1.
         -1   -1    0    0    0  501 -0.00000000000E+00 -0.00000000000E+00 -0.29268444045E+03  0.29268444045E+03  0.00000000000E+00 0.  1.
         23    2    1    2    0    0  0.35349326669E+02  0.40960456865E+03  0.10902437177E+03  0.43541447484E+03  0.93134170470E+02 0.  0.
        254    2    1    2    0    0 -0.35349326669E+02 -0.40960456865E+03  0.19119134526E+04  0.21708922305E+04  0.94251501228E+03 0.  0.
        -24    2    4    4    0    0  0.22480609741E+03 -0.61788562791E+03  0.10303549360E+04  0.12249063563E+04  0.80273638330E+02 0.  0.
         24    2    4    4    0    0 -0.26015542408E+03  0.20828105927E+03  0.88155851662E+03  0.94598587413E+03  0.81743571580E+02 0.  0.
         13    1    3    3    0    0  0.38955409791E+02  0.14501184056E+03  0.25372894310E+01  0.15017455075E+03  0.00000000000E+00 0.  1.
        -13    1    3    3    0    0 -0.36060831225E+01  0.26459272808E+03  0.10648708234E+03  0.28523992409E+03  0.00000000000E+00 0. -1.
          2    1    6    6  502    0 -0.21501529832E+03  0.17867562024E+03  0.80613008266E+03  0.85323048817E+03  0.00000000000E+00 0. -1.
          1    1    5    5  503    0  0.14334141436E+03 -0.44518925963E+03  0.67007924901E+03  0.81715753556E+03  0.00000000000E+00 0. -1.
         -2    1    5    5    0  503  0.81464683048E+02 -0.17269636828E+03  0.36027568699E+03  0.40774882077E+03  0.00000000000E+00 0.  1.
         -1    1    6    6    0  502 -0.45140125762E+02  0.29605439027E+02  0.75428433964E+02  0.92755385957E+02  0.00000000000E+00 0.  1.
<mgrwt>
<rscale>  0 0.16457961E+04</rscale>
<asrwt>0</asrwt>
<pdfrwt beam="1">  1        1 0.35594188E+00 0.16457961E+04</pdfrwt>
<pdfrwt beam="2">  1       -1 0.45028377E-01 0.16457961E+04</pdfrwt>
<totfact> 0.85271686E+00</totfact>
</mgrwt>
</event>
<event>
12    1  0.1599266E-007  0.1337738E+04  0.7818608E-02  0.9000162E-01
         -2   -1    0    0    0  501 -0.00000000000E+00  0.00000000000E+00  0.18991058948E+03  0.18991058948E+03  0.00000000000E+00 0.  1.
          2   -1    0    0  501    0  0.00000000000E+00 -0.00000000000E+00 -0.23557717764E+04  0.23557717764E+04  0.00000000000E+00 0. -1.
         23    2    1    2    0    0  0.14624952034E+02 -0.26058228011E+03 -0.10915779523E+04  0.11258687923E+04  0.89000547104E+02 0.  0.
        254    2    1    2    0    0 -0.14624952034E+02  0.26058228011E+03 -0.10742832345E+04  0.14198135736E+04  0.89088108174E+03 0.  0.
        -24    2    4    4    0    0 -0.36105378031E+03 -0.10945126901E+03 -0.28908715671E+03  0.48182998977E+03  0.79052781745E+02 0.  0.
         24    2    4    4    0    0  0.34642882828E+03  0.37003354913E+03 -0.78519607782E+03  0.93798358381E+03  0.79640205466E+02 0.  0.
         11    1    3    3    0    0 -0.14316691214E+02 -0.23787482950E+03 -0.91716480501E+03  0.94761842622E+03  0.00000000000E+00 0. -1.
        -11    1    3    3    0    0  0.28941643248E+02 -0.22707450608E+02 -0.17441314733E+03  0.17825036603E+03  0.00000000000E+00 0.  1.
          2    1    6    6  502    0  0.32742677973E+03  0.36702736236E+03 -0.73660349868E+03  0.88572122876E+03  0.00000000000E+00 0. -1.
          1    1    5    5  503    0 -0.29551626683E+03 -0.11068694333E+03 -0.26472829418E+03  0.41190112056E+03  0.00000000000E+00 0. -1.
         -2    1    5    5    0  503 -0.65537513484E+02  0.12356743122E+01 -0.24358862528E+02  0.69928869205E+02  0.00000000000E+00 0.  1.
         -1    1    6    6    0  502  0.19002048549E+02  0.30061867694E+01 -0.48592579140E+02  0.52262355051E+02  0.00000000000E+00 0.  1.
<mgrwt>
<rscale>  0 0.13377384E+04</rscale>
<asrwt>0</asrwt>
<pdfrwt beam="1">  1        2 0.36242643E+00 0.13377384E+04</pdfrwt>
<pdfrwt beam="2">  1       -2 0.29217013E-01 0.13377384E+04</pdfrwt>
<totfact> 0.44515085E+01</totfact>
</mgrwt>
</event>
<event>
12    1  0.1599266E-007  0.1721073E+04  0.7818608E-02  0.8749436E-01
          1   -1    0    0  501    0  0.00000000000E+00  0.00000000000E+00  0.47130593494E+04  0.47130593494E+04  0.00000000000E+00 0. -1.
         -1   -1    0    0    0  501 -0.00000000000E+00 -0.00000000000E+00 -0.15712144493E+03  0.15712144493E+03  0.00000000000E+00 0.  1.
         23    2    1    2    0    0 -0.39831623470E+02  0.19613480043E+03  0.33357776164E+04  0.33430014431E+04  0.90503723436E+02 0.  0.
        254    2    1    2    0    0  0.39831623470E+02 -0.19613480043E+03  0.12201602880E+04  0.15271793512E+04  0.89634269351E+03 0.  0.
        -24    2    4    4    0    0  0.80562732019E+02  0.12664891384E+03  0.11768794563E+04  0.11891435872E+04  0.80541387717E+02 0.  0.
         24    2    4    4    0    0 -0.40731108549E+02 -0.32278371426E+03  0.43280831668E+02  0.33803576399E+03  0.80911049623E+02 0.  0.
         13    1    3    3    0    0 -0.44298973286E+02  0.10812232108E+03  0.24670340977E+04  0.24697996021E+04  0.00000000000E+00 0. -1.
        -13    1    3    3    0    0  0.44673498160E+01  0.88012479344E+02  0.86874351874E+03  0.87320184098E+03  0.00000000000E+00 0.  1.
          2    1    6    6  502    0 -0.19482755938E+01 -0.22292216601E+02  0.26363471110E+02  0.34579926370E+02  0.00000000000E+00 0. -1.
          3    1    5    5  503    0  0.13729511893E+01  0.47731107085E+02  0.18820657846E+03  0.19416966744E+03  0.00000000000E+00 0. -1.
         -4    1    5    5    0  503  0.79189780829E+02  0.78917806752E+02  0.98867287788E+03  0.99497391979E+03  0.00000000000E+00 0.  1.
         -1    1    6    6    0  502 -0.38782832955E+02 -0.30049149766E+03  0.16917360559E+02  0.30345583762E+03  0.00000000000E+00 0.  1.
<mgrwt>
<rscale>  0 0.17210726E+04</rscale>
<asrwt>0</asrwt>
<pdfrwt beam="1">  1        1 0.72508595E+00 0.17210726E+04</pdfrwt>
<pdfrwt beam="2">  1       -1 0.24172534E-01 0.17210726E+04</pdfrwt>
<totfact> 0.27540833E-01</totfact>
</mgrwt>
</event>
<event>
12    1  0.1599266E-007  0.1456107E+04  0.7818608E-02  0.8914178E-01
          1   -1    0    0  501    0  0.00000000000E+00  0.00000000000E+00  0.16945592605E+04  0.16945592605E+04  0.00000000000E+00 0. -1.
         -1   -1    0    0    0  501 -0.00000000000E+00 -0.00000000000E+00 -0.31280226226E+03  0.31280226226E+03  0.00000000000E+00 0.  1.
         23    2    1    2    0    0 -0.28319833003E+03  0.31724087977E+03  0.24727796087E+03  0.50029818260E+03  0.91152683170E+02 0.  0.
        254    2    1    2    0    0  0.28319833003E+03 -0.31724087977E+03  0.11344790374E+04  0.15070633402E+04  0.89630025949E+03 0.  0.
        -24    2    4    4    0    0  0.28535255460E+03 -0.58745263427E+03  0.99169790198E+03  0.11904054012E+04  0.84104770403E+02 0.  0.
         24    2    4    4    0    0 -0.21542245737E+01  0.27021175450E+03  0.14278113543E+03  0.31665793905E+03  0.82865944601E+02 0.  0.
         11    1    3    3    0    0 -0.81794278147E+02  0.91127525073E+02  0.12121258735E+03  0.17229921966E+03  0.00000000000E+00 0. -1.
        -11    1    3    3    0    0 -0.20140405188E+03  0.22611335470E+03  0.12606537352E+03  0.32799896294E+03  0.00000000000E+00 0.  1.
          4    1    6    6  502    0  0.12567523526E+02  0.16884406611E+03  0.45326061957E+02  0.17527325296E+03  0.00000000000E+00 0. -1.
          1    1    5    5  503    0  0.26405567845E+03 -0.56982520745E+03  0.92349088261E+03  0.11168086580E+04  0.00000000000E+00 0. -1.
         -2    1    5    5    0  503  0.21296876151E+02 -0.17627426819E+02  0.68207019371E+02  0.73596743145E+02  0.00000000000E+00 0.  1.
         -3    1    6    6    0  502 -0.14721748100E+02  0.10136768838E+03  0.97455073472E+02  0.14138468609E+03  0.00000000000E+00 0.  1.
<mgrwt>
<rscale>  0 0.14561071E+04</rscale>
<asrwt>0</asrwt>
<pdfrwt beam="1">  1        1 0.26070142E+00 0.14561071E+04</pdfrwt>
<pdfrwt beam="2">  1       -1 0.48123426E-01 0.14561071E+04</pdfrwt>
<totfact> 0.20144234E+01</totfact>
</mgrwt>
</event>
<event>
12    1  0.1599266E-007  0.1548343E+04  0.7818608E-02  0.8852927E-01
         -2   -1    0    0    0  501 -0.00000000000E+00  0.00000000000E+00  0.48255402508E+03  0.48255402508E+03  0.00000000000E+00 0.  1.
          2   -1    0    0  501    0  0.00000000000E+00 -0.00000000000E+00 -0.12420202659E+04  0.12420202659E+04  0.00000000000E+00 0. -1.
         23    2    1    2    0    0 -0.33009186853E+03 -0.37458305736E+03 -0.19138833973E+03  0.54357611230E+03  0.97838564784E+02 0.  0.
        254    2    1    2    0    0  0.33009186853E+03  0.37458305736E+03 -0.56807790111E+03  0.11809981787E+04  0.90706730059E+03 0.  0.
        -24    2    4    4    0    0 -0.95396248559E+02  0.64503678632E+02 -0.62914034508E+03  0.64461391380E+03  0.80301651637E+02 0.  0.
         24    2    4    4    0    0  0.42548811709E+03  0.31007937872E+03  0.61062443975E+02  0.53638426489E+03  0.82402054972E+02 0.  0.
         13    1    3    3    0    0 -0.20387559776E+03 -0.15803054036E+03 -0.90104568806E+02  0.27323569381E+03  0.00000000000E+00 0.  1.
        -13    1    3    3    0    0 -0.12621627077E+03 -0.21655251699E+03 -0.10128377092E+03  0.27034041850E+03  0.00000000000E+00 0. -1.
          2    1    6    6  502    0  0.13333072414E+02  0.26677722619E+01  0.14856335407E+02  0.20139476919E+02  0.00000000000E+00 0. -1.
          3    1    5    5  503    0 -0.24962609631E+02 -0.14319472176E+02 -0.22682142226E+03  0.22863975323E+03  0.00000000000E+00 0. -1.
         -4    1    5    5    0  503 -0.70433638928E+02  0.78823150808E+02 -0.40231892282E+03  0.41597416057E+03  0.00000000000E+00 0.  1.
         -1    1    6    6    0  502  0.41215504467E+03  0.30741160646E+03  0.46206108568E+02  0.51624478797E+03  0.00000000000E+00 0.  1.
<mgrwt>
<rscale>  0 0.15483435E+04</rscale>
<asrwt>0</asrwt>
<pdfrwt beam="1">  1        2 0.19108004E+00 0.15483435E+04</pdfrwt>
<pdfrwt beam="2">  1       -2 0.74239083E-01 0.15483435E+04</pdfrwt>
<totfact> 0.28118068E+01</totfact>
</mgrwt>
</event>
<event>
12    1  0.1599266E-007  0.1627202E+04  0.7818608E-02  0.8804009E-01
         -2   -1    0    0    0  501 -0.00000000000E+00  0.00000000000E+00  0.31438643737E+03  0.31438643737E+03  0.00000000000E+00 0. -1.
          2   -1    0    0  501    0  0.00000000000E+00 -0.00000000000E+00 -0.21055181986E+04  0.21055181986E+04  0.00000000000E+00 0.  1.
         23    2    1    2    0    0 -0.12369892784E+03  0.52412216431E+03 -0.39946870816E+03  0.67663531363E+03  0.90854999767E+02 0.  0.
        254    2    1    2    0    0  0.12369892784E+03 -0.52412216431E+03 -0.13916630531E+04  0.17432693224E+04  0.90125268880E+03 0.  0.
        -24    2    4    4    0    0 -0.27414552636E+03 -0.13033247017E+02 -0.84575096226E+03  0.89277781058E+03  0.80199088216E+02 0.  0.
         24    2    4    4    0    0  0.39784445420E+03 -0.51108891729E+03 -0.54591209083E+03  0.85049151178E+03  0.76313233299E+02 0.  0.
         11    1    3    3    0    0 -0.85730981208E+02  0.31013483183E+03 -0.29057097670E+03  0.43354919854E+03  0.00000000000E+00 0. -1.
        -11    1    3    3    0    0 -0.37967946628E+02  0.21398733248E+03 -0.10889773146E+03  0.24308611509E+03  0.00000000000E+00 0.  1.
          2    1    6    6  502    0  0.32227616689E+03 -0.45545899855E+03 -0.45690685496E+03  0.72115788924E+03  0.00000000000E+00 0. -1.
          3    1    5    5  503    0 -0.25818354833E+03 -0.24432622682E+01 -0.82535037855E+03  0.86479359475E+03  0.00000000000E+00 0. -1.
         -4    1    5    5    0  503 -0.15961978030E+02 -0.10589984749E+02 -0.20400583711E+02  0.27984215826E+02  0.00000000000E+00 0.  1.
         -3    1    6    6    0  502  0.75568287308E+02 -0.55629918739E+02 -0.89005235872E+02  0.12933362254E+03  0.00000000000E+00 0.  1.
<mgrwt>
<rscale>  0 0.16272017E+04</rscale>
<asrwt>0</asrwt>
<pdfrwt beam="1">  1        2 0.32392589E+00 0.16272017E+04</pdfrwt>
<pdfrwt beam="2">  1       -2 0.48367142E-01 0.16272017E+04</pdfrwt>
<totfact> 0.22615240E+01</totfact>
</mgrwt>
</event>
<event>
12    1  0.1599266E-007  0.3394513E+04  0.7818608E-02  0.8139254E-01
          1   -1    0    0  501    0  0.00000000000E+00  0.00000000000E+00  0.15903530666E+04  0.15903530666E+04  0.00000000000E+00 0. -1.
         -1   -1    0    0    0  501 -0.00000000000E+00 -0.00000000000E+00 -0.18113457921E+04  0.18113457921E+04  0.00000000000E+00 0.  1.
         23    2    1    2    0    0  0.13367194010E+03  0.12273084044E+04 -0.11134694747E+04  0.16650557927E+04  0.91882612888E+02 0.  0.
        254    2    1    2    0    0 -0.13367194010E+03 -0.12273084044E+04  0.89247674923E+03  0.17366430661E+04  0.83382269338E+03 0.  0.
        -24    2    4    4    0    0 -0.14049876237E+03 -0.88431656138E+03  0.10221313392E+04  0.13611658078E+04  0.79146692251E+02 0.  0.
         24    2    4    4    0    0  0.68268222720E+01 -0.34299184302E+03 -0.12965458996E+03  0.37547725825E+03  0.80516140537E+02 0.  0.
         13    1    3    3    0    0 -0.17217611692E+01 -0.10987110815E+01 -0.27543486963E+01  0.34290033982E+01  0.00000000000E+00 0. -1.
        -13    1    3    3    0    0  0.13539370127E+03  0.12284071155E+04 -0.11107151260E+04  0.16616267893E+04  0.00000000000E+00 0.  1.
          4    1    6    6  502    0 -0.14831093541E+02 -0.18675636555E+03 -0.10806388938E+03  0.21627691878E+03  0.00000000000E+00 0. -1.
          3    1    5    5  503    0 -0.10828327684E+03 -0.73553510899E+03  0.80274426322E+03  0.10941368821E+04  0.00000000000E+00 0. -1.
         -4    1    5    5    0  503 -0.32215485535E+02 -0.14878145239E+03  0.21938707597E+03  0.26702892575E+03  0.00000000000E+00 0.  1.
         -3    1    6    6    0  502  0.21657915813E+02 -0.15623547746E+03 -0.21590700586E+02  0.15920033947E+03  0.00000000000E+00 0.  1.
<mgrwt>
<rscale>  0 0.33945128E+04</rscale>
<asrwt>0</asrwt>
<pdfrwt beam="1">  1        1 0.24466970E+00 0.33945128E+04</pdfrwt>
<pdfrwt beam="2">  1       -1 0.27866858E+00 0.33945128E+04</pdfrwt>
<totfact> 0.21171023E-01</totfact>
</mgrwt>
</event>
<event>
12    1  0.1599266E-007  0.1392429E+04  0.7818608E-02  0.8959317E-01
         -1   -1    0    0    0  501 -0.00000000000E+00  0.00000000000E+00  0.36787606116E+03  0.36787606116E+03  0.00000000000E+00 0.  1.
          1   -1    0    0  501    0  0.00000000000E+00 -0.00000000000E+00 -0.13176027960E+04  0.13176027960E+04  0.00000000000E+00 0. -1.
         23    2    1    2    0    0  0.71639468182E+02  0.51856537356E+02  0.19295365671E+03  0.23629176762E+03  0.10383338547E+03 0.  0.
        254    2    1    2    0    0 -0.71639468182E+02 -0.51856537356E+02 -0.11426803916E+04  0.14491870896E+04  0.88690666330E+03 0.  0.
        -24    2    4    4    0    0 -0.34080850022E+02  0.34235349248E+03 -0.92537010162E+03  0.99055664536E+03  0.80778861998E+02 0.  0.
         24    2    4    4    0    0 -0.37558618160E+02 -0.39421002984E+03 -0.21731028994E+03  0.45863044419E+03  0.79409853328E+02 0.  0.
         13    1    3    3    0    0  0.13939299995E+02 -0.23633817824E+02  0.98752718513E+02  0.10249371124E+03  0.00000000000E+00 0. -1.
        -13    1    3    3    0    0  0.57700168187E+02  0.75490355180E+02  0.94200938199E+02  0.13379805638E+03  0.00000000000E+00 0.  1.
          4    1    6    6  502    0 -0.10112433232E+02 -0.92648043963E+01  0.32948980097E+01  0.14105114649E+02  0.00000000000E+00 0. -1.
          3    1    5    5  503    0 -0.10379052746E+02  0.79515245317E+02 -0.13203384135E+03  0.15447761726E+03  0.00000000000E+00 0. -1.
         -4    1    5    5    0  503 -0.23701797276E+02  0.26283824716E+03 -0.79333626027E+03  0.83607902810E+03  0.00000000000E+00 0.  1.
         -3    1    6    6    0  502 -0.27446184928E+02 -0.38494522544E+03 -0.22060518795E+03  0.44452532954E+03  0.00000000000E+00 0.  1.
<mgrwt>
<rscale>  0 0.13924289E+04</rscale>
<asrwt>0</asrwt>
<pdfrwt beam="1">  1        1 0.20270812E+00 0.13924289E+04</pdfrwt>
<pdfrwt beam="2">  1       -1 0.56596318E-01 0.13924289E+04</pdfrwt>
<totfact> 0.27087827E+01</totfact>
</mgrwt>
</event>
<event>
12    1  0.1599266E-007  0.2309890E+04  0.7818608E-02  0.8474032E-01
          1   -1    0    0  501    0  0.00000000000E+00  0.00000000000E+00  0.20731714619E+04  0.20731714619E+04  0.00000000000E+00 0. -1.
         -1   -1    0    0    0  501 -0.00000000000E+00 -0.00000000000E+00 -0.64340937915E+03  0.64340937915E+03  0.00000000000E+00 0.  1.
         23    2    1    2    0    0 -0.71508162318E+03 -0.64994628761E+03  0.44700450398E+03  0.10687910509E+04  0.93431147060E+02 0.  0.
        254    2    1    2    0    0  0.71508162318E+03  0.64994628761E+03  0.98275757877E+03  0.16477897902E+04  0.90312060622E+03 0.  0.
        -24    2    4    4    0    0 -0.12902225838E+03 -0.94414520769E+02  0.55794008994E+02  0.18759379525E+03  0.80731751417E+02 0.  0.
         24    2    4    4    0    0  0.84410388156E+03  0.74436080838E+03  0.92696356978E+03  0.14601959949E+04  0.79539348712E+02 0.  0.
         11    1    3    3    0    0 -0.29958895912E+03 -0.30656665720E+03  0.15537944293E+03  0.45593796839E+03  0.00000000000E+00 0.  1.
        -11    1    3    3    0    0 -0.41549266406E+03 -0.34337963041E+03  0.29162506104E+03  0.61285308248E+03  0.00000000000E+00 0. -1.
          2    1    6    6  502    0  0.67682466888E+02  0.49580696898E+02  0.45451449428E+02  0.95420103144E+02  0.00000000000E+00 0. -1.
          1    1    5    5  503    0 -0.19011537408E+02  0.14051202673E+02  0.14297486973E+02  0.27627757508E+02  0.00000000000E+00 0. -1.
         -2    1    5    5    0  503 -0.11001072097E+03 -0.10846572344E+03  0.41496522021E+02  0.15996603774E+03  0.00000000000E+00 0.  1.
         -1    1    6    6    0  502  0.77642141467E+03  0.69478011148E+03  0.88151212035E+03  0.13647758918E+04  0.00000000000E+00 0.  1.
<mgrwt>
<rscale>  0 0.23098900E+04</rscale>
<asrwt>0</asrwt>
<pdfrwt beam="1">  1        1 0.31894945E+00 0.23098900E+04</pdfrwt>
<pdfrwt beam="2">  1       -1 0.98986059E-01 0.23098900E+04</pdfrwt>
<totfact> 0.23411866E+00</totfact>
</mgrwt>
</event>
<event>
12    1  0.1599266E-007  0.1638841E+04  0.7818608E-02  0.8797036E-01
          2   -1    0    0  501    0  0.00000000000E+00  0.00000000000E+00  0.27489072987E+04  0.27489072987E+04  0.00000000000E+00 0. -1.
         -2   -1    0    0    0  501 -0.00000000000E+00 -0.00000000000E+00 -0.24426053480E+03  0.24426053480E+03  0.00000000000E+00 0.  1.
         23    2    1    2    0    0  0.45623746626E+03 -0.26897676664E+03  0.53918508317E+03  0.76130335401E+03  0.91439139876E+02 0.  0.
        254    2    1    2    0    0 -0.45623746626E+03  0.26897676664E+03  0.19654616808E+04  0.22318644795E+04  0.91524767673E+03 0.  0.
        -24    2    4    4    0    0 -0.73026881735E+03  0.23562283058E+03  0.13943922621E+04  0.15932058441E+04  0.71863879304E+02 0.  0.
         24    2    4    4    0    0  0.27403135109E+03  0.33353936069E+02  0.57106941869E+03  0.63865863545E+03  0.74558066217E+02 0.  0.
         13    1    3    3    0    0  0.45507328272E+03 -0.27463494553E+03  0.53515934410E+03  0.75426226840E+03  0.00000000000E+00 0. -1.
        -13    1    3    3    0    0  0.11641835383E+01  0.56581788805E+01  0.40257390700E+01  0.70410856133E+01  0.00000000000E+00 0.  1.
          2    1    6    6  502    0  0.68699861940E+02 -0.18249915169E+02  0.18777580209E+03  0.20077968593E+03  0.00000000000E+00 0. -1.
          1    1    5    5  503    0 -0.92934596690E+02  0.43018346822E+02  0.14553436812E+03  0.17795412254E+03  0.00000000000E+00 0. -1.
         -2    1    5    5    0  503 -0.63733422066E+03  0.19260448375E+03  0.12488578939E+04  0.14152517215E+04  0.00000000000E+00 0.  1.
         -1    1    6    6    0  502  0.20533148915E+03  0.51603851238E+02  0.38329361660E+03  0.43787894952E+03  0.00000000000E+00 0.  1.
<mgrwt>
<rscale>  0 0.16388405E+04</rscale>
<asrwt>0</asrwt>
<pdfrwt beam="1">  1        2 0.42290879E+00 0.16388405E+04</pdfrwt>
<pdfrwt beam="2">  1       -2 0.37578546E-01 0.16388405E+04</pdfrwt>
<totfact> 0.15909823E+01</totfact>
</mgrwt>
</event>
<event>
12    1  0.1599266E-007  0.1554501E+04  0.7818608E-02  0.8848998E-01
          2   -1    0    0  501    0  0.00000000000E+00  0.00000000000E+00  0.21184847937E+04  0.21184847937E+04  0.00000000000E+00 0. -1.
         -2   -1    0    0    0  501 -0.00000000000E+00 -0.00000000000E+00 -0.28516514226E+03  0.28516514226E+03  0.00000000000E+00 0.  1.
         23    2    1    2    0    0 -0.32420112068E+03 -0.20123986247E+03  0.11410766321E+04  0.12070015048E+04  0.95879630155E+02 0.  0.
        254    2    1    2    0    0  0.32420112068E+03  0.20123986247E+03  0.69224301939E+03  0.11966484312E+04  0.89842262941E+03 0.  0.
        -24    2    4    4    0    0 -0.55808271714E+02  0.27009714362E+03  0.74546485147E+03  0.79880137945E+03  0.79364783485E+02 0.  0.
         24    2    4    4    0    0  0.38000939240E+03 -0.68857281156E+02 -0.53221832083E+02  0.39784705171E+03  0.79380411123E+02 0.  0.
         13    1    3    3    0    0 -0.25407776237E+03 -0.15864394302E+03  0.75389169640E+03  0.81121889764E+03  0.00000000000E+00 0. -1.
        -13    1    3    3    0    0 -0.70123358310E+02 -0.42595919447E+02  0.38718493566E+03  0.39578260716E+03  0.00000000000E+00 0.  1.
          2    1    6    6  502    0  0.92098679500E+02 -0.24107292879E+02 -0.47569433159E+02  0.10642452399E+03  0.00000000000E+00 0. -1.
          1    1    5    5  503    0  0.14367212966E+02  0.58358653503E+02  0.11038539249E+03  0.12568645162E+03  0.00000000000E+00 0. -1.
         -2    1    5    5    0  503 -0.70175484680E+02  0.21173849012E+03  0.63507945898E+03  0.67311492783E+03  0.00000000000E+00 0.  1.
         -1    1    6    6    0  502  0.28791071290E+03 -0.44749988277E+02 -0.56523989238E+01  0.29142252772E+03  0.00000000000E+00 0.  1.
<mgrwt>
<rscale>  0 0.15545006E+04</rscale>
<asrwt>0</asrwt>
<pdfrwt beam="1">  1        2 0.32592073E+00 0.15545006E+04</pdfrwt>
<pdfrwt beam="2">  1       -2 0.43871562E-01 0.15545006E+04</pdfrwt>
<totfact> 0.27218370E+01</totfact>
</mgrwt>
</event>
<event>
12    1  0.1599266E-007  0.2689076E+04  0.7818608E-02  0.8338558E-01
         -1   -1    0    0    0  501 -0.00000000000E+00  0.00000000000E+00  0.13295029539E+04  0.13295029539E+04  0.00000000000E+00 0.  1.
          1   -1    0    0  501    0  0.00000000000E+00 -0.00000000000E+00 -0.13597433358E+04  0.13597433358E+04  0.00000000000E+00 0. -1.
         23    2    1    2    0    0  0.11531268433E+04 -0.79779433635E+02  0.28387399822E+03  0.11937887937E+04  0.92092140639E+02 0.  0.
        254    2    1    2    0    0 -0.11531268433E+04  0.79779433635E+02 -0.31411438009E+03  0.14954574960E+04  0.89535412205E+03 0.  0.
        -24    2    4    4    0    0 -0.54160529819E+03 -0.16549862380E+03  0.24994154220E+03  0.62429430191E+03  0.80910489892E+02 0.  0.
         24    2    4    4    0    0 -0.61152154508E+03  0.24527805743E+03 -0.56405592229E+03  0.87116319409E+03  0.81524853399E+02 0.  0.
         13    1    3    3    0    0  0.93696136744E+03 -0.46517208703E+02  0.19773884521E+03  0.95872890104E+03  0.00000000000E+00 0. -1.
        -13    1    3    3    0    0  0.21616547582E+03 -0.33262224932E+02  0.86135153010E+02  0.23505989264E+03  0.00000000000E+00 0.  1.
          2    1    6    6  502    0 -0.39396272570E+03  0.13192628318E+03 -0.31319590117E+03  0.52029111653E+03  0.00000000000E+00 0. -1.
          1    1    5    5  503    0 -0.40170194003E+02 -0.28073880246E+02  0.41218777532E+02  0.64037292725E+02  0.00000000000E+00 0. -1.
         -2    1    5    5    0  503 -0.50143510419E+03 -0.13742474355E+03  0.20872276467E+03  0.56025700918E+03  0.00000000000E+00 0.  1.
         -1    1    6    6    0  502 -0.21755881938E+03  0.11335177425E+03 -0.25086002112E+03  0.35087207756E+03  0.00000000000E+00 0.  1.
<mgrwt>
<rscale>  0 0.26890763E+04</rscale>
<asrwt>0</asrwt>
<pdfrwt beam="1">  1        1 0.20919128E+00 0.26890763E+04</pdfrwt>
<pdfrwt beam="2">  1       -1 0.20453892E+00 0.26890763E+04</pdfrwt>
<totfact> 0.10040909E+00</totfact>
</mgrwt>
</event>
<event>
12    1  0.1599266E-007  0.1751451E+04  0.7818608E-02  0.8732552E-01
         -1   -1    0    0    0  501 -0.00000000000E+00  0.00000000000E+00  0.65838397163E+03  0.65838397163E+03  0.00000000000E+00 0.  1.
          1   -1    0    0  501    0  0.00000000000E+00 -0.00000000000E+00 -0.11648140435E+04  0.11648140435E+04  0.00000000000E+00 0. -1.
         23    2    1    2    0    0  0.42584464213E+03 -0.48834360176E+03 -0.27796427430E+03  0.71096865637E+03  0.91592357444E+02 0.  0.
        254    2    1    2    0    0 -0.42584464213E+03  0.48834360176E+03 -0.22846579757E+03  0.11122293588E+04  0.87466244531E+03 0.  0.
        -24    2    4    4    0    0  0.16980433753E+03  0.76865133577E+02  0.18558511750E+03  0.27444148722E+03  0.78323254950E+02 0.  0.
         24    2    4    4    0    0 -0.59564897966E+03  0.41147846818E+03 -0.41405091507E+03  0.83778787155E+03  0.79612315041E+02 0.  0.
         11    1    3    3    0    0  0.86049144439E+02 -0.64280740202E+02 -0.74519400653E+02  0.13072723470E+03  0.00000000000E+00 0.  1.
        -11    1    3    3    0    0  0.33979549769E+03 -0.42406286155E+03 -0.20344487365E+03  0.58024142167E+03  0.00000000000E+00 0. -1.
          2    1    6    6  502    0 -0.22617902359E+01  0.13824770942E+02 -0.76335759817E+01  0.15953415589E+02  0.00000000000E+00 0. -1.
          1    1    5    5  503    0  0.60812871681E+02 -0.16251601268E+01  0.93663427478E+02  0.11168564883E+03  0.00000000000E+00 0. -1.
         -2    1    5    5    0  503  0.10899146585E+03  0.78490293704E+02  0.91921690021E+02  0.16275583839E+03  0.00000000000E+00 0.  1.
         -1    1    6    6    0  502 -0.59338718942E+03  0.39765369724E+03 -0.40641733908E+03  0.82183445596E+03  0.00000000000E+00 0.  1.
<mgrwt>
<rscale>  0 0.17514507E+04</rscale>
<asrwt>0</asrwt>
<pdfrwt beam="1">  1        1 0.17920216E+00 0.17514507E+04</pdfrwt>
<pdfrwt beam="2">  1       -1 0.10128984E+00 0.17514507E+04</pdfrwt>
<totfact> 0.99465863E+00</totfact>
</mgrwt>
</event>
<event>
12    1  0.1599266E-007  0.1134139E+04  0.7818608E-02  0.9172542E-01
         -3   -1    0    0    0  501 -0.00000000000E+00  0.00000000000E+00  0.49707660159E+03  0.49707660159E+03  0.00000000000E+00 0.  1.
          3   -1    0    0  501    0  0.00000000000E+00 -0.00000000000E+00 -0.64691847776E+03  0.64691847776E+03  0.00000000000E+00 0. -1.
         23    2    1    2    0    0  0.94510745300E+02 -0.15352073117E+03 -0.94898087908E+01  0.20093337816E+03  0.88222843464E+02 0.  0.
        254    2    1    2    0    0 -0.94510745300E+02  0.15352073117E+03 -0.14035206738E+03  0.94306170119E+03  0.91496763525E+03 0.  0.
        -24    2    4    4    0    0 -0.38030212912E+03  0.38398841316E+03 -0.15469685393E+03  0.56772290153E+03  0.79381140380E+02 0.  0.
         24    2    4    4    0    0  0.28579138382E+03 -0.23046768199E+03  0.14344786553E+02  0.37533879966E+03  0.76690117501E+02 0.  0.
         13    1    3    3    0    0 -0.13788569250E+02 -0.34286884046E+01 -0.69828928570E+01  0.15831656224E+02  0.00000000000E+00 0. -1.
        -13    1    3    3    0    0  0.10829931455E+03 -0.15009204277E+03 -0.25069159338E+01  0.18510172193E+03  0.00000000000E+00 0.  1.
          4    1    6    6  502    0  0.11002439815E+02  0.40452646929E+01  0.76948783361E+01  0.14022446325E+02  0.00000000000E+00 0. -1.
          1    1    5    5  503    0 -0.49392973071E+02  0.23569832203E+02 -0.31568659638E+02  0.63180559115E+02  0.00000000000E+00 0. -1.
         -2    1    5    5    0  503 -0.33090915605E+03  0.36041858096E+03 -0.12312819429E+03  0.50454234241E+03  0.00000000000E+00 0.  1.
         -3    1    6    6    0  502  0.27478894401E+03 -0.23451294668E+03  0.66499082173E+01  0.36131635333E+03  0.00000000000E+00 0.  1.
<mgrwt>
<rscale>  0 0.11341394E+04</rscale>
<asrwt>0</asrwt>
<pdfrwt beam="1">  1        3 0.99525920E-01 0.11341394E+04</pdfrwt>
<pdfrwt beam="2">  1       -3 0.76473323E-01 0.11341394E+04</pdfrwt>
<totfact> 0.36935455E+00</totfact>
</mgrwt>
</event>
<event>
12    1  0.1599266E-007  0.1782259E+04  0.7818608E-02  0.8715791E-01
          2   -1    0    0  501    0  0.00000000000E+00  0.00000000000E+00  0.16814394875E+04  0.16814394875E+04  0.00000000000E+00 0. -1.
         -2   -1    0    0    0  501 -0.00000000000E+00 -0.00000000000E+00 -0.47228091142E+03  0.47228091142E+03  0.00000000000E+00 0.  1.
         23    2    1    2    0    0 -0.57459698242E+03 -0.12729241248E+03  0.96690005791E+02  0.60372426980E+03  0.93642865380E+02 0.  0.
        254    2    1    2    0    0  0.57459698242E+03  0.12729241248E+03  0.11124685703E+04  0.15499961291E+04  0.90473014203E+03 0.  0.
        -24    2    4    4    0    0 -0.47495475765E+01  0.39238721938E+03  0.63522369456E+03  0.75048806911E+03  0.75715993091E+02 0.  0.
         24    2    4    4    0    0  0.57934653000E+03 -0.26509480690E+03  0.47724487571E+03  0.79950805999E+03  0.74382848346E+02 0.  0.
         11    1    3    3    0    0 -0.18934608662E+03 -0.54200191103E+00  0.47270526407E+02  0.19515823567E+03  0.00000000000E+00 0. -1.
        -11    1    3    3    0    0 -0.38525089581E+03 -0.12675041057E+03  0.49419479384E+02  0.40856603413E+03  0.00000000000E+00 0.  1.
          4    1    6    6  502    0  0.57935126866E+03 -0.26286674253E+03  0.47925086116E+03  0.79651001547E+03  0.00000000000E+00 0. -1.
          1    1    5    5  503    0  0.65532432647E+01  0.35410543879E+03  0.60244969727E+03  0.69884135862E+03  0.00000000000E+00 0. -1.
         -2    1    5    5    0  503 -0.11302790841E+02  0.38281780590E+02  0.32773997291E+02  0.51646710489E+02  0.00000000000E+00 0.  1.
         -3    1    6    6    0  502 -0.47386565998E-02 -0.22280643673E+01 -0.20059854534E+01  0.29980445158E+01  0.00000000000E+00 0.  1.
<mgrwt>
<rscale>  0 0.17822590E+04</rscale>
<asrwt>0</asrwt>
<pdfrwt beam="1">  1        2 0.25868299E+00 0.17822590E+04</pdfrwt>
<pdfrwt beam="2">  1       -2 0.72658603E-01 0.17822590E+04</pdfrwt>
<totfact> 0.16261615E+01</totfact>
</mgrwt>
</event>
<event>
12    1  0.1599266E-007  0.1202106E+04  0.7818608E-02  0.9111015E-01
          2   -1    0    0  501    0  0.00000000000E+00  0.00000000000E+00  0.31849446371E+04  0.31849446371E+04  0.00000000000E+00 0. -1.
         -2   -1    0    0    0  501 -0.00000000000E+00 -0.00000000000E+00 -0.11342885417E+03  0.11342885417E+03  0.00000000000E+00 0.  1.
         23    2    1    2    0    0  0.14733422962E+02 -0.21646224960E+03  0.10014165071E+04  0.10285160438E+04  0.89091257906E+02 0.  0.
        254    2    1    2    0    0 -0.14733422962E+02  0.21646224960E+03  0.20700992758E+04  0.22698574475E+04  0.90546609058E+03 0.  0.
        -24    2    4    4    0    0 -0.33081917739E+03  0.25362692534E+03  0.45703878482E+03  0.62363957006E+03  0.79208062253E+02 0.  0.
         24    2    4    4    0    0  0.31608575442E+03 -0.37164675740E+02  0.16130604910E+04  0.16462178775E+04  0.82327002115E+02 0.  0.
         11    1    3    3    0    0  0.30559947816E+02 -0.10703004071E+03  0.33549696609E+03  0.35347921336E+03  0.00000000000E+00 0. -1.
        -11    1    3    3    0    0 -0.15826524854E+02 -0.10943220889E+03  0.66591954105E+03  0.67503683039E+03  0.00000000000E+00 0.  1.
          4    1    6    6  502    0  0.20881342783E+03 -0.33711830436E+02  0.86437236316E+03  0.88987589997E+03  0.00000000000E+00 0. -1.
          1    1    5    5  503    0 -0.14095095575E+03  0.10177120342E+03  0.24881254372E+03  0.30353291697E+03  0.00000000000E+00 0. -1.
         -4    1    5    5    0  503 -0.18986822163E+03  0.15185572192E+03  0.20822624110E+03  0.32010665309E+03  0.00000000000E+00 0.  1.
         -3    1    6    6    0  502  0.10727232660E+03 -0.34528453045E+01  0.74868812784E+03  0.75634197752E+03  0.00000000000E+00 0.  1.
<mgrwt>
<rscale>  0 0.12021059E+04</rscale>
<asrwt>0</asrwt>
<pdfrwt beam="1">  1        2 0.48999141E+00 0.12021059E+04</pdfrwt>
<pdfrwt beam="2">  1       -2 0.17450595E-01 0.12021059E+04</pdfrwt>
<totfact> 0.36127912E+01</totfact>
</mgrwt>
</event>
<event>
12    1  0.1599266E-007  0.1493882E+04  0.7818608E-02  0.8888531E-01
         -2   -1    0    0    0  501 -0.00000000000E+00  0.00000000000E+00  0.26516963494E+03  0.26516963494E+03  0.00000000000E+00 0.  1.
          2   -1    0    0  501    0  0.00000000000E+00 -0.00000000000E+00 -0.21040152408E+04  0.21040152408E+04  0.00000000000E+00 0. -1.
         23    2    1    2    0    0  0.43904239749E+03 -0.14561702465E+03 -0.41893368621E+03  0.63059216842E+03  0.90435085940E+02 0.  0.
        254    2    1    2    0    0 -0.43904239749E+03  0.14561702465E+03 -0.14199119197E+04  0.17385927073E+04  0.89027647262E+03 0.  0.
        -24    2    4    4    0    0 -0.58513676610E+03  0.35414622396E+03 -0.75675334110E+03  0.10231300153E+04  0.79465879426E+02 0.  0.
         24    2    4    4    0    0  0.14609436861E+03 -0.20852919932E+03 -0.66315857856E+03  0.71546269200E+03  0.85320406846E+02 0.  0.
         11    1    3    3    0    0  0.31926776784E+03 -0.89920308000E+02 -0.24587456051E+03  0.41288239110E+03  0.00000000000E+00 0. -1.
        -11    1    3    3    0    0  0.11977462965E+03 -0.55696716647E+02 -0.17305912570E+03  0.21770977732E+03  0.00000000000E+00 0.  1.
          4    1    6    6  502    0 -0.51858068848E+01 -0.22037683933E+02 -0.11197092824E+03  0.11423677551E+03  0.00000000000E+00 0. -1.
          1    1    5    5  503    0 -0.87709381327E+02  0.22425014944E+02 -0.92605475117E+02  0.12950517708E+03  0.00000000000E+00 0. -1.
         -2    1    5    5    0  503 -0.49742738477E+03  0.33172120902E+03 -0.66414786598E+03  0.89362483824E+03  0.00000000000E+00 0.  1.
         -1    1    6    6    0  502  0.15128017549E+03 -0.18649151538E+03 -0.55118765031E+03  0.60122591649E+03  0.00000000000E+00 0.  1.
<mgrwt>
<rscale>  0 0.14938821E+04</rscale>
<asrwt>0</asrwt>
<pdfrwt beam="1">  1        2 0.32369465E+00 0.14938821E+04</pdfrwt>
<pdfrwt beam="2">  1       -2 0.40795329E-01 0.14938821E+04</pdfrwt>
<totfact> 0.32174456E+01</totfact>
</mgrwt>
</event>
<event>
12    1  0.1599266E-007  0.2625762E+04  0.7818608E-02  0.8359503E-01
          1   -1    0    0  501    0  0.00000000000E+00  0.00000000000E+00  0.82353309801E+03  0.82353309801E+03  0.00000000000E+00 0. -1.
         -1   -1    0    0    0  501 -0.00000000000E+00 -0.00000000000E+00 -0.20930025274E+04  0.20930025274E+04  0.00000000000E+00 0.  1.
         23    2    1    2    0    0  0.35446130936E+03 -0.60494366926E+03 -0.15736382262E+04  0.17252415673E+04  0.92312164601E+02 0.  0.
        254    2    1    2    0    0 -0.35446130936E+03  0.60494366926E+03  0.30416879675E+03  0.11912940582E+04  0.91381793226E+03 0.  0.
        -24    2    4    4    0    0 -0.15710726774E+02 -0.11976947974E+03  0.35709814485E+03  0.38569064940E+03  0.81526908251E+02 0.  0.
         24    2    4    4    0    0 -0.33875058258E+03  0.72471314900E+03 -0.52929348103E+02  0.80560340877E+03  0.78957145360E+02 0.  0.
         11    1    3    3    0    0  0.27569993538E+03 -0.53479302483E+03 -0.13457043549E+04  0.14740875973E+04  0.00000000000E+00 0.  1.
        -11    1    3    3    0    0  0.78761373980E+02 -0.70150644424E+02 -0.22793387128E+03  0.25115396995E+03  0.00000000000E+00 0. -1.
          4    1    6    6  502    0 -0.25000249717E+03  0.46530627147E+03 -0.57988746106E+02  0.53138862383E+03  0.00000000000E+00 0. -1.
          1    1    5    5  503    0 -0.24210372147E+02 -0.11239346874E+03  0.22090229084E+03  0.24903063272E+03  0.00000000000E+00 0. -1.
         -2    1    5    5    0  503  0.84996453726E+01 -0.73760109943E+01  0.13619585401E+03  0.13666001668E+03  0.00000000000E+00 0.  1.
         -3    1    6    6    0  502 -0.88748085417E+02  0.25940687752E+03  0.50593980032E+01  0.27421478494E+03  0.00000000000E+00 0.  1.
<mgrwt>
<rscale>  0 0.26257623E+04</rscale>
<asrwt>0</asrwt>
<pdfrwt beam="1">  1        1 0.12669740E+00 0.26257623E+04</pdfrwt>
<pdfrwt beam="2">  1       -1 0.32200038E+00 0.26257623E+04</pdfrwt>
<totfact> 0.44030546E-01</totfact>
</mgrwt>
</event>
<event>
12    1  0.1599266E-007  0.1723054E+04  0.7818608E-02  0.8748324E-01
         -2   -1    0    0    0  501 -0.00000000000E+00  0.00000000000E+00  0.17999246748E+04  0.17999246748E+04  0.00000000000E+00 0.  1.
          2   -1    0    0  501    0  0.00000000000E+00 -0.00000000000E+00 -0.41236664560E+03  0.41236664560E+03  0.00000000000E+00 0. -1.
         23    2    1    2    0    0  0.54266293633E+03 -0.23028579632E+03  0.62965463104E+03  0.86903768472E+03  0.10605155646E+03 0.  0.
        254    2    1    2    0    0 -0.54266293633E+03  0.23028579632E+03  0.75790339820E+03  0.13432536357E+04  0.93936050504E+03 0.  0.
        -24    2    4    4    0    0 -0.44589806917E+03  0.50762976658E+03  0.20499367370E+03  0.71072157158E+03  0.81176831990E+02 0.  0.
         24    2    4    4    0    0 -0.96764867162E+02 -0.27734397026E+03  0.55290972450E+03  0.63253206414E+03  0.90025170696E+02 0.  0.
         13    1    3    3    0    0  0.12721720789E+02 -0.21080729943E+02  0.52789869893E+02  0.58249546934E+02  0.00000000000E+00 0. -1.
        -13    1    3    3    0    0  0.52994121554E+03 -0.20920506638E+03  0.57686476115E+03  0.81078813779E+03  0.00000000000E+00 0.  1.
          2    1    6    6  502    0 -0.62905222693E+02 -0.26300990920E+03  0.48951416957E+03  0.55924538584E+03  0.00000000000E+00 0. -1.
          1    1    5    5  503    0 -0.31504050274E+03  0.33785827826E+03  0.10277401088E+03  0.47324542456E+03  0.00000000000E+00 0. -1.
         -2    1    5    5    0  503 -0.13085756642E+03  0.16977148832E+03  0.10221966282E+03  0.23747614702E+03  0.00000000000E+00 0.  1.
         -1    1    6    6    0  502 -0.33859644469E+02 -0.14334061055E+02  0.63395554937E+02  0.73286678296E+02  0.00000000000E+00 0.  1.
<mgrwt>
<rscale>  0 0.17230541E+04</rscale>
<asrwt>0</asrwt>
<pdfrwt beam="1">  1        2 0.63441023E-01 0.17230541E+04</pdfrwt>
<pdfrwt beam="2">  1       -2 0.27691148E+00 0.17230541E+04</pdfrwt>
<totfact> 0.32126492E+00</totfact>
</mgrwt>
</event>
<event>
12    1  0.1599266E-007  0.2433890E+04  0.7818608E-02  0.8426924E-01
         -2   -1    0    0    0  501 -0.00000000000E+00  0.00000000000E+00  0.11373625482E+04  0.11373625482E+04  0.00000000000E+00 0.  1.
          2   -1    0    0  501    0  0.00000000000E+00 -0.00000000000E+00 -0.13020959976E+04  0.13020959976E+04  0.00000000000E+00 0. -1.
         23    2    1    2    0    0  0.89828291843E+03  0.28317429241E+03 -0.53451819957E+03  0.10868712645E+04  0.92084517932E+02 0.  0.
        254    2    1    2    0    0 -0.89828291843E+03 -0.28317429241E+03  0.36978475018E+03  0.13525872814E+04  0.89758103302E+03 0.  0.
        -24    2    4    4    0    0 -0.76093426258E+03 -0.33059717328E+03  0.62960617825E+03  0.10439249565E+04  0.71133199549E+02 0.  0.
         24    2    4    4    0    0 -0.13734865586E+03  0.47422880862E+02 -0.25982142806E+03  0.30866232492E+03  0.81557792082E+02 0.  0.
         13    1    3    3    0    0  0.24660749249E+03  0.94158371840E+02 -0.19465209935E+03  0.32797941112E+03  0.00000000000E+00 0.  1.
        -13    1    3    3    0    0  0.65167542594E+03  0.18901592057E+03 -0.33986610022E+03  0.75889185336E+03  0.00000000000E+00 0. -1.
          2    1    6    6  502    0 -0.63538587192E+01  0.13720985419E+02 -0.91438210364E+02  0.92680004727E+02  0.00000000000E+00 0. -1.
          3    1    5    5  503    0 -0.83860506730E+02 -0.43318821025E+02  0.45926860318E+02  0.10496847785E+03  0.00000000000E+00 0. -1.
         -4    1    5    5    0  503 -0.67707375585E+03 -0.28727835225E+03  0.58367931793E+03  0.93895647860E+03  0.00000000000E+00 0.  1.
         -3    1    6    6    0  502 -0.13099479714E+03  0.33701895443E+02 -0.16838321770E+03  0.21598232019E+03  0.00000000000E+00 0.  1.
<mgrwt>
<rscale>  0 0.24338901E+04</rscale>
<asrwt>0</asrwt>
<pdfrwt beam="1">  1        2 0.20032246E+00 0.24338901E+04</pdfrwt>
<pdfrwt beam="2">  1       -2 0.17497885E+00 0.24338901E+04</pdfrwt>
<totfact> 0.29056857E+00</totfact>
</mgrwt>
</event>
<event>
12    1  0.1599266E-007  0.1557480E+04  0.7818608E-02  0.8847104E-01
         -2   -1    0    0    0  501 -0.00000000000E+00  0.00000000000E+00  0.41611592685E+03  0.41611592685E+03  0.00000000000E+00 0.  1.
          2   -1    0    0  501    0  0.00000000000E+00 -0.00000000000E+00 -0.14573722293E+04  0.14573722293E+04  0.00000000000E+00 0. -1.
         23    2    1    2    0    0 -0.44619143907E+03 -0.20908415186E+03 -0.16987794999E+03  0.52922848804E+03  0.91767596723E+02 0.  0.
        254    2    1    2    0    0  0.44619143907E+03  0.20908415186E+03 -0.87137835247E+03  0.13442596681E+04  0.89717937967E+03 0.  0.
        -24    2    4    4    0    0  0.15279392369E+03  0.49635008919E+03 -0.21871478567E+03  0.56908981318E+03  0.79483733169E+02 0.  0.
         24    2    4    4    0    0  0.29339751538E+03 -0.28726593733E+03 -0.65266356680E+03  0.77516985493E+03  0.79465412515E+02 0.  0.
         11    1    3    3    0    0 -0.11517796333E+03 -0.44345880385E+02 -0.27019011346E+01  0.12344966834E+03  0.00000000000E+00 0.  1.
        -11    1    3    3    0    0 -0.33101347574E+03 -0.16473827148E+03 -0.16717604885E+03  0.40577881971E+03  0.00000000000E+00 0. -1.
          4    1    6    6  502    0  0.15088783951E+02  0.18158946052E+01 -0.39998686027E+02  0.42788593787E+02  0.00000000000E+00 0. -1.
          3    1    5    5  503    0  0.58165913487E+02  0.88888836335E+02 -0.57513746632E+02  0.12079871592E+03  0.00000000000E+00 0. -1.
         -4    1    5    5    0  503  0.94628010205E+02  0.40746125286E+03 -0.16120103904E+03  0.44829109726E+03  0.00000000000E+00 0.  1.
         -3    1    6    6    0  502  0.27830873143E+03 -0.28908183194E+03 -0.61266488077E+03  0.73238126114E+03  0.00000000000E+00 0.  1.
<mgrwt>
<rscale>  0 0.15574798E+04</rscale>
<asrwt>0</asrwt>
<pdfrwt beam="1">  1        2 0.22421112E+00 0.15574798E+04</pdfrwt>
<pdfrwt beam="2">  1       -2 0.64017834E-01 0.15574798E+04</pdfrwt>
<totfact> 0.29120204E+01</totfact>
</mgrwt>
</event>
<event>
12    1  0.1599266E-007  0.1783958E+04  0.7818608E-02  0.8714877E-01
         -1   -1    0    0    0  501 -0.00000000000E+00  0.00000000000E+00  0.31961713557E+03  0.31961713557E+03  0.00000000000E+00 0.  1.
          1   -1    0    0  501    0  0.00000000000E+00 -0.00000000000E+00 -0.24893113603E+04  0.24893113603E+04  0.00000000000E+00 0. -1.
         23    2    1    2    0    0  0.10286268123E+03 -0.24307632545E+03 -0.17650793130E+04  0.17869661085E+04  0.89866904446E+02 0.  0.
        254    2    1    2    0    0 -0.10286268123E+03  0.24307632545E+03 -0.40461491170E+03  0.10219623873E+04  0.90057040991E+03 0.  0.
        -24    2    4    4    0    0 -0.14715732148E+03 -0.27733141943E+03  0.46422516889E+02  0.32732512647E+03  0.80116757742E+02 0.  0.
         24    2    4    4    0    0  0.44294640253E+02  0.52040774488E+03 -0.45103742858E+03  0.69463726088E+03  0.79372074014E+02 0.  0.
         13    1    3    3    0    0  0.53296341876E+02 -0.65957294005E+02 -0.35740559888E+03  0.36732768314E+03  0.00000000000E+00 0.  1.
        -13    1    3    3    0    0  0.49566339355E+02 -0.17711903144E+03 -0.14076737141E+04  0.14196384254E+04  0.00000000000E+00 0. -1.
          2    1    6    6  502    0  0.12376887216E+02  0.25142041759E+03 -0.16664117631E+03  0.30188523541E+03  0.00000000000E+00 0. -1.
          3    1    5    5  503    0 -0.11232656306E+03 -0.23629238815E+03  0.66372417970E+02  0.26991970534E+03  0.00000000000E+00 0. -1.
         -4    1    5    5    0  503 -0.34830758428E+02 -0.41039031290E+02 -0.19949901081E+02  0.57405421129E+02  0.00000000000E+00 0.  1.
         -1    1    6    6    0  502  0.31917753037E+02  0.26898732729E+03 -0.28439625227E+03  0.39275202547E+03  0.00000000000E+00 0.  1.
<mgrwt>
<rscale>  0 0.17839580E+04</rscale>
<asrwt>0</asrwt>
<pdfrwt beam="1">  1        1 0.38297098E+00 0.17839580E+04</pdfrwt>
<pdfrwt beam="2">  1       -1 0.49171867E-01 0.17839580E+04</pdfrwt>
<totfact> 0.54016228E+00</totfact>
</mgrwt>
</event>
<event>
12    1  0.1599266E-007  0.1485095E+04  0.7818608E-02  0.8894425E-01
          1   -1    0    0  501    0  0.00000000000E+00  0.00000000000E+00  0.58059519878E+03  0.58059519878E+03  0.00000000000E+00 0. -1.
         -1   -1    0    0    0  501 -0.00000000000E+00 -0.00000000000E+00 -0.94967531368E+03  0.94967531368E+03  0.00000000000E+00 0.  1.
         23    2    1    2    0    0  0.31224570471E+03  0.30536612537E+03 -0.28271895198E+03  0.52893772274E+03  0.95390031440E+02 0.  0.
        254    2    1    2    0    0 -0.31224570471E+03 -0.30536612537E+03 -0.86361162911E+02  0.10013327897E+04  0.89691875589E+03 0.  0.
        -24    2    4    4    0    0 -0.51847090089E+03 -0.13201019421E+03  0.22212865731E+03  0.58403169396E+03  0.74250338129E+02 0.  0.
         24    2    4    4    0    0  0.20622519618E+03 -0.17335593116E+03 -0.30848982023E+03  0.41730109576E+03  0.79957019266E+02 0.  0.
         11    1    3    3    0    0  0.87092591672E+02  0.64558202944E+02 -0.11857471723E+03  0.16066376274E+03  0.00000000000E+00 0. -1.
        -11    1    3    3    0    0  0.22515311304E+03  0.24080792243E+03 -0.16414423475E+03  0.36827396000E+03  0.00000000000E+00 0.  1.
          2    1    6    6  502    0  0.16258359016E+03 -0.13657714680E+03 -0.18646029123E+03  0.28258482093E+03  0.00000000000E+00 0. -1.
          1    1    5    5  503    0 -0.45205161692E+02 -0.92882733797E+00  0.41046354890E+00  0.45216566037E+02  0.00000000000E+00 0. -1.
         -2    1    5    5    0  503 -0.47326573919E+03 -0.13108136687E+03  0.22171819377E+03  0.53881512793E+03  0.00000000000E+00 0.  1.
         -3    1    6    6    0  502  0.43641606016E+02 -0.36778784367E+02 -0.12202952900E+03  0.13471627483E+03  0.00000000000E+00 0.  1.
<mgrwt>
<rscale>  0 0.14850952E+04</rscale>
<asrwt>0</asrwt>
<pdfrwt beam="1">  1        1 0.89322339E-01 0.14850952E+04</pdfrwt>
<pdfrwt beam="2">  1       -1 0.14610389E+00 0.14850952E+04</pdfrwt>
<totfact> 0.13024438E+01</totfact>
</mgrwt>
</event>
<event>
12    1  0.1599266E-007  0.4227214E+04  0.7818608E-02  0.7960216E-01
          2   -1    0    0  501    0  0.00000000000E+00  0.00000000000E+00  0.16563267723E+04  0.16563267723E+04  0.00000000000E+00 0. -1.
         -2   -1    0    0    0  501 -0.00000000000E+00 -0.00000000000E+00 -0.26971340169E+04  0.26971340169E+04  0.00000000000E+00 0.  1.
         23    2    1    2    0    0 -0.56452097400E+03  0.16827911532E+04 -0.14823360287E+04  0.23144220678E+04  0.93591722518E+02 0.  0.
        254    2    1    2    0    0  0.56452097400E+03 -0.16827911532E+04  0.44152878399E+03  0.20390387214E+04  0.90125537165E+03 0.  0.
        -24    2    4    4    0    0  0.18272710002E+03 -0.11432134991E+04  0.66438328009E+03  0.13373633826E+04  0.82518946565E+02 0.  0.
         24    2    4    4    0    0  0.38179387397E+03 -0.53957765408E+03 -0.22285449610E+03  0.70167533883E+03  0.75983864729E+02 0.  0.
         11    1    3    3    0    0 -0.55040710269E+03  0.16633362954E+04 -0.14717383686E+04  0.22881541548E+04  0.00000000000E+00 0.  1.
        -11    1    3    3    0    0 -0.14113871305E+02  0.19454857790E+02 -0.10597660043E+02  0.26267912997E+02  0.00000000000E+00 0. -1.
          2    1    6    6  502    0  0.15809769495E+03 -0.21404266830E+03 -0.51092014247E+02  0.27096040102E+03  0.00000000000E+00 0. -1.
          1    1    5    5  503    0  0.90956030394E+00 -0.90793571101E+02  0.73334445796E+02  0.11671435556E+03  0.00000000000E+00 0. -1.
         -2    1    5    5    0  503  0.18181753972E+03 -0.10524199280E+04  0.59104883429E+03  0.12206490270E+04  0.00000000000E+00 0.  1.
         -1    1    6    6    0  502  0.22369617902E+03 -0.32553498578E+03 -0.17176248185E+03  0.43071493781E+03  0.00000000000E+00 0.  1.
<mgrwt>
<rscale>  0 0.42272143E+04</rscale>
<asrwt>0</asrwt>
<pdfrwt beam="1">  1        2 0.25481951E+00 0.42272143E+04</pdfrwt>
<pdfrwt beam="2">  1       -2 0.41494369E+00 0.42272143E+04</pdfrwt>
<totfact> 0.47563057E-02</totfact>
</mgrwt>
</event>
<event>
12    1  0.1599266E-007  0.1510146E+04  0.7818608E-02  0.8877734E-01
         -2   -1    0    0    0  501 -0.00000000000E+00  0.00000000000E+00  0.35590545298E+04  0.35590545298E+04  0.00000000000E+00 0.  1.
          2   -1    0    0  501    0  0.00000000000E+00 -0.00000000000E+00 -0.16019296559E+03  0.16019296559E+03  0.00000000000E+00 0. -1.
         23    2    1    2    0    0 -0.38332563067E+03 -0.29092148954E+03  0.13037740545E+04  0.13926514477E+04  0.89874453451E+02 0.  0.
        254    2    1    2    0    0  0.38332563067E+03  0.29092148954E+03  0.20950875097E+04  0.23265960477E+04  0.88999081096E+03 0.  0.
        -24    2    4    4    0    0  0.19973921665E+03 -0.28259287002E+03  0.45232341517E+03  0.57510501348E+03  0.79967617010E+02 0.  0.
         24    2    4    4    0    0  0.18358641402E+03  0.57351435956E+03  0.16427640945E+04  0.17514910342E+04  0.80151609847E+02 0.  0.
         13    1    3    3    0    0 -0.18405663652E+02 -0.22459380370E+02  0.35322046297E+02  0.45725694917E+02  0.00000000000E+00 0. -1.
        -13    1    3    3    0    0 -0.36491996701E+03 -0.26846210917E+03  0.12684520082E+04  0.13469257528E+04  0.00000000000E+00 0.  1.
          4    1    6    6  502    0  0.74941469435E+02  0.13992190405E+03  0.37397818003E+03  0.40626843615E+03  0.00000000000E+00 0. -1.
          3    1    5    5  503    0  0.68921490402E+02 -0.42550131801E+02  0.12017666588E+03  0.14492452028E+03  0.00000000000E+00 0. -1.
         -4    1    5    5    0  503  0.13081772625E+03 -0.24004273822E+03  0.33214674929E+03  0.43018049321E+03  0.00000000000E+00 0.  1.
         -3    1    6    6    0  502  0.10864494458E+03  0.43359245551E+03  0.12687859145E+04  0.13452225981E+04  0.00000000000E+00 0.  1.
<mgrwt>
<rscale>  0 0.15101464E+04</rscale>
<asrwt>0</asrwt>
<pdfrwt beam="1">  1        2 0.24645074E-01 0.15101464E+04</pdfrwt>
<pdfrwt beam="2">  1       -2 0.54754679E+00 0.15101464E+04</pdfrwt>
<totfact> 0.18755714E-01</totfact>
</mgrwt>
</event>
<event>
12    1  0.1599266E-007  0.2516026E+04  0.7818608E-02  0.8397298E-01
          1   -1    0    0  501    0  0.00000000000E+00  0.00000000000E+00  0.14894276503E+04  0.14894276503E+04  0.00000000000E+00 0. -1.
         -1   -1    0    0    0  501 -0.00000000000E+00 -0.00000000000E+00 -0.10625537641E+04  0.10625537641E+04  0.00000000000E+00 0.  1.
         23    2    1    2    0    0  0.15357512156E+03 -0.73906185312E+03  0.98879100742E+03  0.12480043676E+04  0.10004751164E+03 0.  0.
        254    2    1    2    0    0 -0.15357512156E+03  0.73906185312E+03 -0.56191712120E+03  0.13039770467E+04  0.90266690787E+03 0.  0.
        -24    2    4    4    0    0  0.15902408999E+03 -0.83040658831E+02  0.80401016592E+02  0.21192689981E+03  0.79147174178E+02 0.  0.
         24    2    4    4    0    0 -0.31259921155E+03  0.82210251195E+03 -0.64231813779E+03  0.10920501469E+04  0.80188066355E+02 0.  0.
         11    1    3    3    0    0  0.11143527985E+03 -0.43826520230E+03  0.66357063795E+03  0.80300697425E+03  0.00000000000E+00 0. -1.
        -11    1    3    3    0    0  0.42139841718E+02 -0.30079665082E+03  0.32522036948E+03  0.44499739340E+03  0.00000000000E+00 0.  1.
          2    1    6    6  502    0 -0.66247447821E+02  0.27329995380E+03 -0.18935267461E+03  0.33902215926E+03  0.00000000000E+00 0. -1.
          1    1    5    5  503    0  0.32444191527E+02 -0.50081062314E+02  0.49488127827E+02  0.77522984735E+02  0.00000000000E+00 0. -1.
         -2    1    5    5    0  503  0.12657989846E+03 -0.32959596516E+02  0.30912888766E+02  0.13440391508E+03  0.00000000000E+00 0.  1.
         -1    1    6    6    0  502 -0.24635176373E+03  0.54880255816E+03 -0.45296546318E+03  0.75302798764E+03  0.00000000000E+00 0.  1.
<mgrwt>
<rscale>  0 0.25160262E+04</rscale>
<asrwt>0</asrwt>
<pdfrwt beam="1">  1        1 0.22914272E+00 0.25160262E+04</pdfrwt>
<pdfrwt beam="2">  1       -1 0.16346981E+00 0.25160262E+04</pdfrwt>
<totfact> 0.16241495E+00</totfact>
</mgrwt>
</event>
<event>
12    1  0.1599266E-007  0.1677845E+04  0.7818608E-02  0.8774102E-01
         -2   -1    0    0    0  501 -0.00000000000E+00  0.00000000000E+00  0.24811569572E+03  0.24811569572E+03  0.00000000000E+00 0.  1.
          2   -1    0    0  501    0  0.00000000000E+00 -0.00000000000E+00 -0.28365433074E+04  0.28365433074E+04  0.00000000000E+00 0. -1.
         23    2    1    2    0    0  0.44779726818E+03 -0.38427125793E+03 -0.77314427606E+03  0.97658170795E+03  0.88164435304E+02 0.  0.
        254    2    1    2    0    0 -0.44779726818E+03  0.38427125793E+03 -0.18152833356E+04  0.21080772952E+04  0.89473431851E+03 0.  0.
        -24    2    4    4    0    0 -0.66089778472E+03  0.40003117583E+03 -0.10291480216E+04  0.12891586449E+04  0.77288666052E+02 0.  0.
         24    2    4    4    0    0  0.21310051654E+03 -0.15759917898E+02 -0.78613531407E+03  0.81891865029E+03  0.83419533689E+02 0.  0.
         11    1    3    3    0    0  0.30459352004E+01 -0.73921874726E+01 -0.35503721285E+02  0.36392806733E+02  0.00000000000E+00 0. -1.
        -11    1    3    3    0    0  0.44475133298E+03 -0.37687907046E+03 -0.73764055477E+03  0.94018890122E+03  0.00000000000E+00 0.  1.
          2    1    6    6  502    0  0.17818997856E+03 -0.16330069375E+02 -0.50784765022E+03  0.53844923202E+03  0.00000000000E+00 0. -1.
          1    1    5    5  503    0 -0.63305036717E+03  0.39671239714E+03 -0.97649098762E+03  0.12294991429E+04  0.00000000000E+00 0. -1.
         -2    1    5    5    0  503 -0.27847417548E+02  0.33187786858E+01 -0.52657033942E+02  0.59659502006E+02  0.00000000000E+00 0.  1.
         -1    1    6    6    0  502  0.34910537980E+02  0.57015147666E+00 -0.27828766386E+03  0.28046941828E+03  0.00000000000E+00 0.  1.
<mgrwt>
<rscale>  0 0.16778449E+04</rscale>
<asrwt>0</asrwt>
<pdfrwt beam="1">  1        2 0.43639126E+00 0.16778449E+04</pdfrwt>
<pdfrwt beam="2">  1       -2 0.38171647E-01 0.16778449E+04</pdfrwt>
<totfact> 0.13622832E+01</totfact>
</mgrwt>
</event>
<event>
12    1  0.1610768E-007  0.1293614E+04  0.7818608E-02  0.9034645E-01
         -2   -1    0    0    0  501 -0.00000000000E+00  0.00000000000E+00  0.70201255458E+03  0.70201255458E+03  0.00000000000E+00 0.  1.
          2   -1    0    0  501    0  0.00000000000E+00 -0.00000000000E+00 -0.59594259975E+03  0.59594259975E+03  0.00000000000E+00 0. -1.
         23    2    1    2    0    0 -0.36776078010E+03  0.91648339741E+02  0.76054919535E+02  0.39750213545E+03  0.92607706741E+02 0.  0.
        254    2    1    2    0    0  0.36776078010E+03 -0.91648339741E+02  0.30015035296E+02  0.90045301888E+03  0.81625199988E+03 0.  0.
        -24    2    4    4    0    0  0.46648503613E+03  0.20711993337E+03  0.17495369221E+03  0.54529637517E+03  0.78945466152E+02 0.  0.
         24    2    4    4    0    0 -0.98724256033E+02 -0.29876827312E+03 -0.14493865691E+03  0.35515664371E+03  0.78230860626E+02 0.  0.
         11    1    3    3    0    0 -0.30932362023E+03  0.63064152151E+02  0.28600859240E+02  0.31697980766E+03  0.00000000000E+00 0. -1.
        -11    1    3    3    0    0 -0.58437159869E+02  0.28584187590E+02  0.47454060296E+02  0.80522327788E+02  0.00000000000E+00 0.  1.
          4    1    6    6  502    0  0.77556481687E+01 -0.15681595868E+02 -0.23360864712E+02  0.29185484878E+02  0.00000000000E+00 0. -1.
          1    1    5    5  503    0  0.73900983073E+01  0.13137831723E+02 -0.42531768513E+01  0.15662237666E+02  0.00000000000E+00 0. -1.
         -2    1    5    5    0  503  0.45909493782E+03  0.19398210165E+03  0.17920686906E+03  0.52963413751E+03  0.00000000000E+00 0.  1.
         -3    1    6    6    0  502 -0.10647990420E+03 -0.28308667725E+03 -0.12157779220E+03  0.32597115883E+03  0.00000000000E+00 0.  1.
<mgrwt>
<rscale>  0 0.12936138E+04</rscale>
<asrwt>0</asrwt>
<pdfrwt beam="1">  1        2 0.91683477E-01 0.12936138E+04</pdfrwt>
<pdfrwt beam="2">  1       -2 0.10800193E+00 0.12936138E+04</pdfrwt>
<totfact> 0.33681099E+01</totfact>
</mgrwt>
</event>
<event>
12    1  0.1599266E-007  0.2396605E+04  0.7818608E-02  0.8440776E-01
         -2   -1    0    0    0  501 -0.00000000000E+00  0.00000000000E+00  0.40256097846E+03  0.40256097846E+03  0.00000000000E+00 0.  1.
          2   -1    0    0  501    0  0.00000000000E+00 -0.00000000000E+00 -0.35669862115E+04  0.35669862115E+04  0.00000000000E+00 0. -1.
         23    2    1    2    0    0 -0.76179096238E+03  0.28405100365E+03 -0.31728692745E+03  0.87811703589E+03  0.96995316129E+02 0.  0.
        254    2    1    2    0    0  0.76179096238E+03 -0.28405100365E+03 -0.28471383055E+04  0.30914301540E+04  0.88866946798E+03 0.  0.
        -24    2    4    4    0    0  0.39591348098E+03  0.12077791327E+03 -0.39364611145E+03  0.57672065834E+03  0.79464885002E+02 0.  0.
         24    2    4    4    0    0  0.36587748140E+03 -0.40482891692E+03 -0.24534921941E+04  0.25147094957E+04  0.79919445854E+02 0.  0.
         13    1    3    3    0    0 -0.22352984825E+02  0.28622468306E+02 -0.17733887037E+02  0.40415249250E+02  0.00000000000E+00 0. -1.
        -13    1    3    3    0    0 -0.73943797756E+03  0.25542853535E+03 -0.29955304042E+03  0.83770178664E+03  0.00000000000E+00 0.  1.
          4    1    6    6  502    0  0.34370921708E+03 -0.37864570478E+03 -0.21855326516E+04  0.22445626672E+04  0.00000000000E+00 0. -1.
          3    1    5    5  503    0  0.35393254012E+03  0.86472277569E+02 -0.31766596720E+03  0.48338117925E+03  0.00000000000E+00 0. -1.
         -4    1    5    5    0  503  0.41980940863E+02  0.34305635701E+02 -0.75980144251E+02  0.93339479091E+02  0.00000000000E+00 0.  1.
         -1    1    6    6    0  502  0.22168264321E+02 -0.26183212143E+02 -0.26795954247E+03  0.27014682849E+03  0.00000000000E+00 0.  1.
<mgrwt>
<rscale>  0 0.23966055E+04</rscale>
<asrwt>0</asrwt>
<pdfrwt beam="1">  1        2 0.54876713E+00 0.23966055E+04</pdfrwt>
<pdfrwt beam="2">  1       -2 0.61932456E-01 0.23966055E+04</pdfrwt>
<totfact> 0.15913453E+00</totfact>
</mgrwt>
</event>
<event>
12    1  0.1599266E-007  0.2303054E+04  0.7818608E-02  0.8476718E-01
          2   -1    0    0  501    0  0.00000000000E+00  0.00000000000E+00  0.21946868353E+04  0.21946868353E+04  0.00000000000E+00 0.  1.
         -2   -1    0    0    0  501 -0.00000000000E+00 -0.00000000000E+00 -0.60419289192E+03  0.60419289192E+03  0.00000000000E+00 0. -1.
         23    2    1    2    0    0 -0.35399620240E+03 -0.76257559499E+02 -0.42095293135E+03  0.56270302211E+03  0.91130642406E+02 0.  0.
        254    2    1    2    0    0  0.35399620240E+03  0.76257559499E+02  0.20114468747E+04  0.22361767051E+04  0.90743550731E+03 0.  0.
        -24    2    4    4    0    0  0.17067426531E+02 -0.49425031319E+02  0.18165253145E+04  0.18189733848E+04  0.78522772562E+02 0.  0.
         24    2    4    4    0    0  0.33692877587E+03  0.12568259082E+03  0.19492156027E+03  0.41720332030E+03  0.82140624309E+02 0.  0.
         11    1    3    3    0    0 -0.30070192795E+03 -0.33816181261E+02 -0.36788326700E+03  0.47634365927E+03  0.00000000000E+00 0. -1.
        -11    1    3    3    0    0 -0.53294274455E+02 -0.42441378238E+02 -0.53069664348E+02  0.86359362842E+02  0.00000000000E+00 0.  1.
          2    1    6    6  502    0  0.42298115136E+02  0.19187197517E+02  0.60558859542E+02  0.76319424537E+02  0.00000000000E+00 0. -1.
          1    1    5    5  503    0  0.41866292723E+02 -0.13754925382E+02  0.57413517622E+03  0.57582391840E+03  0.00000000000E+00 0. -1.
         -2    1    5    5    0  503 -0.24798866192E+02 -0.35670105937E+02  0.12423901382E+04  0.12431494664E+04  0.00000000000E+00 0.  1.
         -1    1    6    6    0  502  0.29463066074E+03  0.10649539330E+03  0.13436270072E+03  0.34088389576E+03  0.00000000000E+00 0.  1.
<mgrwt>
<rscale>  0 0.23030538E+04</rscale>
<asrwt>0</asrwt>
<pdfrwt beam="1">  1        2 0.33764412E+00 0.23030538E+04</pdfrwt>
<pdfrwt beam="2">  1       -2 0.92952754E-01 0.23030538E+04</pdfrwt>
<totfact> 0.46207565E+00</totfact>
</mgrwt>
</event>
<event>
12    1  0.1599266E-007  0.1394235E+04  0.7818608E-02  0.8958002E-01
          2   -1    0    0  501    0  0.00000000000E+00  0.00000000000E+00  0.10522787640E+04  0.10522787640E+04  0.00000000000E+00 0. -1.
         -2   -1    0    0    0  501 -0.00000000000E+00 -0.00000000000E+00 -0.46182916786E+03  0.46182916786E+03  0.00000000000E+00 0.  1.
         23    2    1    2    0    0  0.28575289698E+03 -0.26589978160E+02 -0.10777420921E+03  0.32268642937E+03  0.10074475896E+03 0.  0.
        254    2    1    2    0    0 -0.28575289698E+03  0.26589978160E+02  0.69822380534E+03  0.11914215025E+04  0.92174127019E+03 0.  0.
        -24    2    4    4    0    0 -0.54691743417E+03 -0.16992221236E+03  0.24904077126E+03  0.62979095209E+03  0.81382427612E+02 0.  0.
         24    2    4    4    0    0  0.26116453719E+03  0.19651219052E+03  0.44918303409E+03  0.56163055040E+03  0.82701393717E+02 0.  0.
         11    1    3    3    0    0  0.95872867082E+02  0.40906503617E+01  0.11059569655E+02  0.96595311190E+02  0.00000000000E+00 0. -1.
        -11    1    3    3    0    0  0.18988002990E+03 -0.30680628521E+02 -0.11883377886E+03  0.22609111818E+03  0.00000000000E+00 0.  1.
          2    1    6    6  502    0  0.18871710032E+03  0.17291813884E+03  0.30185590403E+03  0.39576737294E+03  0.00000000000E+00 0. -1.
          1    1    5    5  503    0 -0.21930939752E+03 -0.76942349141E+02  0.14401160213E+03  0.27341557834E+03  0.00000000000E+00 0. -1.
         -2    1    5    5    0  503 -0.32760803665E+03 -0.92979863220E+02  0.10502916913E+03  0.35637537374E+03  0.00000000000E+00 0.  1.
         -1    1    6    6    0  502  0.72447436877E+02  0.23594051683E+02  0.14732713006E+03  0.16586317746E+03  0.00000000000E+00 0.  1.
<mgrwt>
<rscale>  0 0.13942353E+04</rscale>
<asrwt>0</asrwt>
<pdfrwt beam="1">  1        2 0.16188904E+00 0.13942353E+04</pdfrwt>
<pdfrwt beam="2">  1       -2 0.71050642E-01 0.13942353E+04</pdfrwt>
<totfact> 0.40883105E+01</totfact>
</mgrwt>
</event>
<event>
12    1  0.1599266E-007  0.1225430E+04  0.7818608E-02  0.9090884E-01
          2   -1    0    0  501    0  0.00000000000E+00  0.00000000000E+00  0.12325830514E+04  0.12325830514E+04  0.00000000000E+00 0.  1.
         -2   -1    0    0    0  501 -0.00000000000E+00 -0.00000000000E+00 -0.30457971379E+03  0.30457971379E+03  0.00000000000E+00 0. -1.
         23    2    1    2    0    0 -0.12656982952E+03 -0.20294586361E+03  0.60053607714E+02  0.26295635245E+03  0.91283416841E+02 0.  0.
        254    2    1    2    0    0  0.12656982952E+03  0.20294586361E+03  0.86794972988E+03  0.12742064127E+04  0.90169745665E+03 0.  0.
        -24    2    4    4    0    0  0.30815048691E+03  0.42669814754E+03  0.81171787714E+03  0.97054374494E+03  0.77725266567E+02 0.  0.
         24    2    4    4    0    0 -0.18158065739E+03 -0.22375228393E+03  0.56231852739E+02  0.30366266779E+03  0.77539505052E+02 0.  0.
         13    1    3    3    0    0 -0.22344895046E+02 -0.26693926020E+02  0.46033982794E+02  0.57714708635E+02  0.00000000000E+00 0.  1.
        -13    1    3    3    0    0 -0.10422493448E+03 -0.17625193759E+03  0.14019624920E+02  0.20524164381E+03  0.00000000000E+00 0. -1.
          4    1    6    6  502    0 -0.11517963309E+03 -0.17510136346E+03  0.68367880324E+02  0.22045635038E+03  0.00000000000E+00 0. -1.
          3    1    5    5  503    0  0.22346224642E+03  0.33507851282E+03  0.66994313145E+03  0.78168841920E+03  0.00000000000E+00 0. -1.
         -4    1    5    5    0  503  0.84688240490E+02  0.91619634719E+02  0.14177474569E+03  0.18885532573E+03  0.00000000000E+00 0.  1.
         -3    1    6    6    0  502 -0.66401024299E+02 -0.48650920473E+02 -0.12136027585E+02  0.83206317407E+02  0.00000000000E+00 0.  1.
<mgrwt>
<rscale>  0 0.12254302E+04</rscale>
<asrwt>0</asrwt>
<pdfrwt beam="1">  1        2 0.18962816E+00 0.12254302E+04</pdfrwt>
<pdfrwt beam="2">  1       -2 0.46858418E-01 0.12254302E+04</pdfrwt>
<totfact> 0.77002497E+01</totfact>
</mgrwt>
</event>
<event>
12    1  0.1599266E-007  0.1415601E+04  0.7818608E-02  0.8942602E-01
         -2   -1    0    0    0  501 -0.00000000000E+00  0.00000000000E+00  0.21751676910E+03  0.21751676910E+03  0.00000000000E+00 0. -1.
          2   -1    0    0  501    0  0.00000000000E+00 -0.00000000000E+00 -0.23031866918E+04  0.23031866918E+04  0.00000000000E+00 0.  1.
         23    2    1    2    0    0 -0.14317369930E+03  0.22887118889E+03 -0.67088047681E+02  0.29295956185E+03  0.91889985640E+02 0.  0.
        254    2    1    2    0    0  0.14317369930E+03 -0.22887118889E+03 -0.20185818750E+04  0.22277438990E+04  0.90293375410E+03 0.  0.
        -24    2    4    4    0    0  0.23276157793E+03  0.26355228514E+03 -0.43519755504E+03  0.56518086130E+03  0.79967086387E+02 0.  0.
         24    2    4    4    0    0 -0.89587878626E+02 -0.49242347404E+03 -0.15833843200E+04  0.16625630377E+04  0.80641700980E+02 0.  0.
         11    1    3    3    0    0 -0.12343264159E+03  0.20497181103E+03 -0.24832040554E+02  0.24055288518E+03  0.00000000000E+00 0. -1.
        -11    1    3    3    0    0 -0.19741057706E+02  0.23899377858E+02 -0.42256007127E+02  0.52406676671E+02  0.00000000000E+00 0.  1.
          2    1    6    6  502    0 -0.10406535237E+02 -0.30746644390E+02 -0.53519866837E+02  0.62594155183E+02  0.00000000000E+00 0. -1.
          3    1    5    5  503    0  0.47173722731E+02  0.10511880384E+03 -0.11722601550E+03  0.16436928468E+03  0.00000000000E+00 0. -1.
         -4    1    5    5    0  503  0.18558785520E+03  0.15843348130E+03 -0.31797153954E+03  0.40081157662E+03  0.00000000000E+00 0.  1.
         -1    1    6    6    0  502 -0.79181343388E+02 -0.46167682965E+03 -0.15298644531E+04  0.15999688825E+04  0.00000000000E+00 0.  1.
<mgrwt>
<rscale>  0 0.14156013E+04</rscale>
<asrwt>0</asrwt>
<pdfrwt beam="1">  1        2 0.35433641E+00 0.14156013E+04</pdfrwt>
<pdfrwt beam="2">  1       -2 0.33464119E-01 0.14156013E+04</pdfrwt>
<totfact> 0.36708574E+01</totfact>
</mgrwt>
</event>
<event>
12    1  0.1599266E-007  0.1212095E+04  0.7818608E-02  0.9102336E-01
          1   -1    0    0  501    0  0.00000000000E+00  0.00000000000E+00  0.11362635685E+04  0.11362635685E+04  0.00000000000E+00 0. -1.
         -1   -1    0    0    0  501 -0.00000000000E+00 -0.00000000000E+00 -0.32324656343E+03  0.32324656343E+03  0.00000000000E+00 0.  1.
         23    2    1    2    0    0 -0.18243882535E+03 -0.51552461735E+01  0.41156890009E+03  0.45966795077E+03  0.92710106715E+02 0.  0.
        254    2    1    2    0    0  0.18243882535E+03  0.51552461735E+01  0.40144810500E+03  0.99984218119E+03  0.89733678444E+03 0.  0.
        -24    2    4    4    0    0  0.14801903053E+03 -0.16835668395E+03  0.64570294094E+03  0.68799935273E+03  0.78467923331E+02 0.  0.
         24    2    4    4    0    0  0.34419794820E+02  0.17351193012E+03 -0.24425483594E+03  0.31184282846E+03  0.79337334285E+02 0.  0.
         11    1    3    3    0    0 -0.17594083951E+03 -0.30465343245E+02  0.35691937101E+03  0.39909241229E+03  0.00000000000E+00 0. -1.
        -11    1    3    3    0    0 -0.64979858477E+01  0.25310097072E+02  0.54649529075E+02  0.60575538478E+02  0.00000000000E+00 0.  1.
          2    1    6    6  502    0 -0.96300876247E+01  0.59872841656E+02 -0.13568544828E+03  0.14862044486E+03  0.00000000000E+00 0. -1.
          1    1    5    5  503    0 -0.86363415615E+00 -0.77395445794E+01  0.19716999906E+01  0.80333066109E+01  0.00000000000E+00 0. -1.
         -2    1    5    5    0  503  0.14888266469E+03 -0.16061713937E+03  0.64373124095E+03  0.67996604612E+03  0.00000000000E+00 0.  1.
         -1    1    6    6    0  502  0.44049882445E+02  0.11363908847E+03 -0.10856938766E+03  0.16322238360E+03  0.00000000000E+00 0.  1.
<mgrwt>
<rscale>  0 0.12120945E+04</rscale>
<asrwt>0</asrwt>
<pdfrwt beam="1">  1        1 0.17480978E+00 0.12120945E+04</pdfrwt>
<pdfrwt beam="2">  1       -1 0.49730241E-01 0.12120945E+04</pdfrwt>
<totfact> 0.47746477E+01</totfact>
</mgrwt>
</event>
<event>
12    1  0.1599266E-007  0.2711712E+04  0.7818608E-02  0.8331215E-01
         -2   -1    0    0    0  501 -0.00000000000E+00  0.00000000000E+00  0.65106678238E+03  0.65106678238E+03  0.00000000000E+00 0.  1.
          2   -1    0    0  501    0  0.00000000000E+00 -0.00000000000E+00 -0.28235887790E+04  0.28235887790E+04  0.00000000000E+00 0. -1.
         23    2    1    2    0    0  0.49621195992E+03 -0.10394288375E+04 -0.51874362639E+03  0.12664995774E+04  0.91036324639E+02 0.  0.
        254    2    1    2    0    0 -0.49621195992E+03  0.10394288375E+04 -0.16537783702E+04  0.22081559840E+04  0.90240308863E+03 0.  0.
        -24    2    4    4    0    0 -0.66008808661E+03  0.10865944513E+04 -0.14726475383E+04  0.19472792636E+04  0.82474085003E+02 0.  0.
         24    2    4    4    0    0  0.16387612669E+03 -0.47165613818E+02 -0.18113083193E+03  0.26087672038E+03  0.78538556983E+02 0.  0.
         13    1    3    3    0    0  0.36745899748E+03 -0.81724293393E+03 -0.43752702456E+03  0.99716699961E+03  0.00000000000E+00 0.  1.
        -13    1    3    3    0    0  0.12875296244E+03 -0.22218590352E+03 -0.81216601836E+02  0.26933257782E+03  0.00000000000E+00 0. -1.
          2    1    6    6  502    0  0.73868650485E+02  0.17591801079E+02 -0.86520871530E+02  0.11511694141E+03  0.00000000000E+00 0. -1.
          3    1    5    5  503    0 -0.78925289787E+01  0.40106407544E+02 -0.51458696191E+02  0.65717679154E+02  0.00000000000E+00 0. -1.
         -4    1    5    5    0  503 -0.65219555763E+03  0.10464880437E+04 -0.14211888421E+04  0.18815615844E+04  0.00000000000E+00 0.  1.
         -1    1    6    6    0  502  0.90007476209E+02 -0.64757414897E+02 -0.94609960404E+02  0.14575977897E+03  0.00000000000E+00 0.  1.
<mgrwt>
<rscale>  0 0.27117115E+04</rscale>
<asrwt>0</asrwt>
<pdfrwt beam="1">  1        2 0.43439827E+00 0.27117115E+04</pdfrwt>
<pdfrwt beam="2">  1       -2 0.10016412E+00 0.27117115E+04</pdfrwt>
<totfact> 0.16130208E+00</totfact>
</mgrwt>
</event>
<event>
12    1  0.1599266E-007  0.1494182E+04  0.7818608E-02  0.8888331E-01
          2   -1    0    0  501    0  0.00000000000E+00  0.00000000000E+00  0.33026347693E+04  0.33026347693E+04  0.00000000000E+00 0. -1.
         -2   -1    0    0    0  501 -0.00000000000E+00 -0.00000000000E+00 -0.16899992095E+03  0.16899992095E+03  0.00000000000E+00 0.  1.
         23    2    1    2    0    0  0.88734167093E+02  0.42460224861E+02 -0.63537455847E+02  0.14874402586E+03  0.91712342837E+02 0.  0.
        254    2    1    2    0    0 -0.88734167093E+02 -0.42460224861E+02  0.31971723042E+04  0.33228906644E+04  0.90000833424E+03 0.  0.
        -24    2    4    4    0    0  0.80351072228E+02 -0.77515006379E+02  0.31108119222E+04  0.31138568236E+04  0.80552041993E+02 0.  0.
         24    2    4    4    0    0 -0.16908523932E+03  0.35054781518E+02  0.86360382056E+02  0.20903384087E+03  0.80114762531E+02 0.  0.
         13    1    3    3    0    0  0.39470168009E+02 -0.16190938234E+02 -0.57929238722E+02  0.71943292547E+02  0.00000000000E+00 0. -1.
        -13    1    3    3    0    0  0.49263999084E+02  0.58651163095E+02 -0.56082171253E+01  0.76800733314E+02  0.00000000000E+00 0.  1.
          4    1    6    6  502    0  0.55671221970E+01 -0.19901057023E+01  0.16130299225E+02  0.17179636881E+02  0.00000000000E+00 0. -1.
          3    1    5    5  503    0  0.32722870028E+02 -0.53329434817E+02  0.80560460937E+03  0.80803069340E+03  0.00000000000E+00 0. -1.
         -2    1    5    5    0  503  0.47628202200E+02 -0.24185571562E+02  0.23052073128E+04  0.23058261302E+04  0.00000000000E+00 0.  1.
         -3    1    6    6    0  502 -0.17465236152E+03  0.37044887221E+02  0.70230082831E+02  0.19185420399E+03  0.00000000000E+00 0.  1.
<mgrwt>
<rscale>  0 0.14941821E+04</rscale>
<asrwt>0</asrwt>
<pdfrwt beam="1">  1        2 0.50809761E+00 0.14941821E+04</pdfrwt>
<pdfrwt beam="2">  1       -2 0.25999990E-01 0.14941821E+04</pdfrwt>
<totfact> 0.14486420E+01</totfact>
</mgrwt>
</event>
<event>
12    1  0.1599266E-007  0.1319924E+04  0.7818608E-02  0.9013913E-01
         -2   -1    0    0    0  501 -0.00000000000E+00  0.00000000000E+00  0.28759618217E+03  0.28759618217E+03  0.00000000000E+00 0.  1.
          2   -1    0    0  501    0  0.00000000000E+00 -0.00000000000E+00 -0.15144486283E+04  0.15144486283E+04  0.00000000000E+00 0. -1.
         23    2    1    2    0    0 -0.67523380622E+02 -0.32900601518E+03 -0.47139017838E+03  0.58580369425E+03  0.90293427036E+02 0.  0.
        254    2    1    2    0    0  0.67523380622E+02  0.32900601518E+03 -0.75546226776E+03  0.12162411162E+04  0.89202850281E+03 0.  0.
        -24    2    4    4    0    0  0.89554588892E+02  0.63025784813E+03 -0.51310608683E+03  0.82145252163E+03  0.79129068221E+02 0.  0.
         24    2    4    4    0    0 -0.22031208270E+02 -0.30125183295E+03 -0.24235618093E+03  0.39478859459E+03  0.76703813429E+02 0.  0.
         11    1    3    3    0    0 -0.40662177129E+01 -0.10620041972E+03 -0.88582169169E+02  0.13835412523E+03  0.00000000000E+00 0.  1.
        -11    1    3    3    0    0 -0.63457162910E+02 -0.22280559546E+03 -0.38280800921E+03  0.44744956902E+03  0.00000000000E+00 0. -1.
          2    1    6    6  502    0  0.12007119736E+01 -0.20780170731E+02 -0.49273587761E+02  0.53489659334E+02  0.00000000000E+00 0. -1.
          1    1    5    5  503    0 -0.12033617321E+01  0.90901500937E+01 -0.23849822208E+02  0.25551769558E+02  0.00000000000E+00 0. -1.
         -2    1    5    5    0  503  0.90757950624E+02  0.62116769803E+03 -0.48925626462E+03  0.79590075207E+03  0.00000000000E+00 0.  1.
         -1    1    6    6    0  502 -0.23231920243E+02 -0.28047166222E+03 -0.19308259317E+03  0.34129893526E+03  0.00000000000E+00 0.  1.
<mgrwt>
<rscale>  0 0.13199237E+04</rscale>
<asrwt>0</asrwt>
<pdfrwt beam="1">  1        2 0.23299209E+00 0.13199237E+04</pdfrwt>
<pdfrwt beam="2">  1       -2 0.44245567E-01 0.13199237E+04</pdfrwt>
<totfact> 0.59049704E+01</totfact>
</mgrwt>
</event>
<event>
12    1  0.2294620E-007  0.2456551E+04  0.7818608E-02  0.8418630E-01
          2   -1    0    0  501    0  0.00000000000E+00  0.00000000000E+00  0.25176800568E+04  0.25176800568E+04  0.00000000000E+00 0. -1.
         -2   -1    0    0    0  501 -0.00000000000E+00 -0.00000000000E+00 -0.59922675923E+03  0.59922675923E+03  0.00000000000E+00 0.  1.
         23    2    1    2    0    0  0.67436278122E+03  0.77189533689E+03  0.48882319203E+03  0.11395355382E+04  0.94897618401E+02 0.  0.
        254    2    1    2    0    0 -0.67436278122E+03 -0.77189533689E+03  0.14296301055E+04  0.19773712778E+04  0.90308768114E+03 0.  0.
        -24    2    4    4    0    0  0.92297283890E+01  0.94784070374E+02 -0.46564703997E+02  0.13205257882E+03  0.78742644306E+02 0.  0.
         24    2    4    4    0    0 -0.68359250961E+03 -0.86667940726E+03  0.14761948095E+04  0.18453186990E+04  0.87281561433E+02 0.  0.
         11    1    3    3    0    0  0.15891863212E+03  0.20077645491E+03  0.16641458799E+03  0.30538521834E+03  0.00000000000E+00 0. -1.
        -11    1    3    3    0    0  0.51544414910E+03  0.57111888197E+03  0.32240860404E+03  0.83415031987E+03  0.00000000000E+00 0.  1.
          2    1    6    6  502    0 -0.65911522843E+03 -0.84034118730E+03  0.13980957024E+04  0.17593401571E+04  0.00000000000E+00 0. -1.
          3    1    5    5  503    0  0.19906385898E+02  0.10023732272E+03 -0.21735760276E+02  0.10448075583E+03  0.00000000000E+00 0. -1.
         -4    1    5    5    0  503 -0.10676657509E+02 -0.54532523408E+01 -0.24828943720E+02  0.27571822989E+02  0.00000000000E+00 0.  1.
         -1    1    6    6    0  502 -0.24477281183E+02 -0.26338219963E+02  0.78099107129E+02  0.85978541854E+02  0.00000000000E+00 0.  1.
<mgrwt>
<rscale>  0 0.24565515E+04</rscale>
<asrwt>0</asrwt>
<pdfrwt beam="1">  1        2 0.38733539E+00 0.24565515E+04</pdfrwt>
<pdfrwt beam="2">  1       -2 0.92188734E-01 0.24565515E+04</pdfrwt>
<totfact> 0.30413925E+00</totfact>
</mgrwt>
</event>
<event>
12    1  0.1599266E-007  0.1494794E+04  0.7818608E-02  0.8887922E-01
          1   -1    0    0  501    0  0.00000000000E+00  0.00000000000E+00  0.60910108833E+03  0.60910108833E+03  0.00000000000E+00 0. -1.
         -1   -1    0    0    0  501 -0.00000000000E+00 -0.00000000000E+00 -0.91709327931E+03  0.91709327931E+03  0.00000000000E+00 0.  1.
         23    2    1    2    0    0 -0.26224927602E+03 -0.14467844697E+03 -0.46542075956E+03  0.56107634621E+03  0.92106715580E+02 0.  0.
        254    2    1    2    0    0  0.26224927602E+03  0.14467844697E+03  0.15742856858E+03  0.96511802143E+03  0.90385978187E+03 0.  0.
        -24    2    4    4    0    0  0.36579991473E+03 -0.12852819003E+03  0.41022099330E+03  0.57064430267E+03  0.83812788864E+02 0.  0.
         24    2    4    4    0    0 -0.10355063871E+03  0.27320663700E+03 -0.25279242472E+03  0.39447371875E+03  0.79629790354E+02 0.  0.
         11    1    3    3    0    0 -0.36100729469E+02 -0.63364177344E+02 -0.10233990398E+03  0.12566518048E+03  0.00000000000E+00 0. -1.
        -11    1    3    3    0    0 -0.22614854655E+03 -0.81314269628E+02 -0.36308085558E+03  0.43541116572E+03  0.00000000000E+00 0.  1.
          4    1    6    6  502    0 -0.10099239133E+03  0.20493219947E+03 -0.15863458444E+03  0.27813953489E+03  0.00000000000E+00 0. -1.
          1    1    5    5  503    0  0.34036831281E+03 -0.10447933885E+03  0.34060942819E+03  0.49272842741E+03  0.00000000000E+00 0. -1.
         -2    1    5    5    0  503  0.25431601919E+02 -0.24048851180E+02  0.69611565117E+02  0.77915875259E+02  0.00000000000E+00 0.  1.
         -3    1    6    6    0  502 -0.25582473888E+01  0.68274437526E+02 -0.94157840285E+02  0.11633418387E+03  0.00000000000E+00 0.  1.
<mgrwt>
<rscale>  0 0.14947943E+04</rscale>
<asrwt>0</asrwt>
<pdfrwt beam="1">  1        1 0.93707860E-01 0.14947943E+04</pdfrwt>
<pdfrwt beam="2">  1       -1 0.14109127E+00 0.14947943E+04</pdfrwt>
<totfact> 0.13320350E+01</totfact>
</mgrwt>
</event>
<event>
12    1  0.1599266E-007  0.1293224E+04  0.7818608E-02  0.9034956E-01
         -1   -1    0    0    0  501 -0.00000000000E+00  0.00000000000E+00  0.38168453856E+03  0.38168453856E+03  0.00000000000E+00 0.  1.
          1   -1    0    0  501    0  0.00000000000E+00 -0.00000000000E+00 -0.10954255501E+04  0.10954255501E+04  0.00000000000E+00 0. -1.
         23    2    1    2    0    0  0.47974789267E+02 -0.21410491033E+03 -0.45645752333E+03  0.51501481934E+03  0.93510964637E+02 0.  0.
        254    2    1    2    0    0 -0.47974789267E+02  0.21410491033E+03 -0.25728348816E+03  0.96209526928E+03  0.90071639313E+03 0.  0.
        -24    2    4    4    0    0  0.16536804723E+03  0.74938465873E+02 -0.53887927292E+03  0.57421874193E+03  0.79836884250E+02 0.  0.
         24    2    4    4    0    0 -0.21334283650E+03  0.13916644446E+03  0.28159578475E+03  0.38787652735E+03  0.79180485798E+02 0.  0.
         11    1    3    3    0    0 -0.15054541399E+01 -0.27079431622E+02 -0.15122161581E+03  0.15363443330E+03  0.00000000000E+00 0.  1.
        -11    1    3    3    0    0  0.49480243407E+02 -0.18702547871E+03 -0.30523590752E+03  0.36138038604E+03  0.00000000000E+00 0. -1.
          2    1    6    6  502    0 -0.10925849648E+03  0.11399777673E+03  0.18926443655E+03  0.24648314160E+03  0.00000000000E+00 0. -1.
          3    1    5    5  503    0  0.11403645238E+03  0.57125088610E+02 -0.46705996363E+03  0.48416174761E+03  0.00000000000E+00 0. -1.
         -4    1    5    5    0  503  0.51331594844E+02  0.17813377264E+02 -0.71819309283E+02  0.90056994313E+02  0.00000000000E+00 0.  1.
         -1    1    6    6    0  502 -0.10408434002E+03  0.25168667728E+02  0.92331348204E+02  0.14139338575E+03  0.00000000000E+00 0.  1.
<mgrwt>
<rscale>  0 0.12932239E+04</rscale>
<asrwt>0</asrwt>
<pdfrwt beam="1">  1        1 0.16852701E+00 0.12932239E+04</pdfrwt>
<pdfrwt beam="2">  1       -1 0.58720698E-01 0.12932239E+04</pdfrwt>
<totfact> 0.36923020E+01</totfact>
</mgrwt>
</event>
<event>
12    1  0.1599266E-007  0.1561304E+04  0.7818608E-02  0.8844680E-01
         -2   -1    0    0    0  501 -0.00000000000E+00  0.00000000000E+00  0.17052717949E+03  0.17052717949E+03  0.00000000000E+00 0.  1.
          2   -1    0    0  501    0  0.00000000000E+00 -0.00000000000E+00 -0.35737265867E+04  0.35737265867E+04  0.00000000000E+00 0. -1.
         23    2    1    2    0    0  0.22816755347E+02  0.40564255777E+03 -0.18910070335E+04  0.19362441883E+04  0.89819079319E+02 0.  0.
        254    2    1    2    0    0 -0.22816755347E+02 -0.40564255777E+03 -0.15121923737E+04  0.18080095778E+04  0.90393936166E+03 0.  0.
        -24    2    4    4    0    0 -0.17535022343E+03  0.22628073395E+03 -0.25939999141E+03  0.39437284223E+03  0.79315267970E+02 0.  0.
         24    2    4    4    0    0  0.15253346809E+03 -0.63192329172E+03 -0.12527923822E+04  0.14136367356E+04  0.79287840651E+02 0.  0.
         13    1    3    3    0    0  0.16069985270E+02  0.34408923501E+03 -0.14199350236E+04  0.14611198162E+04  0.00000000000E+00 0. -1.
        -13    1    3    3    0    0  0.67467700770E+01  0.61553322765E+02 -0.47107200995E+03  0.47512437215E+03  0.00000000000E+00 0.  1.
          4    1    6    6  502    0  0.15767184993E+02 -0.63063164799E+02 -0.18461053983E+03  0.19572076613E+03  0.00000000000E+00 0. -1.
          3    1    5    5  503    0  0.26101488772E+01  0.24683017001E+02 -0.41090615326E+02  0.48005237978E+02  0.00000000000E+00 0. -1.
         -4    1    5    5    0  503 -0.17796037231E+03  0.20159771695E+03 -0.21830937608E+03  0.34636760426E+03  0.00000000000E+00 0.  1.
         -3    1    6    6    0  502  0.13676628309E+03 -0.56886012692E+03 -0.10681818424E+04  0.12179159695E+04  0.00000000000E+00 0.  1.
<mgrwt>
<rscale>  0 0.15613040E+04</rscale>
<asrwt>0</asrwt>
<pdfrwt beam="1">  1        2 0.54980408E+00 0.15613040E+04</pdfrwt>
<pdfrwt beam="2">  1       -2 0.26234951E-01 0.15613040E+04</pdfrwt>
<totfact> 0.92379920E+00</totfact>
</mgrwt>
</event>
<event>
12    1  0.1599266E-007  0.1145102E+04  0.7818608E-02  0.9162315E-01
         -1   -1    0    0    0  501 -0.00000000000E+00  0.00000000000E+00  0.16243006696E+03  0.16243006696E+03  0.00000000000E+00 0.  1.
          1   -1    0    0  501    0  0.00000000000E+00 -0.00000000000E+00 -0.20181877644E+04  0.20181877644E+04  0.00000000000E+00 0. -1.
         23    2    1    2    0    0 -0.21482726392E+03 -0.35532148745E+02 -0.43857000546E+03  0.49781065933E+03  0.89769237166E+02 0.  0.
        254    2    1    2    0    0  0.21482726392E+03  0.35532148745E+02 -0.14171876920E+04  0.16828071720E+04  0.88091187812E+03 0.  0.
        -24    2    4    4    0    0  0.19287969411E+03  0.42163114912E+03 -0.10174764279E+04  0.11210589572E+04  0.80867185648E+02 0.  0.
         24    2    4    4    0    0  0.21947569808E+02 -0.38609900037E+03 -0.39971126403E+03  0.56174821486E+03  0.78979923978E+02 0.  0.
         13    1    3    3    0    0 -0.27990055398E+02 -0.33555610329E+02 -0.48392407099E+02  0.65201589326E+02  0.00000000000E+00 0.  1.
        -13    1    3    3    0    0 -0.18683720852E+03 -0.19765384157E+01 -0.39017759836E+03  0.43260907001E+03  0.00000000000E+00 0. -1.
          4    1    6    6  502    0 -0.25150083436E+02 -0.21015926071E+03 -0.19574547449E+03  0.28829799226E+03  0.00000000000E+00 0. -1.
          3    1    5    5  503    0  0.13673320240E+03  0.35699936222E+03 -0.78056057799E+03  0.86914862318E+03  0.00000000000E+00 0. -1.
         -4    1    5    5    0  503  0.56146491711E+02  0.64631786893E+02 -0.23691584996E+03  0.25191033399E+03  0.00000000000E+00 0.  1.
         -3    1    6    6    0  502  0.47097653244E+02 -0.17593973966E+03 -0.20396578954E+03  0.27345022260E+03  0.00000000000E+00 0.  1.
<mgrwt>
<rscale>  0 0.11451015E+04</rscale>
<asrwt>0</asrwt>
<pdfrwt beam="1">  1        1 0.31049042E+00 0.11451015E+04</pdfrwt>
<pdfrwt beam="2">  1       -1 0.24989241E-01 0.11451015E+04</pdfrwt>
<totfact> 0.40440229E+01</totfact>
</mgrwt>
</event>
<event>
12    1  0.1599266E-007  0.1203968E+04  0.7818608E-02  0.9109390E-01
         -1   -1    0    0    0  501 -0.00000000000E+00  0.00000000000E+00  0.26494562563E+03  0.26494562563E+03  0.00000000000E+00 0.  1.
          1   -1    0    0  501    0  0.00000000000E+00 -0.00000000000E+00 -0.13677706093E+04  0.13677706093E+04  0.00000000000E+00 0. -1.
         23    2    1    2    0    0 -0.20560880025E+03 -0.14297513875E+03 -0.34550705093E+03  0.43679286165E+03  0.93252413945E+02 0.  0.
        254    2    1    2    0    0  0.20560880025E+03  0.14297513875E+03 -0.75731793278E+03  0.11959233733E+04  0.89105858084E+03 0.  0.
        -24    2    4    4    0    0 -0.69147133979E+02 -0.44880370778E+02  0.17155807989E+03  0.20619516527E+03  0.79301308864E+02 0.  0.
         24    2    4    4    0    0  0.27475593423E+03  0.18785550953E+03 -0.92887601267E+03  0.98972820804E+03  0.77270712594E+02 0.  0.
         11    1    3    3    0    0 -0.80105824284E+02 -0.31492440476E+02 -0.18726121332E+03  0.20609580031E+03  0.00000000000E+00 0. -1.
        -11    1    3    3    0    0 -0.12550297597E+03 -0.11148269827E+03 -0.15824583761E+03  0.23069706134E+03  0.00000000000E+00 0.  1.
          4    1    6    6  502    0  0.78288032443E+02  0.65406909436E+02 -0.19308850356E+03  0.21838097452E+03  0.00000000000E+00 0. -1.
          3    1    5    5  503    0 -0.67153422247E+01 -0.48241206698E+02  0.51822593607E+02  0.71118851600E+02  0.00000000000E+00 0. -1.
         -4    1    5    5    0  503 -0.62431791754E+02  0.33608359202E+01  0.11973548628E+03  0.13507631367E+03  0.00000000000E+00 0.  1.
         -3    1    6    6    0  502  0.19646790179E+03  0.12244860009E+03 -0.73578750911E+03  0.77134723352E+03  0.00000000000E+00 0.  1.
<mgrwt>
<rscale>  0 0.12039682E+04</rscale>
<asrwt>0</asrwt>
<pdfrwt beam="1">  1        1 0.21042625E+00 0.12039682E+04</pdfrwt>
<pdfrwt beam="2">  1       -1 0.40760865E-01 0.12039682E+04</pdfrwt>
<totfact> 0.47111133E+01</totfact>
</mgrwt>
</event>
<event>
12    1  0.1599266E-007  0.2227122E+04  0.7818608E-02  0.8507223E-01
          1   -1    0    0  501    0  0.00000000000E+00  0.00000000000E+00  0.22390484933E+04  0.22390484933E+04  0.00000000000E+00 0. -1.
         -1   -1    0    0    0  501 -0.00000000000E+00 -0.00000000000E+00 -0.55381481278E+03  0.55381481278E+03  0.00000000000E+00 0.  1.
         23    2    1    2    0    0 -0.20414360714E+03 -0.89923029176E+03  0.63583202604E+03  0.11242391327E+04  0.96651602634E+02 0.  0.
        254    2    1    2    0    0  0.20414360714E+03  0.89923029176E+03  0.10494016544E+04  0.16686241733E+04  0.91256400838E+03 0.  0.
        -24    2    4    4    0    0  0.40785100981E+02 -0.18098411760E+03  0.16444326587E+03  0.26046155731E+03  0.79874650923E+02 0.  0.
         24    2    4    4    0    0  0.16335850616E+03  0.10802144094E+04  0.88495838858E+03  0.14081626160E+04  0.78876053492E+02 0.  0.
         11    1    3    3    0    0  0.17861540710E+01 -0.15341447980E+03  0.10755990108E+03  0.18737215716E+03  0.00000000000E+00 0. -1.
        -11    1    3    3    0    0 -0.20592976121E+03 -0.74581581196E+03  0.52827212496E+03  0.93686697558E+03  0.00000000000E+00 0.  1.
          2    1    6    6  502    0  0.68514770303E+02  0.70472382776E+03  0.56913100724E+03  0.90842724011E+03  0.00000000000E+00 0. -1.
          3    1    5    5  503    0  0.54075726051E+02 -0.17971487986E+03  0.14643401119E+03  0.23804315118E+03  0.00000000000E+00 0. -1.
         -4    1    5    5    0  503 -0.13290625070E+02 -0.12692377401E+01  0.18009254676E+02  0.22418406125E+02  0.00000000000E+00 0.  1.
         -1    1    6    6    0  502  0.94843735858E+02  0.37549058160E+03  0.31582738133E+03  0.49973537588E+03  0.00000000000E+00 0.  1.
<mgrwt>
<rscale>  0 0.22271221E+04</rscale>
<asrwt>0</asrwt>
<pdfrwt beam="1">  1        1 0.34446899E+00 0.22271221E+04</pdfrwt>
<pdfrwt beam="2">  1       -1 0.85202280E-01 0.22271221E+04</pdfrwt>
<totfact> 0.25377847E+00</totfact>
</mgrwt>
</event>
<event>
12    1  0.1599266E-007  0.1394723E+04  0.7818608E-02  0.8957647E-01
         -1   -1    0    0    0  501 -0.00000000000E+00  0.00000000000E+00  0.35254297314E+03  0.35254297314E+03  0.00000000000E+00 0.  1.
          1   -1    0    0  501    0  0.00000000000E+00 -0.00000000000E+00 -0.13794430929E+04  0.13794430929E+04  0.00000000000E+00 0. -1.
         23    2    1    2    0    0 -0.33739737932E+03 -0.12946985909E+02 -0.62938902945E+03  0.72017125950E+03  0.92257664205E+02 0.  0.
        254    2    1    2    0    0  0.33739737932E+03  0.12946985909E+02 -0.39751109034E+03  0.10118148066E+04  0.86703490116E+03 0.  0.
        -24    2    4    4    0    0  0.35055245559E+02  0.33868149228E+03 -0.43477420882E+03  0.55800730963E+03  0.80059487126E+02 0.  0.
         24    2    4    4    0    0  0.30234213377E+03 -0.32573450637E+03  0.37263118482E+02  0.45380749695E+03  0.83898568473E+02 0.  0.
         13    1    3    3    0    0 -0.15650310711E+03 -0.98592887900E+01 -0.19942905032E+03  0.25369740681E+03  0.00000000000E+00 0. -1.
        -13    1    3    3    0    0 -0.18089427221E+03 -0.30876971194E+01 -0.42995997912E+03  0.46647385269E+03  0.00000000000E+00 0.  1.
          2    1    6    6  502    0  0.10174107989E+03 -0.12151003334E+03 -0.26093679836E+02  0.16061387134E+03  0.00000000000E+00 0. -1.
          3    1    5    5  503    0  0.54809001964E+00  0.27550698171E+03 -0.31716004260E+03  0.42011294909E+03  0.00000000000E+00 0. -1.
         -4    1    5    5    0  503  0.34507155539E+02  0.63174510574E+02 -0.11761416623E+03  0.13789436054E+03  0.00000000000E+00 0.  1.
         -1    1    6    6    0  502  0.20060105388E+03 -0.20422447303E+03  0.63356798318E+02  0.29319362560E+03  0.00000000000E+00 0.  1.
<mgrwt>
<rscale>  0 0.13947229E+04</rscale>
<asrwt>0</asrwt>
<pdfrwt beam="1">  1        1 0.21222201E+00 0.13947229E+04</pdfrwt>
<pdfrwt beam="2">  1       -1 0.54237380E-01 0.13947229E+04</pdfrwt>
<totfact> 0.26596315E+01</totfact>
</mgrwt>
</event>
<event>
12    1  0.1599266E-007  0.1409271E+04  0.7818608E-02  0.8947135E-01
          2   -1    0    0  501    0  0.00000000000E+00  0.00000000000E+00  0.18907694810E+04  0.18907694810E+04  0.00000000000E+00 0. -1.
         -2   -1    0    0    0  501 -0.00000000000E+00 -0.00000000000E+00 -0.26259758570E+03  0.26259758570E+03  0.00000000000E+00 0.  1.
         23    2    1    2    0    0  0.25248502438E+03  0.48945154000E+02 -0.16286906135E+02  0.27857845563E+03  0.10581293394E+03 0.  0.
        254    2    1    2    0    0 -0.25248502438E+03 -0.48945154000E+02  0.16444588014E+04  0.18747886111E+04  0.86281126035E+03 0.  0.
        -24    2    4    4    0    0 -0.52860904278E+03  0.11786116649E+03  0.12059977906E+04  0.13243586077E+04  0.78589287852E+02 0.  0.
         24    2    4    4    0    0  0.27612401840E+03 -0.16680632049E+03  0.43846101079E+03  0.55043000334E+03  0.81586202925E+02 0.  0.
         11    1    3    3    0    0  0.23343964235E+02 -0.61795055725E+01  0.29882825057E+02  0.38420179446E+02  0.00000000000E+00 0. -1.
        -11    1    3    3    0    0  0.22914106015E+03  0.55124659573E+02 -0.46169731192E+02  0.24015827618E+03  0.00000000000E+00 0.  1.
          2    1    6    6  502    0  0.10047397490E+03 -0.33733572543E+02  0.94870536931E+02  0.14224412932E+03  0.00000000000E+00 0. -1.
          3    1    5    5  503    0 -0.18339346146E+01 -0.55233191502E+01  0.19062155472E+02  0.19930783774E+02  0.00000000000E+00 0. -1.
         -4    1    5    5    0  503 -0.52677510817E+03  0.12338448564E+03  0.11869356352E+04  0.13044278240E+04  0.00000000000E+00 0.  1.
         -3    1    6    6    0  502  0.17565004350E+03 -0.13307274794E+03  0.34359047386E+03  0.40818587402E+03  0.00000000000E+00 0.  1.
<mgrwt>
<rscale>  0 0.14092714E+04</rscale>
<asrwt>0</asrwt>
<pdfrwt beam="1">  1        2 0.29088760E+00 0.14092714E+04</pdfrwt>
<pdfrwt beam="2">  1       -2 0.40399630E-01 0.14092714E+04</pdfrwt>
<totfact> 0.43356785E+01</totfact>
</mgrwt>
</event>
<event>
12    1  0.1599266E-007  0.1609756E+04  0.7818608E-02  0.8814577E-01
          1   -1    0    0  501    0  0.00000000000E+00  0.00000000000E+00  0.67742281598E+03  0.67742281598E+03  0.00000000000E+00 0. -1.
         -1   -1    0    0    0  501 -0.00000000000E+00 -0.00000000000E+00 -0.95631348402E+03  0.95631348402E+03  0.00000000000E+00 0.  1.
         23    2    1    2    0    0  0.10024605404E+03 -0.52110288656E+03  0.60045403223E+02  0.54183803800E+03  0.91572480821E+02 0.  0.
        254    2    1    2    0    0 -0.10024605404E+03  0.52110288656E+03 -0.33893607127E+03  0.10918982620E+04  0.89205754546E+03 0.  0.
        -24    2    4    4    0    0  0.10000491977E+03  0.54040798287E+03  0.13454468206E+03  0.57137656202E+03  0.79543272667E+02 0.  0.
         24    2    4    4    0    0 -0.20025097381E+03 -0.19305096312E+02 -0.47348075333E+03  0.52052169997E+03  0.79282262260E+02 0.  0.
         13    1    3    3    0    0  0.23546024201E+01 -0.60055391747E+02 -0.20861179937E+02  0.63619046352E+02  0.00000000000E+00 0.  1.
        -13    1    3    3    0    0  0.97891451624E+02 -0.46104749481E+03  0.80906583160E+02  0.47821899165E+03  0.00000000000E+00 0. -1.
          2    1    6    6  502    0 -0.41593506917E+02 -0.19680187721E+02 -0.48330636228E+02  0.66732151206E+02  0.00000000000E+00 0. -1.
          1    1    5    5  503    0  0.69534708181E+02  0.30361826235E+03  0.37748317445E+02  0.31375796459E+03  0.00000000000E+00 0. -1.
         -4    1    5    5    0  503  0.30470211588E+02  0.23678972053E+03  0.96796364619E+02  0.25761859744E+03  0.00000000000E+00 0.  1.
         -1    1    6    6    0  502 -0.15865746690E+03  0.37509140847E+00 -0.42515011711E+03  0.45378954877E+03  0.00000000000E+00 0.  1.
<mgrwt>
<rscale>  0 0.16097560E+04</rscale>
<asrwt>0</asrwt>
<pdfrwt beam="1">  1        1 0.10421890E+00 0.16097560E+04</pdfrwt>
<pdfrwt beam="2">  1       -1 0.14712515E+00 0.16097560E+04</pdfrwt>
<totfact> 0.10089929E+01</totfact>
</mgrwt>
</event>
<event>
12    1  0.1599266E-007  0.1522967E+04  0.7818608E-02  0.8869322E-01
          2   -1    0    0  501    0  0.00000000000E+00  0.00000000000E+00  0.66355445943E+03  0.66355445943E+03  0.00000000000E+00 0.  1.
         -2   -1    0    0    0  501 -0.00000000000E+00 -0.00000000000E+00 -0.87386562508E+03  0.87386562508E+03  0.00000000000E+00 0. -1.
         23    2    1    2    0    0  0.41593637521E+03 -0.41670803840E+01  0.14585442095E+03  0.45088779164E+03  0.94899187314E+02 0.  0.
        254    2    1    2    0    0 -0.41593637521E+03  0.41670803840E+01 -0.35616558660E+03  0.10865322929E+04  0.93844449255E+03 0.  0.
        -24    2    4    4    0    0  0.11609767525E+03  0.25630531393E+03  0.12925628583E+03  0.31920944746E+03  0.77565454772E+02 0.  0.
         24    2    4    4    0    0 -0.53203405047E+03 -0.25213823355E+03 -0.48542187243E+03  0.76732284541E+03  0.80721962231E+02 0.  0.
         11    1    3    3    0    0  0.10506617733E+03  0.40378930141E+02  0.35716404451E+02  0.11808903914E+03  0.00000000000E+00 0. -1.
        -11    1    3    3    0    0  0.31087019788E+03 -0.44546010525E+02  0.11013801650E+03  0.33279875250E+03  0.00000000000E+00 0.  1.
          4    1    6    6  502    0 -0.72407105186E+02 -0.67116629866E+02 -0.76442612184E+02  0.12486354089E+03  0.00000000000E+00 0. -1.
          1    1    5    5  503    0  0.62276819335E+02  0.99927562962E+02  0.16143197905E+02  0.11884663607E+03  0.00000000000E+00 0. -1.
         -2    1    5    5    0  503  0.53820855918E+02  0.15637775097E+03  0.11311308793E+03  0.20036281140E+03  0.00000000000E+00 0.  1.
         -3    1    6    6    0  502 -0.45962694528E+03 -0.18502160368E+03 -0.40897926025E+03  0.64245930453E+03  0.00000000000E+00 0.  1.
<mgrwt>
<rscale>  0 0.15229674E+04</rscale>
<asrwt>0</asrwt>
<pdfrwt beam="1">  1        2 0.10208530E+00 0.15229674E+04</pdfrwt>
<pdfrwt beam="2">  1       -2 0.13444086E+00 0.15229674E+04</pdfrwt>
<totfact> 0.16846664E+01</totfact>
</mgrwt>
</event>
<event>
12    1  0.1599266E-007  0.2225446E+04  0.7818608E-02  0.8507911E-01
         -4   -1    0    0    0  501 -0.00000000000E+00  0.00000000000E+00  0.98793649732E+03  0.98793649732E+03  0.00000000000E+00 0.  1.
          4   -1    0    0  501    0  0.00000000000E+00 -0.00000000000E+00 -0.12532711513E+04  0.12532711513E+04  0.00000000000E+00 0. -1.
         23    2    1    2    0    0  0.29953782828E+03  0.11229469388E+03 -0.97549144920E+03  0.10310732672E+04  0.95893200880E+02 0.  0.
        254    2    1    2    0    0 -0.29953782828E+03 -0.11229469388E+03  0.71015679521E+03  0.12101343815E+04  0.92615848459E+03 0.  0.
        -24    2    4    4    0    0 -0.19555854481E+02 -0.20611866157E+03  0.84706707220E+03  0.87563650898E+03  0.79682726935E+02 0.  0.
         24    2    4    4    0    0 -0.27998197380E+03  0.93823967687E+02 -0.13691027699E+03  0.33449787248E+03  0.77146355614E+02 0.  0.
         11    1    3    3    0    0  0.16257642309E+03  0.97872254781E+02 -0.46247573114E+03  0.49989386223E+03  0.00000000000E+00 0. -1.
        -11    1    3    3    0    0  0.13696140519E+03  0.14422439096E+02 -0.51301571806E+03  0.53117940495E+03  0.00000000000E+00 0.  1.
          4    1    6    6  502    0 -0.28269170967E+03  0.95965833170E+02 -0.14011861500E+03  0.32978367170E+03  0.00000000000E+00 0. -1.
          1    1    5    5  503    0 -0.14949220051E+02 -0.20184149565E+03  0.84517632476E+03  0.86907219981E+03  0.00000000000E+00 0. -1.
         -2    1    5    5    0  503 -0.46066344295E+01 -0.42771659139E+01  0.18907474349E+01  0.65643091704E+01  0.00000000000E+00 0.  1.
         -3    1    6    6    0  502  0.27097358728E+01 -0.21418654829E+01  0.32083380042E+01  0.47142007802E+01  0.00000000000E+00 0.  1.
<mgrwt>
<rscale>  0 0.22254459E+04</rscale>
<asrwt>0</asrwt>
<pdfrwt beam="1">  1        4 0.19281095E+00 0.22254459E+04</pdfrwt>
<pdfrwt beam="2">  1       -4 0.15199023E+00 0.22254459E+04</pdfrwt>
<totfact> 0.77029670E-02</totfact>
</mgrwt>
</event>
<event>
12    1  0.1599266E-007  0.1536150E+04  0.7818608E-02  0.8860763E-01
         -4   -1    0    0    0  501 -0.00000000000E+00  0.00000000000E+00  0.46740713011E+03  0.46740713011E+03  0.00000000000E+00 0.  1.
          4   -1    0    0  501    0  0.00000000000E+00 -0.00000000000E+00 -0.12621522254E+04  0.12621522254E+04  0.00000000000E+00 0. -1.
         23    2    1    2    0    0  0.24617149353E+03 -0.13816593248E+03 -0.70183080818E+03  0.76176841370E+03  0.89634835194E+02 0.  0.
        254    2    1    2    0    0 -0.24617149353E+03  0.13816593248E+03 -0.92914287113E+02  0.96779094181E+03  0.92102986552E+03 0.  0.
        -24    2    4    4    0    0 -0.10116247855E+03  0.33522916981E+03  0.32021476616E+03  0.48123995836E+03  0.80261807216E+02 0.  0.
         24    2    4    4    0    0 -0.14500901498E+03 -0.19706323733E+03 -0.41312905328E+03  0.48655098345E+03  0.78706485788E+02 0.  0.
         13    1    3    3    0    0  0.19573071903E+03 -0.14198675262E+03 -0.62096152504E+03  0.66638124815E+03  0.00000000000E+00 0. -1.
        -13    1    3    3    0    0  0.50440774498E+02  0.38208201411E+01 -0.80869283135E+02  0.95387165558E+02  0.00000000000E+00 0.  1.
          4    1    6    6  502    0 -0.77628791963E+02 -0.11724905832E+03 -0.30684753346E+03  0.33753367211E+03  0.00000000000E+00 0. -1.
          3    1    5    5  503    0 -0.91175234845E+02  0.26917218973E+03  0.29556243268E+03  0.41002895359E+03  0.00000000000E+00 0. -1.
         -4    1    5    5    0  503 -0.99872437067E+01  0.66056980077E+02  0.24652333482E+02  0.71211004766E+02  0.00000000000E+00 0.  1.
         -3    1    6    6    0  502 -0.67380223019E+02 -0.79814179006E+02 -0.10628151981E+03  0.14901731134E+03  0.00000000000E+00 0.  1.
<mgrwt>
<rscale>  0 0.15361497E+04</rscale>
<asrwt>0</asrwt>
<pdfrwt beam="1">  1        4 0.19417726E+00 0.15361497E+04</pdfrwt>
<pdfrwt beam="2">  1       -4 0.71908791E-01 0.15361497E+04</pdfrwt>
<totfact> 0.48908111E-01</totfact>
</mgrwt>
</event>
<event>
12    1  0.1599266E-007  0.1534003E+04  0.7818608E-02  0.8862151E-01
          2   -1    0    0  501    0  0.00000000000E+00  0.00000000000E+00  0.10295716731E+04  0.10295716731E+04  0.00000000000E+00 0. -1.
         -2   -1    0    0    0  501 -0.00000000000E+00 -0.00000000000E+00 -0.57139386910E+03  0.57139386910E+03  0.00000000000E+00 0.  1.
         23    2    1    2    0    0 -0.25677194631E+03  0.69439973115E+02  0.58569082562E+03  0.65082298920E+03  0.98909442312E+02 0.  0.
        254    2    1    2    0    0  0.25677194631E+03 -0.69439973115E+02 -0.12751302159E+03  0.95014255304E+03  0.90319297945E+03 0.  0.
        -24    2    4    4    0    0  0.68599912261E+02  0.40778186975E+03 -0.23983182524E+02  0.42090523706E+03  0.74793210145E+02 0.  0.
         24    2    4    4    0    0  0.18817203405E+03 -0.47722184286E+03 -0.10352983906E+03  0.52923731598E+03  0.78894279509E+02 0.  0.
         11    1    3    3    0    0 -0.21075933372E+03  0.42131222870E+02  0.53724899936E+03  0.57864585370E+03  0.00000000000E+00 0.  1.
        -11    1    3    3    0    0 -0.46012612598E+02  0.27308750245E+02  0.48441826257E+02  0.72177135501E+02  0.00000000000E+00 0. -1.
          4    1    6    6  502    0  0.15560659778E+02 -0.53806343104E+01 -0.12720369067E+01  0.16513734775E+02  0.00000000000E+00 0. -1.
          1    1    5    5  503    0  0.41291020449E+02  0.10446498410E+03 -0.30127866052E+02  0.11629948231E+03  0.00000000000E+00 0. -1.
         -2    1    5    5    0  503  0.27308891811E+02  0.30331688565E+03  0.61446835285E+01  0.30460575475E+03  0.00000000000E+00 0.  1.
         -3    1    6    6    0  502  0.17261137427E+03 -0.47184120855E+03 -0.10225780216E+03  0.51272358120E+03  0.00000000000E+00 0.  1.
<mgrwt>
<rscale>  0 0.15340025E+04</rscale>
<asrwt>0</asrwt>
<pdfrwt beam="1">  1        2 0.15839564E+00 0.15340025E+04</pdfrwt>
<pdfrwt beam="2">  1       -2 0.87906749E-01 0.15340025E+04</pdfrwt>
<totfact> 0.25935035E+01</totfact>
</mgrwt>
</event>
<event>
12    1  0.1599266E-007  0.1378997E+04  0.7818608E-02  0.8969164E-01
         -1   -1    0    0    0  501 -0.00000000000E+00  0.00000000000E+00  0.20555955715E+03  0.20555955715E+03  0.00000000000E+00 0.  1.
          1   -1    0    0  501    0  0.00000000000E+00 -0.00000000000E+00 -0.23127499277E+04  0.23127499277E+04  0.00000000000E+00 0. -1.
         23    2    1    2    0    0  0.22932781662E+03  0.13426028443E+03 -0.95041261213E+02  0.29737859142E+03  0.93723603491E+02 0.  0.
        254    2    1    2    0    0 -0.22932781662E+03 -0.13426028443E+03 -0.20121491094E+04  0.22209308935E+04  0.90176101254E+03 0.  0.
        -24    2    4    4    0    0 -0.34585372827E+03 -0.11718374284E+02 -0.20033441248E+04  0.20345422709E+04  0.78882495816E+02 0.  0.
         24    2    4    4    0    0  0.11652591166E+03 -0.12254191014E+03 -0.88049845915E+01  0.18638862256E+03  0.77899826931E+02 0.  0.
         13    1    3    3    0    0  0.53598765236E+02  0.51643674778E+02  0.12398834774E+02  0.75456132178E+02  0.00000000000E+00 0.  1.
        -13    1    3    3    0    0  0.17572905138E+03  0.82616609649E+02 -0.10744009599E+03  0.22192245924E+03  0.00000000000E+00 0. -1.
          4    1    6    6  502    0 -0.37487419967E+01  0.89959355693E+00 -0.13436383418E+02  0.13978509738E+02  0.00000000000E+00 0. -1.
          1    1    5    5  503    0 -0.60375104118E+02 -0.32563850579E+02 -0.40602676344E+03  0.41178063358E+03  0.00000000000E+00 0. -1.
         -2    1    5    5    0  503 -0.28547862415E+03  0.20845476294E+02 -0.15973173613E+04  0.16227616373E+04  0.00000000000E+00 0.  1.
         -3    1    6    6    0  502  0.12027465365E+03 -0.12344150370E+03  0.46313988267E+01  0.17241011282E+03  0.00000000000E+00 0.  1.
<mgrwt>
<rscale>  0 0.13789965E+04</rscale>
<asrwt>0</asrwt>
<pdfrwt beam="1">  1        1 0.35580770E+00 0.13789965E+04</pdfrwt>
<pdfrwt beam="2">  1       -1 0.31624545E-01 0.13789965E+04</pdfrwt>
<totfact> 0.16604582E+01</totfact>
</mgrwt>
</event>
<event>
12    1  0.1599266E-007  0.1267545E+04  0.7818608E-02  0.9055705E-01
          1   -1    0    0  501    0  0.00000000000E+00  0.00000000000E+00  0.70149631119E+03  0.70149631119E+03  0.00000000000E+00 0. -1.
         -1   -1    0    0    0  501 -0.00000000000E+00 -0.00000000000E+00 -0.57258717051E+03  0.57258717051E+03  0.00000000000E+00 0.  1.
         23    2    1    2    0    0  0.25439808630E+03 -0.41153818172E+02  0.20080584715E+03  0.33950283598E+03  0.92342646313E+02 0.  0.
        254    2    1    2    0    0 -0.25439808630E+03  0.41153818172E+02 -0.71896706476E+02  0.93458064572E+03  0.89546626061E+03 0.  0.
        -24    2    4    4    0    0  0.56842829296E+02  0.12874460687E+03  0.35741052297E+03  0.39143218535E+03  0.75303338271E+02 0.  0.
         24    2    4    4    0    0 -0.31124091559E+03 -0.87590788702E+02 -0.42930722945E+03  0.54314846037E+03  0.78501585599E+02 0.  0.
         11    1    3    3    0    0  0.12213477862E+03  0.18929140785E+02  0.12442484739E+03  0.17537605072E+03  0.00000000000E+00 0. -1.
        -11    1    3    3    0    0  0.13226330768E+03 -0.60082958957E+02  0.76380999764E+02  0.16412678526E+03  0.00000000000E+00 0.  1.
          2    1    6    6  502    0 -0.43501753174E+02 -0.24673292015E+02 -0.30100607752E+02  0.58371401004E+02  0.00000000000E+00 0. -1.
          1    1    5    5  503    0 -0.45552876749E+01 -0.81726115296E+01  0.16701387822E+02  0.19143630277E+02  0.00000000000E+00 0. -1.
         -2    1    5    5    0  503  0.61398116971E+02  0.13691721840E+03  0.34070913515E+03  0.37228855507E+03  0.00000000000E+00 0.  1.
         -1    1    6    6    0  502 -0.26773916242E+03 -0.62917496687E+02 -0.39920662170E+03  0.48477705937E+03  0.00000000000E+00 0.  1.
<mgrwt>
<rscale>  0 0.12675453E+04</rscale>
<asrwt>0</asrwt>
<pdfrwt beam="1">  1        1 0.10792251E+00 0.12675453E+04</pdfrwt>
<pdfrwt beam="2">  1       -1 0.88090334E-01 0.12675453E+04</pdfrwt>
<totfact> 0.33886927E+01</totfact>
</mgrwt>
</event>
<event>
12    1  0.1599266E-007  0.1926935E+04  0.7818608E-02  0.8641564E-01
         -2   -1    0    0    0  501 -0.00000000000E+00  0.00000000000E+00  0.60999562144E+03  0.60999562144E+03  0.00000000000E+00 0.  1.
          2   -1    0    0  501    0  0.00000000000E+00 -0.00000000000E+00 -0.15217639526E+04  0.15217639526E+04  0.00000000000E+00 0. -1.
         23    2    1    2    0    0 -0.35472323071E+03  0.66678942277E+03 -0.27969509179E+03  0.80878300157E+03  0.73918161011E+02 0.  0.
        254    2    1    2    0    0  0.35472323071E+03 -0.66678942277E+03 -0.63207323937E+03  0.13229765725E+04  0.88335368152E+03 0.  0.
        -24    2    4    4    0    0  0.16204072622E+02 -0.68925034189E+03 -0.12207082613E+03  0.70469895000E+03  0.79816776337E+02 0.  0.
         24    2    4    4    0    0  0.33851915809E+03  0.22460919117E+02 -0.51000241324E+03  0.61827762246E+03  0.84053814016E+02 0.  0.
         11    1    3    3    0    0 -0.59004714037E+02  0.10824048703E+03 -0.17346726143E+02  0.12449284405E+03  0.00000000000E+00 0. -1.
        -11    1    3    3    0    0 -0.29571851668E+03  0.55854893574E+03 -0.26234836564E+03  0.68429015752E+03  0.00000000000E+00 0.  1.
          4    1    6    6  502    0  0.21098427652E+03 -0.26577895976E+02 -0.32139090255E+03  0.38537366507E+03  0.00000000000E+00 0. -1.
          3    1    5    5  503    0 -0.43545531688E+01 -0.62065265803E+03 -0.93833834576E+02  0.62772085561E+03  0.00000000000E+00 0. -1.
         -4    1    5    5    0  503  0.20558625791E+02 -0.68597683857E+02 -0.28236991558E+02  0.76978094398E+02  0.00000000000E+00 0.  1.
         -3    1    6    6    0  502  0.12753488158E+03  0.49038815093E+02 -0.18861151069E+03  0.23290395739E+03  0.00000000000E+00 0.  1.
<mgrwt>
<rscale>  0 0.19269347E+04</rscale>
<asrwt>0</asrwt>
<pdfrwt beam="1">  1        2 0.23411753E+00 0.19269347E+04</pdfrwt>
<pdfrwt beam="2">  1       -2 0.93845482E-01 0.19269347E+04</pdfrwt>
<totfact> 0.11060067E+01</totfact>
</mgrwt>
</event>
<event>
12    1  0.1599266E-007  0.1695592E+04  0.7818608E-02  0.8763882E-01
          2   -1    0    0  501    0  0.00000000000E+00  0.00000000000E+00  0.57966662349E+03  0.57966662349E+03  0.00000000000E+00 0. -1.
         -2   -1    0    0    0  501 -0.00000000000E+00 -0.00000000000E+00 -0.12399506752E+04  0.12399506752E+04  0.00000000000E+00 0.  1.
         23    2    1    2    0    0  0.41503695411E+03 -0.21569926199E+03 -0.65163506738E+03  0.80711449856E+03  0.89575152010E+02 0.  0.
        254    2    1    2    0    0 -0.41503695411E+03  0.21569926199E+03 -0.86489843007E+01  0.10125028001E+04  0.89794502636E+03 0.  0.
        -24    2    4    4    0    0  0.14159356238E+03 -0.89861236676E+02  0.25930879368E+03  0.31870596010E+03  0.78795049061E+02 0.  0.
         24    2    4    4    0    0 -0.55663051649E+03  0.30556049867E+03 -0.26795777798E+03  0.69379684000E+03  0.79673924084E+02 0.  0.
         13    1    3    3    0    0  0.95452644191E+02 -0.71042857049E+02 -0.11153573399E+03  0.16309051100E+03  0.00000000000E+00 0. -1.
        -13    1    3    3    0    0  0.31958430992E+03 -0.14465640494E+03 -0.54009933338E+03  0.64402398756E+03  0.00000000000E+00 0.  1.
          4    1    6    6  502    0 -0.39219939862E+03  0.24897558226E+03 -0.17342918476E+03  0.49586983268E+03  0.00000000000E+00 0. -1.
          3    1    5    5  503    0  0.49622215440E+02 -0.77007831299E+02  0.14370090970E+03  0.17041866622E+03  0.00000000000E+00 0. -1.
         -2    1    5    5    0  503  0.91971346940E+02 -0.12853405377E+02  0.11560788398E+03  0.14828729388E+03  0.00000000000E+00 0.  1.
         -3    1    6    6    0  502 -0.16443111787E+03  0.56584916410E+02 -0.94528593220E+02  0.19792700731E+03  0.00000000000E+00 0.  1.
<mgrwt>
<rscale>  0 0.16955920E+04</rscale>
<asrwt>0</asrwt>
<pdfrwt beam="1">  1        2 0.89179481E-01 0.16955920E+04</pdfrwt>
<pdfrwt beam="2">  1       -2 0.19076164E+00 0.16955920E+04</pdfrwt>
<totfact> 0.75321426E+00</totfact>
</mgrwt>
</event>
<event>
12    1  0.1599266E-007  0.1731334E+04  0.7818608E-02  0.8743692E-01
          1   -1    0    0  501    0  0.00000000000E+00  0.00000000000E+00  0.15060465613E+04  0.15060465613E+04  0.00000000000E+00 0. -1.
         -1   -1    0    0    0  501 -0.00000000000E+00 -0.00000000000E+00 -0.49758052585E+03  0.49758052585E+03  0.00000000000E+00 0.  1.
         23    2    1    2    0    0  0.28146880038E+03 -0.57993125204E+03  0.36627798288E+03  0.74698895072E+03  0.91038393364E+02 0.  0.
        254    2    1    2    0    0 -0.28146880038E+03  0.57993125204E+03  0.64218805255E+03  0.12566381364E+04  0.86671158315E+03 0.  0.
        -24    2    4    4    0    0  0.57178714075E+02 -0.19473680233E+03  0.53511975651E+02  0.22338017309E+03  0.76441759962E+02 0.  0.
         24    2    4    4    0    0 -0.33864751446E+03  0.77466805437E+03  0.58867607690E+03  0.10332579633E+04  0.79308018301E+02 0.  0.
         11    1    3    3    0    0  0.49298088302E+02 -0.55493754454E+02  0.67358783179E+02  0.10023504360E+03  0.00000000000E+00 0.  1.
        -11    1    3    3    0    0  0.23217071208E+03 -0.52443749759E+03  0.29891919970E+03  0.64675390712E+03  0.00000000000E+00 0. -1.
          4    1    6    6  502    0 -0.16467507945E+02  0.97424005133E+01  0.14468935478E+02  0.23988398853E+02  0.00000000000E+00 0. -1.
          3    1    5    5  503    0  0.16812805332E+02  0.11526984043E+01  0.49414914341E+01  0.17561818651E+02  0.00000000000E+00 0. -1.
         -4    1    5    5    0  503  0.40365908744E+02 -0.19588950073E+03  0.48570484217E+02  0.20581835444E+03  0.00000000000E+00 0.  1.
         -3    1    6    6    0  502 -0.32218000651E+03  0.76492565385E+03  0.57420714142E+03  0.10092695645E+04  0.00000000000E+00 0.  1.
<mgrwt>
<rscale>  0 0.17313341E+04</rscale>
<asrwt>0</asrwt>
<pdfrwt beam="1">  1        1 0.23169947E+00 0.17313341E+04</pdfrwt>
<pdfrwt beam="2">  1       -1 0.76550851E-01 0.17313341E+04</pdfrwt>
<totfact> 0.10530816E+01</totfact>
</mgrwt>
</event>
<event>
12    1  0.1599266E-007  0.1684280E+04  0.7818608E-02  0.8770381E-01
          2   -1    0    0  501    0  0.00000000000E+00  0.00000000000E+00  0.29554095233E+03  0.29554095233E+03  0.00000000000E+00 0. -1.
         -2   -1    0    0    0  501 -0.00000000000E+00 -0.00000000000E+00 -0.23996664332E+04  0.23996664332E+04  0.00000000000E+00 0.  1.
         23    2    1    2    0    0 -0.43416944519E+03  0.41919514685E+03 -0.77913182023E+03  0.98982095859E+03  0.92040526350E+02 0.  0.
        254    2    1    2    0    0  0.43416944519E+03 -0.41919514685E+03 -0.13249936607E+04  0.17053864270E+04  0.88797915864E+03 0.  0.
        -24    2    4    4    0    0  0.19947976234E+03 -0.49110869617E+03 -0.13437594660E+04  0.14471928969E+04  0.87737398816E+02 0.  0.
         24    2    4    4    0    0  0.23468968284E+03  0.71913549313E+02  0.18765805334E+02  0.25819353012E+03  0.77852024627E+02 0.  0.
         13    1    3    3    0    0 -0.43408169615E+03  0.40255903106E+03 -0.74278312903E+03  0.94984602394E+03  0.00000000000E+00 0. -1.
        -13    1    3    3    0    0 -0.87749039138E-01  0.16636115796E+02 -0.36348691196E+02  0.39974934651E+02  0.00000000000E+00 0.  1.
          2    1    6    6  502    0  0.23291772234E+03  0.82251475824E+02  0.17601851579E+02  0.24764045678E+03  0.00000000000E+00 0. -1.
          1    1    5    5  503    0  0.75150050341E+02 -0.26992521961E+03 -0.78550693742E+03  0.83398339491E+03  0.00000000000E+00 0. -1.
         -2    1    5    5    0  503  0.12432971200E+03 -0.22118347655E+03 -0.55825252860E+03  0.61320950195E+03  0.00000000000E+00 0.  1.
         -1    1    6    6    0  502  0.17719605025E+01 -0.10337926511E+02  0.11639537551E+01  0.10553073340E+02  0.00000000000E+00 0.  1.
<mgrwt>
<rscale>  0 0.16842799E+04</rscale>
<asrwt>0</asrwt>
<pdfrwt beam="1">  1        2 0.45467838E-01 0.16842799E+04</pdfrwt>
<pdfrwt beam="2">  1       -2 0.36917946E+00 0.16842799E+04</pdfrwt>
<totfact> 0.12568667E+00</totfact>
</mgrwt>
</event>
<event>
12    1  0.1599266E-007  0.1209103E+04  0.7818608E-02  0.9104926E-01
          1   -1    0    0  501    0  0.00000000000E+00  0.00000000000E+00  0.22605037438E+04  0.22605037438E+04  0.00000000000E+00 0. -1.
         -1   -1    0    0    0  501 -0.00000000000E+00 -0.00000000000E+00 -0.16168191709E+03  0.16168191709E+03  0.00000000000E+00 0.  1.
         23    2    1    2    0    0 -0.12979018661E+03 -0.50121075976E+02  0.41489020764E+02  0.17078106711E+03  0.89928967759E+02 0.  0.
        254    2    1    2    0    0  0.12979018661E+03  0.50121075976E+02  0.20573328060E+04  0.22514045938E+04  0.90379574888E+03 0.  0.
        -24    2    4    4    0    0 -0.13136837863E+03  0.28360574974E+02  0.19518764902E+04  0.19579992558E+04  0.76663416317E+02 0.  0.
         24    2    4    4    0    0  0.26115856525E+03  0.21760501003E+02  0.10545631578E+03  0.29340533806E+03  0.79299068467E+02 0.  0.
         13    1    3    3    0    0 -0.96580590837E+02 -0.35136827629E+02 -0.14694174398E+02  0.10381871673E+03  0.00000000000E+00 0.  1.
        -13    1    3    3    0    0 -0.33209595776E+02 -0.14984248347E+02  0.56183195162E+02  0.66962350383E+02  0.00000000000E+00 0. -1.
          4    1    6    6  502    0  0.41660539882E+02  0.11890546190E+02 -0.11045143490E+02  0.44709963842E+02  0.00000000000E+00 0. -1.
          3    1    5    5  503    0  0.22181498865E+01 -0.11284013763E+02  0.31243534243E+03  0.31264691324E+03  0.00000000000E+00 0. -1.
         -4    1    5    5    0  503 -0.13358652852E+03  0.39644588737E+02  0.16394411478E+04  0.16453523425E+04  0.00000000000E+00 0.  1.
         -3    1    6    6    0  502  0.21949802537E+03  0.98699548126E+01  0.11650145926E+03  0.24869537422E+03  0.00000000000E+00 0.  1.
<mgrwt>
<rscale>  0 0.12091031E+04</rscale>
<asrwt>0</asrwt>
<pdfrwt beam="1">  1        1 0.34776979E+00 0.12091031E+04</pdfrwt>
<pdfrwt beam="2">  1       -1 0.24874143E-01 0.12091031E+04</pdfrwt>
<totfact> 0.27786253E+01</totfact>
</mgrwt>
</event>
<event>
12    1  0.1599266E-007  0.2007424E+04  0.7818608E-02  0.8603158E-01
          2   -1    0    0  501    0  0.00000000000E+00  0.00000000000E+00  0.68348273040E+03  0.68348273040E+03  0.00000000000E+00 0. -1.
         -2   -1    0    0    0  501 -0.00000000000E+00 -0.00000000000E+00 -0.14739767447E+04  0.14739767447E+04  0.00000000000E+00 0.  1.
         23    2    1    2    0    0  0.71490573451E+03 -0.34986091460E+03 -0.23717206646E+03  0.83561317602E+03  0.92227555725E+02 0.  0.
        254    2    1    2    0    0 -0.71490573451E+03  0.34986091460E+03 -0.55332194788E+03  0.13218462991E+04  0.89867657791E+03 0.  0.
        -24    2    4    4    0    0  0.94435931181E+02  0.35171388375E+03 -0.81545048628E+02  0.38164350419E+03  0.79883466466E+02 0.  0.
         24    2    4    4    0    0 -0.80934166569E+03 -0.18529691509E+01 -0.47177689925E+03  0.94020279492E+03  0.79815334378E+02 0.  0.
         11    1    3    3    0    0  0.50776683281E+03 -0.21070300464E+03 -0.13584556072E+03  0.56628343525E+03  0.00000000000E+00 0. -1.
        -11    1    3    3    0    0  0.20713890170E+03 -0.13915790996E+03 -0.10132650574E+03  0.26932974077E+03  0.00000000000E+00 0.  1.
          4    1    6    6  502    0 -0.24067796213E+03 -0.85257145046E+01 -0.18242593975E+03  0.30212214874E+03  0.00000000000E+00 0. -1.
          3    1    5    5  503    0  0.57778953949E+02  0.21332507972E+03 -0.91068582136E+01  0.22119885176E+03  0.00000000000E+00 0. -1.
         -4    1    5    5    0  503  0.36656977232E+02  0.13838880404E+03 -0.72438190415E+02  0.16044465243E+03  0.00000000000E+00 0.  1.
         -3    1    6    6    0  502 -0.56866370356E+03  0.66727453538E+01 -0.28935095950E+03  0.63808064619E+03  0.00000000000E+00 0.  1.
<mgrwt>
<rscale>  0 0.20074239E+04</rscale>
<asrwt>0</asrwt>
<pdfrwt beam="1">  1        2 0.10515119E+00 0.20074239E+04</pdfrwt>
<pdfrwt beam="2">  1       -2 0.22676565E+00 0.20074239E+04</pdfrwt>
<totfact> 0.35108564E+00</totfact>
</mgrwt>
</event>
<event>
12    1  0.1599266E-007  0.1071856E+04  0.7818608E-02  0.9233066E-01
          2   -1    0    0  501    0  0.00000000000E+00  0.00000000000E+00  0.91374059340E+03  0.91374059340E+03  0.00000000000E+00 0. -1.
         -2   -1    0    0    0  501 -0.00000000000E+00 -0.00000000000E+00 -0.31433281042E+03  0.31433281042E+03  0.00000000000E+00 0.  1.
         23    2    1    2    0    0  0.11210898541E+03 -0.21796713174E+01 -0.41595131368E+02  0.16993514382E+03  0.12072540152E+03 0.  0.
        254    2    1    2    0    0 -0.11210898541E+03  0.21796713174E+01  0.64100291435E+03  0.10581382600E+04  0.83438520211E+03 0.  0.
        -24    2    4    4    0    0  0.26111050893E+03  0.17443006399E+03  0.53548381833E+03  0.62618776077E+03  0.82241394390E+02 0.  0.
         24    2    4    4    0    0 -0.37321949435E+03 -0.17225039268E+03  0.10551909602E+03  0.43195049923E+03  0.80523073856E+02 0.  0.
         11    1    3    3    0    0  0.50447205611E+02  0.38143433461E+02 -0.66873915380E+02  0.92043264981E+02  0.00000000000E+00 0.  1.
        -11    1    3    3    0    0  0.61661779801E+02 -0.40323104778E+02  0.25278784012E+02  0.77891878834E+02  0.00000000000E+00 0. -1.
          2    1    6    6  502    0 -0.26352769683E+03 -0.80652576266E+02  0.60926514260E+02  0.28224763099E+03  0.00000000000E+00 0. -1.
          1    1    5    5  503    0  0.24254883684E+03  0.12822191375E+03  0.44077074302E+03  0.51918170742E+03  0.00000000000E+00 0. -1.
         -4    1    5    5    0  503  0.18561672096E+02  0.46208150248E+02  0.94713075302E+02  0.10700605335E+03  0.00000000000E+00 0.  1.
         -1    1    6    6    0  502 -0.10969179751E+03 -0.91597816411E+02  0.44592581765E+02  0.14970286825E+03  0.00000000000E+00 0.  1.
<mgrwt>
<rscale>  0 0.10718557E+04</rscale>
<asrwt>0</asrwt>
<pdfrwt beam="1">  1        2 0.14057548E+00 0.10718557E+04</pdfrwt>
<pdfrwt beam="2">  1       -2 0.48358894E-01 0.10718557E+04</pdfrwt>
<totfact> 0.11558870E+02</totfact>
</mgrwt>
</event>
<event>
12    1  0.1599266E-007  0.2206426E+04  0.7818608E-02  0.8515758E-01
         -1   -1    0    0    0  501 -0.00000000000E+00  0.00000000000E+00  0.84168509383E+03  0.84168509383E+03  0.00000000000E+00 0.  1.
          1   -1    0    0  501    0  0.00000000000E+00 -0.00000000000E+00 -0.14460029178E+04  0.14460029178E+04  0.00000000000E+00 0. -1.
         23    2    1    2    0    0  0.51052694122E+02 -0.39272780988E+03  0.60533110712E+03  0.72910760300E+03  0.91272324842E+02 0.  0.
        254    2    1    2    0    0 -0.51052694122E+02  0.39272780988E+03 -0.12096489311E+04  0.15585804087E+04  0.89948921254E+03 0.  0.
        -24    2    4    4    0    0  0.31598532708E+02  0.60336792733E+03 -0.43840150205E+03  0.75079332637E+03  0.80270909556E+02 0.  0.
         24    2    4    4    0    0 -0.82651226829E+02 -0.21064011745E+03 -0.77124742908E+03  0.80778708230E+03  0.80603282120E+02 0.  0.
         11    1    3    3    0    0  0.73004566939E+02 -0.35003260736E+03  0.51753285627E+03  0.62904113564E+03  0.00000000000E+00 0.  1.
        -11    1    3    3    0    0 -0.21951872817E+02 -0.42695202521E+02  0.87798250851E+02  0.10006646737E+03  0.00000000000E+00 0. -1.
          2    1    6    6  502    0 -0.51226928028E+02 -0.12276474093E+03 -0.31235693334E+03  0.33950292131E+03  0.00000000000E+00 0. -1.
          3    1    5    5  503    0  0.35271061812E+02  0.55114740821E+03 -0.37043535728E+03  0.66500365962E+03  0.00000000000E+00 0. -1.
         -4    1    5    5    0  503 -0.36725291043E+01  0.52220519123E+02 -0.67966144765E+02  0.85789666754E+02  0.00000000000E+00 0.  1.
         -1    1    6    6    0  502 -0.31424298801E+02 -0.87875376521E+02 -0.45889049574E+03  0.46828416099E+03  0.00000000000E+00 0.  1.
<mgrwt>
<rscale>  0 0.22064262E+04</rscale>
<asrwt>0</asrwt>
<pdfrwt beam="1">  1        1 0.22246199E+00 0.22064262E+04</pdfrwt>
<pdfrwt beam="2">  1       -1 0.12949002E+00 0.22064262E+04</pdfrwt>
<totfact> 0.33293475E+00</totfact>
</mgrwt>
</event>
<event>
12    1  0.1599266E-007  0.2885243E+04  0.7818608E-02  0.8277282E-01
          2   -1    0    0  501    0  0.00000000000E+00  0.00000000000E+00  0.20997098782E+04  0.20997098782E+04  0.00000000000E+00 0. -1.
         -2   -1    0    0    0  501 -0.00000000000E+00 -0.00000000000E+00 -0.99116409517E+03  0.99116409517E+03  0.00000000000E+00 0.  1.
         23    2    1    2    0    0  0.65298425549E+03  0.27977298876E+03 -0.66495930866E+03  0.97730391638E+03  0.91053279101E+02 0.  0.
        254    2    1    2    0    0 -0.65298425549E+03 -0.27977298876E+03  0.17735050917E+04  0.21135700570E+04  0.90398933200E+03 0.  0.
        -24    2    4    4    0    0  0.40899077134E+01 -0.34219012821E+03  0.19756281096E+03  0.40314078139E+03  0.79878746554E+02 0.  0.
         24    2    4    4    0    0 -0.65707416321E+03  0.62417139452E+02  0.15759422808E+04  0.17104292756E+04  0.79573107133E+02 0.  0.
         13    1    3    3    0    0  0.65343255856E+03  0.27117394912E+03 -0.65481657692E+03  0.96399905015E+03  0.00000000000E+00 0.  1.
        -13    1    3    3    0    0 -0.44830306893E+00  0.85990396409E+01 -0.10142731738E+02  0.13304866234E+02  0.00000000000E+00 0. -1.
          4    1    6    6  502    0 -0.55192099263E+03  0.39531796814E+02  0.12449005704E+04  0.13623351186E+04  0.00000000000E+00 0. -1.
          1    1    5    5  503    0  0.32028843424E+01 -0.33421315899E+03  0.17108134473E+03  0.37546973330E+03  0.00000000000E+00 0. -1.
         -2    1    5    5    0  503  0.88702337095E+00 -0.79769692289E+01  0.26481466239E+02  0.27671048095E+02  0.00000000000E+00 0.  1.
         -3    1    6    6    0  502 -0.10515317058E+03  0.22885342638E+02  0.33104171032E+03  0.34809415704E+03  0.00000000000E+00 0.  1.
<mgrwt>
<rscale>  0 0.28852432E+04</rscale>
<asrwt>0</asrwt>
<pdfrwt beam="1">  1        2 0.32303229E+00 0.28852432E+04</pdfrwt>
<pdfrwt beam="2">  1       -2 0.15248678E+00 0.28852432E+04</pdfrwt>
<totfact> 0.14567413E+00</totfact>
</mgrwt>
</event>
<event>
12    1  0.1599266E-007  0.1213984E+04  0.7818608E-02  0.9100704E-01
         -2   -1    0    0    0  501 -0.00000000000E+00  0.00000000000E+00  0.13691610844E+03  0.13691610844E+03  0.00000000000E+00 0.  1.
          2   -1    0    0  501    0  0.00000000000E+00 -0.00000000000E+00 -0.26909837955E+04  0.26909837955E+04  0.00000000000E+00 0. -1.
         23    2    1    2    0    0  0.38856868031E+02 -0.20508745998E+03 -0.98831200307E+03  0.10142569052E+04  0.91573642373E+02 0.  0.
        254    2    1    2    0    0 -0.38856868031E+02  0.20508745998E+03 -0.15657556840E+04  0.18136429987E+04  0.89114496146E+03 0.  0.
        -24    2    4    4    0    0 -0.34697171690E+03 -0.50600661608E+02 -0.25638810137E+03  0.44215078244E+03  0.82538818740E+02 0.  0.
         24    2    4    4    0    0  0.30811484887E+03  0.25568812159E+03 -0.13093675827E+04  0.13714922163E+04  0.78969976694E+02 0.  0.
         13    1    3    3    0    0 -0.23583579118E+02 -0.30356644488E+02 -0.10898253547E+03  0.11556342027E+03  0.00000000000E+00 0.  1.
        -13    1    3    3    0    0  0.62440447149E+02 -0.17473081549E+03 -0.87932946760E+03  0.89869348496E+03  0.00000000000E+00 0. -1.
          4    1    6    6  502    0  0.13830170600E+03  0.15185747267E+03 -0.57311660653E+03  0.60881088901E+03  0.00000000000E+00 0. -1.
          1    1    5    5  503    0 -0.30202569529E+03 -0.71599241590E+02 -0.22627052962E+03  0.38411498876E+03  0.00000000000E+00 0. -1.
         -2    1    5    5    0  503 -0.44946021614E+02  0.20998579982E+02 -0.30117571748E+02  0.58035793681E+02  0.00000000000E+00 0.  1.
         -3    1    6    6    0  502  0.16981314287E+03  0.10383064892E+03 -0.73625097612E+03  0.76268132728E+03  0.00000000000E+00 0.  1.
<mgrwt>
<rscale>  0 0.12139836E+04</rscale>
<asrwt>0</asrwt>
<pdfrwt beam="1">  1        2 0.41399748E+00 0.12139836E+04</pdfrwt>
<pdfrwt beam="2">  1       -2 0.21064018E-01 0.12139836E+04</pdfrwt>
<totfact> 0.52157688E+01</totfact>
</mgrwt>
</event>
<event>
12    1  0.1599266E-007  0.2273383E+04  0.7818608E-02  0.8488491E-01
          2   -1    0    0  501    0  0.00000000000E+00  0.00000000000E+00  0.83832631979E+03  0.83832631979E+03  0.00000000000E+00 0.  1.
         -2   -1    0    0    0  501 -0.00000000000E+00 -0.00000000000E+00 -0.15412459402E+04  0.15412459402E+04  0.00000000000E+00 0. -1.
         23    2    1    2    0    0 -0.83854315579E+03  0.19701362909E+02  0.18975518716E+03  0.86344966247E+03  0.77430748030E+02 0.  0.
        254    2    1    2    0    0  0.83854315579E+03 -0.19701362909E+02 -0.89267480761E+03  0.15161225976E+04  0.89342971232E+03 0.  0.
        -24    2    4    4    0    0  0.61296707441E+03 -0.29846273596E+03 -0.91959700332E+03  0.11476097396E+04  0.80875378638E+02 0.  0.
         24    2    4    4    0    0  0.22557608138E+03  0.27876137306E+03  0.26922195707E+02  0.36851285795E+03  0.80526084291E+02 0.  0.
         13    1    3    3    0    0 -0.83698153870E+03  0.14944643847E+02  0.19010971426E+03  0.85843062734E+03  0.00000000000E+00 0.  1.
        -13    1    3    3    0    0 -0.15616170961E+01  0.47567190620E+01 -0.35452709947E+00  0.50190351318E+01  0.00000000000E+00 0. -1.
          4    1    6    6  502    0  0.16093470915E+03  0.24868381653E+03  0.20326296676E+02  0.29691207377E+03  0.00000000000E+00 0. -1.
          3    1    5    5  503    0  0.60731457422E+03 -0.29983275300E+03 -0.89530749295E+03  0.11226335906E+04  0.00000000000E+00 0. -1.
         -4    1    5    5    0  503  0.56525001898E+01  0.13700170360E+01 -0.24289510367E+02  0.24976149001E+02  0.00000000000E+00 0.  1.
         -3    1    6    6    0  502  0.64641372234E+02  0.30077556521E+02  0.65958990315E+01  0.71600784176E+02  0.00000000000E+00 0.  1.
<mgrwt>
<rscale>  0 0.22733825E+04</rscale>
<asrwt>0</asrwt>
<pdfrwt beam="1">  1        2 0.12897328E+00 0.22733825E+04</pdfrwt>
<pdfrwt beam="2">  1       -2 0.23711476E+00 0.22733825E+04</pdfrwt>
<totfact> 0.22678113E+00</totfact>
</mgrwt>
</event>
<event>
12    1  0.1599266E-007  0.1459769E+04  0.7818608E-02  0.8911655E-01
          1   -1    0    0  501    0  0.00000000000E+00  0.00000000000E+00  0.11813794032E+04  0.11813794032E+04  0.00000000000E+00 0. -1.
         -1   -1    0    0    0  501 -0.00000000000E+00 -0.00000000000E+00 -0.45094042519E+03  0.45094042519E+03  0.00000000000E+00 0.  1.
         23    2    1    2    0    0  0.39651594765E+03 -0.19177039220E+03  0.27417339010E+03  0.52668642858E+03  0.90701522248E+02 0.  0.
        254    2    1    2    0    0 -0.39651594765E+03  0.19177039220E+03  0.45626558793E+03  0.11056333998E+04  0.90567441614E+03 0.  0.
        -24    2    4    4    0    0  0.15071299863E+03  0.19132832680E+03  0.48713357872E+03  0.55034734662E+03  0.79133695866E+02 0.  0.
         24    2    4    4    0    0 -0.54722894628E+03  0.44206540838E+00 -0.30867990786E+02  0.55528605323E+03  0.89050844969E+02 0.  0.
         13    1    3    3    0    0  0.65036258893E+02 -0.77183833508E+01  0.14328652339E+02  0.67041768251E+02  0.00000000000E+00 0.  1.
        -13    1    3    3    0    0  0.33147968876E+03 -0.18405200885E+03  0.25984473776E+03  0.45964466032E+03  0.00000000000E+00 0. -1.
          4    1    6    6  502    0 -0.51539309798E+03  0.22192089452E+02 -0.28913346167E+02  0.51668028399E+03  0.00000000000E+00 0. -1.
          3    1    5    5  503    0  0.13329504794E+03  0.12543730259E+03  0.30285030254E+03  0.35386493530E+03  0.00000000000E+00 0. -1.
         -4    1    5    5    0  503  0.17417950687E+02  0.65891024201E+02  0.18428327618E+03  0.19648241132E+03  0.00000000000E+00 0.  1.
         -3    1    6    6    0  502 -0.31835848294E+02 -0.21750024044E+02 -0.19546446196E+01  0.38605769233E+02  0.00000000000E+00 0.  1.
<mgrwt>
<rscale>  0 0.14597695E+04</rscale>
<asrwt>0</asrwt>
<pdfrwt beam="1">  1        1 0.18175068E+00 0.14597695E+04</pdfrwt>
<pdfrwt beam="2">  1       -1 0.69375450E-01 0.14597695E+04</pdfrwt>
<totfact> 0.22492010E+01</totfact>
</mgrwt>
</event>
<event>
12    1  0.1599266E-007  0.1685083E+04  0.7818608E-02  0.8769918E-01
         -2   -1    0    0    0  501 -0.00000000000E+00  0.00000000000E+00  0.25238772927E+03  0.25238772927E+03  0.00000000000E+00 0.  1.
          2   -1    0    0  501    0  0.00000000000E+00 -0.00000000000E+00 -0.28126417791E+04  0.28126417791E+04  0.00000000000E+00 0. -1.
         23    2    1    2    0    0  0.43056109182E+02  0.60171644070E+03 -0.96483978492E+03  0.11416974908E+04  0.92956153326E+02 0.  0.
        254    2    1    2    0    0 -0.43056109182E+02 -0.60171644070E+03 -0.15954142650E+04  0.19233320176E+04  0.88878730274E+03 0.  0.
        -24    2    4    4    0    0 -0.35325858879E+03 -0.59028562325E+03 -0.75700502770E+03  0.10260054501E+04  0.80011399822E+02 0.  0.
         24    2    4    4    0    0  0.31020247960E+03 -0.11430817443E+02 -0.83840923726E+03  0.89732656749E+03  0.76867923490E+02 0.  0.
         13    1    3    3    0    0  0.32706761445E+01 -0.17978708813E+01 -0.16401548067E+02  0.16820833544E+02  0.00000000000E+00 0. -1.
        -13    1    3    3    0    0  0.39785433038E+02  0.60351431158E+03 -0.94843823686E+03  0.11248766573E+04  0.00000000000E+00 0.  1.
          2    1    6    6  502    0  0.16746416635E+02  0.16933728942E+02 -0.85398158336E+02  0.88656861512E+02  0.00000000000E+00 0. -1.
          3    1    5    5  503    0 -0.23081464278E+03 -0.45379815142E+03 -0.55020456553E+03  0.74962205509E+03  0.00000000000E+00 0. -1.
         -4    1    5    5    0  503 -0.12244394601E+03 -0.13648747183E+03 -0.20680046217E+03  0.27638339500E+03  0.00000000000E+00 0.  1.
         -1    1    6    6    0  502  0.29345606297E+03 -0.28364546385E+02 -0.75301107892E+03  0.80866970598E+03  0.00000000000E+00 0.  1.
<mgrwt>
<rscale>  0 0.16850831E+04</rscale>
<asrwt>0</asrwt>
<pdfrwt beam="1">  1        2 0.43271412E+00 0.16850831E+04</pdfrwt>
<pdfrwt beam="2">  1       -2 0.38828881E-01 0.16850831E+04</pdfrwt>
<totfact> 0.13615039E+01</totfact>
</mgrwt>
</event>
<event>
12    1  0.1599266E-007  0.1755569E+04  0.7818608E-02  0.8730291E-01
          1   -1    0    0  501    0  0.00000000000E+00  0.00000000000E+00  0.12993446479E+04  0.12993446479E+04  0.00000000000E+00 0. -1.
         -1   -1    0    0    0  501 -0.00000000000E+00 -0.00000000000E+00 -0.59299554962E+03  0.59299554962E+03  0.00000000000E+00 0.  1.
         23    2    1    2    0    0 -0.31759584093E+03  0.42205277595E+03  0.64804769307E+03  0.84057618240E+03  0.87217211935E+02 0.  0.
        254    2    1    2    0    0  0.31759584093E+03 -0.42205277595E+03  0.58301405197E+02  0.10517640151E+04  0.90764135305E+03 0.  0.
        -24    2    4    4    0    0  0.16074969648E+03 -0.12804581966E+03 -0.41381244757E+03  0.46865478550E+03  0.78488020475E+02 0.  0.
         24    2    4    4    0    0  0.15684614445E+03 -0.29400695629E+03  0.47211385276E+03  0.58310922961E+03  0.78000514838E+02 0.  0.
         11    1    3    3    0    0 -0.13100710027E+02  0.63438813851E+02  0.72567166943E+02  0.97273354132E+02  0.00000000000E+00 0. -1.
        -11    1    3    3    0    0 -0.30449513090E+03  0.35861396210E+03  0.57548052613E+03  0.74330282827E+03  0.00000000000E+00 0.  1.
          2    1    6    6  502    0  0.53763136078E+02 -0.10593736026E+03  0.23546450925E+03  0.26373610715E+03  0.00000000000E+00 0. -1.
          1    1    5    5  503    0  0.88653480898E+02 -0.11173684069E+03 -0.23131289667E+03  0.27175396485E+03  0.00000000000E+00 0. -1.
         -2    1    5    5    0  503  0.72096215582E+02 -0.16308978968E+02 -0.18249955090E+03  0.19690082065E+03  0.00000000000E+00 0.  1.
         -1    1    6    6    0  502  0.10308300837E+03 -0.18806959603E+03  0.23664934352E+03  0.31937312247E+03  0.00000000000E+00 0.  1.
<mgrwt>
<rscale>  0 0.17555690E+04</rscale>
<asrwt>0</asrwt>
<pdfrwt beam="1">  1        1 0.19989918E+00 0.17555690E+04</pdfrwt>
<pdfrwt beam="2">  1       -1 0.91230085E-01 0.17555690E+04</pdfrwt>
<totfact> 0.10054170E+01</totfact>
</mgrwt>
</event>
<event>
12    1  0.1599266E-007  0.1419980E+04  0.7818608E-02  0.8939482E-01
         -1   -1    0    0    0  501 -0.00000000000E+00  0.00000000000E+00  0.20866458001E+03  0.20866458001E+03  0.00000000000E+00 0.  1.
          1   -1    0    0  501    0  0.00000000000E+00 -0.00000000000E+00 -0.24157694793E+04  0.24157694793E+04  0.00000000000E+00 0. -1.
         23    2    1    2    0    0 -0.66470477150E+01 -0.42845869769E+03 -0.71311747160E+03  0.83685032816E+03  0.90337725091E+02 0.  0.
        254    2    1    2    0    0  0.66470477150E+01  0.42845869769E+03 -0.14939874277E+04  0.17875837311E+04  0.88308330461E+03 0.  0.
        -24    2    4    4    0    0  0.23493680453E+02 -0.42688548894E+02 -0.12449621181E+04  0.12484096044E+04  0.78877116443E+02 0.  0.
         24    2    4    4    0    0 -0.16846632738E+02  0.47114724658E+03 -0.24902530956E+03  0.53917412676E+03  0.80197239188E+02 0.  0.
         13    1    3    3    0    0  0.15646804302E+02 -0.79077206535E+02 -0.81097790909E+02  0.11434543615E+03  0.00000000000E+00 0.  1.
        -13    1    3    3    0    0 -0.22293852017E+02 -0.34938149115E+03 -0.63201968069E+03  0.72250489201E+03  0.00000000000E+00 0. -1.
          4    1    6    6  502    0 -0.31351563735E+02  0.11490991583E+03 -0.38761851385E+02  0.12525849443E+03  0.00000000000E+00 0. -1.
          3    1    5    5  503    0 -0.19517525079E+01  0.22546736611E+02 -0.28511000731E+03  0.28600678477E+03  0.00000000000E+00 0. -1.
         -4    1    5    5    0  503  0.25445432960E+02 -0.65235285505E+02 -0.95985211083E+03  0.96240281961E+03  0.00000000000E+00 0.  1.
         -3    1    6    6    0  502  0.14504930998E+02  0.35623733075E+03 -0.21026345817E+03  0.41391563233E+03  0.00000000000E+00 0.  1.
<mgrwt>
<rscale>  0 0.14199796E+04</rscale>
<asrwt>0</asrwt>
<pdfrwt beam="1">  1        1 0.37165683E+00 0.14199796E+04</pdfrwt>
<pdfrwt beam="2">  1       -1 0.32102244E-01 0.14199796E+04</pdfrwt>
<totfact> 0.13694758E+01</totfact>
</mgrwt>
</event>
<event>
12    1  0.1599266E-007  0.1812063E+04  0.7818608E-02  0.8699911E-01
          2   -1    0    0  501    0  0.00000000000E+00  0.00000000000E+00  0.21575972059E+04  0.21575972059E+04  0.00000000000E+00 0. -1.
         -2   -1    0    0    0  501 -0.00000000000E+00 -0.00000000000E+00 -0.38046620719E+03  0.38046620719E+03  0.00000000000E+00 0.  1.
         23    2    1    2    0    0 -0.26540172591E+02  0.54658092658E+03  0.12680316943E+04  0.13838374505E+04  0.87444962584E+02 0.  0.
        254    2    1    2    0    0  0.26540172591E+02 -0.54658092658E+03  0.50909930437E+03  0.11542259626E+04  0.87954555365E+03 0.  0.
        -24    2    4    4    0    0  0.20467754368E+03 -0.69640491594E+03  0.53738837606E+03  0.90684316649E+03  0.81887471817E+02 0.  0.
         24    2    4    4    0    0 -0.17813737109E+03  0.14982398936E+03 -0.28289071694E+02  0.24738279610E+03  0.78853189292E+02 0.  0.
         11    1    3    3    0    0 -0.11603561392E-01  0.37751602092E+02  0.15807732140E+03  0.16252268499E+03  0.00000000000E+00 0. -1.
        -11    1    3    3    0    0 -0.26528569030E+02  0.50882932449E+03  0.11099543729E+04  0.12213147655E+04  0.00000000000E+00 0.  1.
          4    1    6    6  502    0  0.11346909848E+01 -0.14997102728E+01  0.95649508381E+01  0.97480736081E+01  0.00000000000E+00 0. -1.
          3    1    5    5  503    0  0.99040163377E+02 -0.37482743908E+03  0.33564154836E+03  0.51279607256E+03  0.00000000000E+00 0. -1.
         -4    1    5    5    0  503  0.10563738031E+03 -0.32157747686E+03  0.20174682770E+03  0.39404709393E+03  0.00000000000E+00 0.  1.
         -3    1    6    6    0  502 -0.17927206208E+03  0.15132369964E+03 -0.37854022532E+02  0.23763472249E+03  0.00000000000E+00 0.  1.
<mgrwt>
<rscale>  0 0.18120627E+04</rscale>
<asrwt>0</asrwt>
<pdfrwt beam="1">  1        2 0.33193802E+00 0.18120627E+04</pdfrwt>
<pdfrwt beam="2">  1       -2 0.58533264E-01 0.18120627E+04</pdfrwt>
<totfact> 0.14043125E+01</totfact>
</mgrwt>
</event>
<event>
12    1  0.1599266E-007  0.1142715E+04  0.7818608E-02  0.9164530E-01
         -1   -1    0    0    0  501 -0.00000000000E+00  0.00000000000E+00  0.18865345201E+04  0.18865345201E+04  0.00000000000E+00 0.  1.
          1   -1    0    0  501    0  0.00000000000E+00 -0.00000000000E+00 -0.17304197601E+03  0.17304197601E+03  0.00000000000E+00 0. -1.
         23    2    1    2    0    0 -0.15117683922E+01 -0.15746748627E+03  0.97216645580E+02  0.20520428411E+03  0.88653411479E+02 0.  0.
        254    2    1    2    0    0  0.15117683922E+01  0.15746748627E+03  0.16162758985E+04  0.18543722120E+04  0.89529337418E+03 0.  0.
        -24    2    4    4    0    0 -0.24199106918E+02  0.46506914450E+03  0.47674340737E+03  0.67112996900E+03  0.79096478276E+02 0.  0.
         24    2    4    4    0    0  0.25710875311E+02 -0.30760165824E+03  0.11395324911E+04  0.11832422430E+04  0.79044784779E+02 0.  0.
         11    1    3    3    0    0 -0.21522719088E+01 -0.13331008552E+03  0.34099420951E+02  0.13761897284E+03  0.00000000000E+00 0.  1.
        -11    1    3    3    0    0  0.64050351660E+00 -0.24157400744E+02  0.63117224628E+02  0.67585311276E+02  0.00000000000E+00 0. -1.
          4    1    6    6  502    0  0.12938932135E+02 -0.35825595835E+01  0.69524609062E+02  0.70809052833E+02  0.00000000000E+00 0. -1.
          3    1    5    5  503    0  0.27184309145E+02  0.23652074293E+03  0.23613305412E+03  0.33532054477E+03  0.00000000000E+00 0. -1.
         -4    1    5    5    0  503 -0.51383416064E+02  0.22854840157E+03  0.24061035325E+03  0.33580942423E+03  0.00000000000E+00 0.  1.
         -3    1    6    6    0  502  0.12771943176E+02 -0.30401909866E+03  0.10700078820E+04  0.11124331901E+04  0.00000000000E+00 0.  1.
<mgrwt>
<rscale>  0 0.11427155E+04</rscale>
<asrwt>0</asrwt>
<pdfrwt beam="1">  1        1 0.26621844E-01 0.11427155E+04</pdfrwt>
<pdfrwt beam="2">  1       -1 0.29023607E+00 0.11427155E+04</pdfrwt>
<totfact> 0.68741359E+00</totfact>
</mgrwt>
</event>
<event>
12    1  0.1599266E-007  0.1731785E+04  0.7818608E-02  0.8743441E-01
          1   -1    0    0  501    0  0.00000000000E+00  0.00000000000E+00  0.88749016044E+03  0.88749016044E+03  0.00000000000E+00 0. -1.
         -1   -1    0    0    0  501 -0.00000000000E+00 -0.00000000000E+00 -0.84482002853E+03  0.84482002853E+03  0.00000000000E+00 0.  1.
         23    2    1    2    0    0  0.61760024440E+02  0.40524661086E+03 -0.46220890686E+03  0.62505147270E+03  0.94937630649E+02 0.  0.
        254    2    1    2    0    0 -0.61760024440E+02 -0.40524661086E+03  0.50487903877E+03  0.11072587163E+04  0.89614725617E+03 0.  0.
        -24    2    4    4    0    0 -0.18272158359E+03 -0.65387436691E+03  0.43759349696E+03  0.81184222514E+03  0.81614123376E+02 0.  0.
         24    2    4    4    0    0  0.12096155915E+03  0.24862775604E+03  0.67285541805E+02  0.29541649113E+03  0.79347962991E+02 0.  0.
         11    1    3    3    0    0  0.48652592587E+02  0.33295677413E+03 -0.42680410971E+03  0.54349704348E+03  0.00000000000E+00 0. -1.
        -11    1    3    3    0    0  0.13107431853E+02  0.72289836736E+02 -0.35404797147E+02  0.81554429224E+02  0.00000000000E+00 0.  1.
          4    1    6    6  502    0  0.70949156743E+02  0.21711544700E+03  0.49906500527E+02  0.23380239298E+03  0.00000000000E+00 0. -1.
          1    1    5    5  503    0 -0.50467688543E+02 -0.32746685919E+03  0.20018039086E+03  0.38710944232E+03  0.00000000000E+00 0. -1.
         -2    1    5    5    0  503 -0.13225389505E+03 -0.32640750772E+03  0.23741310610E+03  0.42473278282E+03  0.00000000000E+00 0.  1.
         -3    1    6    6    0  502  0.50012402406E+02  0.31512309047E+02  0.17379041278E+02  0.61614098157E+02  0.00000000000E+00 0.  1.
<mgrwt>
<rscale>  0 0.17317846E+04</rscale>
<asrwt>0</asrwt>
<pdfrwt beam="1">  1        1 0.13653695E+00 0.17317846E+04</pdfrwt>
<pdfrwt beam="2">  1       -1 0.12997231E+00 0.17317846E+04</pdfrwt>
<totfact> 0.89752355E+00</totfact>
</mgrwt>
</event>
<event>
12    1  0.1599266E-007  0.2440513E+04  0.7818608E-02  0.8424490E-01
         -2   -1    0    0    0  501 -0.00000000000E+00  0.00000000000E+00  0.19469279041E+04  0.19469279041E+04  0.00000000000E+00 0.  1.
          2   -1    0    0  501    0  0.00000000000E+00 -0.00000000000E+00 -0.76480812509E+03  0.76480812509E+03  0.00000000000E+00 0. -1.
         23    2    1    2    0    0 -0.29236081791E+03 -0.42023929940E+03  0.15535841199E+04  0.16382974359E+04  0.91208301098E+02 0.  0.
        254    2    1    2    0    0  0.29236081791E+03  0.42023929940E+03 -0.37146434086E+03  0.10734385933E+04  0.86729968323E+03 0.  0.
        -24    2    4    4    0    0  0.33041144768E+03  0.42552462881E+03  0.13353019708E+03  0.56044597779E+03  0.77630187461E+02 0.  0.
         24    2    4    4    0    0 -0.38050629767E+02 -0.52853294070E+01 -0.50499453794E+03  0.51299261555E+03  0.81646525515E+02 0.  0.
         13    1    3    3    0    0 -0.17283505798E+03 -0.21548406326E+03  0.70408952199E+03  0.75633814777E+03  0.00000000000E+00 0. -1.
        -13    1    3    3    0    0 -0.11952575993E+03 -0.20475523615E+03  0.84949459789E+03  0.88195928810E+03  0.00000000000E+00 0.  1.
          4    1    6    6  502    0 -0.33590344679E+02  0.35000811773E+02 -0.23319394045E+03  0.23818644366E+03  0.00000000000E+00 0. -1.
          1    1    5    5  503    0  0.29724086072E+03  0.34918175252E+03  0.13204152938E+03  0.47719491935E+03  0.00000000000E+00 0. -1.
         -4    1    5    5    0  503  0.33170586957E+02  0.76342876286E+02  0.14886677042E+01  0.83251058433E+02  0.00000000000E+00 0.  1.
         -3    1    6    6    0  502 -0.44602850879E+01 -0.40286141180E+02 -0.27180059749E+03  0.27480617189E+03  0.00000000000E+00 0.  1.
<mgrwt>
<rscale>  0 0.24405133E+04</rscale>
<asrwt>0</asrwt>
<pdfrwt beam="1">  1        2 0.11766279E+00 0.24405133E+04</pdfrwt>
<pdfrwt beam="2">  1       -2 0.29952737E+00 0.24405133E+04</pdfrwt>
<totfact> 0.10485304E+00</totfact>
</mgrwt>
</event>
<event>
12    1  0.1599266E-007  0.1649611E+04  0.7818608E-02  0.8790636E-01
         -2   -1    0    0    0  501 -0.00000000000E+00  0.00000000000E+00  0.38810237282E+03  0.38810237282E+03  0.00000000000E+00 0.  1.
          2   -1    0    0  501    0  0.00000000000E+00 -0.00000000000E+00 -0.17528992383E+04  0.17528992383E+04  0.00000000000E+00 0. -1.
         23    2    1    2    0    0  0.19236164489E+03  0.40247057638E+03 -0.18832735006E+02  0.45549620504E+03  0.90202847066E+02 0.  0.
        254    2    1    2    0    0 -0.19236164489E+03 -0.40247057638E+03 -0.13459641305E+04  0.16855054061E+04  0.91122086575E+03 0.  0.
        -24    2    4    4    0    0 -0.45899228712E+03 -0.40924424051E+03 -0.50570807757E+03  0.80011480697E+03  0.79298654341E+02 0.  0.
         24    2    4    4    0    0  0.26663064223E+03  0.67736641357E+01 -0.84025605295E+03  0.88539059916E+03  0.82149234142E+02 0.  0.
         11    1    3    3    0    0  0.19270484159E+03  0.40618960695E+03 -0.22652934805E+02  0.45015364957E+03  0.00000000000E+00 0.  1.
        -11    1    3    3    0    0 -0.34319669934E+00 -0.37190305728E+01  0.38201997999E+01  0.53425554641E+01  0.00000000000E+00 0. -1.
          2    1    6    6  502    0  0.24021345000E+02 -0.21827875877E+02 -0.66704034145E+02  0.74181597125E+02  0.00000000000E+00 0. -1.
          3    1    5    5  503    0 -0.17360707295E+03 -0.10794500984E+03 -0.15046370902E+03  0.25383236330E+03  0.00000000000E+00 0. -1.
         -4    1    5    5    0  503 -0.28538521417E+03 -0.30129923067E+03 -0.35524436856E+03  0.54628244367E+03  0.00000000000E+00 0.  1.
         -1    1    6    6    0  502  0.24260929723E+03  0.28601540013E+02 -0.77355201880E+03  0.81120900204E+03  0.00000000000E+00 0.  1.
<mgrwt>
<rscale>  0 0.16496113E+04</rscale>
<asrwt>0</asrwt>
<pdfrwt beam="1">  1        2 0.26967680E+00 0.16496113E+04</pdfrwt>
<pdfrwt beam="2">  1       -2 0.59708059E-01 0.16496113E+04</pdfrwt>
<totfact> 0.22907310E+01</totfact>
</mgrwt>
</event>
<event>
12    1  0.1599266E-007  0.1409153E+04  0.7818608E-02  0.8947220E-01
         -1   -1    0    0    0  501 -0.00000000000E+00  0.00000000000E+00  0.17737200215E+03  0.17737200215E+03  0.00000000000E+00 0.  1.
          1   -1    0    0  501    0  0.00000000000E+00 -0.00000000000E+00 -0.27987949227E+04  0.27987949227E+04  0.00000000000E+00 0. -1.
         23    2    1    2    0    0 -0.38456799310E+03 -0.28722428671E+03 -0.64447383211E+03  0.80878435344E+03  0.91625749132E+02 0.  0.
        254    2    1    2    0    0  0.38456799310E+03  0.28722428671E+03 -0.19769490884E+04  0.21673825714E+04  0.74754878125E+03 0.  0.
        -24    2    4    4    0    0 -0.19148627111E+03  0.54066176357E+01 -0.78239558458E+03  0.80925127662E+03  0.77772452654E+02 0.  0.
         24    2    4    4    0    0  0.57605426420E+03  0.28181766907E+03 -0.11945535038E+04  0.13581312948E+04  0.79390341956E+02 0.  0.
         13    1    3    3    0    0 -0.93310049981E+01 -0.35683630265E+02 -0.50894700998E+02  0.62854273624E+02  0.00000000000E+00 0. -1.
        -13    1    3    3    0    0 -0.37523698810E+03 -0.25154065645E+03 -0.59357913111E+03  0.74593007981E+03  0.00000000000E+00 0.  1.
          4    1    6    6  502    0  0.57753905763E+03  0.28384418347E+03 -0.11915157329E+04  0.13541892871E+04  0.00000000000E+00 0. -1.
          3    1    5    5  503    0 -0.17978943717E+03  0.17196515331E+02 -0.76115061142E+03  0.78228525176E+03  0.00000000000E+00 0. -1.
         -4    1    5    5    0  503 -0.11696833932E+02 -0.11789897696E+02 -0.21244973164E+02  0.26966024854E+02  0.00000000000E+00 0.  1.
         -3    1    6    6    0  502 -0.14847934298E+01 -0.20265143905E+01 -0.30377709207E+01  0.39420076447E+01  0.00000000000E+00 0.  1.
<mgrwt>
<rscale>  0 0.14091527E+04</rscale>
<asrwt>0</asrwt>
<pdfrwt beam="1">  1        1 0.43058386E+00 0.14091527E+04</pdfrwt>
<pdfrwt beam="2">  1       -1 0.27287999E-01 0.14091527E+04</pdfrwt>
<totfact> 0.98539899E+00</totfact>
</mgrwt>
</event>
<event>
12    1  0.1599266E-007  0.1564974E+04  0.7818608E-02  0.8842359E-01
         -1   -1    0    0    0  501 -0.00000000000E+00  0.00000000000E+00  0.10051292131E+04  0.10051292131E+04  0.00000000000E+00 0.  1.
          1   -1    0    0  501    0  0.00000000000E+00 -0.00000000000E+00 -0.60916153664E+03  0.60916153664E+03  0.00000000000E+00 0. -1.
         23    2    1    2    0    0  0.39116928756E+03 -0.98363901415E+01  0.48078713023E+03  0.62655294757E+03  0.91116219276E+02 0.  0.
        254    2    1    2    0    0 -0.39116928756E+03  0.98363901415E+01 -0.84819453754E+02  0.98773780219E+03  0.90295152695E+03 0.  0.
        -24    2    4    4    0    0 -0.32062354883E+03 -0.41566116045E+03  0.36335819569E+02  0.53258895825E+03  0.82201254846E+02 0.  0.
         24    2    4    4    0    0 -0.70545738729E+02  0.42549755059E+03 -0.12115527332E+03  0.45514884393E+03  0.80355479372E+02 0.  0.
         13    1    3    3    0    0  0.12539526709E+03 -0.90863186685E+01  0.22467623835E+03  0.25746057227E+03  0.00000000000E+00 0. -1.
        -13    1    3    3    0    0  0.26577402048E+03 -0.75007147306E+00  0.25611089188E+03  0.36909237530E+03  0.00000000000E+00 0.  1.
          4    1    6    6  502    0 -0.87538704262E+02  0.31706334628E+03 -0.88040785606E+02  0.34050458180E+03  0.00000000000E+00 0. -1.
          1    1    5    5  503    0 -0.27524090644E+03 -0.38997893966E+03  0.46060825639E+02  0.47954429370E+03  0.00000000000E+00 0. -1.
         -2    1    5    5    0  503 -0.45382642390E+02 -0.25682220788E+02 -0.97250060707E+01  0.53044664557E+02  0.00000000000E+00 0.  1.
         -3    1    6    6    0  502  0.16992965532E+02  0.10843420431E+03 -0.33114487716E+02  0.11464426213E+03  0.00000000000E+00 0.  1.
<mgrwt>
<rscale>  0 0.15649742E+04</rscale>
<asrwt>0</asrwt>
<pdfrwt beam="1">  1        1 0.93717159E-01 0.15649742E+04</pdfrwt>
<pdfrwt beam="2">  1       -1 0.15463526E+00 0.15649742E+04</pdfrwt>
<totfact> 0.10355405E+01</totfact>
</mgrwt>
</event>
<event>
12    1  0.1599266E-007  0.2290812E+04  0.7818608E-02  0.8481553E-01
          1   -1    0    0  501    0  0.00000000000E+00  0.00000000000E+00  0.44587428829E+03  0.44587428829E+03  0.00000000000E+00 0. -1.
         -1   -1    0    0    0  501 -0.00000000000E+00 -0.00000000000E+00 -0.29424313134E+04  0.29424313134E+04  0.00000000000E+00 0.  1.
         23    2    1    2    0    0 -0.24175732218E+03  0.15890627071E+02  0.32637243264E+03  0.41651587362E+03  0.90925207349E+02 0.  0.
        254    2    1    2    0    0  0.24175732218E+03 -0.15890627071E+02 -0.28229294577E+04  0.29717897281E+04  0.89660713226E+03 0.  0.
        -24    2    4    4    0    0 -0.23871381410E+03  0.12153797916E+03 -0.35101590962E+03  0.44857176742E+03  0.79048695740E+02 0.  0.
         24    2    4    4    0    0  0.48047113629E+03 -0.13742860623E+03 -0.24719135481E+04  0.25232179606E+04  0.80827921782E+02 0.  0.
         13    1    3    3    0    0 -0.24232800812E+03  0.11524123898E+02  0.28229014281E+03  0.37221417716E+03  0.00000000000E+00 0. -1.
        -13    1    3    3    0    0  0.57068593923E+00  0.43665031728E+01  0.44082289829E+02  0.44301696457E+02  0.00000000000E+00 0.  1.
          4    1    6    6  502    0  0.12724299821E+03 -0.46523157465E+00 -0.64731871567E+03  0.65970638673E+03  0.00000000000E+00 0. -1.
          3    1    5    5  503    0 -0.18245512786E+03  0.78468891779E+02 -0.20052689678E+03  0.28223797936E+03  0.00000000000E+00 0. -1.
         -4    1    5    5    0  503 -0.56258686238E+02  0.43069087380E+02 -0.15048901283E+03  0.16633378805E+03  0.00000000000E+00 0.  1.
         -3    1    6    6    0  502  0.35322813808E+03 -0.13696337466E+03 -0.18245948325E+04  0.18635115739E+04  0.00000000000E+00 0.  1.
<mgrwt>
<rscale>  0 0.22908116E+04</rscale>
<asrwt>0</asrwt>
<pdfrwt beam="1">  1        1 0.68596044E-01 0.22908116E+04</pdfrwt>
<pdfrwt beam="2">  1       -1 0.45268174E+00 0.22908116E+04</pdfrwt>
<totfact> 0.14535796E-01</totfact>
</mgrwt>
</event>
<event>
12    1  0.1599266E-007  0.1497500E+04  0.7818608E-02  0.8886117E-01
         -2   -1    0    0    0  501 -0.00000000000E+00  0.00000000000E+00  0.29010421186E+03  0.29010421186E+03  0.00000000000E+00 0.  1.
          2   -1    0    0  501    0  0.00000000000E+00 -0.00000000000E+00 -0.19325016914E+04  0.19325016914E+04  0.00000000000E+00 0. -1.
         23    2    1    2    0    0  0.71353268944E+02  0.44948232290E+03 -0.77311988817E+03  0.90174809666E+03  0.91157121340E+02 0.  0.
        254    2    1    2    0    0 -0.71353268944E+02 -0.44948232290E+03 -0.86927759138E+03  0.13208578066E+04  0.88424892806E+03 0.  0.
        -24    2    4    4    0    0  0.14848231339E+03 -0.29892199257E+03 -0.96705260584E+03  0.10261607879E+04  0.80086609833E+02 0.  0.
         24    2    4    4    0    0 -0.21983558233E+03 -0.15056033034E+03  0.97775014454E+02  0.29469701873E+03  0.79311304784E+02 0.  0.
         11    1    3    3    0    0 -0.20937104928E+01  0.98561802722E+02 -0.10853811899E+03  0.14662651825E+03  0.00000000000E+00 0.  1.
        -11    1    3    3    0    0  0.73446979437E+02  0.35092052018E+03 -0.66458176917E+03  0.75512157842E+03  0.00000000000E+00 0. -1.
          2    1    6    6  502    0 -0.11696782724E+03 -0.61078256387E+02  0.95474028208E+01  0.13229958017E+03  0.00000000000E+00 0. -1.
          1    1    5    5  503    0  0.13703476889E+03 -0.30076817430E+03 -0.91591334648E+03  0.97372341084E+03  0.00000000000E+00 0. -1.
         -2    1    5    5    0  503  0.11447544499E+02  0.18461817371E+01 -0.51139259355E+02  0.52437377027E+02  0.00000000000E+00 0.  1.
         -1    1    6    6    0  502 -0.10286775509E+03 -0.89482073951E+02  0.88227611633E+02  0.16239743856E+03  0.00000000000E+00 0.  1.
<mgrwt>
<rscale>  0 0.14975004E+04</rscale>
<asrwt>0</asrwt>
<pdfrwt beam="1">  1        2 0.29730795E+00 0.14975004E+04</pdfrwt>
<pdfrwt beam="2">  1       -2 0.44631418E-01 0.14975004E+04</pdfrwt>
<totfact> 0.33520863E+01</totfact>
</mgrwt>
</event>
<event>
12    1  0.1599266E-007  0.3293410E+04  0.7818608E-02  0.8164574E-01
          3   -1    0    0  501    0  0.00000000000E+00  0.00000000000E+00  0.19919375786E+04  0.19919375786E+04  0.00000000000E+00 0. -1.
         -3   -1    0    0    0  501 -0.00000000000E+00 -0.00000000000E+00 -0.13613065074E+04  0.13613065074E+04  0.00000000000E+00 0.  1.
         23    2    1    2    0    0  0.97601291187E+02  0.12732219451E+04 -0.53812996466E+03  0.13888400027E+04  0.93126584681E+02 0.  0.
        254    2    1    2    0    0 -0.97601291187E+02 -0.12732219451E+04  0.11687610359E+04  0.19644040832E+04  0.92858005027E+03 0.  0.
        -24    2    4    4    0    0 -0.15356600591E+03 -0.95252329807E+03  0.12855645334E+04  0.16093110503E+04  0.79515630889E+02 0.  0.
         24    2    4    4    0    0  0.55964714723E+02 -0.32069864702E+03 -0.11680349750E+03  0.35509303295E+03  0.80425950615E+02 0.  0.
         11    1    3    3    0    0  0.14485390415E+02  0.94090573612E+02 -0.66710328924E+02  0.11624599160E+03  0.00000000000E+00 0. -1.
        -11    1    3    3    0    0  0.83115900773E+02  0.11791313715E+04 -0.47141963573E+03  0.12725940111E+04  0.00000000000E+00 0.  1.
          2    1    6    6  502    0  0.87807554668E+01 -0.54504034056E+02  0.10628272546E+02  0.56220561828E+02  0.00000000000E+00 0. -1.
          3    1    5    5  503    0 -0.22694098496E+02 -0.17651422800E+03  0.29023980541E+03  0.34045769111E+03  0.00000000000E+00 0. -1.
         -4    1    5    5    0  503 -0.13087190741E+03 -0.77600907007E+03  0.99532472796E+03  0.12688533592E+04  0.00000000000E+00 0.  1.
         -1    1    6    6    0  502  0.47183959256E+02 -0.26619461296E+03 -0.12743177004E+03  0.29887247112E+03  0.00000000000E+00 0.  1.
<mgrwt>
<rscale>  0 0.32934101E+04</rscale>
<asrwt>0</asrwt>
<pdfrwt beam="1">  1        3 0.30645193E+00 0.32934101E+04</pdfrwt>
<pdfrwt beam="2">  1       -3 0.20943177E+00 0.32934101E+04</pdfrwt>
<totfact> 0.98502981E-03</totfact>
</mgrwt>
</event>
<event>
12    1  0.1599266E-007  0.2758979E+04  0.7818608E-02  0.8316118E-01
          2   -1    0    0  501    0  0.00000000000E+00  0.00000000000E+00  0.20267425539E+04  0.20267425539E+04  0.00000000000E+00 0. -1.
         -2   -1    0    0    0  501 -0.00000000000E+00 -0.00000000000E+00 -0.93894078950E+03  0.93894078950E+03  0.00000000000E+00 0.  1.
         23    2    1    2    0    0  0.49362959142E+03 -0.66298228720E+03 -0.49751849305E+03  0.96902444390E+03  0.90928737450E+02 0.  0.
        254    2    1    2    0    0 -0.49362959142E+03  0.66298228720E+03  0.15853202574E+04  0.19966588995E+04  0.88892674363E+03 0.  0.
        -24    2    4    4    0    0 -0.82678893933E+02 -0.13646378286E+03  0.73494829710E+03  0.75635965790E+03  0.80453521721E+02 0.  0.
         24    2    4    4    0    0 -0.41095069748E+03  0.79944607006E+03  0.85037196032E+03  0.12402992416E+04  0.84942586569E+02 0.  0.
         13    1    3    3    0    0  0.29146041103E+02 -0.77254703032E+02 -0.33056356389E+02  0.88941011633E+02  0.00000000000E+00 0. -1.
        -13    1    3    3    0    0  0.46448355031E+03 -0.58572758417E+03 -0.46446213666E+03  0.88008343227E+03  0.00000000000E+00 0.  1.
          4    1    6    6  502    0 -0.14606261208E+03  0.37205566191E+03  0.39427671252E+03  0.56143906904E+03  0.00000000000E+00 0. -1.
          3    1    5    5  503    0 -0.18731689257E+02  0.65315432581E+01  0.51460630575E+02  0.55151915098E+02  0.00000000000E+00 0. -1.
         -4    1    5    5    0  503 -0.63947204676E+02 -0.14299532612E+03  0.68348766652E+03  0.70120774280E+03  0.00000000000E+00 0.  1.
         -3    1    6    6    0  502 -0.26488808540E+03  0.42739040815E+03  0.45609524780E+03  0.67886017252E+03  0.00000000000E+00 0.  1.
<mgrwt>
<rscale>  0 0.27589790E+04</rscale>
<asrwt>0</asrwt>
<pdfrwt beam="1">  1        2 0.31180655E+00 0.27589790E+04</pdfrwt>
<pdfrwt beam="2">  1       -2 0.14445243E+00 0.27589790E+04</pdfrwt>
<totfact> 0.18655194E+00</totfact>
</mgrwt>
</event>
<event>
12    1  0.1599266E-007  0.2408757E+04  0.7818608E-02  0.8436232E-01
          1   -1    0    0  501    0  0.00000000000E+00  0.00000000000E+00  0.13475568582E+04  0.13475568582E+04  0.00000000000E+00 0. -1.
         -1   -1    0    0    0  501 -0.00000000000E+00 -0.00000000000E+00 -0.10764130176E+04  0.10764130176E+04  0.00000000000E+00 0.  1.
         23    2    1    2    0    0  0.41808007590E+03 -0.86423879420E+03  0.50322089993E+03  0.10877653701E+04  0.91118510890E+02 0.  0.
        254    2    1    2    0    0 -0.41808007590E+03  0.86423879420E+03 -0.23207705936E+03  0.13362045057E+04  0.89993504006E+03 0.  0.
        -24    2    4    4    0    0 -0.67691669721E+03  0.57507648363E+03 -0.32405853828E+02  0.89242985151E+03  0.80322621510E+02 0.  0.
         24    2    4    4    0    0  0.25883662130E+03  0.28916231057E+03 -0.19967120553E+03  0.44377465420E+03  0.80349953362E+02 0.  0.
         11    1    3    3    0    0  0.39251536179E+03 -0.74415120613E+03  0.44748426231E+03  0.95292785238E+03  0.00000000000E+00 0. -1.
        -11    1    3    3    0    0  0.25564714116E+02 -0.12008758806E+03  0.55736637620E+02  0.13483751773E+03  0.00000000000E+00 0.  1.
          4    1    6    6  502    0  0.10230811231E+03  0.70297759236E+02 -0.37798050482E+02  0.12975907451E+03  0.00000000000E+00 0. -1.
          3    1    5    5  503    0 -0.36224612276E+03  0.33544379758E+03 -0.51882984097E+02  0.49642384998E+03  0.00000000000E+00 0. -1.
         -4    1    5    5    0  503 -0.31467057445E+03  0.23963268604E+03  0.19477130269E+02  0.39600600153E+03  0.00000000000E+00 0.  1.
         -3    1    6    6    0  502  0.15652850900E+03  0.21886455133E+03 -0.16187315505E+03  0.31401557969E+03  0.00000000000E+00 0.  1.
<mgrwt>
<rscale>  0 0.24087571E+04</rscale>
<asrwt>0</asrwt>
<pdfrwt beam="1">  1        1 0.20731644E+00 0.24087571E+04</pdfrwt>
<pdfrwt beam="2">  1       -1 0.16560200E+00 0.24087571E+04</pdfrwt>
<totfact> 0.19872122E+00</totfact>
</mgrwt>
</event>
<event>
12    1  0.1599266E-007  0.1255345E+04  0.7818608E-02  0.9065746E-01
         -2   -1    0    0    0  501 -0.00000000000E+00  0.00000000000E+00  0.38174345344E+03  0.38174345344E+03  0.00000000000E+00 0.  1.
          2   -1    0    0  501    0  0.00000000000E+00 -0.00000000000E+00 -0.10320356855E+04  0.10320356855E+04  0.00000000000E+00 0. -1.
         23    2    1    2    0    0  0.12023171688E+03 -0.55919371077E+02 -0.46059985099E+03  0.48713588550E+03  0.86985667846E+02 0.  0.
        254    2    1    2    0    0 -0.12023171688E+03  0.55919371077E+02 -0.18969238104E+03  0.92664325340E+03  0.89727469475E+03 0.  0.
        -24    2    4    4    0    0 -0.12604289487E+03  0.32804587094E+03  0.22500430907E+03  0.42423044057E+03  0.76443592413E+02 0.  0.
         24    2    4    4    0    0  0.58111779969E+01 -0.27212649986E+03 -0.41469669011E+03  0.50241281283E+03  0.79741381911E+02 0.  0.
         11    1    3    3    0    0  0.24248295721E+02  0.11529018556E+02 -0.27517493600E+02  0.38446203561E+02  0.00000000000E+00 0.  1.
        -11    1    3    3    0    0  0.95983421154E+02 -0.67448389633E+02 -0.43308235739E+03  0.44868968194E+03  0.00000000000E+00 0. -1.
          2    1    6    6  502    0  0.26669949637E+02 -0.20821763810E+03 -0.26312613139E+03  0.33660248372E+03  0.00000000000E+00 0. -1.
          3    1    5    5  503    0 -0.10510298679E+03  0.30882899217E+03  0.22412533114E+03  0.39579558903E+03  0.00000000000E+00 0. -1.
         -4    1    5    5    0  503 -0.20939908081E+02  0.19216878764E+02  0.87897793055E+00  0.28434851540E+02  0.00000000000E+00 0.  1.
         -1    1    6    6    0  502 -0.20858771640E+02 -0.63908861755E+02 -0.15157055872E+03  0.16581032910E+03  0.00000000000E+00 0.  1.
<mgrwt>
<rscale>  0 0.12553452E+04</rscale>
<asrwt>0</asrwt>
<pdfrwt beam="1">  1        2 0.15877472E+00 0.12553452E+04</pdfrwt>
<pdfrwt beam="2">  1       -2 0.58729763E-01 0.12553452E+04</pdfrwt>
<totfact> 0.64017692E+01</totfact>
</mgrwt>
</event>
<event>
12    1  0.1599266E-007  0.2071804E+04  0.7818608E-02  0.8573766E-01
          1   -1    0    0  501    0  0.00000000000E+00  0.00000000000E+00  0.19360313836E+04  0.19360313836E+04  0.00000000000E+00 0. -1.
         -1   -1    0    0    0  501 -0.00000000000E+00 -0.00000000000E+00 -0.55427476634E+03  0.55427476634E+03  0.00000000000E+00 0.  1.
         23    2    1    2    0    0 -0.14977565570E+03  0.59094406561E+03  0.12638234554E+04  0.14061989068E+04  0.92184614533E+02 0.  0.
        254    2    1    2    0    0  0.14977565570E+03 -0.59094406561E+03  0.11793316177E+03  0.10841072431E+04  0.88866903188E+03 0.  0.
        -24    2    4    4    0    0  0.44152608951E+03 -0.54995818355E+02 -0.23137065920E+02  0.45272324063E+03  0.80331693842E+02 0.  0.
         24    2    4    4    0    0 -0.29175043382E+03 -0.53594824726E+03  0.14107022769E+03  0.63138400249E+03  0.79913140910E+02 0.  0.
         11    1    3    3    0    0 -0.77573727241E+02  0.35480676590E+03  0.65026333428E+03  0.74481402255E+03  0.00000000000E+00 0.  1.
        -11    1    3    3    0    0 -0.72201928454E+02  0.23613729971E+03  0.61356012116E+03  0.66138488422E+03  0.00000000000E+00 0. -1.
          2    1    6    6  502    0 -0.18495778242E+03 -0.41097515984E+03  0.93787524024E+02  0.46033255691E+03  0.00000000000E+00 0. -1.
          1    1    5    5  503    0  0.38666321260E+03 -0.21353111040E+02 -0.27437576132E+02  0.38822315221E+03  0.00000000000E+00 0. -1.
         -2    1    5    5    0  503  0.54862876912E+02 -0.33642707315E+02  0.43005102121E+01  0.64500088423E+02  0.00000000000E+00 0.  1.
         -1    1    6    6    0  502 -0.10679265140E+03 -0.12497308741E+03  0.47282703668E+02  0.17105144559E+03  0.00000000000E+00 0.  1.
<mgrwt>
<rscale>  0 0.20718044E+04</rscale>
<asrwt>0</asrwt>
<pdfrwt beam="1">  1        1 0.29785098E+00 0.20718044E+04</pdfrwt>
<pdfrwt beam="2">  1       -1 0.85273042E-01 0.20718044E+04</pdfrwt>
<totfact> 0.41274513E+00</totfact>
</mgrwt>
</event>
<event>
12    1  0.1599266E-007  0.2509712E+04  0.7818608E-02  0.8399534E-01
         -2   -1    0    0    0  501 -0.00000000000E+00  0.00000000000E+00  0.73175312384E+03  0.73175312384E+03  0.00000000000E+00 0.  1.
          2   -1    0    0  501    0  0.00000000000E+00 -0.00000000000E+00 -0.21519049149E+04  0.21519049149E+04  0.00000000000E+00 0. -1.
         23    2    1    2    0    0 -0.42234731790E+03  0.69130710109E+03  0.22503146262E+03  0.84624144012E+03  0.95930447989E+02 0.  0.
        254    2    1    2    0    0  0.42234731790E+03 -0.69130710109E+03 -0.16451832537E+04  0.20374165986E+04  0.88778133187E+03 0.  0.
        -24    2    4    4    0    0  0.40327256051E+03  0.33874016287E+02 -0.92233563455E+03  0.10102804568E+04  0.78659846876E+02 0.  0.
         24    2    4    4    0    0  0.19074757393E+02 -0.72518111737E+03 -0.72284761914E+03  0.10271361419E+04  0.79047290168E+02 0.  0.
         11    1    3    3    0    0 -0.45636303306E+02  0.11485231132E+03  0.63385995485E+02  0.13889388042E+03  0.00000000000E+00 0. -1.
        -11    1    3    3    0    0 -0.37671101459E+03  0.57645478977E+03  0.16164546714E+03  0.70734755970E+03  0.00000000000E+00 0.  1.
          2    1    6    6  502    0  0.42145398729E+02 -0.61054065073E+03 -0.58875980125E+03  0.84921977390E+03  0.00000000000E+00 0. -1.
          1    1    5    5  503    0  0.39535568502E+03  0.38044243364E+02 -0.85977536392E+03  0.94708350136E+03  0.00000000000E+00 0. -1.
         -2    1    5    5    0  503  0.79168754874E+01 -0.41702270775E+01 -0.62560270624E+02  0.63196955400E+02  0.00000000000E+00 0.  1.
         -1    1    6    6    0  502 -0.23070641337E+02 -0.11464046665E+03 -0.13408781789E+03  0.17791636797E+03  0.00000000000E+00 0.  1.
<mgrwt>
<rscale>  0 0.25097117E+04</rscale>
<asrwt>0</asrwt>
<pdfrwt beam="1">  1        2 0.33106229E+00 0.25097117E+04</pdfrwt>
<pdfrwt beam="2">  1       -2 0.11257740E+00 0.25097117E+04</pdfrwt>
<totfact> 0.30413380E+00</totfact>
</mgrwt>
</event>
<event>
12    1  0.1599266E-007  0.1830920E+04  0.7818608E-02  0.8690027E-01
          1   -1    0    0  501    0  0.00000000000E+00  0.00000000000E+00  0.42216105145E+03  0.42216105145E+03  0.00000000000E+00 0. -1.
         -1   -1    0    0    0  501 -0.00000000000E+00 -0.00000000000E+00 -0.19851825426E+04  0.19851825426E+04  0.00000000000E+00 0.  1.
         23    2    1    2    0    0  0.26705274845E+03  0.58194774493E+03 -0.24589863318E+03  0.69176229549E+03  0.89936574199E+02 0.  0.
        254    2    1    2    0    0 -0.26705274845E+03 -0.58194774493E+03 -0.13171228580E+04  0.17155812985E+04  0.89354698851E+03 0.  0.
        -24    2    4    4    0    0  0.29651469195E+03 -0.16286085215E+03 -0.67896978041E+03  0.76298675403E+03  0.81879206158E+02 0.  0.
         24    2    4    4    0    0 -0.56356744040E+03 -0.41908689279E+03 -0.63815307755E+03  0.95259454452E+03  0.83396236620E+02 0.  0.
         11    1    3    3    0    0  0.19331124213E+03  0.48396213952E+03 -0.17304350219E+03  0.54911987987E+03  0.00000000000E+00 0. -1.
        -11    1    3    3    0    0  0.73741506320E+02  0.97985605417E+02 -0.72855130987E+02  0.14264241562E+03  0.00000000000E+00 0.  1.
          2    1    6    6  502    0 -0.55048213113E+03 -0.38867645747E+03 -0.61362389079E+03  0.91139137841E+03  0.00000000000E+00 0. -1.
          3    1    5    5  503    0  0.24625132533E+03 -0.11536379582E+03 -0.47154158461E+03  0.54433444373E+03  0.00000000000E+00 0. -1.
         -4    1    5    5    0  503  0.50263366613E+02 -0.47497056331E+02 -0.20742819581E+03  0.21865231030E+03  0.00000000000E+00 0.  1.
         -1    1    6    6    0  502 -0.13085309269E+02 -0.30410435317E+02 -0.24529186758E+02  0.41203166114E+02  0.00000000000E+00 0.  1.
<mgrwt>
<rscale>  0 0.18309197E+04</rscale>
<asrwt>0</asrwt>
<pdfrwt beam="1">  1        1 0.64947855E-01 0.18309197E+04</pdfrwt>
<pdfrwt beam="2">  1       -1 0.30541270E+00 0.18309197E+04</pdfrwt>
<totfact> 0.16018660E+00</totfact>
</mgrwt>
</event>
<event>
12    1  0.1599266E-007  0.1390220E+04  0.7818608E-02  0.8960928E-01
         -2   -1    0    0    0  501 -0.00000000000E+00  0.00000000000E+00  0.31267098166E+03  0.31267098166E+03  0.00000000000E+00 0.  1.
          2   -1    0    0  501    0  0.00000000000E+00 -0.00000000000E+00 -0.15453239412E+04  0.15453239412E+04  0.00000000000E+00 0. -1.
         23    2    1    2    0    0 -0.70233460853E+02  0.31608796770E+03 -0.70434115587E+02  0.34382070707E+03  0.91691720570E+02 0.  0.
        254    2    1    2    0    0  0.70233460853E+02 -0.31608796770E+03 -0.11622188439E+04  0.15141742158E+04  0.91494621272E+03 0.  0.
        -24    2    4    4    0    0 -0.52315386560E+02 -0.62022326508E+03 -0.83161246786E+03  0.10418557779E+04  0.80438591289E+02 0.  0.
         24    2    4    4    0    0  0.12254884741E+03  0.30413529737E+03 -0.33060637606E+03  0.47231843789E+03  0.79168376083E+02 0.  0.
         13    1    3    3    0    0 -0.37453458739E+01  0.58346791575E+02 -0.49873710504E+02  0.76848960320E+02  0.00000000000E+00 0. -1.
        -13    1    3    3    0    0 -0.66488114979E+02  0.25774117613E+03 -0.20560405084E+02  0.26697174675E+03  0.00000000000E+00 0.  1.
          4    1    6    6  502    0 -0.64634861016E+01  0.66899157748E+02 -0.62310928228E+02  0.91651108758E+02  0.00000000000E+00 0. -1.
          3    1    5    5  503    0 -0.33044675894E+02 -0.22305654461E+03 -0.24284074390E+03  0.33138768776E+03  0.00000000000E+00 0. -1.
         -4    1    5    5    0  503 -0.19270710666E+02 -0.39716672046E+03 -0.58877172396E+03  0.71046809011E+03  0.00000000000E+00 0.  1.
         -3    1    6    6    0  502  0.12901233351E+03  0.23723613962E+03 -0.26829544784E+03  0.38066732914E+03  0.00000000000E+00 0.  1.
<mgrwt>
<rscale>  0 0.13902201E+04</rscale>
<asrwt>0</asrwt>
<pdfrwt beam="1">  1        2 0.23774214E+00 0.13902201E+04</pdfrwt>
<pdfrwt beam="2">  1       -2 0.48103229E-01 0.13902201E+04</pdfrwt>
<totfact> 0.47715216E+01</totfact>
</mgrwt>
</event>
<event>
12    1  0.1599266E-007  0.1451645E+04  0.7818608E-02  0.8917261E-01
         -2   -1    0    0    0  501 -0.00000000000E+00  0.00000000000E+00  0.13417993819E+03  0.13417993819E+03  0.00000000000E+00 0.  1.
          2   -1    0    0  501    0  0.00000000000E+00 -0.00000000000E+00 -0.39262098324E+04  0.39262098324E+04  0.00000000000E+00 0. -1.
         23    2    1    2    0    0 -0.34164647490E+03  0.25471506837E+03 -0.13701676278E+04  0.14373329099E+04  0.83453493910E+02 0.  0.
        254    2    1    2    0    0  0.34164647490E+03 -0.25471506837E+03 -0.24218622664E+04  0.26230568607E+04  0.91291203151E+03 0.  0.
        -24    2    4    4    0    0  0.36231984293E+03 -0.30926220339E+03 -0.24679526463E+04  0.25147456884E+04  0.78973628742E+02 0.  0.
         24    2    4    4    0    0 -0.20673368025E+02  0.54547135024E+02  0.46090379895E+02  0.10831117230E+03  0.78766800374E+02 0.  0.
         11    1    3    3    0    0 -0.22602735518E+03  0.19792308049E+03 -0.10525433543E+04  0.10945818489E+04  0.00000000000E+00 0. -1.
        -11    1    3    3    0    0 -0.11561911972E+03  0.56791987879E+02 -0.31762427348E+03  0.34275106103E+03  0.00000000000E+00 0.  1.
          4    1    6    6  502    0 -0.64424826244E+01  0.61825469390E+02  0.28662517722E+01  0.62226277784E+02  0.00000000000E+00 0. -1.
          1    1    5    5  503    0  0.10391357411E+03 -0.11520715160E+03 -0.64711061373E+03  0.66544937078E+03  0.00000000000E+00 0. -1.
         -2    1    5    5    0  503  0.25840626882E+03 -0.19405505180E+03 -0.18208420326E+04  0.18492963176E+04  0.00000000000E+00 0.  1.
         -3    1    6    6    0  502 -0.14230885400E+02 -0.72783343667E+01  0.43224128123E+02  0.46084894515E+02  0.00000000000E+00 0.  1.
<mgrwt>
<rscale>  0 0.14516454E+04</rscale>
<asrwt>0</asrwt>
<pdfrwt beam="1">  1        2 0.60403227E+00 0.14516454E+04</pdfrwt>
<pdfrwt beam="2">  1       -2 0.20643068E-01 0.14516454E+04</pdfrwt>
<totfact> 0.78712188E+00</totfact>
</mgrwt>
</event>
<event>
12    1  0.1599266E-007  0.1858643E+04  0.7818608E-02  0.8675721E-01
          1   -1    0    0  501    0  0.00000000000E+00  0.00000000000E+00  0.61104835932E+03  0.61104835932E+03  0.00000000000E+00 0. -1.
         -1   -1    0    0    0  501 -0.00000000000E+00 -0.00000000000E+00 -0.14133717748E+04  0.14133717748E+04  0.00000000000E+00 0.  1.
         23    2    1    2    0    0  0.30180695821E+03  0.18458896966E+03 -0.96642355740E+03  0.10331717721E+04  0.91153115843E+02 0.  0.
        254    2    1    2    0    0 -0.30180695821E+03 -0.18458896966E+03  0.16410014189E+03  0.99124836210E+03  0.91130891088E+03 0.  0.
        -24    2    4    4    0    0 -0.28334599849E+02  0.54536889811E+02  0.48755551379E+03  0.49805709998E+03  0.81076346202E+02 0.  0.
         24    2    4    4    0    0 -0.27347235836E+03 -0.23912585947E+03 -0.32345537190E+03  0.49319126212E+03  0.81522610149E+02 0.  0.
         11    1    3    3    0    0  0.16743016833E+03  0.75687884000E+02 -0.60868644768E+03  0.63581499561E+03  0.00000000000E+00 0.  1.
        -11    1    3    3    0    0  0.13437678989E+03  0.10890108566E+03 -0.35773710972E+03  0.39735677644E+03  0.00000000000E+00 0. -1.
          4    1    6    6  502    0 -0.13912092644E+03 -0.17088164438E+03 -0.21184999552E+03  0.30567235590E+03  0.00000000000E+00 0. -1.
          1    1    5    5  503    0 -0.45642272958E+02  0.49839936974E+02  0.46152597625E+03  0.46644770677E+03  0.00000000000E+00 0. -1.
         -2    1    5    5    0  503  0.17307673109E+02  0.46969528368E+01  0.26029537538E+02  0.31609393206E+02  0.00000000000E+00 0.  1.
         -3    1    6    6    0  502 -0.13435143192E+03 -0.68244215087E+02 -0.11160537638E+03  0.18751890622E+03  0.00000000000E+00 0.  1.
<mgrwt>
<rscale>  0 0.18586431E+04</rscale>
<asrwt>0</asrwt>
<pdfrwt beam="1">  1        1 0.94007441E-01 0.18586431E+04</pdfrwt>
<pdfrwt beam="2">  1       -1 0.21744181E+00 0.18586431E+04</pdfrwt>
<totfact> 0.35847423E+00</totfact>
</mgrwt>
</event>
<event>
12    1  0.1599266E-007  0.3367716E+04  0.7818608E-02  0.8145876E-01
          2   -1    0    0  501    0  0.00000000000E+00  0.00000000000E+00  0.12739251668E+04  0.12739251668E+04  0.00000000000E+00 0. -1.
         -2   -1    0    0    0  501 -0.00000000000E+00 -0.00000000000E+00 -0.22257014031E+04  0.22257014031E+04  0.00000000000E+00 0.  1.
         23    2    1    2    0    0 -0.85306696651E+03 -0.23346120806E+03 -0.17807875087E+04  0.19902850792E+04  0.88335499058E+02 0.  0.
        254    2    1    2    0    0  0.85306696651E+03  0.23346120806E+03  0.82901127246E+03  0.15093414906E+04  0.89923559782E+03 0.  0.
        -24    2    4    4    0    0  0.50332368723E+03  0.55906899083E+03  0.36968055502E+03  0.84187366158E+03  0.78706280922E+02 0.  0.
         24    2    4    4    0    0  0.34974327928E+03 -0.32560778278E+03  0.45933071743E+03  0.66746782903E+03  0.78662603591E+02 0.  0.
         11    1    3    3    0    0 -0.39913076088E+03 -0.64171693021E+02 -0.82520632399E+03  0.91890633234E+03  0.00000000000E+00 0. -1.
        -11    1    3    3    0    0 -0.45393620562E+03 -0.16928951504E+03 -0.95558118475E+03  0.10713787469E+04  0.00000000000E+00 0.  1.
          2    1    6    6  502    0  0.29791376330E+03 -0.25386703141E+03  0.40691359658E+03  0.56460584046E+03  0.00000000000E+00 0. -1.
          1    1    5    5  503    0  0.39325855174E+03  0.46003374208E+03  0.26582374405E+03  0.66101860433E+03  0.00000000000E+00 0. -1.
         -2    1    5    5    0  503  0.11006513549E+03  0.99035248750E+02  0.10385681098E+03  0.18085505725E+03  0.00000000000E+00 0.  1.
         -1    1    6    6    0  502  0.51829515988E+02 -0.71740751368E+02  0.52417120850E+02  0.10286198857E+03  0.00000000000E+00 0.  1.
<mgrwt>
<rscale>  0 0.33677156E+04</rscale>
<asrwt>0</asrwt>
<pdfrwt beam="1">  1        2 0.19598849E+00 0.33677156E+04</pdfrwt>
<pdfrwt beam="2">  1       -2 0.34241560E+00 0.33677156E+04</pdfrwt>
<totfact> 0.24688152E-01</totfact>
</mgrwt>
</event>
<event>
12    1  0.1599266E-007  0.2232126E+04  0.7818608E-02  0.8505174E-01
         -1   -1    0    0    0  501 -0.00000000000E+00  0.00000000000E+00  0.90996815806E+03  0.90996815806E+03  0.00000000000E+00 0.  1.
          1   -1    0    0  501    0  0.00000000000E+00 -0.00000000000E+00 -0.13688350584E+04  0.13688350584E+04  0.00000000000E+00 0. -1.
         23    2    1    2    0    0 -0.90010050346E+02  0.57009317779E+02  0.75252592184E+03  0.76547605438E+03  0.91139757039E+02 0.  0.
        254    2    1    2    0    0  0.90010050346E+02 -0.57009317779E+02 -0.12113928222E+04  0.15133271621E+04  0.90074117170E+03 0.  0.
        -24    2    4    4    0    0 -0.27694826397E+03 -0.14573591516E+03 -0.10238580632E+03  0.33879082604E+03  0.79731252257E+02 0.  0.
         24    2    4    4    0    0  0.36695831432E+03  0.88726597382E+02 -0.11090070158E+04  0.11745363360E+04  0.84310319398E+02 0.  0.
         13    1    3    3    0    0 -0.36997660924E+02 -0.43765846823E+01  0.82049850857E+02  0.90111927251E+02  0.00000000000E+00 0. -1.
        -13    1    3    3    0    0 -0.53012389423E+02  0.61385902462E+02  0.67047607098E+03  0.67536412713E+03  0.00000000000E+00 0.  1.
          4    1    6    6  502    0  0.51989600149E+02  0.39580354962E+02 -0.24618890694E+03  0.25471258493E+03  0.00000000000E+00 0. -1.
          1    1    5    5  503    0 -0.46143702491E+02  0.57728809625E+01 -0.92465014905E+01  0.47413766186E+02  0.00000000000E+00 0. -1.
         -4    1    5    5    0  503 -0.23080456148E+03 -0.15150879612E+03 -0.93139304832E+02  0.29137705985E+03  0.00000000000E+00 0.  1.
         -3    1    6    6    0  502  0.31496871417E+03  0.49146242420E+02 -0.86281810889E+03  0.91982375109E+03  0.00000000000E+00 0.  1.
<mgrwt>
<rscale>  0 0.22321257E+04</rscale>
<asrwt>0</asrwt>
<pdfrwt beam="1">  1        1 0.21059001E+00 0.22321257E+04</pdfrwt>
<pdfrwt beam="2">  1       -1 0.13999510E+00 0.22321257E+04</pdfrwt>
<totfact> 0.30802721E+00</totfact>
</mgrwt>
</event>
<event>
12    1  0.1599266E-007  0.1616003E+04  0.7818608E-02  0.8810776E-01
          2   -1    0    0  501    0  0.00000000000E+00  0.00000000000E+00  0.68929785872E+03  0.68929785872E+03  0.00000000000E+00 0. -1.
         -2   -1    0    0    0  501 -0.00000000000E+00 -0.00000000000E+00 -0.94714731980E+03  0.94714731980E+03  0.00000000000E+00 0.  1.
         23    2    1    2    0    0 -0.26046580928E+03  0.19150143119E+03  0.38286788861E+03  0.50772960255E+03  0.81769757440E+02 0.  0.
        254    2    1    2    0    0  0.26046580928E+03 -0.19150143119E+03 -0.64071734968E+03  0.11287155760E+04  0.87118591201E+03 0.  0.
        -24    2    4    4    0    0 -0.62119335956E+01  0.32883230912E+03 -0.25851330712E+03  0.42565422993E+03  0.78632803938E+02 0.  0.
         24    2    4    4    0    0  0.26667774287E+03 -0.52033374031E+03 -0.38220404256E+03  0.70306134604E+03  0.79693828418E+02 0.  0.
         11    1    3    3    0    0 -0.88397936741E+02  0.63524244039E+02  0.19168822137E+03  0.22044023910E+03  0.00000000000E+00 0.  1.
        -11    1    3    3    0    0 -0.17206787254E+03  0.12797718715E+03  0.19117966724E+03  0.28728936346E+03  0.00000000000E+00 0. -1.
          4    1    6    6  502    0  0.47044922124E+02 -0.39597914006E+02 -0.43288470667E+02  0.75200473297E+02  0.00000000000E+00 0. -1.
          1    1    5    5  503    0 -0.30474502098E+02  0.59494066335E+02 -0.39346436704E+02  0.77565335611E+02  0.00000000000E+00 0. -1.
         -2    1    5    5    0  503  0.24262568502E+02  0.26933824278E+03 -0.21916687042E+03  0.34808889432E+03  0.00000000000E+00 0.  1.
         -1    1    6    6    0  502  0.21963282075E+03 -0.48073582631E+03 -0.33891557190E+03  0.62786087274E+03  0.00000000000E+00 0.  1.
<mgrwt>
<rscale>  0 0.16160032E+04</rscale>
<asrwt>0</asrwt>
<pdfrwt beam="1">  1        2 0.10604582E+00 0.16160032E+04</pdfrwt>
<pdfrwt beam="2">  1       -2 0.14571497E+00 0.16160032E+04</pdfrwt>
<totfact> 0.12936623E+01</totfact>
</mgrwt>
</event>
<event>
12    1  0.1599266E-007  0.1428563E+04  0.7818608E-02  0.8933399E-01
          2   -1    0    0  501    0  0.00000000000E+00  0.00000000000E+00  0.10487894788E+04  0.10487894788E+04  0.00000000000E+00 0. -1.
         -2   -1    0    0    0  501 -0.00000000000E+00 -0.00000000000E+00 -0.48646388367E+03  0.48646388367E+03  0.00000000000E+00 0.  1.
         23    2    1    2    0    0 -0.18601598102E+02 -0.11464637053E+03  0.73908654697E+03  0.75347143743E+03  0.89333495378E+02 0.  0.
        254    2    1    2    0    0  0.18601598102E+02  0.11464637053E+03 -0.17676095180E+03  0.78178192507E+03  0.75262788585E+03 0.  0.
        -24    2    4    4    0    0  0.28154127176E+03 -0.17902597966E+03 -0.25485452837E+01  0.34348174994E+03  0.81593065611E+02 0.  0.
         24    2    4    4    0    0 -0.26293967366E+03  0.29367235019E+03 -0.17421240652E+03  0.43830017513E+03  0.79852111349E+02 0.  0.
         11    1    3    3    0    0  0.29460526637E+02 -0.80066583917E+02  0.49557600795E+03  0.50286594650E+03  0.00000000000E+00 0. -1.
        -11    1    3    3    0    0 -0.48062124740E+02 -0.34579786608E+02  0.24351053902E+03  0.25060549094E+03  0.00000000000E+00 0.  1.
          4    1    6    6  502    0 -0.77612003471E+02  0.41472483108E+02 -0.52675138705E+02  0.10255856949E+03  0.00000000000E+00 0. -1.
          3    1    5    5  503    0  0.10549853674E+03 -0.11022291458E+03 -0.19017332530E+02  0.15375529614E+03  0.00000000000E+00 0. -1.
         -4    1    5    5    0  503  0.17604273502E+03 -0.68803065085E+02  0.16468787246E+02  0.18972645380E+03  0.00000000000E+00 0.  1.
         -3    1    6    6    0  502 -0.18532767019E+03  0.25219986708E+03 -0.12153726781E+03  0.33574160565E+03  0.00000000000E+00 0.  1.
<mgrwt>
<rscale>  0 0.14285632E+04</rscale>
<asrwt>0</asrwt>
<pdfrwt beam="1">  1        2 0.16135223E+00 0.14285632E+04</pdfrwt>
<pdfrwt beam="2">  1       -2 0.74840598E-01 0.14285632E+04</pdfrwt>
<totfact> 0.36549670E+01</totfact>
</mgrwt>
</event>
<event>
12    1  0.1599266E-007  0.1340140E+04  0.7818608E-02  0.8998326E-01
         -3   -1    0    0    0  501 -0.00000000000E+00  0.00000000000E+00  0.18193692147E+03  0.18193692147E+03  0.00000000000E+00 0.  1.
          3   -1    0    0  501    0  0.00000000000E+00 -0.00000000000E+00 -0.24678548143E+04  0.24678548143E+04  0.00000000000E+00 0. -1.
         23    2    1    2    0    0  0.32125933842E+03 -0.58460106293E+02 -0.91138309612E+03  0.97239589122E+03  0.91156320844E+02 0.  0.
        254    2    1    2    0    0 -0.32125933842E+03  0.58460106293E+02 -0.13745347967E+04  0.16773958446E+04  0.90425978867E+03 0.  0.
        -24    2    4    4    0    0 -0.42041851797E+03  0.12008837800E+03 -0.18741961988E+03  0.48253626197E+03  0.80883752469E+02 0.  0.
         24    2    4    4    0    0  0.99159179554E+02 -0.61628271711E+02 -0.11871151769E+04  0.11948595826E+04  0.69400232381E+02 0.  0.
         11    1    3    3    0    0  0.75811040305E+01  0.56772173297E+01 -0.95074234049E+02  0.95544826730E+02  0.00000000000E+00 0. -1.
        -11    1    3    3    0    0  0.31367823439E+03 -0.64137323622E+02 -0.81630886207E+03  0.87685106449E+03  0.00000000000E+00 0.  1.
          4    1    6    6  502    0  0.97727100605E+02 -0.28273147146E+02 -0.83840479155E+03  0.84455464686E+03  0.00000000000E+00 0. -1.
          3    1    5    5  503    0 -0.29843842327E+03  0.64973351227E+02 -0.16391668948E+03  0.34663483660E+03  0.00000000000E+00 0. -1.
         -4    1    5    5    0  503 -0.12198009470E+03  0.55115026777E+02 -0.23502930398E+02  0.13590142537E+03  0.00000000000E+00 0.  1.
         -3    1    6    6    0  502  0.14320789491E+01 -0.33355124566E+02 -0.34871038530E+03  0.35030493574E+03  0.00000000000E+00 0.  1.
<mgrwt>
<rscale>  0 0.13401402E+04</rscale>
<asrwt>0</asrwt>
<pdfrwt beam="1">  1        3 0.37966997E+00 0.13401402E+04</pdfrwt>
<pdfrwt beam="2">  1       -3 0.27990296E-01 0.13401402E+04</pdfrwt>
<totfact> 0.45824199E-01</totfact>
</mgrwt>
</event>
<event>
12    1  0.1599266E-007  0.1634834E+04  0.7818608E-02  0.8799429E-01
          2   -1    0    0  501    0  0.00000000000E+00  0.00000000000E+00  0.24796002971E+04  0.24796002971E+04  0.00000000000E+00 0.  1.
         -2   -1    0    0    0  501 -0.00000000000E+00 -0.00000000000E+00 -0.26946700993E+03  0.26946700993E+03  0.00000000000E+00 0. -1.
         23    2    1    2    0    0 -0.34624484193E+03 -0.43134657572E+03  0.55482019559E+03  0.78895235976E+03  0.93139774453E+02 0.  0.
        254    2    1    2    0    0  0.34624484193E+03  0.43134657572E+03  0.16553130916E+04  0.19601149473E+04  0.89221287619E+03 0.  0.
        -24    2    4    4    0    0 -0.29620761949E+03  0.14104385762E+03  0.46661359817E+03  0.57584257339E+03  0.78956289869E+02 0.  0.
         24    2    4    4    0    0  0.64245246142E+03  0.29030271810E+03  0.11886994934E+04  0.13842723739E+04  0.78630058993E+02 0.  0.
         11    1    3    3    0    0 -0.38653610221E+02 -0.26369777733E+02  0.82799994496E+02  0.95106812844E+02  0.00000000000E+00 0.  1.
        -11    1    3    3    0    0 -0.30759123171E+03 -0.40497679799E+03  0.47202020109E+03  0.69384554691E+03  0.00000000000E+00 0. -1.
          4    1    6    6  502    0  0.44232149222E+02  0.32472809855E+02  0.61841111311E+02  0.82675809357E+02  0.00000000000E+00 0. -1.
          3    1    5    5  503    0 -0.70783639100E+02  0.41862479123E+02  0.18037912461E+03  0.19824081144E+03  0.00000000000E+00 0. -1.
         -4    1    5    5    0  503 -0.22542398039E+03  0.99181378498E+02  0.28623447356E+03  0.37760176195E+03  0.00000000000E+00 0.  1.
         -3    1    6    6    0  502  0.59822031220E+03  0.25782990825E+03  0.11268583821E+04  0.13015965646E+04  0.00000000000E+00 0.  1.
<mgrwt>
<rscale>  0 0.16348339E+04</rscale>
<asrwt>0</asrwt>
<pdfrwt beam="1">  1        2 0.38147695E+00 0.16348339E+04</pdfrwt>
<pdfrwt beam="2">  1       -2 0.41456465E-01 0.16348339E+04</pdfrwt>
<totfact> 0.18893973E+01</totfact>
</mgrwt>
</event>
<event>
12    1  0.1599266E-007  0.1288269E+04  0.7818608E-02  0.9038920E-01
         -1   -1    0    0    0  501 -0.00000000000E+00  0.00000000000E+00  0.52565594219E+03  0.52565594219E+03  0.00000000000E+00 0.  1.
          1   -1    0    0  501    0  0.00000000000E+00 -0.00000000000E+00 -0.78931678593E+03  0.78931678593E+03  0.00000000000E+00 0. -1.
         23    2    1    2    0    0 -0.14653661977E+03 -0.25704223325E+03  0.56387085768E+02  0.31639858113E+03  0.96875528855E+02 0.  0.
        254    2    1    2    0    0  0.14653661977E+03  0.25704223325E+03 -0.32004792951E+03  0.99857414699E+03  0.89842971859E+03 0.  0.
        -24    2    4    4    0    0 -0.30717164237E+03 -0.11222036434E+03 -0.22366036747E+02  0.33733749111E+03  0.79677570600E+02 0.  0.
         24    2    4    4    0    0  0.45370826215E+03  0.36926259759E+03 -0.29768189277E+03  0.66123665589E+03  0.80083410816E+02 0.  0.
         13    1    3    3    0    0  0.46099841204E+01 -0.26623909912E+02  0.28739635170E+02  0.39446814349E+02  0.00000000000E+00 0.  1.
        -13    1    3    3    0    0 -0.15114660389E+03 -0.23041832334E+03  0.27647450598E+02  0.27695176678E+03  0.00000000000E+00 0. -1.
          2    1    6    6  502    0  0.17408461336E+03  0.13908655674E+03 -0.15755415156E+03  0.27289894384E+03  0.00000000000E+00 0. -1.
          3    1    5    5  503    0 -0.79169522130E+02  0.56705183324E+01 -0.13461675926E+02  0.80505805574E+02  0.00000000000E+00 0. -1.
         -4    1    5    5    0  503 -0.22800212024E+03 -0.11789088267E+03 -0.89043608211E+01  0.25683168553E+03  0.00000000000E+00 0.  1.
         -3    1    6    6    0  502  0.27962364879E+03  0.23017604085E+03 -0.14012774120E+03  0.38833771205E+03  0.00000000000E+00 0.  1.
<mgrwt>
<rscale>  0 0.12882687E+04</rscale>
<asrwt>0</asrwt>
<pdfrwt beam="1">  1        1 0.12143335E+00 0.12882687E+04</pdfrwt>
<pdfrwt beam="2">  1       -1 0.80870145E-01 0.12882687E+04</pdfrwt>
<totfact> 0.33877288E+01</totfact>
</mgrwt>
</event>
<event>
12    1  0.1599266E-007  0.2230060E+04  0.7818608E-02  0.8506020E-01
          2   -1    0    0  501    0  0.00000000000E+00  0.00000000000E+00  0.20140515497E+04  0.20140515497E+04  0.00000000000E+00 0. -1.
         -2   -1    0    0    0  501 -0.00000000000E+00 -0.00000000000E+00 -0.61730876671E+03  0.61730876671E+03  0.00000000000E+00 0.  1.
         23    2    1    2    0    0 -0.42139014265E+03  0.48735871865E+03  0.13895554408E+04  0.15341613396E+04  0.87741209093E+02 0.  0.
        254    2    1    2    0    0  0.42139014265E+03 -0.48735871865E+03  0.71873422091E+01  0.10971989769E+04  0.88809107867E+03 0.  0.
        -24    2    4    4    0    0  0.18105117136E+02 -0.64380203617E+03 -0.61986354995E+02  0.65180255678E+03  0.78710912702E+02 0.  0.
         24    2    4    4    0    0  0.40328502552E+03  0.15644331752E+03  0.69173697204E+02  0.44539642010E+03  0.80496256122E+02 0.  0.
         13    1    3    3    0    0 -0.35258976045E+03  0.35731766187E+03  0.11108526883E+04  0.12190115446E+04  0.00000000000E+00 0. -1.
        -13    1    3    3    0    0 -0.68800382205E+02  0.13004105677E+03  0.27870275248E+03  0.31514979499E+03  0.00000000000E+00 0.  1.
          2    1    6    6  502    0  0.19010933358E+03  0.31638782296E+02  0.22938467817E+02  0.19408437486E+03  0.00000000000E+00 0. -1.
          1    1    5    5  503    0 -0.55806042796E+01 -0.57556721386E+03 -0.66555369285E+02  0.57942935548E+03  0.00000000000E+00 0. -1.
         -2    1    5    5    0  503  0.23685721416E+02 -0.68234822312E+02  0.45690142898E+01  0.72373201301E+02  0.00000000000E+00 0.  1.
         -1    1    6    6    0  502  0.21317569194E+03  0.12480453523E+03  0.46235229387E+02  0.25131204524E+03  0.00000000000E+00 0.  1.
<mgrwt>
<rscale>  0 0.22300598E+04</rscale>
<asrwt>0</asrwt>
<pdfrwt beam="1">  1        2 0.30985408E+00 0.22300598E+04</pdfrwt>
<pdfrwt beam="2">  1       -2 0.94970580E-01 0.22300598E+04</pdfrwt>
<totfact> 0.55798733E+00</totfact>
</mgrwt>
</event>
<event>
12    1  0.1599266E-007  0.3473177E+04  0.7818608E-02  0.8120176E-01
          2   -1    0    0  501    0  0.00000000000E+00  0.00000000000E+00  0.29228247467E+04  0.29228247467E+04  0.00000000000E+00 0. -1.
         -2   -1    0    0    0  501 -0.00000000000E+00 -0.00000000000E+00 -0.10317891750E+04  0.10317891750E+04  0.00000000000E+00 0.  1.
         23    2    1    2    0    0  0.82203679525E+03  0.38892939633E+03  0.24147051922E+04  0.25818795133E+04  0.91049918139E+02 0.  0.
        254    2    1    2    0    0 -0.82203679525E+03 -0.38892939633E+03 -0.52366962060E+03  0.13727344084E+04  0.88496288988E+03 0.  0.
        -24    2    4    4    0    0  0.15663226488E+03 -0.32298490085E+01  0.34885669732E+02  0.17911587449E+03  0.79507158264E+02 0.  0.
         24    2    4    4    0    0 -0.97866906013E+03 -0.38569954732E+03 -0.55855529033E+03  0.11936185339E+04  0.78637917988E+02 0.  0.
         11    1    3    3    0    0  0.36309844538E+02  0.36881007909E+02  0.10897403133E+03  0.12063976566E+03  0.00000000000E+00 0.  1.
        -11    1    3    3    0    0  0.78572695071E+03  0.35204838842E+03  0.23057311609E+04  0.24612397476E+04  0.00000000000E+00 0. -1.
          2    1    6    6  502    0 -0.31500149256E+03 -0.15521853269E+03 -0.21259680559E+03  0.41050716797E+03  0.00000000000E+00 0. -1.
          1    1    5    5  503    0  0.24364713929E+02  0.12908246608E+02  0.36640158901E+02  0.45855897763E+02  0.00000000000E+00 0. -1.
         -2    1    5    5    0  503  0.13226755095E+03 -0.16138095616E+02 -0.17544891693E+01  0.13325997673E+03  0.00000000000E+00 0.  1.
         -1    1    6    6    0  502 -0.66366756757E+03 -0.23048101463E+03 -0.34595848474E+03  0.78311136597E+03  0.00000000000E+00 0.  1.
<mgrwt>
<rscale>  0 0.34731766E+04</rscale>
<asrwt>0</asrwt>
<pdfrwt beam="1">  1        2 0.44966534E+00 0.34731766E+04</pdfrwt>
<pdfrwt beam="2">  1       -2 0.15873680E+00 0.34731766E+04</pdfrwt>
<totfact> 0.41200096E-01</totfact>
</mgrwt>
</event>
<event>
12    1  0.1599266E-007  0.1512088E+04  0.7818608E-02  0.8876454E-01
         -1   -1    0    0    0  501 -0.00000000000E+00  0.00000000000E+00  0.22968169360E+04  0.22968169360E+04  0.00000000000E+00 0.  1.
          1   -1    0    0  501    0  0.00000000000E+00 -0.00000000000E+00 -0.24886741952E+03  0.24886741952E+03  0.00000000000E+00 0. -1.
         23    2    1    2    0    0  0.27782651046E+03  0.29411441079E+03  0.22518690241E+03  0.47154309059E+03  0.89178970154E+02 0.  0.
        254    2    1    2    0    0 -0.27782651046E+03 -0.29411441079E+03  0.18227626141E+04  0.20741412650E+04  0.90327602820E+03 0.  0.
        -24    2    4    4    0    0 -0.35125514867E+03 -0.38230090285E+03  0.44182972595E+03  0.68622322616E+03  0.78451574902E+02 0.  0.
         24    2    4    4    0    0  0.73428638210E+02  0.88186492057E+02  0.13809328882E+04  0.13879180388E+04  0.78563468370E+02 0.  0.
         11    1    3    3    0    0  0.17706990062E+03  0.15653829173E+03  0.86271765917E+02  0.25159651047E+03  0.00000000000E+00 0. -1.
        -11    1    3    3    0    0  0.10075660984E+03  0.13757611906E+03  0.13891513649E+03  0.21994658012E+03  0.00000000000E+00 0.  1.
          4    1    6    6  502    0  0.64409550485E+02  0.18608322159E+02  0.56189022482E+03  0.56587585617E+03  0.00000000000E+00 0. -1.
          1    1    5    5  503    0 -0.12939240460E+03 -0.87998228482E+02  0.13439680500E+03  0.20627308059E+03  0.00000000000E+00 0. -1.
         -2    1    5    5    0  503 -0.22186274407E+03 -0.29430267437E+03  0.30743292095E+03  0.47995014557E+03  0.00000000000E+00 0.  1.
         -3    1    6    6    0  502  0.90190877246E+01  0.69578169899E+02  0.81904266335E+03  0.82204218265E+03  0.00000000000E+00 0.  1.
<mgrwt>
<rscale>  0 0.15120885E+04</rscale>
<asrwt>0</asrwt>
<pdfrwt beam="1">  1        1 0.38287297E-01 0.15120885E+04</pdfrwt>
<pdfrwt beam="2">  1       -1 0.35335644E+00 0.15120885E+04</pdfrwt>
<totfact> 0.16039385E+00</totfact>
</mgrwt>
</event>
<event>
12    1  0.1599266E-007  0.1743312E+04  0.7818608E-02  0.8737040E-01
         -2   -1    0    0    0  501 -0.00000000000E+00  0.00000000000E+00  0.37886566662E+03  0.37886566662E+03  0.00000000000E+00 0.  1.
          2   -1    0    0  501    0  0.00000000000E+00 -0.00000000000E+00 -0.20054192976E+04  0.20054192976E+04  0.00000000000E+00 0. -1.
         23    2    1    2    0    0  0.34008434672E+03 -0.50179968970E+01 -0.13236609538E+04  0.13698710779E+04  0.93733164917E+02 0.  0.
        254    2    1    2    0    0 -0.34008434672E+03  0.50179968970E+01 -0.30289267717E+03  0.10144138863E+04  0.90642650872E+03 0.  0.
        -24    2    4    4    0    0 -0.21450729270E+03 -0.41800414029E+03 -0.30434662436E+03  0.56491418159E+03  0.75896804177E+02 0.  0.
         24    2    4    4    0    0 -0.12557705402E+03  0.42302213718E+03  0.14539471933E+01  0.44949970474E+03  0.85618605195E+02 0.  0.
         13    1    3    3    0    0  0.52110444605E+02 -0.19485896643E+02 -0.35067491956E+03  0.35506069596E+03  0.00000000000E+00 0. -1.
        -13    1    3    3    0    0  0.28797390211E+03  0.14467899746E+02 -0.97298603426E+03  0.10148103819E+04  0.00000000000E+00 0.  1.
          2    1    6    6  502    0 -0.10040489368E+03  0.18819588862E+03 -0.14918252343E+01  0.21330977641E+03  0.00000000000E+00 0. -1.
          3    1    5    5  503    0 -0.28892131433E+02 -0.19364894749E+02 -0.11677997578E+02  0.36689644790E+02  0.00000000000E+00 0. -1.
         -4    1    5    5    0  503 -0.18561516126E+03 -0.39863924554E+03 -0.29266862678E+03  0.52822453680E+03  0.00000000000E+00 0.  1.
         -1    1    6    6    0  502 -0.25172160340E+02  0.23482624856E+03  0.29457724276E+01  0.23618992833E+03  0.00000000000E+00 0.  1.
<mgrwt>
<rscale>  0 0.17433124E+04</rscale>
<asrwt>0</asrwt>
<pdfrwt beam="1">  1        2 0.30852605E+00 0.17433124E+04</pdfrwt>
<pdfrwt beam="2">  1       -2 0.58287026E-01 0.17433124E+04</pdfrwt>
<totfact> 0.17324689E+01</totfact>
</mgrwt>
</event>
<event>
12    1  0.1599266E-007  0.4113151E+04  0.7818608E-02  0.7982102E-01
          2   -1    0    0  501    0  0.00000000000E+00  0.00000000000E+00  0.30614771303E+04  0.30614771303E+04  0.00000000000E+00 0. -1.
         -2   -1    0    0    0  501 -0.00000000000E+00 -0.00000000000E+00 -0.13815233707E+04  0.13815233707E+04  0.00000000000E+00 0.  1.
         23    2    1    2    0    0 -0.15199242398E+04  0.47840815005E+03  0.20412574162E+04  0.25911695927E+04  0.91563998882E+02 0.  0.
        254    2    1    2    0    0  0.15199242398E+04 -0.47840815005E+03 -0.36130365659E+03  0.18518309083E+04  0.87160388231E+03 0.  0.
        -24    2    4    4    0    0  0.89588010456E+03  0.11412676081E+03 -0.39084062088E+03  0.98721236707E+03  0.78776820792E+02 0.  0.
         24    2    4    4    0    0  0.62404413528E+03 -0.59253491086E+03  0.29536964296E+02  0.86461854119E+03  0.78511694344E+02 0.  0.
         13    1    3    3    0    0 -0.83560384529E+03  0.22156299862E+03  0.10690396837E+04  0.13748344605E+04  0.00000000000E+00 0. -1.
        -13    1    3    3    0    0 -0.68432039455E+03  0.25684515142E+03  0.97221773253E+03  0.12163351321E+04  0.00000000000E+00 0.  1.
          4    1    6    6  502    0  0.19565421230E+03 -0.16232992955E+03 -0.22796929002E+02  0.25524748146E+03  0.00000000000E+00 0. -1.
          3    1    5    5  503    0  0.94513253958E+02 -0.72677012538E+01 -0.57238823005E+02  0.11073327194E+03  0.00000000000E+00 0. -1.
         -4    1    5    5    0  503  0.80136685060E+03  0.12139446206E+03 -0.33360179788E+03  0.87647909513E+03  0.00000000000E+00 0.  1.
         -3    1    6    6    0  502  0.42838992298E+03 -0.43020498131E+03  0.52333893298E+02  0.60937105973E+03  0.00000000000E+00 0.  1.
<mgrwt>
<rscale>  0 0.41131507E+04</rscale>
<asrwt>0</asrwt>
<pdfrwt beam="1">  1        2 0.47099648E+00 0.41131507E+04</pdfrwt>
<pdfrwt beam="2">  1       -2 0.21254206E+00 0.41131507E+04</pdfrwt>
<totfact> 0.13717580E-01</totfact>
</mgrwt>
</event>
<event>
12    1  0.1599266E-007  0.1468621E+04  0.7818608E-02  0.8905592E-01
         -2   -1    0    0    0  501 -0.00000000000E+00  0.00000000000E+00  0.67270554417E+03  0.67270554417E+03  0.00000000000E+00 0.  1.
          2   -1    0    0  501    0  0.00000000000E+00 -0.00000000000E+00 -0.80155656461E+03  0.80155656461E+03  0.00000000000E+00 0. -1.
         23    2    1    2    0    0  0.46355057011E+03 -0.14593686491E+02 -0.12373343457E+03  0.48872613597E+03  0.91930225781E+02 0.  0.
        254    2    1    2    0    0 -0.46355057011E+03  0.14593686491E+02 -0.51175858675E+01  0.98553597281E+03  0.86957625157E+03 0.  0.
        -24    2    4    4    0    0  0.16180053835E+03 -0.23380168497E+03 -0.70983666687E+02  0.30454954597E+03  0.82880051318E+02 0.  0.
         24    2    4    4    0    0 -0.62535110846E+03  0.24839537146E+03  0.65866080819E+02  0.68098642685E+03  0.81485603219E+02 0.  0.
         11    1    3    3    0    0  0.18959884688E+03  0.30494447062E+02 -0.23128935923E+02  0.19342332258E+03  0.00000000000E+00 0.  1.
        -11    1    3    3    0    0  0.27395172323E+03 -0.45088133553E+02 -0.10060449865E+03  0.29530281339E+03  0.00000000000E+00 0. -1.
          4    1    6    6  502    0 -0.32278083755E+03  0.17013138113E+03  0.23925324581E+02  0.36565636476E+03  0.00000000000E+00 0. -1.
          3    1    5    5  503    0  0.77736084952E+02 -0.16719585715E+03 -0.18991674788E+02  0.18535921143E+03  0.00000000000E+00 0. -1.
         -4    1    5    5    0  503  0.84064453396E+02 -0.66605827824E+02 -0.51991991899E+02  0.11919033453E+03  0.00000000000E+00 0.  1.
         -3    1    6    6    0  502 -0.30257027091E+03  0.78263990336E+02  0.41940756239E+02  0.31533006209E+03  0.00000000000E+00 0.  1.
<mgrwt>
<rscale>  0 0.14686205E+04</rscale>
<asrwt>0</asrwt>
<pdfrwt beam="1">  1        2 0.12331639E+00 0.14686205E+04</pdfrwt>
<pdfrwt beam="2">  1       -2 0.10349316E+00 0.14686205E+04</pdfrwt>
<totfact> 0.25326031E+01</totfact>
</mgrwt>
</event>
<event>
12    1  0.1599266E-007  0.1886144E+04  0.7818608E-02  0.8661784E-01
          2   -1    0    0  501    0  0.00000000000E+00  0.00000000000E+00  0.76682783789E+03  0.76682783789E+03  0.00000000000E+00 0. -1.
         -2   -1    0    0    0  501 -0.00000000000E+00 -0.00000000000E+00 -0.11598236161E+04  0.11598236161E+04  0.00000000000E+00 0.  1.
         23    2    1    2    0    0  0.23099746810E+03 -0.88716224910E+01  0.51511304473E+03  0.57205661058E+03  0.92025979493E+02 0.  0.
        254    2    1    2    0    0 -0.23099746810E+03  0.88716224910E+01 -0.90810882296E+03  0.13545948434E+04  0.97817535214E+03 0.  0.
        -24    2    4    4    0    0  0.72781970576E+02 -0.43441482786E+03 -0.52566394472E+03  0.69006181610E+03  0.76480516195E+02 0.  0.
         24    2    4    4    0    0 -0.30377943868E+03  0.44328645035E+03 -0.38244487824E+03  0.66453302732E+03  0.80964406291E+02 0.  0.
         13    1    3    3    0    0  0.16070994069E+03 -0.40518604397E+02  0.40540448307E+03  0.43797515595E+03  0.00000000000E+00 0. -1.
        -13    1    3    3    0    0  0.70287527412E+02  0.31646981906E+02  0.10970856167E+03  0.13408145463E+03  0.00000000000E+00 0.  1.
          2    1    6    6  502    0 -0.43068884350E+01  0.51598226883E+01  0.42003223613E+01  0.79256397915E+01  0.00000000000E+00 0. -1.
          1    1    5    5  503    0 -0.83683511948E+01 -0.13734048671E+03 -0.13684711725E+03  0.19406074330E+03  0.00000000000E+00 0. -1.
         -2    1    5    5    0  503  0.81150321771E+02 -0.29707434114E+03 -0.38881682748E+03  0.49600107280E+03  0.00000000000E+00 0.  1.
         -1    1    6    6    0  502 -0.29947255024E+03  0.43812662766E+03 -0.38664520060E+03  0.65660738753E+03  0.00000000000E+00 0.  1.
<mgrwt>
<rscale>  0 0.18861443E+04</rscale>
<asrwt>0</asrwt>
<pdfrwt beam="1">  1        2 0.11797351E+00 0.18861443E+04</pdfrwt>
<pdfrwt beam="2">  1       -2 0.17843440E+00 0.18861443E+04</pdfrwt>
<totfact> 0.63465453E+00</totfact>
</mgrwt>
</event>
<event>
12    1  0.1599266E-007  0.1570944E+04  0.7818608E-02  0.8838600E-01
          1   -1    0    0  501    0  0.00000000000E+00  0.00000000000E+00  0.30831482485E+04  0.30831482485E+04  0.00000000000E+00 0. -1.
         -1   -1    0    0    0  501 -0.00000000000E+00 -0.00000000000E+00 -0.20010918948E+03  0.20010918948E+03  0.00000000000E+00 0.  1.
         23    2    1    2    0    0 -0.42569782164E+02  0.19967711032E+03 -0.31703085416E+02  0.22519999126E+03  0.89592498011E+02 0.  0.
        254    2    1    2    0    0  0.42569782164E+02 -0.19967711032E+03  0.29147421445E+04  0.30580574468E+04  0.90239151378E+03 0.  0.
        -24    2    4    4    0    0 -0.38820435297E+03  0.49320787146E+02  0.95760730670E+03  0.10372684961E+04  0.76019862795E+02 0.  0.
         24    2    4    4    0    0  0.43077413513E+03 -0.24899789747E+03  0.19571348378E+04  0.20207889506E+04  0.75132557797E+02 0.  0.
         11    1    3    3    0    0 -0.21081535032E+02  0.18389610839E+03 -0.51339566702E+02  0.19208841951E+03  0.00000000000E+00 0.  1.
        -11    1    3    3    0    0 -0.21488247132E+02  0.15781001934E+02  0.19636481286E+02  0.33111571756E+02  0.00000000000E+00 0. -1.
          4    1    6    6  502    0  0.37500356936E+03 -0.24318097249E+03  0.17553303826E+04  0.18113391219E+04  0.00000000000E+00 0. -1.
          3    1    5    5  503    0 -0.85389949394E+02  0.20058875084E+02  0.14361499750E+03  0.16828270687E+03  0.00000000000E+00 0. -1.
         -4    1    5    5    0  503 -0.30281440357E+03  0.29261912062E+02  0.81399230920E+03  0.86898578927E+03  0.00000000000E+00 0.  1.
         -3    1    6    6    0  502  0.55770565768E+02 -0.58169249752E+01  0.20180445513E+03  0.20944982868E+03  0.00000000000E+00 0.  1.
<mgrwt>
<rscale>  0 0.15709440E+04</rscale>
<asrwt>0</asrwt>
<pdfrwt beam="1">  1        1 0.47433047E+00 0.15709440E+04</pdfrwt>
<pdfrwt beam="2">  1       -1 0.30786031E-01 0.15709440E+04</pdfrwt>
<totfact> 0.48993427E+00</totfact>
</mgrwt>
</event>
<event>
12    1  0.1599266E-007  0.1847936E+04  0.7818608E-02  0.8681215E-01
         -2   -1    0    0    0  501 -0.00000000000E+00  0.00000000000E+00  0.22355733852E+03  0.22355733852E+03  0.00000000000E+00 0.  1.
          2   -1    0    0  501    0  0.00000000000E+00 -0.00000000000E+00 -0.38187828165E+04  0.38187828165E+04  0.00000000000E+00 0. -1.
         23    2    1    2    0    0 -0.56981628909E+03 -0.29480226951E+03 -0.74343133603E+03  0.98567852647E+03  0.85282030488E+02 0.  0.
        254    2    1    2    0    0  0.56981628909E+03  0.29480226951E+03 -0.28517941420E+04  0.30566616286E+04  0.89378493051E+03 0.  0.
        -24    2    4    4    0    0  0.41305667256E+03 -0.40789102568E+02 -0.25157383792E+04  0.25510042423E+04  0.80021784837E+02 0.  0.
         24    2    4    4    0    0  0.15675961652E+03  0.33559137208E+03 -0.33605576278E+03  0.50565738628E+03  0.74570572034E+02 0.  0.
         11    1    3    3    0    0 -0.44146831903E+03 -0.22798723607E+03 -0.51773211611E+03  0.71757856753E+03  0.00000000000E+00 0.  1.
        -11    1    3    3    0    0 -0.12834797006E+03 -0.66815033442E+02 -0.22569921992E+03  0.26809995894E+03  0.00000000000E+00 0. -1.
          2    1    6    6  502    0  0.12000536674E+03  0.24894105357E+03 -0.20401811340E+03  0.34350593414E+03  0.00000000000E+00 0. -1.
          1    1    5    5  503    0  0.31498647714E+03 -0.33193835418E+02 -0.21023258627E+04  0.21260508800E+04  0.00000000000E+00 0. -1.
         -2    1    5    5    0  503  0.98070195420E+02 -0.75952671500E+01 -0.41341251653E+03  0.42495336230E+03  0.00000000000E+00 0.  1.
         -1    1    6    6    0  502  0.36754249788E+02  0.86650318513E+02 -0.13203764938E+03  0.16215145213E+03  0.00000000000E+00 0.  1.
<mgrwt>
<rscale>  0 0.18479361E+04</rscale>
<asrwt>0</asrwt>
<pdfrwt beam="1">  1        2 0.58750508E+00 0.18479361E+04</pdfrwt>
<pdfrwt beam="2">  1       -2 0.34393435E-01 0.18479361E+04</pdfrwt>
<totfact> 0.35794442E+00</totfact>
</mgrwt>
</event>
<event>
12    1  0.1599266E-007  0.1297999E+04  0.7818608E-02  0.9031153E-01
         -2   -1    0    0    0  501 -0.00000000000E+00  0.00000000000E+00  0.40104470269E+03  0.40104470269E+03  0.00000000000E+00 0.  1.
          2   -1    0    0  501    0  0.00000000000E+00 -0.00000000000E+00 -0.10502583068E+04  0.10502583068E+04  0.00000000000E+00 0. -1.
         23    2    1    2    0    0  0.15624460445E+03  0.23124198137E+03  0.12491572388E+02  0.30236073934E+03  0.11567517862E+03 0.  0.
        254    2    1    2    0    0 -0.15624460445E+03 -0.23124198137E+03 -0.66170517646E+03  0.11489422701E+04  0.89684411640E+03 0.  0.
        -24    2    4    4    0    0  0.31863782976E+03  0.84607614216E+02 -0.37494681489E+03  0.50570207062E+03  0.80380067825E+02 0.  0.
         24    2    4    4    0    0 -0.47488243420E+03 -0.31584959558E+03 -0.28675836157E+03  0.64324019948E+03  0.79077828453E+02 0.  0.
         13    1    3    3    0    0  0.15919256791E+03  0.15631297384E+03 -0.12130328385E+02  0.22343492192E+03  0.00000000000E+00 0.  1.
        -13    1    3    3    0    0 -0.29479634595E+01  0.74929007527E+02  0.24621900774E+02  0.78925817419E+02  0.00000000000E+00 0. -1.
          2    1    6    6  502    0 -0.28571964662E+02 -0.42786473585E+02 -0.14647645988E+02  0.53493859642E+02  0.00000000000E+00 0. -1.
          3    1    5    5  503    0  0.52164599778E+02 -0.26634053767E+01 -0.26888937159E+02  0.58747375599E+02  0.00000000000E+00 0. -1.
         -4    1    5    5    0  503  0.26647322998E+03  0.87271019593E+02 -0.34805787773E+03  0.44695469502E+03  0.00000000000E+00 0.  1.
         -1    1    6    6    0  502 -0.44631046954E+03 -0.27306312200E+03 -0.27211071558E+03  0.58974633984E+03  0.00000000000E+00 0.  1.
<mgrwt>
<rscale>  0 0.12979993E+04</rscale>
<asrwt>0</asrwt>
<pdfrwt beam="1">  1        2 0.16157820E+00 0.12979993E+04</pdfrwt>
<pdfrwt beam="2">  1       -2 0.61699185E-01 0.12979993E+04</pdfrwt>
<totfact> 0.55996264E+01</totfact>
</mgrwt>
</event>
<event>
12    1  0.1599266E-007  0.1464590E+04  0.7818608E-02  0.8908348E-01
         -1   -1    0    0    0  501 -0.00000000000E+00  0.00000000000E+00  0.15972924319E+04  0.15972924319E+04  0.00000000000E+00 0.  1.
          1   -1    0    0  501    0  0.00000000000E+00 -0.00000000000E+00 -0.33572807553E+03  0.33572807553E+03  0.00000000000E+00 0. -1.
         23    2    1    2    0    0 -0.23109933567E+03  0.18297017229E+03 -0.47053311662E+02  0.31563202490E+03  0.10258934695E+03 0.  0.
        254    2    1    2    0    0  0.23109933567E+03 -0.18297017229E+03  0.13086176680E+04  0.16173884825E+04  0.90364833615E+03 0.  0.
        -24    2    4    4    0    0 -0.23590630379E+03 -0.36571862745E+03  0.63385361154E+03  0.77289470525E+03  0.78701498808E+02 0.  0.
         24    2    4    4    0    0  0.46700563946E+03  0.18274845516E+03  0.67476405650E+03  0.84449377728E+03  0.79824449719E+02 0.  0.
         11    1    3    3    0    0 -0.15086445305E+03  0.16829302689E+03 -0.57990766513E+02  0.23333571329E+03  0.00000000000E+00 0. -1.
        -11    1    3    3    0    0 -0.80234882620E+02  0.14677145397E+02  0.10937454851E+02  0.82296311610E+02  0.00000000000E+00 0.  1.
          2    1    6    6  502    0  0.35258366090E+03  0.10279914186E+03  0.51146875718E+03  0.62966911237E+03  0.00000000000E+00 0. -1.
          1    1    5    5  503    0 -0.13860661502E+03 -0.14530050780E+03  0.26963227373E+03  0.33619279339E+03  0.00000000000E+00 0. -1.
         -2    1    5    5    0  503 -0.97299688769E+02 -0.22041811964E+03  0.36422133781E+03  0.43670191185E+03  0.00000000000E+00 0.  1.
         -1    1    6    6    0  502  0.11442197856E+03  0.79949313299E+02  0.16329529932E+03  0.21482466491E+03  0.00000000000E+00 0.  1.
<mgrwt>
<rscale>  0 0.14645899E+04</rscale>
<asrwt>0</asrwt>
<pdfrwt beam="1">  1        1 0.51650474E-01 0.14645899E+04</pdfrwt>
<pdfrwt beam="2">  1       -1 0.24573729E+00 0.14645899E+04</pdfrwt>
<totfact> 0.54597048E+00</totfact>
</mgrwt>
</event>
<event>
12    1  0.1599266E-007  0.1311189E+04  0.7818608E-02  0.9020739E-01
          1   -1    0    0  501    0  0.00000000000E+00  0.00000000000E+00  0.29048188292E+04  0.29048188292E+04  0.00000000000E+00 0. -1.
         -1   -1    0    0    0  501 -0.00000000000E+00 -0.00000000000E+00 -0.14796236178E+03  0.14796236178E+03  0.00000000000E+00 0.  1.
         23    2    1    2    0    0  0.12592484597E+03  0.10902297738E+03  0.14239728816E+04  0.14366110834E+04  0.91703659637E+02 0.  0.
        254    2    1    2    0    0 -0.12592484597E+03 -0.10902297738E+03  0.13328835858E+04  0.16161701075E+04  0.89871246051E+03 0.  0.
        -24    2    4    4    0    0 -0.22941703493E+03  0.27035424529E+03  0.19845112583E+03  0.41297700383E+03  0.73780502087E+02 0.  0.
         24    2    4    4    0    0  0.10349218896E+03 -0.37937722267E+03  0.11344324600E+04  0.12031931037E+04  0.78095635144E+02 0.  0.
         13    1    3    3    0    0  0.82361485540E+02  0.20207294337E+02  0.47646642633E+03  0.48395454793E+03  0.00000000000E+00 0.  1.
        -13    1    3    3    0    0  0.43563360426E+02  0.88815683043E+02  0.94750645524E+03  0.95265653551E+03  0.00000000000E+00 0. -1.
          2    1    6    6  502    0  0.87607839252E+02 -0.20987157996E+03  0.72309732318E+03  0.75801777839E+03  0.00000000000E+00 0. -1.
          1    1    5    5  503    0 -0.20629668563E+03  0.24994977933E+03  0.20207837734E+03  0.38192785350E+03  0.00000000000E+00 0. -1.
         -2    1    5    5    0  503 -0.23120349302E+02  0.20404465957E+02 -0.36272515112E+01  0.31049150332E+02  0.00000000000E+00 0.  1.
         -3    1    6    6    0  502  0.15884349708E+02 -0.16950564271E+03  0.41133513683E+03  0.44517532532E+03  0.00000000000E+00 0.  1.
<mgrwt>
<rscale>  0 0.13111886E+04</rscale>
<asrwt>0</asrwt>
<pdfrwt beam="1">  1        1 0.44689516E+00 0.13111886E+04</pdfrwt>
<pdfrwt beam="2">  1       -1 0.22763442E-01 0.13111886E+04</pdfrwt>
<totfact> 0.11409595E+01</totfact>
</mgrwt>
</event>
<event>
12    1  0.1599266E-007  0.1342530E+04  0.7818608E-02  0.8996502E-01
         -1   -1    0    0    0  501 -0.00000000000E+00  0.00000000000E+00  0.34753670101E+03  0.34753670101E+03  0.00000000000E+00 0.  1.
          1   -1    0    0  501    0  0.00000000000E+00 -0.00000000000E+00 -0.12965451825E+04  0.12965451825E+04  0.00000000000E+00 0. -1.
         23    2    1    2    0    0 -0.12187227842E+03  0.31247933217E+03 -0.92197874697E+02  0.35939085241E+03  0.90361227369E+02 0.  0.
        254    2    1    2    0    0  0.12187227842E+03 -0.31247933217E+03 -0.85681060677E+03  0.12846910311E+04  0.89655476362E+03 0.  0.
        -24    2    4    4    0    0  0.47280577429E+02  0.31158734546E+03 -0.30431732296E+03  0.44398713667E+03  0.72065370516E+02 0.  0.
         24    2    4    4    0    0  0.74591700994E+02 -0.62406667763E+03 -0.55249328381E+03  0.84070389440E+03  0.80691197887E+02 0.  0.
         13    1    3    3    0    0  0.42945344337E+01  0.21054103686E+02 -0.28181619513E+02  0.35438989636E+02  0.00000000000E+00 0. -1.
        -13    1    3    3    0    0 -0.12616681286E+03  0.29142522849E+03 -0.64016255184E+02  0.32395186277E+03  0.00000000000E+00 0.  1.
          2    1    6    6  502    0  0.60516402297E+02 -0.54847664796E+03 -0.44686501192E+03  0.71005436917E+03  0.00000000000E+00 0. -1.
          3    1    5    5  503    0  0.75351365270E+01  0.21802372221E+03 -0.23669821948E+03  0.32189620817E+03  0.00000000000E+00 0. -1.
         -4    1    5    5    0  503  0.39745440902E+02  0.93563623244E+02 -0.67619103476E+02  0.12209092850E+03  0.00000000000E+00 0.  1.
         -1    1    6    6    0  502  0.14075298698E+02 -0.75590029670E+02 -0.10562827189E+03  0.13064952523E+03  0.00000000000E+00 0.  1.
<mgrwt>
<rscale>  0 0.13425305E+04</rscale>
<asrwt>0</asrwt>
<pdfrwt beam="1">  1        1 0.19946849E+00 0.13425305E+04</pdfrwt>
<pdfrwt beam="2">  1       -1 0.53467184E-01 0.13425305E+04</pdfrwt>
<totfact> 0.31439842E+01</totfact>
</mgrwt>
</event>
<event>
12    1  0.1599266E-007  0.1455610E+04  0.7818608E-02  0.8914520E-01
         -2   -1    0    0    0  501 -0.00000000000E+00  0.00000000000E+00  0.14129821676E+04  0.14129821676E+04  0.00000000000E+00 0.  1.
          2   -1    0    0  501    0  0.00000000000E+00 -0.00000000000E+00 -0.37488112909E+03  0.37488112909E+03  0.00000000000E+00 0. -1.
         23    2    1    2    0    0 -0.13693141120E+02 -0.43972183226E+03  0.42562357095E+03  0.61913995586E+03  0.92930452073E+02 0.  0.
        254    2    1    2    0    0  0.13693141120E+02  0.43972183226E+03  0.61247746754E+03  0.11687233408E+04  0.89288454306E+03 0.  0.
        -24    2    4    4    0    0  0.38709656469E+03  0.30371054234E+03  0.57579811976E+03  0.76174861710E+03  0.81447142492E+02 0.  0.
         24    2    4    4    0    0 -0.37340342357E+03  0.13601128992E+03  0.36679347785E+02  0.40697472371E+03  0.79711125090E+02 0.  0.
         11    1    3    3    0    0 -0.18424206029E+00 -0.40771866449E+03  0.35573018935E+03  0.54109011350E+03  0.00000000000E+00 0.  1.
        -11    1    3    3    0    0 -0.13508899059E+02 -0.32003167769E+02  0.69893381597E+02  0.78049842358E+02  0.00000000000E+00 0. -1.
          2    1    6    6  502    0 -0.18755787742E+03  0.49174986291E+02 -0.17854915109E+02  0.19471757664E+03  0.00000000000E+00 0. -1.
          3    1    5    5  503    0  0.26050307887E+03  0.24837729954E+03  0.39872352824E+03  0.53715322674E+03  0.00000000000E+00 0. -1.
         -4    1    5    5    0  503  0.12659348582E+03  0.55333242802E+02  0.17707459152E+03  0.22459539036E+03  0.00000000000E+00 0.  1.
         -1    1    6    6    0  502 -0.18584554615E+03  0.86836303630E+02  0.54534262893E+02  0.21225714707E+03  0.00000000000E+00 0.  1.
<mgrwt>
<rscale>  0 0.14556103E+04</rscale>
<asrwt>0</asrwt>
<pdfrwt beam="1">  1        2 0.57674021E-01 0.14556103E+04</pdfrwt>
<pdfrwt beam="2">  1       -2 0.21738187E+00 0.14556103E+04</pdfrwt>
<totfact> 0.85113528E+00</totfact>
</mgrwt>
</event>
<event>
12    1  0.1599266E-007  0.1373747E+04  0.7818608E-02  0.8973044E-01
         -2   -1    0    0    0  501 -0.00000000000E+00  0.00000000000E+00  0.73192439148E+03  0.73192439148E+03  0.00000000000E+00 0.  1.
          2   -1    0    0  501    0  0.00000000000E+00 -0.00000000000E+00 -0.64459600199E+03  0.64459600199E+03  0.00000000000E+00 0. -1.
         23    2    1    2    0    0  0.17917755489E+03 -0.27470886813E+03  0.23397451432E+03  0.41214820374E+03  0.86905178735E+02 0.  0.
        254    2    1    2    0    0 -0.17917755489E+03  0.27470886813E+03 -0.14664612483E+03  0.96437218972E+03  0.89495199646E+03 0.  0.
        -24    2    4    4    0    0 -0.31118432213E+03  0.26118261001E+03  0.28693332367E+03  0.50419681154E+03  0.82653822752E+02 0.  0.
         24    2    4    4    0    0  0.13200676724E+03  0.13526258122E+02 -0.43357944850E+03  0.46017537819E+03  0.78495186281E+02 0.  0.
         13    1    3    3    0    0  0.13037904465E+03 -0.13657118794E+03  0.10017978665E+03  0.21374371175E+03  0.00000000000E+00 0. -1.
        -13    1    3    3    0    0  0.48798510237E+02 -0.13813768020E+03  0.13379472767E+03  0.19840449200E+03  0.00000000000E+00 0.  1.
          2    1    6    6  502    0  0.14065039912E+03  0.13528737454E+02 -0.37091300637E+03  0.39691563311E+03  0.00000000000E+00 0. -1.
          1    1    5    5  503    0 -0.26671479599E+03  0.24121791507E+03  0.27822864477E+03  0.45468015541E+03  0.00000000000E+00 0. -1.
         -2    1    5    5    0  503 -0.44469526138E+02  0.19964694943E+02  0.87046789016E+01  0.49516656126E+02  0.00000000000E+00 0.  1.
         -1    1    6    6    0  502 -0.86436318776E+01 -0.24793326339E-02 -0.62666442127E+02  0.63259745076E+02  0.00000000000E+00 0.  1.
<mgrwt>
<rscale>  0 0.13737475E+04</rscale>
<asrwt>0</asrwt>
<pdfrwt beam="1">  1        2 0.99168616E-01 0.13737475E+04</pdfrwt>
<pdfrwt beam="2">  1       -2 0.11260375E+00 0.13737475E+04</pdfrwt>
<totfact> 0.27497734E+01</totfact>
</mgrwt>
</event>
<event>
12    1  0.1599266E-007  0.1656944E+04  0.7818608E-02  0.8786309E-01
         -1   -1    0    0    0  501 -0.00000000000E+00  0.00000000000E+00  0.37179908588E+03  0.37179908588E+03  0.00000000000E+00 0.  1.
          1   -1    0    0  501    0  0.00000000000E+00 -0.00000000000E+00 -0.18460670994E+04  0.18460670994E+04  0.00000000000E+00 0. -1.
         23    2    1    2    0    0  0.34862997500E+03 -0.48951243927E+03 -0.52790706739E+03  0.80556523044E+03  0.95310970160E+02 0.  0.
        254    2    1    2    0    0 -0.34862997500E+03  0.48951243927E+03 -0.94636094609E+03  0.14123009548E+04  0.85897011529E+03 0.  0.
        -24    2    4    4    0    0 -0.20886149392E+03  0.71602387397E+03 -0.55955903598E+03  0.93574331170E+03  0.78714159491E+02 0.  0.
         24    2    4    4    0    0 -0.13976848108E+03 -0.22651143470E+03 -0.38680191010E+03  0.47655764309E+03  0.81540242660E+02 0.  0.
         13    1    3    3    0    0  0.59189410319E+01 -0.53862836447E+02 -0.47327683147E+02  0.71945455764E+02  0.00000000000E+00 0. -1.
        -13    1    3    3    0    0  0.34271103396E+03 -0.43564960282E+03 -0.48057938424E+03  0.73361977468E+03  0.00000000000E+00 0.  1.
          2    1    6    6  502    0 -0.12246266486E+03 -0.15187114471E+03 -0.22686700988E+03  0.29921662562E+03  0.00000000000E+00 0. -1.
          3    1    5    5  503    0 -0.36414640530E+02  0.17180198709E+03 -0.17137122689E+03  0.24537735474E+03  0.00000000000E+00 0. -1.
         -4    1    5    5    0  503 -0.17244685339E+03  0.54422188688E+03 -0.38818780909E+03  0.69036595696E+03  0.00000000000E+00 0.  1.
         -1    1    6    6    0  502 -0.17305816224E+02 -0.74640289995E+02 -0.15993490023E+03  0.17734101747E+03  0.00000000000E+00 0.  1.
<mgrwt>
<rscale>  0 0.16569442E+04</rscale>
<asrwt>0</asrwt>
<pdfrwt beam="1">  1        1 0.28401032E+00 0.16569442E+04</pdfrwt>
<pdfrwt beam="2">  1       -1 0.57199860E-01 0.16569442E+04</pdfrwt>
<totfact> 0.11205442E+01</totfact>
</mgrwt>
</event>
<event>
12    1  0.1658528E-007  0.2165778E+04  0.7818608E-02  0.8532809E-01
          1   -1    0    0  501    0  0.00000000000E+00  0.00000000000E+00  0.16006496059E+04  0.16006496059E+04  0.00000000000E+00 0. -1.
         -1   -1    0    0    0  501 -0.00000000000E+00 -0.00000000000E+00 -0.73260764841E+03  0.73260764841E+03  0.00000000000E+00 0.  1.
         23    2    1    2    0    0 -0.61084443646E+03 -0.70219864284E+02 -0.35105751057E+03  0.71370412368E+03  0.89835658506E+02 0.  0.
        254    2    1    2    0    0  0.61084443646E+03  0.70219864284E+02  0.12190994680E+04  0.16195531306E+04  0.87102644908E+03 0.  0.
        -24    2    4    4    0    0  0.45173996315E+03  0.12605328125E+03  0.10170939988E+03  0.48669938284E+03  0.81074430105E+02 0.  0.
         24    2    4    4    0    0  0.15910447331E+03 -0.55833416969E+02  0.11173900682E+04  0.11328537478E+04  0.79783742269E+02 0.  0.
         13    1    3    3    0    0 -0.52979704133E+03 -0.54509003251E+02 -0.26657593034E+03  0.59558279280E+03  0.00000000000E+00 0.  1.
        -13    1    3    3    0    0 -0.81047395125E+02 -0.15710861033E+02 -0.84481580236E+02  0.11812133088E+03  0.00000000000E+00 0. -1.
          4    1    6    6  502    0  0.19060929165E+02 -0.11377437784E+02  0.39766055595E+03  0.39827965410E+03  0.00000000000E+00 0. -1.
          1    1    5    5  503    0  0.89283581837E+02  0.31913989751E+02  0.54204385539E+02  0.10921618991E+03  0.00000000000E+00 0. -1.
         -2    1    5    5    0  503  0.36245638131E+03  0.94139291502E+02  0.47505014341E+02  0.37748319293E+03  0.00000000000E+00 0.  1.
         -3    1    6    6    0  502  0.14004354414E+03 -0.44455979185E+02  0.71972951221E+03  0.73457409367E+03  0.00000000000E+00 0.  1.
<mgrwt>
<rscale>  0 0.21657776E+04</rscale>
<asrwt>0</asrwt>
<pdfrwt beam="1">  1        1 0.24625379E+00 0.21657776E+04</pdfrwt>
<pdfrwt beam="2">  1       -1 0.11270887E+00 0.21657776E+04</pdfrwt>
<totfact> 0.36714604E+00</totfact>
</mgrwt>
</event>
<event>
12    1  0.2024995E-007  0.2361134E+04  0.7818608E-02  0.8454199E-01
          1   -1    0    0  501    0  0.00000000000E+00  0.00000000000E+00  0.12264663314E+04  0.12264663314E+04  0.00000000000E+00 0. -1.
         -1   -1    0    0    0  501 -0.00000000000E+00 -0.00000000000E+00 -0.11363853673E+04  0.11363853673E+04  0.00000000000E+00 0.  1.
         23    2    1    2    0    0  0.62794646690E+03 -0.66695837977E+03 -0.36100925367E+03  0.98902992609E+03  0.93285946606E+02 0.  0.
        254    2    1    2    0    0 -0.62794646690E+03  0.66695837977E+03  0.45109021780E+03  0.13738217726E+04  0.91910479957E+03 0.  0.
        -24    2    4    4    0    0 -0.57469503302E+03  0.55763697853E+03  0.71238781923E+03  0.10747381424E+04  0.79575680858E+02 0.  0.
         24    2    4    4    0    0 -0.53251433875E+02  0.10932140124E+03 -0.26129760143E+03  0.29908363016E+03  0.79923071383E+02 0.  0.
         11    1    3    3    0    0  0.61117903664E+03 -0.65118646627E+03 -0.36651938468E+03  0.96536008206E+03  0.00000000000E+00 0.  1.
        -11    1    3    3    0    0  0.16767430255E+02 -0.15771913499E+02  0.55101310102E+01  0.23669844032E+02  0.00000000000E+00 0. -1.
          2    1    6    6  502    0 -0.52963352865E+02  0.10257953853E+03 -0.26658648337E+03  0.29050995093E+03  0.00000000000E+00 0. -1.
          1    1    5    5  503    0 -0.48997916800E+03  0.44226820565E+03  0.60988576668E+03  0.89868871096E+03  0.00000000000E+00 0. -1.
         -2    1    5    5    0  503 -0.84715865022E+02  0.11536877287E+03  0.10250205255E+03  0.17604943146E+03  0.00000000000E+00 0.  1.
         -1    1    6    6    0  502 -0.28808101078E+00  0.67418627109E+01  0.52888819398E+01  0.85736792367E+01  0.00000000000E+00 0.  1.
<mgrwt>
<rscale>  0 0.23611340E+04</rscale>
<asrwt>0</asrwt>
<pdfrwt beam="1">  1        1 0.18868713E+00 0.23611340E+04</pdfrwt>
<pdfrwt beam="2">  1       -1 0.17482852E+00 0.23611340E+04</pdfrwt>
<totfact> 0.20847468E+00</totfact>
</mgrwt>
</event>
<event>
12    1  0.1599266E-007  0.1426375E+04  0.7818608E-02  0.8934945E-01
          2   -1    0    0  501    0  0.00000000000E+00  0.00000000000E+00  0.30867771476E+03  0.30867771476E+03  0.00000000000E+00 0.  1.
         -2   -1    0    0    0  501 -0.00000000000E+00 -0.00000000000E+00 -0.16477919706E+04  0.16477919706E+04  0.00000000000E+00 0. -1.
         23    2    1    2    0    0 -0.11677083168E+03  0.30169971310E+03 -0.47594353640E+02  0.33980371835E+03  0.92429435189E+02 0.  0.
        254    2    1    2    0    0  0.11677083168E+03 -0.30169971310E+03 -0.12915199022E+04  0.16166659670E+04  0.91702074518E+03 0.  0.
        -24    2    4    4    0    0 -0.33733106092E+03 -0.84355074412E+02 -0.19326606043E+03  0.40585515126E+03  0.80365480466E+02 0.  0.
         24    2    4    4    0    0  0.45410189260E+03 -0.21734463869E+03 -0.10982538418E+04  0.12108108158E+04  0.80337474102E+02 0.  0.
         13    1    3    3    0    0 -0.15304971593E+02  0.16274996730E+03 -0.10553543579E+02  0.16380833707E+03  0.00000000000E+00 0.  1.
        -13    1    3    3    0    0 -0.10146586009E+03  0.13894974580E+03 -0.37040810060E+02  0.17599538128E+03  0.00000000000E+00 0. -1.
          2    1    6    6  502    0  0.16502463914E+03 -0.98330321639E+02 -0.33770509868E+03  0.38851861905E+03  0.00000000000E+00 0. -1.
          3    1    5    5  503    0 -0.68524686759E+01 -0.14861076414E+02  0.75371977483E+00  0.16382185832E+02  0.00000000000E+00 0. -1.
         -4    1    5    5    0  503 -0.33047859224E+03 -0.69493997998E+02 -0.19401978020E+03  0.38947296542E+03  0.00000000000E+00 0.  1.
         -1    1    6    6    0  502  0.28907725346E+03 -0.11901431705E+03 -0.76054874312E+03  0.82229219672E+03  0.00000000000E+00 0.  1.
<mgrwt>
<rscale>  0 0.14263754E+04</rscale>
<asrwt>0</asrwt>
<pdfrwt beam="1">  1        2 0.47488879E-01 0.14263754E+04</pdfrwt>
<pdfrwt beam="2">  1       -2 0.25350646E+00 0.14263754E+04</pdfrwt>
<totfact> 0.63251079E+00</totfact>
</mgrwt>
</event>
<event>
12    1  0.1599266E-007  0.3092849E+04  0.7818608E-02  0.8217703E-01
         -2   -1    0    0    0  501 -0.00000000000E+00  0.00000000000E+00  0.17273981058E+04  0.17273981058E+04  0.00000000000E+00 0.  1.
          2   -1    0    0  501    0  0.00000000000E+00 -0.00000000000E+00 -0.13844113011E+04  0.13844113011E+04  0.00000000000E+00 0. -1.
         23    2    1    2    0    0 -0.51198547608E+03 -0.33025621222E+03  0.14365512245E+04  0.15628090149E+04  0.86569642146E+02 0.  0.
        254    2    1    2    0    0  0.51198547608E+03  0.33025621222E+03 -0.10935644197E+04  0.15490003920E+04  0.91231616282E+03 0.  0.
        -24    2    4    4    0    0 -0.15775056132E+03 -0.81490211957E+02  0.62760114309E+01  0.19480622907E+03  0.79901090870E+02 0.  0.
         24    2    4    4    0    0  0.66973603740E+03  0.41174642418E+03 -0.10998404312E+04  0.13541941630E+04  0.78175311543E+02 0.  0.
         13    1    3    3    0    0 -0.33617502891E+03 -0.21861328683E+03  0.83668530254E+03  0.92781879412E+03  0.00000000000E+00 0.  1.
        -13    1    3    3    0    0 -0.17581044717E+03 -0.11164292539E+03  0.59986592197E+03  0.63499022076E+03  0.00000000000E+00 0. -1.
          2    1    6    6  502    0  0.53817049290E+03  0.32723208638E+03 -0.82451170367E+03  0.10375586091E+04  0.00000000000E+00 0. -1.
          1    1    5    5  503    0 -0.10295198369E+03 -0.24442347653E+02 -0.26659178070E+02  0.10912035135E+03  0.00000000000E+00 0. -1.
         -2    1    5    5    0  503 -0.54798577633E+02 -0.57047864304E+02  0.32935189501E+02  0.85685877715E+02  0.00000000000E+00 0.  1.
         -1    1    6    6    0  502  0.13156554450E+03  0.84514337795E+02 -0.27532872750E+03  0.31663555388E+03  0.00000000000E+00 0.  1.
<mgrwt>
<rscale>  0 0.30928495E+04</rscale>
<asrwt>0</asrwt>
<pdfrwt beam="1">  1        2 0.21298635E+00 0.30928495E+04</pdfrwt>
<pdfrwt beam="2">  1       -2 0.26575355E+00 0.30928495E+04</pdfrwt>
<totfact> 0.64565151E-01</totfact>
</mgrwt>
</event>
<event>
12    1  0.1599266E-007  0.3770001E+04  0.7818608E-02  0.8052623E-01
         -2   -1    0    0    0  501 -0.00000000000E+00  0.00000000000E+00  0.21163038432E+04  0.21163038432E+04  0.00000000000E+00 0. -1.
          2   -1    0    0  501    0  0.00000000000E+00 -0.00000000000E+00 -0.16789777739E+04  0.16789777739E+04  0.00000000000E+00 0.  1.
         23    2    1    2    0    0 -0.10073667239E+04  0.14331815435E+04 -0.99076294951E+02  0.17572345619E+04  0.96229622248E+02 0.  0.
        254    2    1    2    0    0  0.10073667239E+04 -0.14331815435E+04  0.53640236423E+03  0.20380470552E+04  0.89281087019E+03 0.  0.
        -24    2    4    4    0    0  0.95269767625E+02 -0.17685387251E+03  0.42827627534E+03  0.47973274915E+03  0.79808030603E+02 0.  0.
         24    2    4    4    0    0  0.91209695631E+03 -0.12563276710E+04  0.10812608890E+03  0.15583143061E+04  0.79825753272E+02 0.  0.
         13    1    3    3    0    0 -0.38747901285E+02  0.48482514920E+02 -0.21199627967E+02  0.65584894090E+02  0.00000000000E+00 0. -1.
        -13    1    3    3    0    0 -0.96861882265E+03  0.13846990285E+04 -0.77876666984E+02  0.16916496678E+04  0.00000000000E+00 0.  1.
          4    1    6    6  502    0  0.88117157305E+03 -0.12342154647E+04  0.10358645586E+03  0.15200267459E+04  0.00000000000E+00 0. -1.
          1    1    5    5  503    0  0.99364382170E+02 -0.13471584014E+03  0.38168482976E+03  0.41677925488E+03  0.00000000000E+00 0. -1.
         -2    1    5    5    0  503 -0.40946145447E+01 -0.42138032372E+02  0.46591445577E+02  0.62953494275E+02  0.00000000000E+00 0.  1.
         -3    1    6    6    0  502  0.30925383257E+02 -0.22112206288E+02  0.45396330371E+01  0.38287560181E+02  0.00000000000E+00 0.  1.
<mgrwt>
<rscale>  0 0.37700011E+04</rscale>
<asrwt>0</asrwt>
<pdfrwt beam="1">  1        2 0.25830427E+00 0.37700011E+04</pdfrwt>
<pdfrwt beam="2">  1       -2 0.32558521E+00 0.37700011E+04</pdfrwt>
<totfact> 0.17902715E-01</totfact>
</mgrwt>
</event>
<event>
12    1  0.1599266E-007  0.1347774E+04  0.7818608E-02  0.8992515E-01
          1   -1    0    0  501    0  0.00000000000E+00  0.00000000000E+00  0.20793887718E+04  0.20793887718E+04  0.00000000000E+00 0. -1.
         -1   -1    0    0    0  501 -0.00000000000E+00 -0.00000000000E+00 -0.21839296416E+03  0.21839296416E+03  0.00000000000E+00 0.  1.
         23    2    1    2    0    0  0.28987612286E+03 -0.22109052276E+03  0.43868446561E+03  0.57761788418E+03  0.91044900468E+02 0.  0.
        254    2    1    2    0    0 -0.28987612286E+03  0.22109052276E+03  0.14223113421E+04  0.17201638518E+04  0.89615006415E+03 0.  0.
        -24    2    4    4    0    0 -0.60740329093E+03  0.14058279966E+03  0.93497084827E+03  0.11266228199E+04  0.80038802420E+02 0.  0.
         24    2    4    4    0    0  0.31752716806E+03  0.80507723102E+02  0.48734049379E+03  0.59354103188E+03  0.86517071743E+02 0.  0.
         11    1    3    3    0    0  0.23918512936E+03 -0.13212697145E+03  0.31257012250E+03  0.41517122272E+03  0.00000000000E+00 0.  1.
        -11    1    3    3    0    0  0.50690993501E+02 -0.88963551310E+02  0.12611434311E+03  0.16244666147E+03  0.00000000000E+00 0. -1.
          2    1    6    6  502    0  0.12623110719E+03  0.27964935722E+02  0.26948573397E+03  0.29889612053E+03  0.00000000000E+00 0. -1.
          3    1    5    5  503    0 -0.42008802497E+03  0.90287076688E+02  0.57604788604E+03  0.71864933865E+03  0.00000000000E+00 0. -1.
         -2    1    5    5    0  503 -0.18731526596E+03  0.50295722970E+02  0.35892296224E+03  0.40797348128E+03  0.00000000000E+00 0.  1.
         -1    1    6    6    0  502  0.19129606087E+03  0.52542787380E+02  0.21785475981E+03  0.29464491135E+03  0.00000000000E+00 0.  1.
<mgrwt>
<rscale>  0 0.13477743E+04</rscale>
<asrwt>0</asrwt>
<pdfrwt beam="1">  1        1 0.31990595E+00 0.13477743E+04</pdfrwt>
<pdfrwt beam="2">  1       -1 0.33598919E-01 0.13477743E+04</pdfrwt>
<totfact> 0.21543322E+01</totfact>
</mgrwt>
</event>
<event>
12    1  0.1599266E-007  0.1263701E+04  0.7818608E-02  0.9058857E-01
         -3   -1    0    0    0  501 -0.00000000000E+00  0.00000000000E+00  0.19611946579E+03  0.19611946579E+03  0.00000000000E+00 0.  1.
          3   -1    0    0  501    0  0.00000000000E+00 -0.00000000000E+00 -0.20356717860E+04  0.20356717860E+04  0.00000000000E+00 0. -1.
         23    2    1    2    0    0  0.16811729161E+03 -0.17278399806E+03 -0.78744490480E+03  0.82825733110E+03  0.88447694720E+02 0.  0.
        254    2    1    2    0    0 -0.16811729161E+03  0.17278399806E+03 -0.10521074154E+04  0.14035339207E+04  0.89713974343E+03 0.  0.
        -24    2    4    4    0    0 -0.11586713170E+03  0.19120275695E+03  0.92926198230E+02  0.25420224294E+03  0.77458476119E+02 0.  0.
         24    2    4    4    0    0 -0.52250159901E+02 -0.18418758889E+02 -0.11450336137E+04  0.11493316778E+04  0.82413586361E+02 0.  0.
         13    1    3    3    0    0  0.17747528255E+03 -0.15850016815E+03 -0.70533381031E+03  0.74438938949E+03  0.00000000000E+00 0.  1.
        -13    1    3    3    0    0 -0.93579909416E+01 -0.14283829908E+02 -0.82111094494E+02  0.83867941612E+02  0.00000000000E+00 0. -1.
          2    1    6    6  502    0 -0.16078936492E+02  0.32682784556E+02 -0.46302457923E+03  0.46445501136E+03  0.00000000000E+00 0. -1.
          3    1    5    5  503    0 -0.34567051157E+02  0.23047334731E+02 -0.73772729623E+01  0.42195791499E+02  0.00000000000E+00 0. -1.
         -4    1    5    5    0  503 -0.81300080548E+02  0.16815542222E+03  0.10030347119E+03  0.21200645144E+03  0.00000000000E+00 0.  1.
         -1    1    6    6    0  502 -0.36171223409E+02 -0.51101543445E+02 -0.68200903443E+03  0.68487666640E+03  0.00000000000E+00 0.  1.
<mgrwt>
<rscale>  0 0.12637007E+04</rscale>
<asrwt>0</asrwt>
<pdfrwt beam="1">  1        3 0.31318028E+00 0.12637007E+04</pdfrwt>
<pdfrwt beam="2">  1       -3 0.30172225E-01 0.12637007E+04</pdfrwt>
<totfact> 0.91341124E-01</totfact>
</mgrwt>
</event>
<event>
12    1  0.1599266E-007  0.1383732E+04  0.7818608E-02  0.8965679E-01
         -3   -1    0    0    0  501 -0.00000000000E+00  0.00000000000E+00  0.84261868405E+03  0.84261868405E+03  0.00000000000E+00 0.  1.
          3   -1    0    0  501    0  0.00000000000E+00 -0.00000000000E+00 -0.56808481042E+03  0.56808481042E+03  0.00000000000E+00 0. -1.
         23    2    1    2    0    0 -0.88376881142E+02 -0.34058993942E+02 -0.31256504696E+03  0.33931612513E+03  0.92021932169E+02 0.  0.
        254    2    1    2    0    0  0.88376881142E+02  0.34058993942E+02  0.58709892060E+03  0.10713873693E+04  0.89118755851E+03 0.  0.
        -24    2    4    4    0    0 -0.37881822891E+03  0.11839180392E+03  0.35252058669E+03  0.53592353745E+03  0.73643765298E+02 0.  0.
         24    2    4    4    0    0  0.46719511005E+03 -0.84332809974E+02  0.23457833391E+03  0.53546383190E+03  0.79443230255E+02 0.  0.
         11    1    3    3    0    0 -0.70987851310E+02 -0.35970521648E+02 -0.10878325224E+03  0.13478482641E+03  0.00000000000E+00 0.  1.
        -11    1    3    3    0    0 -0.17389029832E+02  0.19115277060E+01 -0.20378179472E+03  0.20453129872E+03  0.00000000000E+00 0. -1.
          4    1    6    6  502    0  0.10977937311E+03  0.30304649291E+01  0.82401520471E+02  0.13729786981E+03  0.00000000000E+00 0. -1.
          3    1    5    5  503    0 -0.16243905929E+03  0.32054169525E+02  0.10524744937E+03  0.19619108890E+03  0.00000000000E+00 0. -1.
         -4    1    5    5    0  503 -0.21637916962E+03  0.86337634391E+02  0.24727313731E+03  0.33973244855E+03  0.00000000000E+00 0.  1.
         -3    1    6    6    0  502  0.35741573694E+03 -0.87363274903E+02  0.15217681344E+03  0.39816596209E+03  0.00000000000E+00 0.  1.
<mgrwt>
<rscale>  0 0.13837325E+04</rscale>
<asrwt>0</asrwt>
<pdfrwt beam="1">  1        3 0.87397663E-01 0.13837325E+04</pdfrwt>
<pdfrwt beam="2">  1       -3 0.12963364E+00 0.13837325E+04</pdfrwt>
<totfact> 0.14230810E+00</totfact>
</mgrwt>
</event>
<event>
12    1  0.1599266E-007  0.2761444E+04  0.7818608E-02  0.8315339E-01
         -1   -1    0    0    0  501 -0.00000000000E+00  0.00000000000E+00  0.17025719770E+04  0.17025719770E+04  0.00000000000E+00 0.  1.
          1   -1    0    0  501    0  0.00000000000E+00 -0.00000000000E+00 -0.11197137008E+04  0.11197137008E+04  0.00000000000E+00 0. -1.
         23    2    1    2    0    0 -0.53477455876E+03  0.35301647918E+03  0.13369557080E+04  0.14854107627E+04  0.91597518528E+02 0.  0.
        254    2    1    2    0    0  0.53477455876E+03 -0.35301647918E+03 -0.75409743180E+03  0.13368749152E+04  0.89886992321E+03 0.  0.
        -24    2    4    4    0    0  0.53242518770E+03 -0.98356831745E+02 -0.88445206168E+03  0.10398356552E+04  0.76498977214E+02 0.  0.
         24    2    4    4    0    0  0.23493710632E+01 -0.25465964744E+03  0.13035462989E+03  0.29703925997E+03  0.79893284173E+02 0.  0.
         11    1    3    3    0    0 -0.38921214279E+03  0.21803428141E+03  0.98527815868E+03  0.10815720457E+04  0.00000000000E+00 0. -1.
        -11    1    3    3    0    0 -0.14556241597E+03  0.13498219778E+03  0.35167754934E+03  0.40383871703E+03  0.00000000000E+00 0.  1.
          2    1    6    6  502    0 -0.14849446887E+02 -0.23306412453E+03  0.94847552854E+02  0.25206239405E+03  0.00000000000E+00 0. -1.
          3    1    5    5  503    0  0.38613786397E+03 -0.51766733536E+02 -0.68625481022E+03  0.78913111029E+03  0.00000000000E+00 0. -1.
         -4    1    5    5    0  503  0.14628732373E+03 -0.46590098209E+02 -0.19819725147E+03  0.25070454488E+03  0.00000000000E+00 0.  1.
         -1    1    6    6    0  502  0.17198817950E+02 -0.21595522913E+02  0.35507077031E+02  0.44976865921E+02  0.00000000000E+00 0.  1.
<mgrwt>
<rscale>  0 0.27614439E+04</rscale>
<asrwt>0</asrwt>
<pdfrwt beam="1">  1        1 0.17226365E+00 0.27614439E+04</pdfrwt>
<pdfrwt beam="2">  1       -1 0.26193415E+00 0.27614439E+04</pdfrwt>
<totfact> 0.62034980E-01</totfact>
</mgrwt>
</event>
<event>
12    1  0.1599266E-007  0.1462508E+04  0.7818608E-02  0.8909774E-01
          2   -1    0    0  501    0  0.00000000000E+00  0.00000000000E+00  0.49751434144E+03  0.49751434144E+03  0.00000000000E+00 0. -1.
         -2   -1    0    0    0  501 -0.00000000000E+00 -0.00000000000E+00 -0.10748085237E+04  0.10748085237E+04  0.00000000000E+00 0.  1.
         23    2    1    2    0    0 -0.17202963633E+03  0.39611297271E+03 -0.31903453469E+03  0.54501250668E+03  0.93573047324E+02 0.  0.
        254    2    1    2    0    0  0.17202963633E+03 -0.39611297271E+03 -0.25825964758E+03  0.10273103585E+04  0.89563879109E+03 0.  0.
        -24    2    4    4    0    0 -0.13160910926E+03 -0.27049222090E+03 -0.51614116947E+03  0.60280138044E+03  0.80503405118E+02 0.  0.
         24    2    4    4    0    0  0.30363874560E+03 -0.12562075181E+03  0.25788152189E+03  0.42450897802E+03  0.75683102339E+02 0.  0.
         13    1    3    3    0    0 -0.53991950971E+01  0.36887928329E+02 -0.63799089183E+02  0.73893127859E+02  0.00000000000E+00 0. -1.
        -13    1    3    3    0    0 -0.16663044124E+03  0.35922504438E+03 -0.25523544551E+03  0.47111937882E+03  0.00000000000E+00 0.  1.
          4    1    6    6  502    0  0.18330228092E+03 -0.11403893749E+03  0.17547685861E+03  0.27820268396E+03  0.00000000000E+00 0. -1.
          1    1    5    5  503    0 -0.46952109298E+01 -0.29101592458E+02 -0.17037344111E+02  0.34047302149E+02  0.00000000000E+00 0. -1.
         -2    1    5    5    0  503 -0.12691389833E+03 -0.24139062844E+03 -0.49910382535E+03  0.56875407829E+03  0.00000000000E+00 0.  1.
         -3    1    6    6    0  502  0.12033646467E+03 -0.11581814325E+02  0.82404663272E+02  0.14630629406E+03  0.00000000000E+00 0.  1.
<mgrwt>
<rscale>  0 0.14625083E+04</rscale>
<asrwt>0</asrwt>
<pdfrwt beam="1">  1        2 0.76540669E-01 0.14625083E+04</pdfrwt>
<pdfrwt beam="2">  1       -2 0.16535516E+00 0.14625083E+04</pdfrwt>
<totfact> 0.13797055E+01</totfact>
</mgrwt>
</event>
<event>
12    1  0.1599266E-007  0.2641147E+04  0.7818608E-02  0.8354357E-01
          1   -1    0    0  501    0  0.00000000000E+00  0.00000000000E+00  0.14640728685E+04  0.14640728685E+04  0.00000000000E+00 0. -1.
         -1   -1    0    0    0  501 -0.00000000000E+00 -0.00000000000E+00 -0.11911392632E+04  0.11911392632E+04  0.00000000000E+00 0.  1.
         23    2    1    2    0    0 -0.13445046364E+03 -0.19081006794E+03  0.12655897962E+04  0.12900922735E+04  0.90194971816E+02 0.  0.
        254    2    1    2    0    0  0.13445046364E+03  0.19081006794E+03 -0.99265619081E+03  0.13651198581E+04  0.90757947565E+03 0.  0.
        -24    2    4    4    0    0  0.30408169341E+03  0.36668999526E+03 -0.99714529728E+03  0.11078623904E+04  0.78314131570E+02 0.  0.
         24    2    4    4    0    0 -0.16963122977E+03 -0.17587992731E+03  0.44891064728E+01  0.25725746773E+03  0.80329008975E+02 0.  0.
         11    1    3    3    0    0 -0.12301637309E+03 -0.19036084113E+03  0.12518925403E+04  0.12722441630E+04  0.00000000000E+00 0. -1.
        -11    1    3    3    0    0 -0.11434090551E+02 -0.44922681065E+00  0.13697255853E+02  0.17848110526E+02  0.00000000000E+00 0.  1.
          4    1    6    6  502    0 -0.76908443037E+02 -0.27340643058E+02  0.88280012570E+01  0.82099652736E+02  0.00000000000E+00 0. -1.
          3    1    5    5  503    0  0.19411027725E+03  0.20321290940E+03 -0.66053127822E+03  0.71782717683E+03  0.00000000000E+00 0. -1.
         -4    1    5    5    0  503  0.10997141616E+03  0.16347708585E+03 -0.33661401906E+03  0.39003521354E+03  0.00000000000E+00 0.  1.
         -3    1    6    6    0  502 -0.92722786729E+02 -0.14853928426E+03 -0.43388947842E+01  0.17515781500E+03  0.00000000000E+00 0.  1.
<mgrwt>
<rscale>  0 0.26411472E+04</rscale>
<asrwt>0</asrwt>
<pdfrwt beam="1">  1        1 0.22524198E+00 0.26411472E+04</pdfrwt>
<pdfrwt beam="2">  1       -1 0.18325219E+00 0.26411472E+04</pdfrwt>
<totfact> 0.11994948E+00</totfact>
</mgrwt>
</event>
<event>
12    1  0.1599266E-007  0.1821073E+04  0.7818608E-02  0.8695173E-01
         -2   -1    0    0    0  501 -0.00000000000E+00  0.00000000000E+00  0.48460569443E+03  0.48460569443E+03  0.00000000000E+00 0.  1.
          2   -1    0    0  501    0  0.00000000000E+00 -0.00000000000E+00 -0.17108272748E+04  0.17108272748E+04  0.00000000000E+00 0. -1.
         23    2    1    2    0    0 -0.32044778823E+03 -0.32205789280E+03  0.15007525752E+03  0.48757880973E+03  0.93821327432E+02 0.  0.
        254    2    1    2    0    0  0.32044778823E+03  0.32205789280E+03 -0.13762968379E+04  0.17078541595E+04  0.90341838196E+03 0.  0.
        -24    2    4    4    0    0  0.54043566571E+03 -0.69898157987E+02 -0.67844858306E+03  0.87383784634E+03  0.79646974725E+02 0.  0.
         24    2    4    4    0    0 -0.21998787748E+03  0.39195605078E+03 -0.69784825484E+03  0.83401631318E+03  0.81035867838E+02 0.  0.
         13    1    3    3    0    0 -0.26137741142E+03 -0.20768112255E+03  0.91526822578E+02  0.34616001953E+03  0.00000000000E+00 0.  1.
        -13    1    3    3    0    0 -0.59070376807E+02 -0.11437677025E+03  0.58548434943E+02  0.14141879020E+03  0.00000000000E+00 0. -1.
          4    1    6    6  502    0 -0.18801587829E+03  0.37552704788E+03 -0.65519966515E+03  0.77823976729E+03  0.00000000000E+00 0. -1.
          3    1    5    5  503    0  0.44221144851E+03 -0.29848029058E+02 -0.57126188403E+03  0.72303665894E+03  0.00000000000E+00 0. -1.
         -4    1    5    5    0  503  0.98224217200E+02 -0.40050128929E+02 -0.10718669903E+03  0.15080118740E+03  0.00000000000E+00 0.  1.
         -3    1    6    6    0  502 -0.31971999186E+02  0.16429002904E+02 -0.42648589693E+02  0.55776545888E+02  0.00000000000E+00 0.  1.
<mgrwt>
<rscale>  0 0.18210729E+04</rscale>
<asrwt>0</asrwt>
<pdfrwt beam="1">  1        2 0.26320419E+00 0.18210729E+04</pdfrwt>
<pdfrwt beam="2">  1       -2 0.74554723E-01 0.18210729E+04</pdfrwt>
<totfact> 0.14747776E+01</totfact>
</mgrwt>
</event>
<event>
12    1  0.1599266E-007  0.1248825E+04  0.7818608E-02  0.9071162E-01
         -2   -1    0    0    0  501 -0.00000000000E+00  0.00000000000E+00  0.21117857955E+03  0.21117857955E+03  0.00000000000E+00 0.  1.
          2   -1    0    0  501    0  0.00000000000E+00 -0.00000000000E+00 -0.18462610269E+04  0.18462610269E+04  0.00000000000E+00 0. -1.
         23    2    1    2    0    0 -0.94077158311E+02 -0.17060067838E+03 -0.10036304886E+03  0.23709164900E+03  0.90468808268E+02 0.  0.
        254    2    1    2    0    0  0.94077158311E+02  0.17060067838E+03 -0.15347193985E+04  0.18203479575E+04  0.95934766947E+03 0.  0.
        -24    2    4    4    0    0  0.27274917797E+03  0.47639896746E+03 -0.59814347987E+03  0.81588209068E+03  0.80869481879E+02 0.  0.
         24    2    4    4    0    0 -0.17867201966E+03 -0.30579828907E+03 -0.93657591866E+03  0.10044658668E+04  0.79630031805E+02 0.  0.
         13    1    3    3    0    0 -0.24085626682E+02 -0.10795210866E+02 -0.48277567318E+02  0.55021609359E+02  0.00000000000E+00 0. -1.
        -13    1    3    3    0    0 -0.69991531629E+02 -0.15980546752E+03 -0.52085481539E+02  0.18207003964E+03  0.00000000000E+00 0.  1.
          2    1    6    6  502    0 -0.12064389029E+03 -0.24788446592E+03 -0.64187023570E+03  0.69856929233E+03  0.00000000000E+00 0. -1.
          3    1    5    5  503    0  0.21307638370E+03  0.36081191583E+03 -0.50326255104E+03  0.65487401779E+03  0.00000000000E+00 0. -1.
         -4    1    5    5    0  503  0.59672794274E+02  0.11558705162E+03 -0.94880928830E+02  0.16100807289E+03  0.00000000000E+00 0.  1.
         -1    1    6    6    0  502 -0.58028129374E+02 -0.57913823153E+02 -0.29470568296E+03  0.30589657448E+03  0.00000000000E+00 0.  1.
<mgrwt>
<rscale>  0 0.12488247E+04</rscale>
<asrwt>0</asrwt>
<pdfrwt beam="1">  1        2 0.28404016E+00 0.12488247E+04</pdfrwt>
<pdfrwt beam="2">  1       -2 0.32489012E-01 0.12488247E+04</pdfrwt>
<totfact> 0.70639673E+01</totfact>
</mgrwt>
</event>
<event>
12    1  0.1599266E-007  0.1729012E+04  0.7818608E-02  0.8744988E-01
         -1   -1    0    0    0  501 -0.00000000000E+00  0.00000000000E+00  0.27017390447E+03  0.27017390447E+03  0.00000000000E+00 0.  1.
          1   -1    0    0  501    0  0.00000000000E+00 -0.00000000000E+00 -0.27662581650E+04  0.27662581650E+04  0.00000000000E+00 0. -1.
         23    2    1    2    0    0 -0.42635816868E+03 -0.56108620979E+02 -0.12807183152E+03  0.45918501871E+03  0.97565475581E+02 0.  0.
        254    2    1    2    0    0  0.42635816868E+03  0.56108620979E+02 -0.23680124291E+04  0.25772470508E+04  0.92184056721E+03 0.  0.
        -24    2    4    4    0    0  0.16271901588E+03 -0.42521565187E+03 -0.11360581869E+04  0.12263075923E+04  0.76917345168E+02 0.  0.
         24    2    4    4    0    0  0.26363915280E+03  0.48132427285E+03 -0.12319542421E+04  0.13509394585E+04  0.78406042248E+02 0.  0.
         13    1    3    3    0    0 -0.79261032616E+01  0.11515857173E+02  0.51222994398E+01  0.14888788765E+02  0.00000000000E+00 0. -1.
        -13    1    3    3    0    0 -0.41843206542E+03 -0.67624478152E+02 -0.13319413096E+03  0.44429622994E+03  0.00000000000E+00 0.  1.
          4    1    6    6  502    0  0.14030933714E+03  0.29511345477E+03 -0.81203570503E+03  0.87531745528E+03  0.00000000000E+00 0. -1.
          1    1    5    5  503    0  0.19747390654E+01  0.24347667749E+01 -0.21822198174E+02  0.22046224546E+02  0.00000000000E+00 0. -1.
         -2    1    5    5    0  503  0.16074427682E+03 -0.42765041865E+03 -0.11142359888E+04  0.12042613677E+04  0.00000000000E+00 0.  1.
         -3    1    6    6    0  502  0.12332981566E+03  0.18621081808E+03 -0.41991853709E+03  0.47562200327E+03  0.00000000000E+00 0.  1.
<mgrwt>
<rscale>  0 0.17290122E+04</rscale>
<asrwt>0</asrwt>
<pdfrwt beam="1">  1        1 0.42557822E+00 0.17290122E+04</pdfrwt>
<pdfrwt beam="2">  1       -1 0.41565212E-01 0.17290122E+04</pdfrwt>
<totfact> 0.47576085E+00</totfact>
</mgrwt>
</event>
<event>
12    1  0.1599266E-007  0.1535966E+04  0.7818608E-02  0.8860882E-01
          2   -1    0    0  501    0  0.00000000000E+00  0.00000000000E+00  0.87087256743E+03  0.87087256743E+03  0.00000000000E+00 0. -1.
         -2   -1    0    0    0  501 -0.00000000000E+00 -0.00000000000E+00 -0.67724959535E+03  0.67724959535E+03  0.00000000000E+00 0.  1.
         23    2    1    2    0    0 -0.33375846577E+03  0.37279046883E+03  0.10151456294E+03  0.51857512677E+03  0.90815794269E+02 0.  0.
        254    2    1    2    0    0  0.33375846577E+03 -0.37279046883E+03  0.92108409138E+02  0.10295470360E+04  0.89505066516E+03 0.  0.
        -24    2    4    4    0    0  0.23080282142E+02  0.22968250605E+03  0.22767049257E+03  0.33393490961E+03  0.79949469418E+02 0.  0.
         24    2    4    4    0    0  0.31067818363E+03 -0.60247297488E+03 -0.13556208344E+03  0.69561212640E+03  0.77488919749E+02 0.  0.
         13    1    3    3    0    0 -0.17356239304E+03  0.19457543036E+03  0.99091180941E+02  0.27893111070E+03  0.00000000000E+00 0.  1.
        -13    1    3    3    0    0 -0.16019607273E+03  0.17821503847E+03  0.24233819989E+01  0.23964401607E+03  0.00000000000E+00 0. -1.
          2    1    6    6  502    0  0.61389643610E+02 -0.10643768458E+03 -0.55086049752E+02  0.13465564199E+03  0.00000000000E+00 0. -1.
          1    1    5    5  503    0  0.12678145129E+02  0.96163884829E+02  0.43710653712E+02  0.10639008110E+03  0.00000000000E+00 0. -1.
         -2    1    5    5    0  503  0.10402137013E+02  0.13351862122E+03  0.18395983886E+03  0.22754482851E+03  0.00000000000E+00 0.  1.
         -1    1    6    6    0  502  0.24928854002E+03 -0.49603529030E+03 -0.80476033684E+02  0.56095648441E+03  0.00000000000E+00 0.  1.
<mgrwt>
<rscale>  0 0.15359663E+04</rscale>
<asrwt>0</asrwt>
<pdfrwt beam="1">  1        2 0.13398039E+00 0.15359663E+04</pdfrwt>
<pdfrwt beam="2">  1       -2 0.10419225E+00 0.15359663E+04</pdfrwt>
<totfact> 0.22154129E+01</totfact>
</mgrwt>
</event>
<event>
12    1  0.1599266E-007  0.2321232E+04  0.7818608E-02  0.8469596E-01
         -2   -1    0    0    0  501 -0.00000000000E+00  0.00000000000E+00  0.12225139920E+04  0.12225139920E+04  0.00000000000E+00 0.  1.
          2   -1    0    0  501    0  0.00000000000E+00 -0.00000000000E+00 -0.11018519270E+04  0.11018519270E+04  0.00000000000E+00 0. -1.
         23    2    1    2    0    0 -0.50836023672E+03  0.14210878044E+02 -0.79311984890E+03  0.94640621968E+03  0.89518481797E+02 0.  0.
        254    2    1    2    0    0  0.50836023672E+03 -0.14210878044E+02  0.91378191391E+03  0.13779596994E+04  0.89729787008E+03 0.  0.
        -24    2    4    4    0    0  0.87480920468E+00 -0.38616823097E+03  0.30235836747E+03  0.49699830872E+03  0.80374551890E+02 0.  0.
         24    2    4    4    0    0  0.50748542752E+03  0.37195735293E+03  0.61142354644E+03  0.88096139068E+03  0.79752662533E+02 0.  0.
         13    1    3    3    0    0 -0.26352694709E+03 -0.11035039289E+02 -0.33519287982E+03  0.42652372808E+03  0.00000000000E+00 0.  1.
        -13    1    3    3    0    0 -0.24483328964E+03  0.25245917334E+02 -0.45792696908E+03  0.51988249160E+03  0.00000000000E+00 0. -1.
          2    1    6    6  502    0  0.15907611776E+03  0.72608892652E+02  0.16504073172E+03  0.24044896685E+03  0.00000000000E+00 0. -1.
          3    1    5    5  503    0  0.63070268632E+00  0.40431124941E+01  0.18841403556E+01  0.45049449939E+01  0.00000000000E+00 0. -1.
         -4    1    5    5    0  503  0.24410651836E+00 -0.39021134347E+03  0.30047422711E+03  0.49249336373E+03  0.00000000000E+00 0.  1.
         -1    1    6    6    0  502  0.34840930976E+03  0.29934846028E+03  0.44638281473E+03  0.64051242383E+03  0.00000000000E+00 0.  1.
<mgrwt>
<rscale>  0 0.23212319E+04</rscale>
<asrwt>0</asrwt>
<pdfrwt beam="1">  1        2 0.16951568E+00 0.23212319E+04</pdfrwt>
<pdfrwt beam="2">  1       -2 0.18807908E+00 0.23212319E+04</pdfrwt>
<totfact> 0.31400051E+00</totfact>
</mgrwt>
</event>
<event>
12    1  0.1599266E-007  0.3078281E+04  0.7818608E-02  0.8221724E-01
          2   -1    0    0  501    0  0.00000000000E+00  0.00000000000E+00  0.89567430123E+03  0.89567430123E+03  0.00000000000E+00 0.  1.
         -2   -1    0    0    0  501 -0.00000000000E+00 -0.00000000000E+00 -0.26448822619E+04  0.26448822619E+04  0.00000000000E+00 0. -1.
         23    2    1    2    0    0  0.12472635344E+04  0.62125670041E+03 -0.10122625829E+04  0.17247013308E+04  0.91065535099E+02 0.  0.
        254    2    1    2    0    0 -0.12472635344E+04 -0.62125670041E+03 -0.73694537775E+03  0.18158552323E+04  0.90145189719E+03 0.  0.
        -24    2    4    4    0    0 -0.93910424438E+03 -0.79796188977E+03 -0.34740034986E+03  0.12828068825E+04  0.79035027034E+02 0.  0.
         24    2    4    4    0    0 -0.30815929002E+03  0.17670518936E+03 -0.38954502789E+03  0.53304834978E+03  0.78793035710E+02 0.  0.
         13    1    3    3    0    0  0.11910388852E+04  0.57939429666E+03 -0.97948018386E+03  0.16473168510E+04  0.00000000000E+00 0. -1.
        -13    1    3    3    0    0  0.56224649186E+02  0.41862403757E+02 -0.32782399053E+02  0.77384479788E+02  0.00000000000E+00 0.  1.
          2    1    6    6  502    0 -0.28276101428E+03  0.16429617898E+03 -0.38374888365E+03  0.50419265299E+03  0.00000000000E+00 0. -1.
          1    1    5    5  503    0 -0.42165390105E+03 -0.39407200383E+03 -0.19214937337E+03  0.60828129855E+03  0.00000000000E+00 0. -1.
         -2    1    5    5    0  503 -0.51745034333E+03 -0.40388988594E+03 -0.15525097649E+03  0.67452558400E+03  0.00000000000E+00 0.  1.
         -1    1    6    6    0  502 -0.25398275742E+02  0.12409010376E+02 -0.57961442368E+01  0.28855696789E+02  0.00000000000E+00 0.  1.
<mgrwt>
<rscale>  0 0.30782807E+04</rscale>
<asrwt>0</asrwt>
<pdfrwt beam="1">  1        2 0.13779605E+00 0.30782807E+04</pdfrwt>
<pdfrwt beam="2">  1       -2 0.40690496E+00 0.30782807E+04</pdfrwt>
<totfact> 0.16777087E-01</totfact>
</mgrwt>
</event>
<event>
12    1  0.1599266E-007  0.1660992E+04  0.7818608E-02  0.8783930E-01
         -1   -1    0    0    0  501 -0.00000000000E+00  0.00000000000E+00  0.33180631604E+03  0.33180631604E+03  0.00000000000E+00 0.  1.
          1   -1    0    0  501    0  0.00000000000E+00 -0.00000000000E+00 -0.20786941044E+04  0.20786941044E+04  0.00000000000E+00 0. -1.
         23    2    1    2    0    0 -0.38414701852E+02 -0.84009727878E+02  0.21462022623E+03  0.25061053049E+03  0.90611659235E+02 0.  0.
        254    2    1    2    0    0  0.38414701852E+02  0.84009727878E+02 -0.19615080146E+04  0.21598898900E+04  0.89948725490E+03 0.  0.
        -24    2    4    4    0    0  0.34994899607E+03 -0.78158390645E+02 -0.34353581602E+03  0.50213245584E+03  0.74478939570E+02 0.  0.
         24    2    4    4    0    0 -0.31153429422E+03  0.16216811852E+03 -0.16179721986E+04  0.16577574341E+04  0.83507843105E+02 0.  0.
         13    1    3    3    0    0 -0.46154993929E+01  0.19744499392E+02  0.33422254312E+02  0.39092136987E+02  0.00000000000E+00 0. -1.
        -13    1    3    3    0    0 -0.33799202459E+02 -0.10375422727E+03  0.18119797192E+03  0.21151839351E+03  0.00000000000E+00 0.  1.
          4    1    6    6  502    0 -0.31236888447E+03  0.14604096256E+03 -0.15502610007E+04  0.15881471761E+04  0.00000000000E+00 0. -1.
          3    1    5    5  503    0  0.23067012992E+03 -0.73206862111E+02 -0.19021091060E+03  0.30781186463E+03  0.00000000000E+00 0. -1.
         -2    1    5    5    0  503  0.11927886615E+03 -0.49515285340E+01 -0.15332490542E+03  0.19432059121E+03  0.00000000000E+00 0.  1.
         -3    1    6    6    0  502  0.83459024951E+00  0.16127155959E+02 -0.67711197919E+02  0.69610258036E+02  0.00000000000E+00 0.  1.
<mgrwt>
<rscale>  0 0.16609923E+04</rscale>
<asrwt>0</asrwt>
<pdfrwt beam="1">  1        1 0.31979909E+00 0.16609923E+04</pdfrwt>
<pdfrwt beam="2">  1       -1 0.51047126E-01 0.16609923E+04</pdfrwt>
<totfact> 0.97097411E+00</totfact>
</mgrwt>
</event>
<event>
12    1  0.1599266E-007  0.1486375E+04  0.7818608E-02  0.8893564E-01
         -2   -1    0    0    0  501 -0.00000000000E+00  0.00000000000E+00  0.61840343303E+03  0.61840343303E+03  0.00000000000E+00 0.  1.
          2   -1    0    0  501    0  0.00000000000E+00 -0.00000000000E+00 -0.89315134005E+03  0.89315134005E+03  0.00000000000E+00 0. -1.
         23    2    1    2    0    0  0.27487785999E+02  0.45522178829E+03 -0.26579840363E+02  0.46535209924E+03  0.88677130303E+02 0.  0.
        254    2    1    2    0    0 -0.27487785999E+02 -0.45522178829E+03 -0.24816806666E+03  0.10462026738E+04  0.90827869651E+03 0.  0.
        -24    2    4    4    0    0  0.30394704298E+03 -0.24527717668E+03 -0.44784381129E+03  0.60006613580E+03  0.83490057368E+02 0.  0.
         24    2    4    4    0    0 -0.33143482898E+03 -0.20994461161E+03  0.19967574463E+03  0.44613653804E+03  0.72399045404E+02 0.  0.
         11    1    3    3    0    0  0.22577288436E+02  0.25963129414E+02  0.56064579059E+01  0.34860441941E+02  0.00000000000E+00 0. -1.
        -11    1    3    3    0    0  0.49104975633E+01  0.42925865888E+03 -0.32186298269E+02  0.43049165730E+03  0.00000000000E+00 0.  1.
          2    1    6    6  502    0 -0.10329149933E+03 -0.33648222594E+02  0.75021989234E+02  0.13202134519E+03  0.00000000000E+00 0. -1.
          1    1    5    5  503    0  0.15730750071E+03 -0.17920993957E+03 -0.26081187492E+03  0.35339027480E+03  0.00000000000E+00 0. -1.
         -2    1    5    5    0  503  0.14663954228E+03 -0.66067237106E+02 -0.18703193637E+03  0.24667586100E+03  0.00000000000E+00 0.  1.
         -1    1    6    6    0  502 -0.22814332966E+03 -0.17629638902E+03  0.12465375540E+03  0.31411519286E+03  0.00000000000E+00 0.  1.
<mgrwt>
<rscale>  0 0.14863753E+04</rscale>
<asrwt>0</asrwt>
<pdfrwt beam="1">  1        2 0.13740790E+00 0.14863753E+04</pdfrwt>
<pdfrwt beam="2">  1       -2 0.95138990E-01 0.14863753E+04</pdfrwt>
<totfact> 0.26630878E+01</totfact>
</mgrwt>
</event>
<event>
12    1  0.1599266E-007  0.1866352E+04  0.7818608E-02  0.8671789E-01
         -2   -1    0    0    0  501 -0.00000000000E+00  0.00000000000E+00  0.45189383048E+03  0.45189383048E+03  0.00000000000E+00 0.  1.
          2   -1    0    0  501    0  0.00000000000E+00 -0.00000000000E+00 -0.19270407066E+04  0.19270407066E+04  0.00000000000E+00 0. -1.
         23    2    1    2    0    0  0.67857219967E+03 -0.36061918247E+02 -0.83782535968E+03  0.10824001718E+04  0.88758698344E+02 0.  0.
        254    2    1    2    0    0 -0.67857219967E+03  0.36061918247E+02 -0.63732151645E+03  0.12965343653E+04  0.90169948037E+03 0.  0.
        -24    2    4    4    0    0 -0.74014486410E+03 -0.24668392547E+03 -0.28587552787E+03  0.83468784941E+03  0.79445639160E+02 0.  0.
         24    2    4    4    0    0  0.61572664433E+02  0.28274584372E+03 -0.35144598858E+03  0.46184651586E+03  0.77791491684E+02 0.  0.
         13    1    3    3    0    0  0.52735255370E+03 -0.16340943526E+02 -0.70213923403E+03  0.87827515409E+03  0.00000000000E+00 0. -1.
        -13    1    3    3    0    0  0.15121964597E+03 -0.19720974721E+02 -0.13568612565E+03  0.20412501773E+03  0.00000000000E+00 0.  1.
          2    1    6    6  502    0 -0.17122200015E+02  0.26905286787E+02 -0.40883611108E+02  0.51851073737E+02  0.00000000000E+00 0. -1.
          3    1    5    5  503    0 -0.82603985942E+02 -0.26625455012E+02 -0.59720877733E+02  0.10535139574E+03  0.00000000000E+00 0. -1.
         -4    1    5    5    0  503 -0.65754087816E+03 -0.22005847046E+03 -0.22615465014E+03  0.72933645367E+03  0.00000000000E+00 0.  1.
         -1    1    6    6    0  502  0.78694864447E+02  0.25584055693E+03 -0.31056237747E+03  0.40999544212E+03  0.00000000000E+00 0.  1.
<mgrwt>
<rscale>  0 0.18663524E+04</rscale>
<asrwt>0</asrwt>
<pdfrwt beam="1">  1        2 0.29646780E+00 0.18663524E+04</pdfrwt>
<pdfrwt beam="2">  1       -2 0.69522128E-01 0.18663524E+04</pdfrwt>
<totfact> 0.12997175E+01</totfact>
</mgrwt>
</event>
<event>
12    1  0.1599266E-007  0.1759031E+04  0.7818608E-02  0.8728395E-01
          2   -1    0    0  501    0  0.00000000000E+00  0.00000000000E+00  0.11331606237E+04  0.11331606237E+04  0.00000000000E+00 0. -1.
         -2   -1    0    0    0  501 -0.00000000000E+00 -0.00000000000E+00 -0.68264580779E+03  0.68264580779E+03  0.00000000000E+00 0.  1.
         23    2    1    2    0    0  0.13329499076E+03  0.49801417071E+03  0.57284320079E+03  0.77615482618E+03  0.92094042793E+02 0.  0.
        254    2    1    2    0    0 -0.13329499076E+03 -0.49801417071E+03 -0.12232838492E+03  0.10396516053E+04  0.89449737719E+03 0.  0.
        -24    2    4    4    0    0 -0.66604830320E+02 -0.69644098538E+03  0.11441967269E+03  0.71335693506E+03  0.79498463936E+02 0.  0.
         24    2    4    4    0    0 -0.66690160438E+02  0.19842681467E+03 -0.23674805761E+03  0.32629467021E+03  0.81226785900E+02 0.  0.
         11    1    3    3    0    0  0.72479568787E+02  0.11589165067E+03  0.14350132830E+03  0.19818373751E+03  0.00000000000E+00 0.  1.
        -11    1    3    3    0    0  0.60815421971E+02  0.38212252004E+03  0.42934187249E+03  0.57797108867E+03  0.00000000000E+00 0. -1.
          4    1    6    6  502    0 -0.20531706024E+02  0.22207123596E+02 -0.81566054806E+02  0.86992692724E+02  0.00000000000E+00 0. -1.
          1    1    5    5  503    0  0.58585503329E+01 -0.19820004759E+03  0.58742797881E+02  0.20680497523E+03  0.00000000000E+00 0. -1.
         -2    1    5    5    0  503 -0.72463380653E+02 -0.49824093778E+03  0.55676874810E+02  0.50655195983E+03  0.00000000000E+00 0.  1.
         -3    1    6    6    0  502 -0.46158454414E+02  0.17621969107E+03 -0.15518200281E+03  0.23930197749E+03  0.00000000000E+00 0.  1.
<mgrwt>
<rscale>  0 0.17590308E+04</rscale>
<asrwt>0</asrwt>
<pdfrwt beam="1">  1        2 0.17433240E+00 0.17590308E+04</pdfrwt>
<pdfrwt beam="2">  1       -2 0.10502243E+00 0.17590308E+04</pdfrwt>
<totfact> 0.14468122E+01</totfact>
</mgrwt>
</event>
<event>
12    1  0.1599266E-007  0.2290726E+04  0.7818608E-02  0.8481587E-01
          2   -1    0    0  501    0  0.00000000000E+00  0.00000000000E+00  0.16245852725E+04  0.16245852725E+04  0.00000000000E+00 0. -1.
         -2   -1    0    0    0  501 -0.00000000000E+00 -0.00000000000E+00 -0.80750219184E+03  0.80750219184E+03  0.00000000000E+00 0.  1.
         23    2    1    2    0    0  0.95602501932E+03  0.27497133961E+02  0.49817469418E+03  0.10823171431E+04  0.92154448063E+02 0.  0.
        254    2    1    2    0    0 -0.95602501932E+03 -0.27497133961E+02  0.31890838651E+03  0.13497703213E+04  0.89746166010E+03 0.  0.
        -24    2    4    4    0    0  0.10371272919E+03 -0.16833963491E+03  0.15967633312E+03  0.26599464918E+03  0.78498784424E+02 0.  0.
         24    2    4    4    0    0 -0.10597377485E+04  0.14084250095E+03  0.15923205339E+03  0.10837756721E+04  0.79587404592E+02 0.  0.
         11    1    3    3    0    0  0.17634745488E+03 -0.10083331842E+02  0.56554616674E+02  0.18546838839E+03  0.00000000000E+00 0. -1.
        -11    1    3    3    0    0  0.77967756444E+03  0.37580465803E+02  0.44162007751E+03  0.89684875467E+03  0.00000000000E+00 0.  1.
          4    1    6    6  502    0 -0.10682664268E+03  0.10339756698E+02  0.40307850263E+02  0.11464538782E+03  0.00000000000E+00 0. -1.
          3    1    5    5  503    0  0.51968430260E+02 -0.25059231122E+02  0.63700395831E+02  0.85944303111E+02  0.00000000000E+00 0. -1.
         -4    1    5    5    0  503  0.51744298933E+02 -0.14328040379E+03  0.95975937286E+02  0.18005034607E+03  0.00000000000E+00 0.  1.
         -3    1    6    6    0  502 -0.95291110584E+03  0.13050274425E+03  0.11892420313E+03  0.96913028431E+03  0.00000000000E+00 0.  1.
<mgrwt>
<rscale>  0 0.22907258E+04</rscale>
<asrwt>0</asrwt>
<pdfrwt beam="1">  1        2 0.24993620E+00 0.22907258E+04</pdfrwt>
<pdfrwt beam="2">  1       -2 0.12423111E+00 0.22907258E+04</pdfrwt>
<totfact> 0.47742702E+00</totfact>
</mgrwt>
</event>
<event>
12    1  0.1599266E-007  0.1541409E+04  0.7818608E-02  0.8857374E-01
         -2   -1    0    0    0  501 -0.00000000000E+00  0.00000000000E+00  0.30815401747E+03  0.30815401747E+03  0.00000000000E+00 0.  1.
          2   -1    0    0  501    0  0.00000000000E+00 -0.00000000000E+00 -0.19275600841E+04  0.19275600841E+04  0.00000000000E+00 0. -1.
         23    2    1    2    0    0 -0.16292135085E+03  0.40737384891E+03 -0.18105863431E+03  0.48242544247E+03  0.86343842545E+02 0.  0.
        254    2    1    2    0    0  0.16292135085E+03 -0.40737384891E+03 -0.14383474323E+04  0.17532886591E+04  0.90148819558E+03 0.  0.
        -24    2    4    4    0    0 -0.93487860372E+02 -0.37250141404E+03 -0.14299813761E+04  0.14828577407E+04  0.80765461418E+02 0.  0.
         24    2    4    4    0    0  0.25640921122E+03 -0.34872434868E+02 -0.83660562705E+01  0.27043091842E+03  0.78109669240E+02 0.  0.
         13    1    3    3    0    0 -0.97016658711E+02  0.15674332151E+03 -0.10591673012E+03  0.21260069290E+03  0.00000000000E+00 0. -1.
        -13    1    3    3    0    0 -0.65904692137E+02  0.25063052740E+03 -0.75141904189E+02  0.26982474956E+03  0.00000000000E+00 0.  1.
          2    1    6    6  502    0 -0.27958612813E+01 -0.83005256162E+01 -0.44810414143E+01  0.98384601421E+01  0.00000000000E+00 0. -1.
          1    1    5    5  503    0  0.44330574290E+01 -0.13638524431E+03 -0.52924838483E+03  0.54655689522E+03  0.00000000000E+00 0. -1.
         -2    1    5    5    0  503 -0.97920917801E+02 -0.23611616973E+03 -0.90073299124E+03  0.93630084549E+03  0.00000000000E+00 0.  1.
         -1    1    6    6    0  502  0.25920507250E+03 -0.26571909252E+02 -0.38850148561E+01  0.26059245828E+03  0.00000000000E+00 0.  1.
<mgrwt>
<rscale>  0 0.15414089E+04</rscale>
<asrwt>0</asrwt>
<pdfrwt beam="1">  1        2 0.29654771E+00 0.15414089E+04</pdfrwt>
<pdfrwt beam="2">  1       -2 0.47408310E-01 0.15414089E+04</pdfrwt>
<totfact> 0.29776992E+01</totfact>
</mgrwt>
</event>
<event>
12    1  0.1599266E-007  0.2889756E+04  0.7818608E-02  0.8275932E-01
         -2   -1    0    0    0  501 -0.00000000000E+00  0.00000000000E+00  0.10639646173E+04  0.10639646173E+04  0.00000000000E+00 0.  1.
          2   -1    0    0  501    0  0.00000000000E+00 -0.00000000000E+00 -0.19621634206E+04  0.19621634206E+04  0.00000000000E+00 0. -1.
         23    2    1    2    0    0  0.48292458050E+03  0.73702205928E+03  0.59723898510E+03  0.10684419355E+04  0.91957043628E+02 0.  0.
        254    2    1    2    0    0 -0.48292458050E+03 -0.73702205928E+03 -0.14954377884E+04  0.19576861024E+04  0.90541870433E+03 0.  0.
        -24    2    4    4    0    0  0.16248252945E+03 -0.14083689530E+03 -0.10009215232E+02  0.22993098461E+03  0.80823696023E+02 0.  0.
         24    2    4    4    0    0 -0.64540710995E+03 -0.59618516397E+03 -0.14854285732E+04  0.17277551178E+04  0.81563556057E+02 0.  0.
         13    1    3    3    0    0  0.14875261826E+03  0.28898062456E+03  0.25432607135E+03  0.41269709640E+03  0.00000000000E+00 0. -1.
        -13    1    3    3    0    0  0.33417196224E+03  0.44804143472E+03  0.34291291375E+03  0.65574483909E+03  0.00000000000E+00 0.  1.
          4    1    6    6  502    0 -0.39207162134E+02 -0.13249070730E+02 -0.71696134481E+02  0.82783302286E+02  0.00000000000E+00 0. -1.
          1    1    5    5  503    0  0.10589770555E+02 -0.80654918038E+01  0.21952692737E+02  0.25673256842E+02  0.00000000000E+00 0. -1.
         -2    1    5    5    0  503  0.15189275889E+03 -0.13277140350E+03 -0.31961907969E+02  0.20425772777E+03  0.00000000000E+00 0.  1.
         -3    1    6    6    0  502 -0.60619994782E+03 -0.58293609324E+03 -0.14137324387E+04  0.16449718155E+04  0.00000000000E+00 0.  1.
<mgrwt>
<rscale>  0 0.28897560E+04</rscale>
<asrwt>0</asrwt>
<pdfrwt beam="1">  1        2 0.30187130E+00 0.28897560E+04</pdfrwt>
<pdfrwt beam="2">  1       -2 0.16368686E+00 0.28897560E+04</pdfrwt>
<totfact> 0.14337920E+00</totfact>
</mgrwt>
</event>
<event>
12    1  0.1599266E-007  0.1090793E+04  0.7818608E-02  0.9214212E-01
         -3   -1    0    0    0  501 -0.00000000000E+00  0.00000000000E+00  0.83979844195E+03  0.83979844195E+03  0.00000000000E+00 0.  1.
          3   -1    0    0  501    0  0.00000000000E+00 -0.00000000000E+00 -0.35420085297E+03  0.35420085297E+03  0.00000000000E+00 0. -1.
         23    2    1    2    0    0  0.27223839913E+02  0.13630754241E+03  0.87517629076E+01  0.16593706554E+03  0.90208828770E+02 0.  0.
        254    2    1    2    0    0 -0.27223839913E+02 -0.13630754241E+03  0.47684582607E+03  0.10280622294E+04  0.90011617143E+03 0.  0.
        -24    2    4    4    0    0  0.26783117507E+02 -0.52893129595E+02 -0.26124957712E+03  0.27995555007E+03  0.81294218281E+02 0.  0.
         24    2    4    4    0    0 -0.54006957420E+02 -0.83414412819E+02  0.73809540319E+03  0.74810667932E+03  0.70739407086E+02 0.  0.
         13    1    3    3    0    0  0.86920544822E+01  0.41903973394E+01  0.29395541759E+02  0.30938796297E+02  0.00000000000E+00 0.  1.
        -13    1    3    3    0    0  0.18531785431E+02  0.13211714507E+03 -0.20643778851E+02  0.13499826925E+03  0.00000000000E+00 0. -1.
          2    1    6    6  502    0 -0.19768436837E+02 -0.83431164566E+02  0.46118274251E+03  0.46908535716E+03  0.00000000000E+00 0. -1.
          1    1    5    5  503    0  0.16684847716E+02 -0.42405516052E+02 -0.26145352842E+03  0.26539510067E+03  0.00000000000E+00 0. -1.
         -2    1    5    5    0  503  0.10098269791E+02 -0.10487613543E+02  0.20395129917E+00  0.14560449400E+02  0.00000000000E+00 0.  1.
         -1    1    6    6    0  502 -0.34238520583E+02  0.16751747390E-01  0.27691266068E+03  0.27902132216E+03  0.00000000000E+00 0.  1.
<mgrwt>
<rscale>  0 0.10907930E+04</rscale>
<asrwt>0</asrwt>
<pdfrwt beam="1">  1        3 0.54492439E-01 0.10907930E+04</pdfrwt>
<pdfrwt beam="2">  1       -3 0.12919976E+00 0.10907930E+04</pdfrwt>
<totfact> 0.40758635E+00</totfact>
</mgrwt>
</event>
<event>
12    1  0.1599266E-007  0.1662375E+04  0.7818608E-02  0.8783119E-01
          2   -1    0    0  501    0  0.00000000000E+00  0.00000000000E+00  0.23351838173E+04  0.23351838173E+04  0.00000000000E+00 0. -1.
         -2   -1    0    0    0  501 -0.00000000000E+00 -0.00000000000E+00 -0.29585360080E+03  0.29585360080E+03  0.00000000000E+00 0.  1.
         23    2    1    2    0    0 -0.29034186733E+03  0.45949673375E+03  0.38869576677E+03  0.67438052058E+03  0.90934257406E+02 0.  0.
        254    2    1    2    0    0  0.29034186733E+03 -0.45949673375E+03  0.16506344497E+04  0.19566568975E+04  0.89915320150E+03 0.  0.
        -24    2    4    4    0    0  0.25061590734E+03 -0.71950436506E+03  0.10895537778E+04  0.13318705617E+04  0.79100530303E+02 0.  0.
         24    2    4    4    0    0  0.39725959987E+02  0.26000763131E+03  0.56108067190E+03  0.62478633587E+03  0.79776718864E+02 0.  0.
         13    1    3    3    0    0 -0.12369708833E+03  0.14442329665E+03  0.17723183833E+03  0.25994265289E+03  0.00000000000E+00 0. -1.
        -13    1    3    3    0    0 -0.16664477900E+03  0.31507343710E+03  0.21146392845E+03  0.41443786768E+03  0.00000000000E+00 0.  1.
          4    1    6    6  502    0 -0.18329139865E+02  0.16975932628E+02  0.49948301669E+02  0.55847761785E+02  0.00000000000E+00 0. -1.
          3    1    5    5  503    0  0.10185374882E+03 -0.19499441365E+03  0.34138731103E+03  0.40613089471E+03  0.00000000000E+00 0. -1.
         -4    1    5    5    0  503  0.14876215852E+03 -0.52450995141E+03  0.74816646680E+03  0.92573966695E+03  0.00000000000E+00 0.  1.
         -3    1    6    6    0  502  0.58055099852E+02  0.24303169868E+03  0.51113237023E+03  0.56893857408E+03  0.00000000000E+00 0.  1.
<mgrwt>
<rscale>  0 0.16623749E+04</rscale>
<asrwt>0</asrwt>
<pdfrwt beam="1">  1        2 0.35925904E+00 0.16623749E+04</pdfrwt>
<pdfrwt beam="2">  1       -2 0.45515940E-01 0.16623749E+04</pdfrwt>
<totfact> 0.18933024E+01</totfact>
</mgrwt>
</event>
<event>
12    1  0.1599266E-007  0.1895367E+04  0.7818608E-02  0.8657166E-01
         -2   -1    0    0    0  501 -0.00000000000E+00  0.00000000000E+00  0.30541577420E+03  0.30541577420E+03  0.00000000000E+00 0.  1.
          2   -1    0    0  501    0  0.00000000000E+00 -0.00000000000E+00 -0.29405946517E+04  0.29405946517E+04  0.00000000000E+00 0. -1.
         23    2    1    2    0    0 -0.35683578384E+03  0.59882269871E+03 -0.66116120587E+03  0.96500401292E+03  0.90433421219E+02 0.  0.
        254    2    1    2    0    0  0.35683578384E+03 -0.59882269871E+03 -0.19740176716E+04  0.22810064130E+04  0.90571744327E+03 0.  0.
        -24    2    4    4    0    0  0.12770462012E+03 -0.68334256490E+03 -0.18821194333E+04  0.20080302001E+04  0.80908544112E+02 0.  0.
         24    2    4    4    0    0  0.22913116373E+03  0.84519866184E+02 -0.91898238347E+02  0.27297621285E+03  0.80162513679E+02 0.  0.
         13    1    3    3    0    0 -0.18977681834E+03  0.30132275230E+03 -0.39841601758E+03  0.53436501092E+03  0.00000000000E+00 0. -1.
        -13    1    3    3    0    0 -0.16705896550E+03  0.29749994641E+03 -0.26274518829E+03  0.43063900200E+03  0.00000000000E+00 0.  1.
          4    1    6    6  502    0  0.78110949790E+02  0.14071451171E+02 -0.68221635230E+02  0.10465905469E+03  0.00000000000E+00 0. -1.
          3    1    5    5  503    0  0.90588848354E+02 -0.56630856112E+03 -0.14664491682E+04  0.15746062647E+04  0.00000000000E+00 0. -1.
         -4    1    5    5    0  503  0.37115771762E+02 -0.11703400378E+03 -0.41567026508E+03  0.43342393545E+03  0.00000000000E+00 0.  1.
         -3    1    6    6    0  502  0.15102021394E+03  0.70448415013E+02 -0.23676603117E+02  0.16831715816E+03  0.00000000000E+00 0.  1.
<mgrwt>
<rscale>  0 0.18953670E+04</rscale>
<asrwt>0</asrwt>
<pdfrwt beam="1">  1        2 0.45239919E+00 0.18953670E+04</pdfrwt>
<pdfrwt beam="2">  1       -2 0.46987041E-01 0.18953670E+04</pdfrwt>
<totfact> 0.76488320E+00</totfact>
</mgrwt>
</event>
<event>
12    1  0.1599266E-007  0.1524788E+04  0.7818608E-02  0.8868135E-01
          2   -1    0    0  501    0  0.00000000000E+00  0.00000000000E+00  0.12192225640E+04  0.12192225640E+04  0.00000000000E+00 0. -1.
         -2   -1    0    0    0  501 -0.00000000000E+00 -0.00000000000E+00 -0.47673376152E+03  0.47673376152E+03  0.00000000000E+00 0.  1.
         23    2    1    2    0    0  0.34531216101E+03 -0.34811552345E+03  0.17108051625E+03  0.52676542248E+03  0.88251691608E+02 0.  0.
        254    2    1    2    0    0 -0.34531216101E+03  0.34811552345E+03  0.57140828627E+03  0.11691909031E+04  0.89446913418E+03 0.  0.
        -24    2    4    4    0    0 -0.55000542118E+03  0.45295713687E+03  0.23599985705E+03  0.75483608623E+03  0.80034076346E+02 0.  0.
         24    2    4    4    0    0  0.20469326017E+03 -0.10484161343E+03  0.33540842922E+03  0.41435481684E+03  0.79372571992E+02 0.  0.
         13    1    3    3    0    0  0.51423718801E+02 -0.18510868732E+02  0.46733380249E+01  0.54853360925E+02  0.00000000000E+00 0. -1.
        -13    1    3    3    0    0  0.29388844221E+03 -0.32960465471E+03  0.16640717822E+03  0.47191206155E+03  0.00000000000E+00 0.  1.
          2    1    6    6  502    0  0.21162281568E+03 -0.10244944309E+03  0.33023277455E+03  0.40538104284E+03  0.00000000000E+00 0. -1.
          3    1    5    5  503    0 -0.20654880603E+03  0.13365055698E+03  0.10832998332E+03  0.26881269676E+03  0.00000000000E+00 0. -1.
         -4    1    5    5    0  503 -0.34345661515E+03  0.31930657990E+03  0.12766987373E+03  0.48602338947E+03  0.00000000000E+00 0.  1.
         -1    1    6    6    0  502 -0.69295555169E+01 -0.23921703344E+01  0.51756546734E+01  0.89737740037E+01  0.00000000000E+00 0.  1.
<mgrwt>
<rscale>  0 0.15247879E+04</rscale>
<asrwt>0</asrwt>
<pdfrwt beam="1">  1        2 0.18757270E+00 0.15247879E+04</pdfrwt>
<pdfrwt beam="2">  1       -2 0.73343656E-01 0.15247879E+04</pdfrwt>
<totfact> 0.29850161E+01</totfact>
</mgrwt>
</event>
<event>
12    1  0.1599266E-007  0.1705559E+04  0.7818608E-02  0.8758200E-01
          2   -1    0    0  501    0  0.00000000000E+00  0.00000000000E+00  0.26767076572E+04  0.26767076572E+04  0.00000000000E+00 0. -1.
         -2   -1    0    0    0  501 -0.00000000000E+00 -0.00000000000E+00 -0.27168933052E+03  0.27168933052E+03  0.00000000000E+00 0.  1.
         23    2    1    2    0    0  0.60027592688E+03 -0.46058879986E+02  0.70027589828E+03  0.92803587556E+03  0.91715014048E+02 0.  0.
        254    2    1    2    0    0 -0.60027592688E+03  0.46058879986E+02  0.17047424284E+04  0.20203611122E+04  0.90180910816E+03 0.  0.
        -24    2    4    4    0    0  0.12589268776E+03  0.19503655822E+03  0.13624101118E+03  0.28375653993E+03  0.89821673050E+02 0.  0.
         24    2    4    4    0    0 -0.72616861464E+03 -0.14897767823E+03  0.15685014172E+04  0.17366045722E+04  0.77997044864E+02 0.  0.
         13    1    3    3    0    0  0.10151656951E+03  0.22646145582E+02  0.96426740576E+02  0.14183292316E+03  0.00000000000E+00 0. -1.
        -13    1    3    3    0    0  0.49875935737E+03 -0.68705025567E+02  0.60384915770E+03  0.78620295240E+03  0.00000000000E+00 0.  1.
          4    1    6    6  502    0 -0.43661994510E+03 -0.11303079067E+03  0.10220021358E+04  0.11170950281E+04  0.00000000000E+00 0. -1.
          3    1    5    5  503    0  0.13078033240E+03  0.13359322801E+03  0.96141859023E+02  0.21022345961E+03  0.00000000000E+00 0. -1.
         -4    1    5    5    0  503 -0.48876446394E+01  0.61443330208E+02  0.40099152160E+02  0.73533080318E+02  0.00000000000E+00 0.  1.
         -3    1    6    6    0  502 -0.28954866954E+03 -0.35946887560E+02  0.54649928138E+03  0.61950954416E+03  0.00000000000E+00 0.  1.
<mgrwt>
<rscale>  0 0.17055590E+04</rscale>
<asrwt>0</asrwt>
<pdfrwt beam="1">  1        2 0.41180116E+00 0.17055590E+04</pdfrwt>
<pdfrwt beam="2">  1       -2 0.41798360E-01 0.17055590E+04</pdfrwt>
<totfact> 0.14179521E+01</totfact>
</mgrwt>
</event>
<event>
12    1  0.1599266E-007  0.2418050E+04  0.7818608E-02  0.8432777E-01
          1   -1    0    0  501    0  0.00000000000E+00  0.00000000000E+00  0.95369565724E+03  0.95369565724E+03  0.00000000000E+00 0. -1.
         -1   -1    0    0    0  501 -0.00000000000E+00 -0.00000000000E+00 -0.15327123833E+04  0.15327123833E+04  0.00000000000E+00 0.  1.
         23    2    1    2    0    0 -0.17330873841E+03  0.10311571905E+04 -0.30382385367E+03  0.10925760815E+04  0.89958265176E+02 0.  0.
        254    2    1    2    0    0  0.17330873841E+03 -0.10311571905E+04 -0.27519287242E+03  0.13938319590E+04  0.87961090408E+03 0.  0.
        -24    2    4    4    0    0  0.69586109038E+02 -0.11559911407E+04 -0.14163835433E+03  0.11695938393E+04  0.82040121537E+02 0.  0.
         24    2    4    4    0    0  0.10372262937E+03  0.12483395017E+03 -0.13355451810E+03  0.22423811973E+03  0.78128266815E+02 0.  0.
         11    1    3    3    0    0 -0.53355694872E+02  0.25476322259E+03 -0.37068814859E+02  0.26291676781E+03  0.00000000000E+00 0. -1.
        -11    1    3    3    0    0 -0.11995304353E+03  0.77639396795E+03 -0.26675503881E+03  0.82965931373E+03  0.00000000000E+00 0.  1.
          4    1    6    6  502    0 -0.10157864551E+02  0.11977135424E+02 -0.21206226143E+00  0.15706016542E+02  0.00000000000E+00 0. -1.
          3    1    5    5  503    0 -0.18750008371E+02 -0.18843901941E+03 -0.19513210550E+02  0.19037224650E+03  0.00000000000E+00 0. -1.
         -4    1    5    5    0  503  0.88336117408E+02 -0.96755212130E+03 -0.12212514378E+03  0.97922159281E+03  0.00000000000E+00 0.  1.
         -3    1    6    6    0  502  0.11388049392E+03  0.11285681475E+03 -0.13334245584E+03  0.20853210319E+03  0.00000000000E+00 0.  1.
<mgrwt>
<rscale>  0 0.24180497E+04</rscale>
<asrwt>0</asrwt>
<pdfrwt beam="1">  1        1 0.14672241E+00 0.24180497E+04</pdfrwt>
<pdfrwt beam="2">  1       -1 0.23580191E+00 0.24180497E+04</pdfrwt>
<totfact> 0.12725996E+00</totfact>
</mgrwt>
</event>
<event>
12    1  0.1599266E-007  0.1674416E+04  0.7818608E-02  0.8776092E-01
         -1   -1    0    0    0  501 -0.00000000000E+00  0.00000000000E+00  0.69768462684E+03  0.69768462684E+03  0.00000000000E+00 0.  1.
          1   -1    0    0  501    0  0.00000000000E+00 -0.00000000000E+00 -0.10046333620E+04  0.10046333620E+04  0.00000000000E+00 0. -1.
         23    2    1    2    0    0  0.51668771517E+03 -0.13702583750E+02 -0.40908924291E+03  0.66546885285E+03  0.91328142642E+02 0.  0.
        254    2    1    2    0    0 -0.51668771517E+03  0.13702583750E+02  0.10214050780E+03  0.10368491359E+04  0.89301147337E+03 0.  0.
        -24    2    4    4    0    0 -0.45480210219E+03  0.18315050358E+03  0.42806570502E+03  0.65558832728E+03  0.78528644019E+02 0.  0.
         24    2    4    4    0    0 -0.61885612983E+02 -0.16944791983E+03 -0.32592519722E+03  0.38126080867E+03  0.81179698278E+02 0.  0.
         11    1    3    3    0    0  0.30889067056E+03 -0.51272689684E+02 -0.22872264920E+03  0.38775815314E+03  0.00000000000E+00 0. -1.
        -11    1    3    3    0    0  0.20779704461E+03  0.37570105934E+02 -0.18036659371E+03  0.27771069971E+03  0.00000000000E+00 0.  1.
          4    1    6    6  502    0  0.13084421481E+02 -0.37216366472E+02 -0.11266755418E+03  0.11937435983E+03  0.00000000000E+00 0. -1.
          3    1    5    5  503    0 -0.28785350321E+02 -0.30510180888E+01  0.43346746360E+02  0.52123368314E+02  0.00000000000E+00 0. -1.
         -4    1    5    5    0  503 -0.42601675187E+03  0.18620152167E+03  0.38471895866E+03  0.60346495896E+03  0.00000000000E+00 0.  1.
         -3    1    6    6    0  502 -0.74970034463E+02 -0.13223155336E+03 -0.21325764304E+03  0.26188644884E+03  0.00000000000E+00 0.  1.
<mgrwt>
<rscale>  0 0.16744160E+04</rscale>
<asrwt>0</asrwt>
<pdfrwt beam="1">  1        1 0.15455898E+00 0.16744160E+04</pdfrwt>
<pdfrwt beam="2">  1       -1 0.10733610E+00 0.16744160E+04</pdfrwt>
<totfact> 0.11573526E+01</totfact>
</mgrwt>
</event>
<event>
12    1  0.1599266E-007  0.1776051E+04  0.7818608E-02  0.8719140E-01
          4   -1    0    0  501    0  0.00000000000E+00  0.00000000000E+00  0.69124777976E+03  0.69124777976E+03  0.00000000000E+00 0. -1.
         -4   -1    0    0    0  501 -0.00000000000E+00 -0.00000000000E+00 -0.11408196637E+04  0.11408196637E+04  0.00000000000E+00 0.  1.
         23    2    1    2    0    0  0.92069660474E+02  0.58914117057E+03 -0.44044810615E+03  0.74735352575E+03  0.94755564489E+02 0.  0.
        254    2    1    2    0    0 -0.92069660474E+02 -0.58914117057E+03 -0.91237778302E+01  0.10847139178E+04  0.90606671874E+03 0.  0.
        -24    2    4    4    0    0  0.11793218969E+03 -0.75775439856E+03  0.10711163932E+03  0.77836759105E+03  0.79268364512E+02 0.  0.
         24    2    4    4    0    0 -0.21000185017E+03  0.16861322799E+03 -0.11623541715E+03  0.30634632670E+03  0.88352713348E+02 0.  0.
         11    1    3    3    0    0  0.10302753355E+03  0.56770389079E+03 -0.43522148758E+03  0.72271718088E+03  0.00000000000E+00 0.  1.
        -11    1    3    3    0    0 -0.10957873081E+02  0.21437279784E+02 -0.52266185655E+01  0.24636344871E+02  0.00000000000E+00 0. -1.
          2    1    6    6  502    0 -0.16609288253E+03  0.11356723404E+03 -0.44988327963E+02  0.20617543968E+03  0.00000000000E+00 0. -1.
          3    1    5    5  503    0  0.94804858669E+02 -0.52986434012E+03  0.40413270567E+02  0.53979386121E+03  0.00000000000E+00 0. -1.
         -4    1    5    5    0  503  0.23127331025E+02 -0.22789005844E+03  0.66698368752E+02  0.23857372984E+03  0.00000000000E+00 0.  1.
         -3    1    6    6    0  502 -0.43908967640E+02  0.55045993952E+02 -0.71247089187E+02  0.10017088702E+03  0.00000000000E+00 0.  1.
<mgrwt>
<rscale>  0 0.17760507E+04</rscale>
<asrwt>0</asrwt>
<pdfrwt beam="1">  1        4 0.10634581E+00 0.17760507E+04</pdfrwt>
<pdfrwt beam="2">  1       -4 0.17551072E+00 0.17760507E+04</pdfrwt>
<totfact> 0.26038089E-01</totfact>
</mgrwt>
</event>
<event>
12    1  0.1599266E-007  0.1506492E+04  0.7818608E-02  0.8880147E-01
         -1   -1    0    0    0  501 -0.00000000000E+00  0.00000000000E+00  0.29122948287E+03  0.29122948287E+03  0.00000000000E+00 0.  1.
          1   -1    0    0  501    0  0.00000000000E+00 -0.00000000000E+00 -0.19482207263E+04  0.19482207263E+04  0.00000000000E+00 0. -1.
         23    2    1    2    0    0 -0.22268702888E+03 -0.42353815856E+03 -0.49728107860E+03  0.69711614583E+03  0.98531036048E+02 0.  0.
        254    2    1    2    0    0  0.22268702888E+03  0.42353815856E+03 -0.11597101648E+04  0.15423340633E+04  0.89715807522E+03 0.  0.
        -24    2    4    4    0    0  0.50744770993E+03  0.29726539928E+03 -0.10419573388E+04  0.11994817983E+04  0.84921097096E+02 0.  0.
         24    2    4    4    0    0 -0.28476068105E+03  0.12627275928E+03 -0.11775282599E+03  0.34285226497E+03  0.81538287678E+02 0.  0.
         11    1    3    3    0    0 -0.94543497412E+02 -0.12614415977E+03 -0.10967846825E+03  0.19204215252E+03  0.00000000000E+00 0.  1.
        -11    1    3    3    0    0 -0.12814353146E+03 -0.29739399878E+03 -0.38760261035E+03  0.50507399331E+03  0.00000000000E+00 0. -1.
          4    1    6    6  502    0 -0.18440368712E+03  0.99011921396E+02 -0.11501359482E+03  0.23882254374E+03  0.00000000000E+00 0. -1.
          1    1    5    5  503    0  0.70816155135E+02  0.15406905027E+02 -0.97584708903E+02  0.12155277028E+03  0.00000000000E+00 0. -1.
         -2    1    5    5    0  503  0.43663155479E+03  0.28185849425E+03 -0.94437262991E+03  0.10779290281E+04  0.00000000000E+00 0.  1.
         -3    1    6    6    0  502 -0.10035699393E+03  0.27260837881E+02 -0.27392311692E+01  0.10402972123E+03  0.00000000000E+00 0.  1.
<mgrwt>
<rscale>  0 0.15064917E+04</rscale>
<asrwt>0</asrwt>
<pdfrwt beam="1">  1        1 0.29972626E+00 0.15064917E+04</pdfrwt>
<pdfrwt beam="2">  1       -1 0.44804537E-01 0.15064917E+04</pdfrwt>
<totfact> 0.15432291E+01</totfact>
</mgrwt>
</event>
<event>
12    1  0.1599266E-007  0.1436561E+04  0.7818608E-02  0.8927771E-01
         -2   -1    0    0    0  501 -0.00000000000E+00  0.00000000000E+00  0.19426082588E+03  0.19426082588E+03  0.00000000000E+00 0.  1.
          2   -1    0    0  501    0  0.00000000000E+00 -0.00000000000E+00 -0.26558479840E+04  0.26558479840E+04  0.00000000000E+00 0. -1.
         23    2    1    2    0    0  0.10441458413E+03  0.40776087902E+03 -0.91173810893E+03  0.10087274217E+04  0.95358754973E+02 0.  0.
        254    2    1    2    0    0 -0.10441458413E+03 -0.40776087902E+03 -0.15498490492E+04  0.18413813882E+04  0.90082295800E+03 0.  0.
        -24    2    4    4    0    0  0.29588069024E+02 -0.66646504117E+03 -0.12284080376E+04  0.14000281061E+04  0.77725710229E+02 0.  0.
         24    2    4    4    0    0 -0.13400265315E+03  0.25870416215E+03 -0.32144101159E+03  0.44135328211E+03  0.81140872160E+02 0.  0.
         13    1    3    3    0    0  0.11782022728E+03  0.39327172030E+03 -0.85079738525E+03  0.94466948860E+03  0.00000000000E+00 0.  1.
        -13    1    3    3    0    0 -0.13405643150E+02  0.14489158718E+02 -0.60940723680E+02  0.64057933086E+02  0.00000000000E+00 0. -1.
          2    1    6    6  502    0 -0.11882026739E+03  0.14381953378E+03 -0.19849186216E+03  0.27239921730E+03  0.00000000000E+00 0. -1.
          3    1    5    5  503    0  0.53721402739E+02 -0.46954149137E+03 -0.83700067928E+03  0.96121035073E+03  0.00000000000E+00 0. -1.
         -4    1    5    5    0  503 -0.24133333716E+02 -0.19692354980E+03 -0.39140735829E+03  0.43881775533E+03  0.00000000000E+00 0.  1.
         -1    1    6    6    0  502 -0.15182385762E+02  0.11488462837E+03 -0.12294914942E+03  0.16895406481E+03  0.00000000000E+00 0.  1.
<mgrwt>
<rscale>  0 0.14365615E+04</rscale>
<asrwt>0</asrwt>
<pdfrwt beam="1">  1        2 0.40859200E+00 0.14365615E+04</pdfrwt>
<pdfrwt beam="2">  1       -2 0.29886281E-01 0.14365615E+04</pdfrwt>
<totfact> 0.28412529E+01</totfact>
</mgrwt>
</event>
<event>
12    1  0.1599266E-007  0.1282005E+04  0.7818608E-02  0.9043959E-01
         -2   -1    0    0    0  501 -0.00000000000E+00  0.00000000000E+00  0.85024473555E+03  0.85024473555E+03  0.00000000000E+00 0.  1.
          2   -1    0    0  501    0  0.00000000000E+00 -0.00000000000E+00 -0.48325382087E+03  0.48325382087E+03  0.00000000000E+00 0. -1.
         23    2    1    2    0    0 -0.21990692250E+02  0.11303373552E+03 -0.21154675580E+03  0.25775976917E+03  0.91803337635E+02 0.  0.
        254    2    1    2    0    0  0.21990692250E+02 -0.11303373552E+03  0.57853767048E+03  0.10757387872E+04  0.89958206203E+03 0.  0.
        -24    2    4    4    0    0 -0.18725315891E+03  0.34277081192E+03  0.27307857106E+03  0.48311090248E+03  0.79174889306E+02 0.  0.
         24    2    4    4    0    0  0.20924385116E+03 -0.45580454744E+03  0.30545909942E+03  0.59262788477E+03  0.79760727640E+02 0.  0.
         11    1    3    3    0    0  0.16675097238E+02  0.23830117445E+02 -0.50496683747E+01  0.29520035841E+02  0.00000000000E+00 0.  1.
        -11    1    3    3    0    0 -0.38665789488E+02  0.89203618077E+02 -0.20649708743E+03  0.22823973333E+03  0.00000000000E+00 0. -1.
          2    1    6    6  502    0  0.21069542362E+03 -0.40264833142E+03  0.27872745335E+03  0.53311090176E+03  0.00000000000E+00 0. -1.
          3    1    5    5  503    0 -0.18646628268E+03  0.31676488553E+03  0.27163958068E+03  0.45705331098E+03  0.00000000000E+00 0. -1.
         -4    1    5    5    0  503 -0.78687622383E+00  0.26005926387E+02  0.14389903785E+01  0.26057591499E+02  0.00000000000E+00 0.  1.
         -1    1    6    6    0  502 -0.14515724628E+01 -0.53156216027E+02  0.26731646065E+02  0.59516983007E+02  0.00000000000E+00 0.  1.
<mgrwt>
<rscale>  0 0.12820047E+04</rscale>
<asrwt>0</asrwt>
<pdfrwt beam="1">  1        2 0.74346742E-01 0.12820047E+04</pdfrwt>
<pdfrwt beam="2">  1       -2 0.13080688E+00 0.12820047E+04</pdfrwt>
<totfact> 0.26865149E+01</totfact>
</mgrwt>
</event>
<event>
12    1  0.1599266E-007  0.2168838E+04  0.7818608E-02  0.8531512E-01
          2   -1    0    0  501    0  0.00000000000E+00  0.00000000000E+00  0.14124304457E+04  0.14124304457E+04  0.00000000000E+00 0. -1.
         -2   -1    0    0    0  501 -0.00000000000E+00 -0.00000000000E+00 -0.83258191254E+03  0.83258191254E+03  0.00000000000E+00 0.  1.
         23    2    1    2    0    0 -0.49962568133E+03  0.72955379240E+03  0.35909134606E+03  0.95876992695E+03  0.91753041223E+02 0.  0.
        254    2    1    2    0    0  0.49962568133E+03 -0.72955379240E+03  0.22075718712E+03  0.12862424313E+04  0.90764051197E+03 0.  0.
        -24    2    4    4    0    0  0.24274503650E+03  0.14895030350E+03 -0.10056474674E+03  0.31281171964E+03  0.81403673150E+02 0.  0.
         24    2    4    4    0    0  0.25688064483E+03 -0.87850409589E+03  0.32132193386E+03  0.97343071166E+03  0.81008968879E+02 0.  0.
         13    1    3    3    0    0 -0.51816423965E+02  0.35903275351E+02  0.32010637765E+02  0.70701258147E+02  0.00000000000E+00 0.  1.
        -13    1    3    3    0    0 -0.44780925736E+03  0.69365051705E+03  0.32708070829E+03  0.88806866881E+03  0.00000000000E+00 0. -1.
          4    1    6    6  502    0  0.18008657612E+03 -0.68698924281E+03  0.21956993015E+03  0.74336824579E+03  0.00000000000E+00 0. -1.
          1    1    5    5  503    0  0.21326496020E+03  0.12896711683E+03 -0.55429151786E+02  0.25531715834E+03  0.00000000000E+00 0. -1.
         -2    1    5    5    0  503  0.29480076297E+02  0.19983186665E+02 -0.45135594956E+02  0.57494561306E+02  0.00000000000E+00 0.  1.
         -3    1    6    6    0  502  0.76794068716E+02 -0.19151485309E+03  0.10175200371E+03  0.23006246587E+03  0.00000000000E+00 0.  1.
<mgrwt>
<rscale>  0 0.21688375E+04</rscale>
<asrwt>0</asrwt>
<pdfrwt beam="1">  1        2 0.21729699E+00 0.21688375E+04</pdfrwt>
<pdfrwt beam="2">  1       -2 0.12808952E+00 0.21688375E+04</pdfrwt>
<totfact> 0.58828272E+00</totfact>
</mgrwt>
</event>
<event>
12    1  0.1599266E-007  0.1392111E+04  0.7818608E-02  0.8959549E-01
         -1   -1    0    0    0  501 -0.00000000000E+00  0.00000000000E+00  0.19765267641E+04  0.19765267641E+04  0.00000000000E+00 0.  1.
          1   -1    0    0  501    0  0.00000000000E+00 -0.00000000000E+00 -0.24512360573E+03  0.24512360573E+03  0.00000000000E+00 0. -1.
         23    2    1    2    0    0 -0.53576691906E+02 -0.39110452139E+03  0.52642206909E+03  0.66448166932E+03  0.92641704824E+02 0.  0.
        254    2    1    2    0    0  0.53576691906E+02  0.39110452139E+03  0.12049810893E+04  0.15571687005E+04  0.90385935177E+03 0.  0.
        -24    2    4    4    0    0  0.40192440927E+03  0.69438483777E+01  0.28761904127E+03  0.50050667554E+03  0.78681456293E+02 0.  0.
         24    2    4    4    0    0 -0.34834771736E+03  0.38416067301E+03  0.91736204801E+03  0.10566620250E+04  0.77820003988E+02 0.  0.
         11    1    3    3    0    0 -0.25396278280E+02 -0.71739943700E+02  0.16276939640E+03  0.17968157077E+03  0.00000000000E+00 0.  1.
        -11    1    3    3    0    0 -0.28180413626E+02 -0.31936457769E+03  0.36365267269E+03  0.48480009854E+03  0.00000000000E+00 0. -1.
          2    1    6    6  502    0 -0.34764613273E+02  0.41658555564E+02  0.55246020859E+02  0.77434723531E+02  0.00000000000E+00 0. -1.
          3    1    5    5  503    0  0.13287907767E+03 -0.48929375867E+01  0.52334399983E+02  0.14289744414E+03  0.00000000000E+00 0. -1.
         -4    1    5    5    0  503  0.26904533160E+03  0.11836785964E+02  0.23528464129E+03  0.35760923141E+03  0.00000000000E+00 0.  1.
         -1    1    6    6    0  502 -0.31358310409E+03  0.34250211744E+03  0.86211602715E+03  0.97922730145E+03  0.00000000000E+00 0.  1.
<mgrwt>
<rscale>  0 0.13921112E+04</rscale>
<asrwt>0</asrwt>
<pdfrwt beam="1">  1        1 0.37711325E-01 0.13921112E+04</pdfrwt>
<pdfrwt beam="2">  1       -1 0.30408103E+00 0.13921112E+04</pdfrwt>
<totfact> 0.34722356E+00</totfact>
</mgrwt>
</event>
<event>
12    1  0.1599266E-007  0.1277216E+04  0.7818608E-02  0.9047831E-01
          2   -1    0    0  501    0  0.00000000000E+00  0.00000000000E+00  0.15735813091E+04  0.15735813091E+04  0.00000000000E+00 0. -1.
         -2   -1    0    0    0  501 -0.00000000000E+00 -0.00000000000E+00 -0.25916689735E+03  0.25916689735E+03  0.00000000000E+00 0.  1.
         23    2    1    2    0    0 -0.21855377875E+03  0.60044198558E+02  0.64182684565E+03  0.68297653169E+03  0.56073015367E+02 0.  0.
        254    2    1    2    0    0  0.21855377875E+03 -0.60044198558E+02  0.67258756613E+03  0.11497716748E+04  0.90456056186E+03 0.  0.
        -24    2    4    4    0    0  0.23185169918E+03 -0.45738780365E+03  0.45445999873E+03  0.68970672058E+03  0.78756946544E+02 0.  0.
         24    2    4    4    0    0 -0.13297920421E+02  0.39734360509E+03  0.21812756740E+03  0.46006495422E+03  0.77597366209E+02 0.  0.
         11    1    3    3    0    0 -0.83771476114E+02  0.16335203094E+02  0.16829357230E+03  0.18869876933E+03  0.00000000000E+00 0. -1.
        -11    1    3    3    0    0 -0.13478230264E+03  0.43708995464E+02  0.47353327335E+03  0.49427776235E+03  0.00000000000E+00 0.  1.
          4    1    6    6  502    0 -0.24900056200E+02  0.76686439310E+02  0.69497047021E+02  0.10644558383E+03  0.00000000000E+00 0. -1.
          3    1    5    5  503    0  0.80743835807E+02 -0.95371397310E+02  0.13339312785E+03  0.18278128187E+03  0.00000000000E+00 0. -1.
         -4    1    5    5    0  503  0.15110786337E+03 -0.36201640634E+03  0.32106687088E+03  0.50692543871E+03  0.00000000000E+00 0.  1.
         -3    1    6    6    0  502  0.11602135779E+02  0.32065716578E+03  0.14863052038E+03  0.35361937039E+03  0.00000000000E+00 0.  1.
<mgrwt>
<rscale>  0 0.12772160E+04</rscale>
<asrwt>0</asrwt>
<pdfrwt beam="1">  1        2 0.24208943E+00 0.12772160E+04</pdfrwt>
<pdfrwt beam="2">  1       -2 0.39871831E-01 0.12772160E+04</pdfrwt>
<totfact> 0.67391961E+01</totfact>
</mgrwt>
</event>
<event>
12    1  0.1599266E-007  0.1409090E+04  0.7818608E-02  0.8947265E-01
          1   -1    0    0  501    0  0.00000000000E+00  0.00000000000E+00  0.13260810864E+03  0.13260810864E+03  0.00000000000E+00 0. -1.
         -1   -1    0    0    0  501 -0.00000000000E+00 -0.00000000000E+00 -0.37432400714E+04  0.37432400714E+04  0.00000000000E+00 0.  1.
         23    2    1    2    0    0 -0.26274932462E+03  0.27942647056E+03 -0.68108476766E+03  0.78695451426E+03  0.91129505324E+02 0.  0.
        254    2    1    2    0    0  0.26274932462E+03 -0.27942647056E+03 -0.29295471951E+04  0.30888936657E+04  0.90105546450E+03 0.  0.
        -24    2    4    4    0    0  0.21405601380E+03 -0.50627793407E+03 -0.10006710716E+04  0.11444501396E+04  0.79285590535E+02 0.  0.
         24    2    4    4    0    0  0.48693310816E+02  0.22685146351E+03 -0.19288761234E+04  0.19444435261E+04  0.80404612883E+02 0.  0.
         11    1    3    3    0    0 -0.20097192149E+03  0.25461046103E+03 -0.59974189048E+03  0.68184054976E+03  0.00000000000E+00 0. -1.
        -11    1    3    3    0    0 -0.61777403128E+02  0.24816009525E+02 -0.81342877183E+02  0.10511396451E+03  0.00000000000E+00 0.  1.
          4    1    6    6  502    0 -0.31996387240E+01  0.13784360434E+03 -0.12850147250E+04  0.12923907847E+04  0.00000000000E+00 0. -1.
          1    1    5    5  503    0  0.21107252825E+03 -0.46379816415E+03 -0.95185299365E+03  0.10796686857E+04  0.00000000000E+00 0. -1.
         -2    1    5    5    0  503  0.29834855527E+01 -0.42479769921E+02 -0.48818077976E+02  0.64781453950E+02  0.00000000000E+00 0.  1.
         -3    1    6    6    0  502  0.51892949540E+02  0.89007859175E+02 -0.64386139841E+03  0.65205274140E+03  0.00000000000E+00 0.  1.
<mgrwt>
<rscale>  0 0.14090905E+04</rscale>
<asrwt>0</asrwt>
<pdfrwt beam="1">  1        1 0.20401250E-01 0.14090905E+04</pdfrwt>
<pdfrwt beam="2">  1       -1 0.57588301E+00 0.14090905E+04</pdfrwt>
<totfact> 0.13669933E-01</totfact>
</mgrwt>
</event>
<event>
12    1  0.1599266E-007  0.2737088E+04  0.7818608E-02  0.8323071E-01
          1   -1    0    0  501    0  0.00000000000E+00  0.00000000000E+00  0.44226024869E+04  0.44226024869E+04  0.00000000000E+00 0. -1.
         -1   -1    0    0    0  501 -0.00000000000E+00 -0.00000000000E+00 -0.42348662157E+03  0.42348662157E+03  0.00000000000E+00 0.  1.
         23    2    1    2    0    0 -0.60527918211E+03  0.10610645800E+04  0.18341980497E+04  0.22061793886E+04  0.10355712353E+03 0.  0.
        254    2    1    2    0    0  0.60527918211E+03 -0.10610645800E+04  0.21649178157E+04  0.26399097199E+04  0.88883814585E+03 0.  0.
        -24    2    4    4    0    0  0.33579225008E+03 -0.24080755028E+03  0.14686195495E+04  0.15278919081E+04  0.82858855968E+02 0.  0.
         24    2    4    4    0    0  0.26948693203E+03 -0.82025702972E+03  0.69629826613E+03  0.11120178118E+04  0.79420004359E+02 0.  0.
         11    1    3    3    0    0 -0.48207520764E+03  0.91207734415E+03  0.15758373273E+04  0.18834927315E+04  0.00000000000E+00 0. -1.
        -11    1    3    3    0    0 -0.12320397447E+03  0.14898723585E+03  0.25836072242E+03  0.32268665708E+03  0.00000000000E+00 0.  1.
          4    1    6    6  502    0  0.24209318188E+03 -0.75714229499E+03  0.66518828688E+03  0.10365080900E+04  0.00000000000E+00 0. -1.
          3    1    5    5  503    0  0.25731746620E+03 -0.15733902181E+03  0.11640036114E+04  0.12024442829E+04  0.00000000000E+00 0. -1.
         -4    1    5    5    0  503  0.78474783886E+02 -0.83468528469E+02  0.30461593812E+03  0.32544762514E+03  0.00000000000E+00 0.  1.
         -3    1    6    6    0  502  0.27393750152E+02 -0.63114734731E+02  0.31109979246E+02  0.75509721865E+02  0.00000000000E+00 0.  1.
<mgrwt>
<rscale>  0 0.27370882E+04</rscale>
<asrwt>0</asrwt>
<pdfrwt beam="1">  1        1 0.68040035E+00 0.27370882E+04</pdfrwt>
<pdfrwt beam="2">  1       -1 0.65151791E-01 0.27370882E+04</pdfrwt>
<totfact> 0.80371439E-02</totfact>
</mgrwt>
</event>
<event>
12    1  0.1599266E-007  0.1446227E+04  0.7818608E-02  0.8921021E-01
          1   -1    0    0  501    0  0.00000000000E+00  0.00000000000E+00  0.69728832781E+03  0.69728832781E+03  0.00000000000E+00 0. -1.
         -1   -1    0    0    0  501 -0.00000000000E+00 -0.00000000000E+00 -0.74989490125E+03  0.74989490125E+03  0.00000000000E+00 0.  1.
         23    2    1    2    0    0  0.10952970089E+03  0.24040431460E+03 -0.38180764869E+03  0.47354838761E+03  0.93166544203E+02 0.  0.
        254    2    1    2    0    0 -0.10952970089E+03 -0.24040431460E+03  0.32920107526E+03  0.97363484145E+03  0.87738273671E+03 0.  0.
        -24    2    4    4    0    0 -0.35395201566E+03  0.18551364762E+03  0.77408963605E+02  0.41536028393E+03  0.82672093122E+02 0.  0.
         24    2    4    4    0    0  0.24442231476E+03 -0.42591796222E+03  0.25179211165E+03  0.55827455751E+03  0.84396893212E+02 0.  0.
         11    1    3    3    0    0  0.12231095019E+03  0.21166588429E+03 -0.36044852896E+03  0.43552905430E+03  0.00000000000E+00 0.  1.
        -11    1    3    3    0    0 -0.12781249296E+02  0.28738430306E+02 -0.21359119727E+02  0.38019333312E+02  0.00000000000E+00 0. -1.
          4    1    6    6  502    0  0.46312203288E+02 -0.69771431867E+02  0.80634600073E+02  0.11625322192E+03  0.00000000000E+00 0. -1.
          3    1    5    5  503    0 -0.27285163399E+02  0.29354776828E+02  0.30286062210E+02  0.50233739941E+02  0.00000000000E+00 0. -1.
         -4    1    5    5    0  503 -0.32666685226E+03  0.15615887079E+03  0.47122901396E+02  0.36512654399E+03  0.00000000000E+00 0.  1.
         -3    1    6    6    0  502  0.19811011147E+03 -0.35614653035E+03  0.17115751158E+03  0.44202133559E+03  0.00000000000E+00 0.  1.
<mgrwt>
<rscale>  0 0.14462268E+04</rscale>
<asrwt>0</asrwt>
<pdfrwt beam="1">  1        1 0.10727513E+00 0.14462268E+04</pdfrwt>
<pdfrwt beam="2">  1       -1 0.11536845E+00 0.14462268E+04</pdfrwt>
<totfact> 0.18142236E+01</totfact>
</mgrwt>
</event>
<event>
12    1  0.1599266E-007  0.1199473E+04  0.7818608E-02  0.9113318E-01
         -2   -1    0    0    0  501 -0.00000000000E+00  0.00000000000E+00  0.12845711050E+04  0.12845711050E+04  0.00000000000E+00 0.  1.
          2   -1    0    0  501    0  0.00000000000E+00 -0.00000000000E+00 -0.28000312562E+03  0.28000312562E+03  0.00000000000E+00 0. -1.
         23    2    1    2    0    0 -0.14417703189E+03  0.64205282128E+02 -0.25015733934E+02  0.18396487558E+03  0.91147977083E+02 0.  0.
        254    2    1    2    0    0  0.14417703189E+03 -0.64205282128E+02  0.10295837133E+04  0.13806093550E+04  0.90616236608E+03 0.  0.
        -24    2    4    4    0    0  0.39700361503E+02 -0.41616698144E+03  0.20174641676E+03  0.47139084445E+03  0.82077015108E+02 0.  0.
         24    2    4    4    0    0  0.10447667039E+03  0.35196169932E+03  0.82783729652E+03  0.90921851056E+03  0.81063542886E+02 0.  0.
         13    1    3    3    0    0 -0.15516899147E+03  0.59108500008E+02 -0.33214736185E+02  0.16933531642E+03  0.00000000000E+00 0. -1.
        -13    1    3    3    0    0  0.10991959580E+02  0.50967821195E+01  0.81990022512E+01  0.14629559163E+02  0.00000000000E+00 0.  1.
          4    1    6    6  502    0  0.43970837388E+02  0.18485797750E+03  0.52180342244E+03  0.55532397576E+03  0.00000000000E+00 0. -1.
          3    1    5    5  503    0  0.53587981604E+02 -0.18829869615E+03  0.70633065283E+02  0.20812760666E+03  0.00000000000E+00 0. -1.
         -4    1    5    5    0  503 -0.13887620101E+02 -0.22786828529E+03  0.13111335148E+03  0.26326323779E+03  0.00000000000E+00 0.  1.
         -3    1    6    6    0  502  0.60505833000E+02  0.16710372182E+03  0.30603387408E+03  0.35389453480E+03  0.00000000000E+00 0.  1.
<mgrwt>
<rscale>  0 0.11994731E+04</rscale>
<asrwt>0</asrwt>
<pdfrwt beam="1">  1        2 0.43077405E-01 0.11994731E+04</pdfrwt>
<pdfrwt beam="2">  1       -2 0.19762632E+00 0.11994731E+04</pdfrwt>
<totfact> 0.16122609E+01</totfact>
</mgrwt>
</event>
<event>
12    1  0.1599266E-007  0.2002851E+04  0.7818608E-02  0.8605289E-01
          2   -1    0    0  501    0  0.00000000000E+00  0.00000000000E+00  0.25683357325E+04  0.25683357325E+04  0.00000000000E+00 0. -1.
         -2   -1    0    0    0  501 -0.00000000000E+00 -0.00000000000E+00 -0.39046789262E+03  0.39046789262E+03  0.00000000000E+00 0.  1.
         23    2    1    2    0    0 -0.29228440173E+03 -0.56225579899E+03  0.15749517130E+04  0.17003497092E+04  0.95679048154E+02 0.  0.
        254    2    1    2    0    0  0.29228440173E+03  0.56225579899E+03  0.60291612681E+03  0.12584539159E+04  0.90478541511E+03 0.  0.
        -24    2    4    4    0    0 -0.55337727208E+02  0.28187257806E+02 -0.20364947205E+03  0.22751065487E+03  0.80194794472E+02 0.  0.
         24    2    4    4    0    0  0.34762212893E+03  0.53406854119E+03  0.80656559885E+03  0.10309432610E+04  0.78902413950E+02 0.  0.
         13    1    3    3    0    0 -0.18138797913E+03 -0.33412103389E+03  0.10643366713E+04  0.11301995461E+04  0.00000000000E+00 0. -1.
        -13    1    3    3    0    0 -0.11089642260E+03 -0.22813476511E+03  0.51061504175E+03  0.57015016308E+03  0.00000000000E+00 0.  1.
          4    1    6    6  502    0  0.33984422535E+03  0.51822289398E+03  0.80034879185E+03  0.10122288545E+04  0.00000000000E+00 0. -1.
          1    1    5    5  503    0 -0.43484531036E+02  0.38208656487E+01 -0.19383818962E+03  0.19869259475E+03  0.00000000000E+00 0. -1.
         -2    1    5    5    0  503 -0.11853196172E+02  0.24366392157E+02 -0.98112824249E+01  0.28818060120E+02  0.00000000000E+00 0.  1.
         -3    1    6    6    0  502  0.77779035824E+01  0.15845647208E+02  0.62168070003E+01  0.18714406452E+02  0.00000000000E+00 0.  1.
<mgrwt>
<rscale>  0 0.20028506E+04</rscale>
<asrwt>0</asrwt>
<pdfrwt beam="1">  1        2 0.39512856E+00 0.20028506E+04</pdfrwt>
<pdfrwt beam="2">  1       -2 0.60071985E-01 0.20028506E+04</pdfrwt>
<totfact> 0.76269149E+00</totfact>
</mgrwt>
</event>
<event>
12    1  0.1599266E-007  0.1805715E+04  0.7818608E-02  0.8703266E-01
         -1   -1    0    0    0  501 -0.00000000000E+00  0.00000000000E+00  0.81565345789E+03  0.81565345789E+03  0.00000000000E+00 0.  1.
          1   -1    0    0  501    0  0.00000000000E+00 -0.00000000000E+00 -0.99938435354E+03  0.99938435354E+03  0.00000000000E+00 0. -1.
         23    2    1    2    0    0 -0.43871920040E+03  0.43367975715E+03  0.20688488756E+03  0.65681119793E+03  0.89704651285E+02 0.  0.
        254    2    1    2    0    0  0.43871920040E+03 -0.43367975715E+03 -0.39061578321E+03  0.11582266135E+04  0.89908594115E+03 0.  0.
        -24    2    4    4    0    0  0.48901621878E+02 -0.47931872375E+03 -0.54239330860E+03  0.73001248631E+03  0.81178330775E+02 0.  0.
         24    2    4    4    0    0  0.38981757853E+03  0.45638966601E+02  0.15177752539E+03  0.42821412720E+03  0.79311170197E+02 0.  0.
         13    1    3    3    0    0 -0.30760259774E+03  0.31100594502E+03  0.10308635887E+03  0.44941167471E+03  0.00000000000E+00 0. -1.
        -13    1    3    3    0    0 -0.13111660266E+03  0.12267381212E+03  0.10379852869E+03  0.20739952322E+03  0.00000000000E+00 0.  1.
          2    1    6    6  502    0  0.38100304983E+03  0.34432500350E+02  0.15630398463E+03  0.41325519558E+03  0.00000000000E+00 0. -1.
          3    1    5    5  503    0  0.11882805203E+01 -0.74391665556E+02 -0.13191305344E+03  0.15144829343E+03  0.00000000000E+00 0. -1.
         -4    1    5    5    0  503  0.47713341358E+02 -0.40492705819E+03 -0.41048025516E+03  0.57856419287E+03  0.00000000000E+00 0.  1.
         -1    1    6    6    0  502  0.88145286956E+01  0.11206466251E+02 -0.45264592407E+01  0.14958931620E+02  0.00000000000E+00 0.  1.
<mgrwt>
<rscale>  0 0.18057146E+04</rscale>
<asrwt>0</asrwt>
<pdfrwt beam="1">  1        1 0.15375144E+00 0.18057146E+04</pdfrwt>
<pdfrwt beam="2">  1       -1 0.12548515E+00 0.18057146E+04</pdfrwt>
<totfact> 0.79196345E+00</totfact>
</mgrwt>
</event>
<event>
12    1  0.1599266E-007  0.1560243E+04  0.7818608E-02  0.8845351E-01
          2   -1    0    0  501    0  0.00000000000E+00  0.00000000000E+00  0.41524470469E+03  0.41524470469E+03  0.00000000000E+00 0. -1.
         -2   -1    0    0    0  501 -0.00000000000E+00 -0.00000000000E+00 -0.14656175810E+04  0.14656175810E+04  0.00000000000E+00 0.  1.
         23    2    1    2    0    0  0.20355607268E+03 -0.38182830440E+03 -0.27696621881E+02  0.44317412164E+03  0.91696621895E+02 0.  0.
        254    2    1    2    0    0 -0.20355607268E+03  0.38182830440E+03 -0.10226762545E+04  0.14376881641E+04  0.91315530275E+03 0.  0.
        -24    2    4    4    0    0  0.29354123990E+03  0.27774888313E+03 -0.17797914034E+03  0.44889053632E+03  0.80717021727E+02 0.  0.
         24    2    4    4    0    0 -0.49709731258E+03  0.10407942126E+03 -0.84469711413E+03  0.98879762777E+03  0.79178721645E+02 0.  0.
         13    1    3    3    0    0  0.19042486339E+03 -0.32794882897E+03 -0.51722944397E+02  0.38273662746E+03  0.00000000000E+00 0. -1.
        -13    1    3    3    0    0  0.13131209285E+02 -0.53879475422E+02  0.24026322517E+02  0.60437494180E+02  0.00000000000E+00 0.  1.
          4    1    6    6  502    0 -0.17031818347E+03  0.36995135791E+02 -0.22064925632E+03  0.28118146810E+03  0.00000000000E+00 0. -1.
          1    1    5    5  503    0  0.15909226410E+03  0.96581446460E+02 -0.70880937421E+02  0.19915429090E+03  0.00000000000E+00 0. -1.
         -2    1    5    5    0  503  0.13444897580E+03  0.18116743667E+03 -0.10709820292E+03  0.24973624542E+03  0.00000000000E+00 0.  1.
         -3    1    6    6    0  502 -0.32677912911E+03  0.67084285472E+02 -0.62404785782E+03  0.70761615967E+03  0.00000000000E+00 0.  1.
<mgrwt>
<rscale>  0 0.15602435E+04</rscale>
<asrwt>0</asrwt>
<pdfrwt beam="1">  1        2 0.63883803E-01 0.15602435E+04</pdfrwt>
<pdfrwt beam="2">  1       -2 0.22547962E+00 0.15602435E+04</pdfrwt>
<totfact> 0.66876409E+00</totfact>
</mgrwt>
</event>
<event>
12    1  0.1599266E-007  0.2866405E+04  0.7818608E-02  0.8282944E-01
          2   -1    0    0  501    0  0.00000000000E+00  0.00000000000E+00  0.12465787930E+04  0.12465787930E+04  0.00000000000E+00 0. -1.
         -2   -1    0    0    0  501 -0.00000000000E+00 -0.00000000000E+00 -0.16477650919E+04  0.16477650919E+04  0.00000000000E+00 0.  1.
         23    2    1    2    0    0 -0.94171566008E+03  0.32931087431E+03  0.64933287243E+03  0.11941151535E+04  0.94888272600E+02 0.  0.
        254    2    1    2    0    0  0.94171566008E+03 -0.32931087431E+03 -0.10505191713E+04  0.17002287313E+04  0.88989503491E+03 0.  0.
        -24    2    4    4    0    0  0.39199153891E+03  0.22715102148E+03 -0.10750480058E+03  0.47239468266E+03  0.79652375525E+02 0.  0.
         24    2    4    4    0    0  0.54972412117E+03 -0.55646189579E+03 -0.94301437075E+03  0.12278340487E+04  0.80336148679E+02 0.  0.
         13    1    3    3    0    0 -0.76814133576E+03  0.22854916165E+03  0.51672817577E+03  0.95356375698E+03  0.00000000000E+00 0. -1.
        -13    1    3    3    0    0 -0.17357432432E+03  0.10076171267E+03  0.13260469666E+03  0.24055139654E+03  0.00000000000E+00 0.  1.
          4    1    6    6  502    0  0.73008729980E+02 -0.46599907455E+02 -0.13104383756E+03  0.15708059521E+03  0.00000000000E+00 0. -1.
          3    1    5    5  503    0  0.13239994155E+03  0.37685906686E+02 -0.46318253717E+02  0.14524239296E+03  0.00000000000E+00 0. -1.
         -4    1    5    5    0  503  0.25959159737E+03  0.18946511479E+03 -0.61186546858E+02  0.32715228971E+03  0.00000000000E+00 0.  1.
         -1    1    6    6    0  502  0.47671539119E+03 -0.50986198833E+03 -0.81197053318E+03  0.10707534535E+04  0.00000000000E+00 0.  1.
<mgrwt>
<rscale>  0 0.28664047E+04</rscale>
<asrwt>0</asrwt>
<pdfrwt beam="1">  1        2 0.19178135E+00 0.28664047E+04</pdfrwt>
<pdfrwt beam="2">  1       -2 0.25350232E+00 0.28664047E+04</pdfrwt>
<totfact> 0.94046678E-01</totfact>
</mgrwt>
</event>
<event>
12    1  0.1599266E-007  0.1412398E+04  0.7818608E-02  0.8944893E-01
          3   -1    0    0  501    0  0.00000000000E+00  0.00000000000E+00  0.26537681902E+04  0.26537681902E+04  0.00000000000E+00 0. -1.
         -3   -1    0    0    0  501 -0.00000000000E+00 -0.00000000000E+00 -0.18792800072E+03  0.18792800072E+03  0.00000000000E+00 0.  1.
         23    2    1    2    0    0 -0.31180368197E+03 -0.53077287775E+02  0.96538317909E+03  0.10199293911E+04  0.90843523361E+02 0.  0.
        254    2    1    2    0    0  0.31180368197E+03  0.53077287775E+02  0.15004570104E+04  0.18217667999E+04  0.98357729664E+03 0.  0.
        -24    2    4    4    0    0  0.63335668885E+03  0.17733945308E+03  0.81040472088E+03  0.10467671435E+04  0.79847756509E+02 0.  0.
         24    2    4    4    0    0 -0.32155300688E+03 -0.12426216530E+03  0.69005228954E+03  0.77499965635E+03  0.74932523524E+02 0.  0.
         13    1    3    3    0    0 -0.31306366310E+03 -0.48125717349E+02  0.89561363786E+03  0.94997301549E+03  0.00000000000E+00 0. -1.
        -13    1    3    3    0    0  0.12599811340E+01 -0.49515704264E+01  0.69769541228E+02  0.69956375587E+02  0.00000000000E+00 0.  1.
          4    1    6    6  502    0 -0.53203458049E+02 -0.45565515917E+02  0.10073266005E+03  0.12269430708E+03  0.00000000000E+00 0. -1.
          1    1    5    5  503    0  0.35517683107E+03  0.12895316679E+03  0.50677107502E+03  0.63213639591E+03  0.00000000000E+00 0. -1.
         -2    1    5    5    0  503  0.27817985778E+03  0.48386286283E+02  0.30363364586E+03  0.41463074762E+03  0.00000000000E+00 0.  1.
         -3    1    6    6    0  502 -0.26834954883E+03 -0.78696649386E+02  0.58931962949E+03  0.65230534927E+03  0.00000000000E+00 0.  1.
<mgrwt>
<rscale>  0 0.14123985E+04</rscale>
<asrwt>0</asrwt>
<pdfrwt beam="1">  1        3 0.40827200E+00 0.14123985E+04</pdfrwt>
<pdfrwt beam="2">  1       -3 0.28912002E-01 0.14123985E+04</pdfrwt>
<totfact> 0.30204070E-01</totfact>
</mgrwt>
</event>
<event>
12    1  0.1599266E-007  0.1277635E+04  0.7818608E-02  0.9047491E-01
         -1   -1    0    0    0  501 -0.00000000000E+00  0.00000000000E+00  0.17034655550E+04  0.17034655550E+04  0.00000000000E+00 0.  1.
          1   -1    0    0  501    0  0.00000000000E+00 -0.00000000000E+00 -0.23956342230E+03  0.23956342230E+03  0.00000000000E+00 0. -1.
         23    2    1    2    0    0  0.11423413089E+03  0.21496450810E+03  0.10295361653E+04  0.10619840437E+04  0.92769699228E+02 0.  0.
        254    2    1    2    0    0 -0.11423413089E+03 -0.21496450810E+03  0.43436596741E+03  0.88104493357E+03  0.72684744268E+03 0.  0.
        -24    2    4    4    0    0 -0.73170787045E+02 -0.47656955393E+03  0.25950387647E+03  0.55341434745E+03  0.80328539448E+02 0.  0.
         24    2    4    4    0    0 -0.41063343844E+02  0.26160504583E+03  0.17486209094E+03  0.32763058612E+03  0.81496330627E+02 0.  0.
         11    1    3    3    0    0  0.21623977833E+02  0.54260516693E+02  0.11678079847E+03  0.13057394449E+03  0.00000000000E+00 0. -1.
        -11    1    3    3    0    0  0.92610153056E+02  0.16070399141E+03  0.91275536679E+03  0.93141009921E+03  0.00000000000E+00 0.  1.
          2    1    6    6  502    0  0.93027038655E+01  0.13567061003E+03  0.11985325152E+03  0.18126736228E+03  0.00000000000E+00 0. -1.
          1    1    5    5  503    0 -0.90731606944E+02 -0.38645533112E+03  0.21302179034E+03  0.45050885742E+03  0.00000000000E+00 0. -1.
         -4    1    5    5    0  503  0.17560819899E+02 -0.90114222804E+02  0.46482086132E+02  0.10290549003E+03  0.00000000000E+00 0.  1.
         -1    1    6    6    0  502 -0.50366047709E+02  0.12593443579E+03  0.55008839412E+02  0.14636322384E+03  0.00000000000E+00 0.  1.
<mgrwt>
<rscale>  0 0.12776354E+04</rscale>
<asrwt>0</asrwt>
<pdfrwt beam="1">  1        1 0.36855912E-01 0.12776354E+04</pdfrwt>
<pdfrwt beam="2">  1       -1 0.26207162E+00 0.12776354E+04</pdfrwt>
<totfact> 0.67466119E+00</totfact>
</mgrwt>
</event>
<event>
12    1  0.1599266E-007  0.2245960E+04  0.7818608E-02  0.8499538E-01
          1   -1    0    0  501    0  0.00000000000E+00  0.00000000000E+00  0.27389988962E+04  0.27389988962E+04  0.00000000000E+00 0. -1.
         -1   -1    0    0    0  501 -0.00000000000E+00 -0.00000000000E+00 -0.46041785119E+03  0.46041785119E+03  0.00000000000E+00 0.  1.
         23    2    1    2    0    0 -0.34282299338E+03 -0.38110999574E+03 -0.15833425380E+03  0.54418224498E+03  0.91061222169E+02 0.  0.
        254    2    1    2    0    0  0.34282299338E+03  0.38110999574E+03  0.24369152988E+04  0.26552345024E+04  0.92138029908E+03 0.  0.
        -24    2    4    4    0    0  0.48309899402E+03 -0.67859220222E+02  0.17534080402E+04  0.18217568103E+04  0.79803563385E+02 0.  0.
         24    2    4    4    0    0 -0.14027600064E+03  0.44896921596E+03  0.68350725857E+03  0.83347769205E+03  0.79070711241E+02 0.  0.
         13    1    3    3    0    0 -0.33345597359E+03 -0.35716879561E+03 -0.12940004362E+03  0.50547681071E+03  0.00000000000E+00 0.  1.
        -13    1    3    3    0    0 -0.93670197927E+01 -0.23941200132E+02 -0.28934210173E+02  0.38705434268E+02  0.00000000000E+00 0. -1.
          2    1    6    6  502    0 -0.57627723579E+02  0.85020659673E+02  0.17109383332E+03  0.19955592423E+03  0.00000000000E+00 0. -1.
          1    1    5    5  503    0  0.44863943805E+03 -0.60018841404E+02  0.15292751063E+04  0.15948548390E+04  0.00000000000E+00 0. -1.
         -2    1    5    5    0  503  0.34459555978E+02 -0.78403788178E+01  0.22413293387E+03  0.22690197131E+03  0.00000000000E+00 0.  1.
         -1    1    6    6    0  502 -0.82648277062E+02  0.36394855629E+03  0.51241342525E+03  0.63392176781E+03  0.00000000000E+00 0.  1.
<mgrwt>
<rscale>  0 0.22459599E+04</rscale>
<asrwt>0</asrwt>
<pdfrwt beam="1">  1        1 0.42138444E+00 0.22459599E+04</pdfrwt>
<pdfrwt beam="2">  1       -1 0.70833517E-01 0.22459599E+04</pdfrwt>
<totfact> 0.16843405E+00</totfact>
</mgrwt>
</event>
<event>
12    1  0.1599266E-007  0.2000701E+04  0.7818608E-02  0.8606293E-01
          2   -1    0    0  501    0  0.00000000000E+00  0.00000000000E+00  0.27703184678E+04  0.27703184678E+04  0.00000000000E+00 0. -1.
         -2   -1    0    0    0  501 -0.00000000000E+00 -0.00000000000E+00 -0.36122234900E+03  0.36122234900E+03  0.00000000000E+00 0.  1.
         23    2    1    2    0    0 -0.21927379976E+03  0.76024213254E+03  0.85224541801E+03  0.11668390685E+04  0.95614120269E+02 0.  0.
        254    2    1    2    0    0  0.21927379976E+03 -0.76024213254E+03  0.15568507008E+04  0.19647017483E+04  0.90012207826E+03 0.  0.
        -24    2    4    4    0    0  0.56383003421E+03 -0.41942587095E+03  0.92092602315E+03  0.11611233621E+04  0.79248679421E+02 0.  0.
         24    2    4    4    0    0 -0.34455623445E+03 -0.34081626159E+03  0.63592467769E+03  0.80357838622E+03  0.80394677914E+02 0.  0.
         11    1    3    3    0    0 -0.21223818203E+03  0.71266481753E+03  0.76271916563E+03  0.10652120510E+04  0.00000000000E+00 0. -1.
        -11    1    3    3    0    0 -0.70356177336E+01  0.47577315007E+02  0.89526252384E+02  0.10162701750E+03  0.00000000000E+00 0.  1.
          2    1    6    6  502    0 -0.60516484041E+02 -0.10469396675E+03  0.17923146796E+03  0.21621052385E+03  0.00000000000E+00 0. -1.
          1    1    5    5  503    0  0.21799515078E+03 -0.11964342432E+03  0.35138967486E+03  0.43047780238E+03  0.00000000000E+00 0. -1.
         -2    1    5    5    0  503  0.34583488343E+03 -0.29978244663E+03  0.56953634829E+03  0.73064555971E+03  0.00000000000E+00 0.  1.
         -1    1    6    6    0  502 -0.28403975041E+03 -0.23612229485E+03  0.45669320973E+03  0.58736786237E+03  0.00000000000E+00 0.  1.
<mgrwt>
<rscale>  0 0.20007008E+04</rscale>
<asrwt>0</asrwt>
<pdfrwt beam="1">  1        2 0.42620283E+00 0.20007008E+04</pdfrwt>
<pdfrwt beam="2">  1       -2 0.55572671E-01 0.20007008E+04</pdfrwt>
<totfact> 0.68212445E+00</totfact>
</mgrwt>
</event>
<event>
12    1  0.1599266E-007  0.2247017E+04  0.7818608E-02  0.8499110E-01
         -2   -1    0    0    0  501 -0.00000000000E+00  0.00000000000E+00  0.89663742509E+03  0.89663742509E+03  0.00000000000E+00 0.  1.
          2   -1    0    0  501    0  0.00000000000E+00 -0.00000000000E+00 -0.14077829993E+04  0.14077829993E+04  0.00000000000E+00 0. -1.
         23    2    1    2    0    0  0.46955579277E+03  0.57825905773E+03 -0.81053297973E+03  0.11045195108E+04  0.90185686975E+02 0.  0.
        254    2    1    2    0    0 -0.46955579277E+03 -0.57825905773E+03  0.29938740548E+03  0.11999009136E+04  0.89177531005E+03 0.  0.
        -24    2    4    4    0    0 -0.31821641050E+03  0.13836309637E+03 -0.88830935237E+02  0.36715450440E+03  0.80656460954E+02 0.  0.
         24    2    4    4    0    0 -0.15133938227E+03 -0.71662215410E+03  0.38821834071E+03  0.83274640924E+03  0.79386281296E+02 0.  0.
         11    1    3    3    0    0  0.23785202804E+03  0.29464929644E+03 -0.34559004335E+03  0.51266389886E+03  0.00000000000E+00 0. -1.
        -11    1    3    3    0    0  0.23170376472E+03  0.28360976128E+03 -0.46494293638E+03  0.59185561193E+03  0.00000000000E+00 0.  1.
          2    1    6    6  502    0 -0.42889395423E+02 -0.89028825761E+02  0.37703524263E+02  0.10576950316E+03  0.00000000000E+00 0. -1.
          3    1    5    5  503    0 -0.30946684277E+03  0.11311339193E+03 -0.83469316405E+02  0.33989923946E+03  0.00000000000E+00 0. -1.
         -4    1    5    5    0  503 -0.87495677338E+01  0.25249704447E+02 -0.53616188321E+01  0.27255264935E+02  0.00000000000E+00 0.  1.
         -1    1    6    6    0  502 -0.10844998684E+03 -0.62759332834E+03  0.35051481645E+03  0.72697690608E+03  0.00000000000E+00 0.  1.
<mgrwt>
<rscale>  0 0.22470166E+04</rscale>
<asrwt>0</asrwt>
<pdfrwt beam="1">  1        2 0.21658200E+00 0.22470166E+04</pdfrwt>
<pdfrwt beam="2">  1       -2 0.13794422E+00 0.22470166E+04</pdfrwt>
<totfact> 0.48681940E+00</totfact>
</mgrwt>
</event>
<event>
12    1  0.2620432E-007  0.1779223E+04  0.7818608E-02  0.8717427E-01
         -1   -1    0    0    0  501 -0.00000000000E+00  0.00000000000E+00  0.58248612197E+03  0.58248612197E+03  0.00000000000E+00 0.  1.
          1   -1    0    0  501    0  0.00000000000E+00 -0.00000000000E+00 -0.13586731568E+04  0.13586731568E+04  0.00000000000E+00 0. -1.
         23    2    1    2    0    0  0.16209574611E+03 -0.22350853330E+03  0.37213249650E+03  0.47234435927E+03  0.91626979741E+02 0.  0.
        254    2    1    2    0    0 -0.16209574611E+03  0.22350853330E+03 -0.11483195313E+04  0.14688149195E+04  0.87324018825E+03 0.  0.
        -24    2    4    4    0    0 -0.47917430560E+03  0.27543224767E+02 -0.40553511271E+03  0.63377862371E+03  0.82764556696E+02 0.  0.
         24    2    4    4    0    0  0.31707855949E+03  0.19596530853E+03 -0.74278441863E+03  0.83503629581E+03  0.81337000946E+02 0.  0.
         11    1    3    3    0    0  0.35517730803E+02 -0.41177356038E+01  0.30100618688E+02  0.46738765424E+02  0.00000000000E+00 0. -1.
        -11    1    3    3    0    0  0.12657801531E+03 -0.21939079769E+03  0.34203187781E+03  0.42560559385E+03  0.00000000000E+00 0.  1.
          2    1    6    6  502    0  0.16519231255E+01  0.13831222098E+02 -0.11497056757E+02  0.18061391663E+02  0.00000000000E+00 0. -1.
          3    1    5    5  503    0 -0.17769068548E+02 -0.99264543326E+00 -0.42195320834E+02  0.45794871354E+02  0.00000000000E+00 0. -1.
         -4    1    5    5    0  503 -0.46140523706E+03  0.28535870200E+02 -0.36333979188E+03  0.58798375235E+03  0.00000000000E+00 0.  1.
         -1    1    6    6    0  502  0.31542663637E+03  0.18213408643E+03 -0.73128736187E+03  0.81697490415E+03  0.00000000000E+00 0.  1.
<mgrwt>
<rscale>  0 0.17792226E+04</rscale>
<asrwt>0</asrwt>
<pdfrwt beam="1">  1        1 0.20902664E+00 0.17792226E+04</pdfrwt>
<pdfrwt beam="2">  1       -1 0.89613249E-01 0.17792226E+04</pdfrwt>
<totfact> 0.94716334E+00</totfact>
</mgrwt>
</event>
<event>
12    1  0.1599266E-007  0.1981607E+04  0.7818608E-02  0.8615269E-01
         -1   -1    0    0    0  501 -0.00000000000E+00  0.00000000000E+00  0.47271357684E+03  0.47271357684E+03  0.00000000000E+00 0.  1.
          1   -1    0    0  501    0  0.00000000000E+00 -0.00000000000E+00 -0.20767152057E+04  0.20767152057E+04  0.00000000000E+00 0. -1.
         23    2    1    2    0    0 -0.56836676605E+03  0.22768284155E+03 -0.12584551724E+04  0.14023670080E+04  0.89685824575E+02 0.  0.
        254    2    1    2    0    0  0.56836676605E+03 -0.22768284155E+03 -0.34554645642E+03  0.11470617745E+04  0.90634877604E+03 0.  0.
        -24    2    4    4    0    0 -0.18990517515E+03 -0.22842260468E+03  0.87564404395E+01  0.30637120073E+03  0.74469963829E+02 0.  0.
         24    2    4    4    0    0  0.75827194120E+03  0.73976313033E+00 -0.35430289685E+03  0.84069057374E+03  0.79077266001E+02 0.  0.
         13    1    3    3    0    0 -0.10226388087E+01  0.68358229685E+01 -0.36474379010E+02  0.37123504548E+02  0.00000000000E+00 0.  1.
        -13    1    3    3    0    0 -0.56734412725E+03  0.22084701858E+03 -0.12219807934E+04  0.13652435035E+04  0.00000000000E+00 0. -1.
          2    1    6    6  502    0  0.60125081112E+03 -0.30623888625E+02 -0.28824407156E+03  0.66747659526E+03  0.00000000000E+00 0. -1.
          3    1    5    5  503    0 -0.18400217169E+03 -0.20233891337E+03 -0.10051388201E+02  0.27367657089E+03  0.00000000000E+00 0. -1.
         -4    1    5    5    0  503 -0.59030034548E+01 -0.26083691309E+02  0.18807828641E+02  0.32694629838E+02  0.00000000000E+00 0.  1.
         -1    1    6    6    0  502  0.15702113008E+03  0.31363651755E+02 -0.66058825290E+02  0.17321397849E+03  0.00000000000E+00 0.  1.
<mgrwt>
<rscale>  0 0.19816069E+04</rscale>
<asrwt>0</asrwt>
<pdfrwt beam="1">  1        1 0.31949464E+00 0.19816069E+04</pdfrwt>
<pdfrwt beam="2">  1       -1 0.72725167E-01 0.19816069E+04</pdfrwt>
<totfact> 0.46819329E+00</totfact>
</mgrwt>
</event>
<event>
12    1  0.1599266E-007  0.1680532E+04  0.7818608E-02  0.8772546E-01
          1   -1    0    0  501    0  0.00000000000E+00  0.00000000000E+00  0.91719586338E+03  0.91719586338E+03  0.00000000000E+00 0. -1.
         -1   -1    0    0    0  501 -0.00000000000E+00 -0.00000000000E+00 -0.76978823048E+03  0.76978823048E+03  0.00000000000E+00 0.  1.
         23    2    1    2    0    0 -0.10749441063E+03  0.56005681808E+03  0.73758854421E+02  0.58219735665E+03  0.91075274905E+02 0.  0.
        254    2    1    2    0    0  0.10749441063E+03 -0.56005681808E+03  0.73648778482E+02  0.11047867372E+04  0.94335089143E+03 0.  0.
        -24    2    4    4    0    0  0.46274352106E+03 -0.84547092050E+02  0.15328136756E+03  0.50119404214E+03  0.80128104759E+02 0.  0.
         24    2    4    4    0    0 -0.35524911043E+03 -0.47550972603E+03 -0.79632589075E+02  0.60359269507E+03  0.75308447711E+02 0.  0.
         13    1    3    3    0    0 -0.56740745833E+01  0.71499163431E+02  0.39707915360E+02  0.81981973848E+02  0.00000000000E+00 0.  1.
        -13    1    3    3    0    0 -0.10182033605E+03  0.48855765464E+03  0.34050939061E+02  0.50021538281E+03  0.00000000000E+00 0. -1.
          4    1    6    6  502    0 -0.14971593156E+02 -0.21926594073E+02 -0.20383648914E+02  0.33472634678E+02  0.00000000000E+00 0. -1.
          1    1    5    5  503    0  0.10870499392E+03 -0.48168397416E+02  0.17078179610E+02  0.12011925088E+03  0.00000000000E+00 0. -1.
         -2    1    5    5    0  503  0.35403852715E+03 -0.36378694634E+02  0.13620318795E+03  0.38107479126E+03  0.00000000000E+00 0.  1.
         -3    1    6    6    0  502 -0.34027751727E+03 -0.45358313195E+03 -0.59248940161E+02  0.57012006039E+03  0.00000000000E+00 0.  1.
<mgrwt>
<rscale>  0 0.16805316E+04</rscale>
<asrwt>0</asrwt>
<pdfrwt beam="1">  1        1 0.14110706E+00 0.16805316E+04</pdfrwt>
<pdfrwt beam="2">  1       -1 0.11842896E+00 0.16805316E+04</pdfrwt>
<totfact> 0.10738687E+01</totfact>
</mgrwt>
</event>
<event>
12    1  0.1599266E-007  0.2763839E+04  0.7818608E-02  0.8314584E-01
          1   -1    0    0  501    0  0.00000000000E+00  0.00000000000E+00  0.21627796569E+04  0.21627796569E+04  0.00000000000E+00 0. -1.
         -1   -1    0    0    0  501 -0.00000000000E+00 -0.00000000000E+00 -0.88298465427E+03  0.88298465427E+03  0.00000000000E+00 0.  1.
         23    2    1    2    0    0 -0.43425911384E+02 -0.67503046845E+03  0.17058309264E+04  0.18373867623E+04  0.92623009606E+02 0.  0.
        254    2    1    2    0    0  0.43425911384E+02  0.67503046845E+03 -0.42603592370E+03  0.12083775489E+04  0.90615547741E+03 0.  0.
        -24    2    4    4    0    0  0.45110610782E+03  0.20323204706E+03 -0.20704115690E+03  0.54260989294E+03  0.82215994781E+02 0.  0.
         24    2    4    4    0    0 -0.40768019643E+03  0.47179842139E+03 -0.21899476680E+03  0.66576765595E+03  0.80566561525E+02 0.  0.
         13    1    3    3    0    0 -0.14857544761E+02 -0.40608021195E+03  0.11395326991E+04  0.12098167868E+04  0.00000000000E+00 0.  1.
        -13    1    3    3    0    0 -0.28568366623E+02 -0.26895025650E+03  0.56629822722E+03  0.62756997554E+03  0.00000000000E+00 0. -1.
          2    1    6    6  502    0 -0.26596639443E+03  0.24708503331E+03 -0.12354520007E+03  0.38347431871E+03  0.00000000000E+00 0. -1.
          3    1    5    5  503    0  0.33707403723E+03  0.16872759016E+03 -0.19043828615E+03  0.42232055016E+03  0.00000000000E+00 0. -1.
         -4    1    5    5    0  503  0.11403207058E+03  0.34504456898E+02 -0.16602870753E+02  0.12028934277E+03  0.00000000000E+00 0.  1.
         -1    1    6    6    0  502 -0.14171380200E+03  0.22471338808E+03 -0.95449566722E+02  0.28229333723E+03  0.00000000000E+00 0.  1.
<mgrwt>
<rscale>  0 0.27638388E+04</rscale>
<asrwt>0</asrwt>
<pdfrwt beam="1">  1        1 0.33273533E+00 0.27638388E+04</pdfrwt>
<pdfrwt beam="2">  1       -1 0.13584379E+00 0.27638388E+04</pdfrwt>
<totfact> 0.90903171E-01</totfact>
</mgrwt>
</event>
<event>
12    1  0.1599266E-007  0.1990452E+04  0.7818608E-02  0.8611098E-01
          2   -1    0    0  501    0  0.00000000000E+00  0.00000000000E+00  0.89808390923E+03  0.89808390923E+03  0.00000000000E+00 0.  1.
         -2   -1    0    0    0  501 -0.00000000000E+00 -0.00000000000E+00 -0.11028752056E+04  0.11028752056E+04  0.00000000000E+00 0. -1.
         23    2    1    2    0    0  0.21490082195E+03 -0.70406408167E+03 -0.35653816737E+03  0.82293193885E+03  0.90603072886E+02 0.  0.
        254    2    1    2    0    0 -0.21490082195E+03  0.70406408167E+03  0.15174687099E+03  0.11780271760E+04  0.90710105289E+03 0.  0.
        -24    2    4    4    0    0  0.21479840465E+03  0.67854185831E+03  0.31012618737E+01  0.71610353721E+03  0.78976262662E+02 0.  0.
         24    2    4    4    0    0 -0.42969922660E+03  0.25522223357E+02  0.14864560912E+03  0.46192363878E+03  0.77363568504E+02 0.  0.
         13    1    3    3    0    0  0.24018386075E+02 -0.10078533980E+03 -0.86471013548E+02  0.13495111623E+03  0.00000000000E+00 0.  1.
        -13    1    3    3    0    0  0.19088243587E+03 -0.60327874187E+03 -0.27006715383E+03  0.68798082262E+03  0.00000000000E+00 0. -1.
          2    1    6    6  502    0 -0.28362877032E+03  0.91958935566E+01  0.13517372612E+03  0.31432750443E+03  0.00000000000E+00 0. -1.
          3    1    5    5  503    0  0.60403383020E+02  0.31430108395E+03 -0.10974558211E+02  0.32024081716E+03  0.00000000000E+00 0. -1.
         -4    1    5    5    0  503  0.15439502163E+03  0.36424077437E+03  0.14075820084E+02  0.39586272005E+03  0.00000000000E+00 0.  1.
         -1    1    6    6    0  502 -0.14607045628E+03  0.16326329800E+02  0.13471882993E+02  0.14759613434E+03  0.00000000000E+00 0.  1.
<mgrwt>
<rscale>  0 0.19904517E+04</rscale>
<asrwt>0</asrwt>
<pdfrwt beam="1">  1        2 0.13816675E+00 0.19904517E+04</pdfrwt>
<pdfrwt beam="2">  1       -2 0.16967311E+00 0.19904517E+04</pdfrwt>
<totfact> 0.58573617E+00</totfact>
</mgrwt>
</event>
<event>
12    1  0.1599266E-007  0.2341609E+04  0.7818608E-02  0.8461693E-01
         -2   -1    0    0    0  501 -0.00000000000E+00  0.00000000000E+00  0.11370700293E+04  0.11370700293E+04  0.00000000000E+00 0.  1.
          2   -1    0    0  501    0  0.00000000000E+00 -0.00000000000E+00 -0.12055402766E+04  0.12055402766E+04  0.00000000000E+00 0. -1.
         23    2    1    2    0    0 -0.45488592377E+02 -0.36324279822E+03 -0.92001076360E+03  0.99422309733E+03  0.89695148299E+02 0.  0.
        254    2    1    2    0    0  0.45488592377E+02  0.36324279822E+03  0.85154051637E+03  0.13483872085E+04  0.97929171888E+03 0.  0.
        -24    2    4    4    0    0 -0.25447416902E+03 -0.77768932351E+02  0.74891037839E+03  0.79889419917E+03  0.80994302736E+02 0.  0.
         24    2    4    4    0    0  0.29996276140E+03  0.44101173057E+03  0.10263013798E+03  0.54949300937E+03  0.83310367907E+02 0.  0.
         11    1    3    3    0    0 -0.59871436110E+02 -0.34856701238E+03 -0.83594837797E+03  0.90768565132E+03  0.00000000000E+00 0. -1.
        -11    1    3    3    0    0  0.14382843733E+02 -0.14675785836E+02 -0.84062385631E+02  0.86537446009E+02  0.00000000000E+00 0.  1.
          4    1    6    6  502    0  0.44904504663E+02  0.49461289686E+02  0.40400511939E+02  0.78070705655E+02  0.00000000000E+00 0. -1.
          3    1    5    5  503    0 -0.10017765623E+03 -0.68891815938E+02  0.28273807920E+03  0.30777015213E+03  0.00000000000E+00 0. -1.
         -4    1    5    5    0  503 -0.15429651280E+03 -0.88771164131E+01  0.46617229918E+03  0.49112404704E+03  0.00000000000E+00 0.  1.
         -3    1    6    6    0  502  0.25505825674E+03  0.39155044088E+03  0.62229626041E+02  0.47142230372E+03  0.00000000000E+00 0.  1.
<mgrwt>
<rscale>  0 0.23416095E+04</rscale>
<asrwt>0</asrwt>
<pdfrwt beam="1">  1        2 0.18546774E+00 0.23416095E+04</pdfrwt>
<pdfrwt beam="2">  1       -2 0.17493385E+00 0.23416095E+04</pdfrwt>
<totfact> 0.33405630E+00</totfact>
</mgrwt>
</event>
<event>
12    1  0.1599266E-007  0.1926471E+04  0.7818608E-02  0.8641791E-01
         -2   -1    0    0    0  501 -0.00000000000E+00  0.00000000000E+00  0.14976752850E+04  0.14976752850E+04  0.00000000000E+00 0.  1.
          2   -1    0    0  501    0  0.00000000000E+00 -0.00000000000E+00 -0.61950861477E+03  0.61950861477E+03  0.00000000000E+00 0. -1.
         23    2    1    2    0    0 -0.69113621561E+03  0.23682082608E+03  0.52903124644E+03  0.90668801482E+03  0.91955012445E+02 0.  0.
        254    2    1    2    0    0  0.69113621561E+03 -0.23682082608E+03  0.34913542376E+03  0.12104958849E+04  0.89980629642E+03 0.  0.
        -24    2    4    4    0    0  0.16685874831E+03 -0.25803655672E+03 -0.25401850980E+03  0.40716938004E+03  0.82684909344E+02 0.  0.
         24    2    4    4    0    0  0.52427746730E+03  0.21215730639E+02  0.60315393356E+03  0.80332650487E+03  0.78878615038E+02 0.  0.
         13    1    3    3    0    0 -0.14010166723E+03  0.86230110078E+02  0.13372069023E+03  0.21200314159E+03  0.00000000000E+00 0. -1.
        -13    1    3    3    0    0 -0.55103454838E+03  0.15059071600E+03  0.39531055620E+03  0.69468487323E+03  0.00000000000E+00 0.  1.
          4    1    6    6  502    0  0.28043865750E+03 -0.28031531796E+02  0.31883456149E+03  0.42554328216E+03  0.00000000000E+00 0. -1.
          3    1    5    5  503    0  0.11657787279E+03 -0.13421161237E+03 -0.18570083929E+03  0.25707578461E+03  0.00000000000E+00 0. -1.
         -4    1    5    5    0  503  0.50280875518E+02 -0.12382494435E+03 -0.68317670505E+02  0.15009359543E+03  0.00000000000E+00 0.  1.
         -3    1    6    6    0  502  0.24383880980E+03  0.49247262435E+02  0.28431937208E+03  0.37778322271E+03  0.00000000000E+00 0.  1.
<mgrwt>
<rscale>  0 0.19264711E+04</rscale>
<asrwt>0</asrwt>
<pdfrwt beam="1">  1        2 0.95309018E-01 0.19264711E+04</pdfrwt>
<pdfrwt beam="2">  1       -2 0.23041158E+00 0.19264711E+04</pdfrwt>
<totfact> 0.37872007E+00</totfact>
</mgrwt>
</event>
<event>
12    1  0.1599266E-007  0.1445467E+04  0.7818608E-02  0.8921549E-01
          1   -1    0    0  501    0  0.00000000000E+00  0.00000000000E+00  0.61583336402E+03  0.61583336402E+03  0.00000000000E+00 0. -1.
         -1   -1    0    0    0  501 -0.00000000000E+00 -0.00000000000E+00 -0.84819004376E+03  0.84819004376E+03  0.00000000000E+00 0.  1.
         23    2    1    2    0    0 -0.25809246543E+03  0.12355882028E+03  0.27157014201E+03  0.40485079948E+03  0.90968813485E+02 0.  0.
        254    2    1    2    0    0  0.25809246543E+03 -0.12355882028E+03 -0.50392682175E+03  0.10591726083E+04  0.88658100008E+03 0.  0.
        -24    2    4    4    0    0  0.65707797721E+02 -0.44035747943E+02  0.24929855316E+03  0.27366097153E+03  0.80522648683E+02 0.  0.
         24    2    4    4    0    0  0.19238466771E+03 -0.79523072335E+02 -0.75322537491E+03  0.78551163677E+03  0.79651030644E+02 0.  0.
         13    1    3    3    0    0 -0.11440271985E+02 -0.13623369858E+02  0.12518684278E+02  0.21753010951E+02  0.00000000000E+00 0.  1.
        -13    1    3    3    0    0 -0.24665219345E+03  0.13718219014E+03  0.25905145773E+03  0.38309778853E+03  0.00000000000E+00 0. -1.
          4    1    6    6  502    0  0.87519953992E+02  0.11744891837E+01 -0.23861291114E+03  0.25415987711E+03  0.00000000000E+00 0. -1.
          1    1    5    5  503    0  0.34655804697E+02  0.13406462626E+02  0.40840328660E+02  0.55214948016E+02  0.00000000000E+00 0. -1.
         -2    1    5    5    0  503  0.31051993024E+02 -0.57442210569E+02  0.20845822450E+03  0.21844602351E+03  0.00000000000E+00 0.  1.
         -3    1    6    6    0  502  0.10486471372E+03 -0.80697561519E+02 -0.51461246377E+03  0.53135175965E+03  0.00000000000E+00 0.  1.
<mgrwt>
<rscale>  0 0.14454670E+04</rscale>
<asrwt>0</asrwt>
<pdfrwt beam="1">  1        1 0.94743595E-01 0.14454670E+04</pdfrwt>
<pdfrwt beam="2">  1       -1 0.13049078E+00 0.14454670E+04</pdfrwt>
<totfact> 0.16098092E+01</totfact>
</mgrwt>
</event>
<event>
12    1  0.1599266E-007  0.2069375E+04  0.7818608E-02  0.8574855E-01
         -1   -1    0    0    0  501 -0.00000000000E+00  0.00000000000E+00  0.96078809382E+03  0.96078809382E+03  0.00000000000E+00 0. -1.
          1   -1    0    0  501    0  0.00000000000E+00 -0.00000000000E+00 -0.11142707438E+04  0.11142707438E+04  0.00000000000E+00 0.  1.
         23    2    1    2    0    0 -0.76415269834E+03 -0.22793069761E+03  0.20504552037E+03  0.82860254701E+03  0.93041744419E+02 0.  0.
        254    2    1    2    0    0  0.76415269834E+03  0.22793069761E+03 -0.35852817036E+03  0.12464562906E+04  0.88838566298E+03 0.  0.
        -24    2    4    4    0    0  0.90287281045E+03  0.30762692470E+03 -0.14589311181E+03  0.96820075576E+03  0.79462360516E+02 0.  0.
         24    2    4    4    0    0 -0.13872011211E+03 -0.79696227087E+02 -0.21263505855E+03  0.27825553486E+03  0.81349348100E+02 0.  0.
         13    1    3    3    0    0 -0.13593005056E+03 -0.38866941557E+02  0.74051560502E+02  0.15959715349E+03  0.00000000000E+00 0.  1.
        -13    1    3    3    0    0 -0.62822264778E+03 -0.18906375605E+03  0.13099395986E+03  0.66900539352E+03  0.00000000000E+00 0. -1.
          4    1    6    6  502    0 -0.61481668421E+02  0.86777320710E+01 -0.71741684593E+02  0.94879754921E+02  0.00000000000E+00 0. -1.
          3    1    5    5  503    0  0.61809439827E+03  0.17947031299E+03 -0.75088517227E+02  0.64798808927E+03  0.00000000000E+00 0. -1.
         -4    1    5    5    0  503  0.28477841218E+03  0.12815661171E+03 -0.70804594586E+02  0.32021266649E+03  0.00000000000E+00 0.  1.
         -3    1    6    6    0  502 -0.77238443694E+02 -0.88373959158E+02 -0.14089337396E+03  0.18337577993E+03  0.00000000000E+00 0.  1.
<mgrwt>
<rscale>  0 0.20693748E+04</rscale>
<asrwt>0</asrwt>
<pdfrwt beam="1">  1        1 0.17142627E+00 0.20693748E+04</pdfrwt>
<pdfrwt beam="2">  1       -1 0.14781355E+00 0.20693748E+04</pdfrwt>
<totfact> 0.41402446E+00</totfact>
</mgrwt>
</event>
<event>
12    1  0.1599266E-007  0.1108120E+04  0.7818608E-02  0.9197313E-01
          1   -1    0    0  501    0  0.00000000000E+00  0.00000000000E+00  0.25219304075E+04  0.25219304075E+04  0.00000000000E+00 0. -1.
         -1   -1    0    0    0  501 -0.00000000000E+00 -0.00000000000E+00 -0.12172524920E+03  0.12172524920E+03  0.00000000000E+00 0.  1.
         23    2    1    2    0    0  0.16949475494E+03 -0.93020712443E+02  0.63344851763E+03  0.66846507290E+03  0.90593621750E+02 0.  0.
        254    2    1    2    0    0 -0.16949475494E+03  0.93020712443E+02  0.17667566406E+04  0.19751905838E+04  0.86172355779E+03 0.  0.
        -24    2    4    4    0    0  0.12297092533E+03  0.13206830494E+03  0.15508236078E+02  0.19770301524E+03  0.79259644212E+02 0.  0.
         24    2    4    4    0    0 -0.29246568027E+03 -0.39047592498E+02  0.17512484045E+04  0.17774875685E+04  0.74365268594E+02 0.  0.
         11    1    3    3    0    0  0.11710562522E+03 -0.41003147025E+02  0.50774206174E+03  0.52268249136E+03  0.00000000000E+00 0.  1.
        -11    1    3    3    0    0  0.52389129722E+02 -0.52017565418E+02  0.12570645589E+03  0.14578258153E+03  0.00000000000E+00 0. -1.
          2    1    6    6  502    0 -0.12006971969E+03  0.20603788892E+02  0.71516488531E+03  0.72546679241E+03  0.00000000000E+00 0. -1.
          1    1    5    5  503    0 -0.14339177206E+01 -0.82043014956E+01 -0.39252865355E+01  0.92073100005E+01  0.00000000000E+00 0. -1.
         -2    1    5    5    0  503  0.12440484305E+03  0.14027260644E+03  0.19433522614E+02  0.18849570524E+03  0.00000000000E+00 0.  1.
         -1    1    6    6    0  502 -0.17239596058E+03 -0.59651381389E+02  0.10360835192E+04  0.10520207761E+04  0.00000000000E+00 0.  1.
<mgrwt>
<rscale>  0 0.11081202E+04</rscale>
<asrwt>0</asrwt>
<pdfrwt beam="1">  1        1 0.38798925E+00 0.11081202E+04</pdfrwt>
<pdfrwt beam="2">  1       -1 0.18726963E-01 0.11081202E+04</pdfrwt>
<totfact> 0.30009543E+01</totfact>
</mgrwt>
</event>
<event>
12    1  0.1599266E-007  0.1857357E+04  0.7818608E-02  0.8676379E-01
         -2   -1    0    0    0  501 -0.00000000000E+00  0.00000000000E+00  0.73594846438E+03  0.73594846438E+03  0.00000000000E+00 0.  1.
          2   -1    0    0  501    0  0.00000000000E+00 -0.00000000000E+00 -0.11718802509E+04  0.11718802509E+04  0.00000000000E+00 0. -1.
         23    2    1    2    0    0 -0.65755041519E+03 -0.19476584713E+03 -0.28594853478E+02  0.69754174744E+03  0.12425996962E+03 0.  0.
        254    2    1    2    0    0  0.65755041519E+03  0.19476584713E+03 -0.40733693304E+03  0.12102869678E+04  0.91025539480E+03 0.  0.
        -24    2    4    4    0    0  0.24412959897E+03  0.51996222290E+03 -0.34504032112E+03  0.67456818272E+03  0.77649440436E+02 0.  0.
         24    2    4    4    0    0  0.41342081622E+03 -0.32519637576E+03 -0.62296611913E+02  0.53571878512E+03  0.80276364984E+02 0.  0.
         11    1    3    3    0    0 -0.22217587186E+03 -0.47888215818E+02 -0.65643697552E+02  0.23656815990E+03  0.00000000000E+00 0. -1.
        -11    1    3    3    0    0 -0.43537454333E+03 -0.14687763132E+03  0.37048844074E+02  0.46097358753E+03  0.00000000000E+00 0.  1.
          2    1    6    6  502    0  0.10627024335E+03 -0.45172529541E+02 -0.26983958428E+02  0.11858354043E+03  0.00000000000E+00 0. -1.
          3    1    5    5  503    0  0.90646876854E+02  0.13161291133E+03 -0.69457619850E+02  0.17425032473E+03  0.00000000000E+00 0. -1.
         -4    1    5    5    0  503  0.15348272211E+03  0.38834931157E+03 -0.27558270127E+03  0.50031785799E+03  0.00000000000E+00 0.  1.
         -1    1    6    6    0  502  0.30715057287E+03 -0.28002384622E+03 -0.35312653485E+02  0.41713524469E+03  0.00000000000E+00 0.  1.
<mgrwt>
<rscale>  0 0.18573567E+04</rscale>
<asrwt>0</asrwt>
<pdfrwt beam="1">  1        2 0.18028927E+00 0.18573567E+04</pdfrwt>
<pdfrwt beam="2">  1       -2 0.11322284E+00 0.18573567E+04</pdfrwt>
<totfact> 0.11336679E+01</totfact>
</mgrwt>
</event>
<event>
12    1  0.1599266E-007  0.2118003E+04  0.7818608E-02  0.8553354E-01
         -1   -1    0    0    0  501 -0.00000000000E+00  0.00000000000E+00  0.39958336235E+03  0.39958336235E+03  0.00000000000E+00 0.  1.
          1   -1    0    0  501    0  0.00000000000E+00 -0.00000000000E+00 -0.28066348183E+04  0.28066348183E+04  0.00000000000E+00 0. -1.
         23    2    1    2    0    0  0.56853761656E+03  0.11829359198E+03 -0.19504460583E+04  0.20370699010E+04  0.90474083192E+02 0.  0.
        254    2    1    2    0    0 -0.56853761656E+03 -0.11829359198E+03 -0.45660539765E+03  0.11691482797E+04  0.90619579307E+03 0.  0.
        -24    2    4    4    0    0 -0.37580828570E+03 -0.50637982296E+03 -0.26430469310E+03  0.68835167117E+03  0.79489997557E+02 0.  0.
         24    2    4    4    0    0 -0.19272933086E+03  0.38808623098E+03 -0.19230070455E+03  0.48079660851E+03  0.80189152246E+02 0.  0.
         13    1    3    3    0    0  0.35245297773E+03  0.31637944747E+02 -0.12349090451E+04  0.12846106066E+04  0.00000000000E+00 0. -1.
        -13    1    3    3    0    0  0.21608463883E+03  0.86655647232E+02 -0.71553701327E+03  0.75245929438E+03  0.00000000000E+00 0.  1.
          4    1    6    6  502    0 -0.82997307099E+02  0.21405961420E+03 -0.64018693080E+02  0.23834526318E+03  0.00000000000E+00 0. -1.
          3    1    5    5  503    0 -0.22307563488E+03 -0.26603338937E+03 -0.18162954292E+03  0.39182367718E+03  0.00000000000E+00 0. -1.
         -4    1    5    5    0  503 -0.15273265082E+03 -0.24034643359E+03 -0.82675150184E+02  0.29652799400E+03  0.00000000000E+00 0.  1.
         -3    1    6    6    0  502 -0.10973202376E+03  0.17402661678E+03 -0.12828201147E+03  0.24245134533E+03  0.00000000000E+00 0.  1.
<mgrwt>
<rscale>  0 0.21180034E+04</rscale>
<asrwt>0</asrwt>
<pdfrwt beam="1">  1        1 0.43178999E+00 0.21180034E+04</pdfrwt>
<pdfrwt beam="2">  1       -1 0.61474360E-01 0.21180034E+04</pdfrwt>
<totfact> 0.20331107E+00</totfact>
</mgrwt>
</event>
<event>
12    1  0.1599266E-007  0.3103565E+04  0.7818608E-02  0.8214760E-01
          2   -1    0    0  501    0  0.00000000000E+00  0.00000000000E+00  0.36380917558E+04  0.36380917558E+04  0.00000000000E+00 0. -1.
         -2   -1    0    0    0  501 -0.00000000000E+00 -0.00000000000E+00 -0.66189353807E+03  0.66189353807E+03  0.00000000000E+00 0.  1.
         23    2    1    2    0    0 -0.10363518377E+03 -0.16515361393E+03 -0.57973667901E+03  0.61860726088E+03  0.92543820532E+02 0.  0.
        254    2    1    2    0    0  0.10363518377E+03  0.16515361393E+03  0.35559348967E+04  0.36813780329E+04  0.93266031566E+03 0.  0.
        -24    2    4    4    0    0 -0.34469968560E+03  0.25707328255E+03  0.11360819342E+04  0.12173266069E+04  0.79355912814E+02 0.  0.
         24    2    4    4    0    0  0.44833486936E+03 -0.91919668617E+02  0.24198529625E+04  0.24640514260E+04  0.80048043853E+02 0.  0.
         13    1    3    3    0    0  0.36626461154E+01 -0.20115437567E+02 -0.16588952825E+03  0.16714479168E+03  0.00000000000E+00 0. -1.
        -13    1    3    3    0    0 -0.10729782988E+03 -0.14503817636E+03 -0.41384715076E+03  0.45146246920E+03  0.00000000000E+00 0.  1.
          4    1    6    6  502    0  0.64030368113E+02 -0.40208726769E+02  0.33274705172E+03  0.34122899961E+03  0.00000000000E+00 0. -1.
          1    1    5    5  503    0 -0.18298693450E+03  0.14222307792E+03  0.72012016026E+03  0.75649498829E+03  0.00000000000E+00 0. -1.
         -2    1    5    5    0  503 -0.16171275110E+03  0.11485020463E+03  0.41596177392E+03  0.46083161864E+03  0.00000000000E+00 0.  1.
         -3    1    6    6    0  502  0.38430450125E+03 -0.51710941848E+02  0.20871059108E+04  0.21228224264E+04  0.00000000000E+00 0.  1.
<mgrwt>
<rscale>  0 0.31035653E+04</rscale>
<asrwt>0</asrwt>
<pdfrwt beam="1">  1        2 0.55970641E+00 0.31035653E+04</pdfrwt>
<pdfrwt beam="2">  1       -2 0.10182978E+00 0.31035653E+04</pdfrwt>
<totfact> 0.43459984E-01</totfact>
</mgrwt>
</event>
<event>
12    1  0.1599266E-007  0.1513975E+04  0.7818608E-02  0.8875213E-01
          2   -1    0    0  501    0  0.00000000000E+00  0.00000000000E+00  0.16789595716E+04  0.16789595716E+04  0.00000000000E+00 0. -1.
         -2   -1    0    0    0  501 -0.00000000000E+00 -0.00000000000E+00 -0.34130067914E+03  0.34130067914E+03  0.00000000000E+00 0.  1.
         23    2    1    2    0    0  0.31653625359E+03 -0.59302284204E+02  0.89675580247E+03  0.95725552322E+03  0.91952198050E+02 0.  0.
        254    2    1    2    0    0 -0.31653625359E+03  0.59302284204E+02  0.44090308998E+03  0.10630047275E+04  0.91206992890E+03 0.  0.
        -24    2    4    4    0    0 -0.37089767115E+03 -0.34884718717E+03  0.10660504989E+03  0.52631827633E+03  0.79917763174E+02 0.  0.
         24    2    4    4    0    0  0.54361417556E+02  0.40814947138E+03  0.33429804009E+03  0.53668645118E+03  0.82073214690E+02 0.  0.
         13    1    3    3    0    0  0.54956701973E+02 -0.36722028967E+02  0.26491047543E+03  0.27303169504E+03  0.00000000000E+00 0.  1.
        -13    1    3    3    0    0  0.26157955162E+03 -0.22580255237E+02  0.63184532704E+03  0.68422382818E+03  0.00000000000E+00 0. -1.
          2    1    6    6  502    0  0.54237276166E+02  0.26082570244E+03  0.25765770547E+03  0.37062005122E+03  0.00000000000E+00 0. -1.
          1    1    5    5  503    0 -0.33102660273E+02 -0.51737520318E+01  0.79372930992E+01  0.34431881287E+02  0.00000000000E+00 0. -1.
         -2    1    5    5    0  503 -0.33779501088E+03 -0.34367343514E+03  0.98667756791E+02  0.49188639504E+03  0.00000000000E+00 0.  1.
         -1    1    6    6    0  502  0.12414138905E+00  0.14732376894E+03  0.76640334620E+02  0.16606639996E+03  0.00000000000E+00 0.  1.
<mgrwt>
<rscale>  0 0.15139750E+04</rscale>
<asrwt>0</asrwt>
<pdfrwt beam="1">  1        2 0.25830147E+00 0.15139750E+04</pdfrwt>
<pdfrwt beam="2">  1       -2 0.52507798E-01 0.15139750E+04</pdfrwt>
<totfact> 0.33277310E+01</totfact>
</mgrwt>
</event>
<event>
12    1  0.1599266E-007  0.1089994E+04  0.7818608E-02  0.9214999E-01
         -1   -1    0    0    0  501 -0.00000000000E+00  0.00000000000E+00  0.24817881015E+03  0.24817881015E+03  0.00000000000E+00 0.  1.
          1   -1    0    0  501    0  0.00000000000E+00 -0.00000000000E+00 -0.11968059730E+04  0.11968059730E+04  0.00000000000E+00 0. -1.
         23    2    1    2    0    0  0.45881975869E+02  0.89077015656E+02 -0.24530738759E+03  0.28012865022E+03  0.90865151956E+02 0.  0.
        254    2    1    2    0    0 -0.45881975869E+02 -0.89077015656E+02 -0.70331977529E+03  0.11648561330E+04  0.92314204418E+03 0.  0.
        -24    2    4    4    0    0  0.15102509996E+03  0.27651070363E+03 -0.66482760146E+03  0.74048222345E+03  0.83972814350E+02 0.  0.
         24    2    4    4    0    0 -0.19690707583E+03 -0.36558771929E+03 -0.38492173828E+02  0.42437390950E+03  0.78643439713E+02 0.  0.
         13    1    3    3    0    0  0.38259732481E+01  0.80157277371E+02 -0.20893129297E+03  0.22381267249E+03  0.00000000000E+00 0. -1.
        -13    1    3    3    0    0  0.42056002621E+02  0.89197382844E+01 -0.36376094624E+02  0.56315977730E+02  0.00000000000E+00 0.  1.
          2    1    6    6  502    0  0.19106337574E+01 -0.65728847811E+01 -0.11137838085E+02  0.13073055225E+02  0.00000000000E+00 0. -1.
          3    1    5    5  503    0  0.39144656826E+02  0.11536390648E+03 -0.17881555530E+03  0.21637037203E+03  0.00000000000E+00 0. -1.
         -4    1    5    5    0  503  0.11188044313E+03  0.16114679715E+03 -0.48601204616E+03  0.52411185142E+03  0.00000000000E+00 0.  1.
         -1    1    6    6    0  502 -0.19881770958E+03 -0.35901483451E+03 -0.27354335743E+02  0.41130085427E+03  0.00000000000E+00 0.  1.
<mgrwt>
<rscale>  0 0.10899943E+04</rscale>
<asrwt>0</asrwt>
<pdfrwt beam="1">  1        1 0.18412400E+00 0.10899943E+04</pdfrwt>
<pdfrwt beam="2">  1       -1 0.38181355E-01 0.10899943E+04</pdfrwt>
<totfact> 0.70981036E+01</totfact>
</mgrwt>
</event>
<event>
12    1  0.1599266E-007  0.3805027E+04  0.7818608E-02  0.8045077E-01
         -1   -1    0    0    0  501 -0.00000000000E+00  0.00000000000E+00  0.13449747333E+04  0.13449747333E+04  0.00000000000E+00 0.  1.
          1   -1    0    0  501    0  0.00000000000E+00 -0.00000000000E+00 -0.26911709574E+04  0.26911709574E+04  0.00000000000E+00 0. -1.
         23    2    1    2    0    0 -0.44366906426E+03 -0.35399055316E+03  0.11704244288E+04  0.13039619289E+04  0.90949537016E+02 0.  0.
        254    2    1    2    0    0  0.44366906426E+03  0.35399055316E+03 -0.25166206529E+04  0.27321837618E+04  0.89960938602E+03 0.  0.
        -24    2    4    4    0    0  0.54228764417E+03  0.58183651370E+03 -0.17993870733E+04  0.19689450202E+04  0.79630618688E+02 0.  0.
         24    2    4    4    0    0 -0.98618579911E+02 -0.22784596054E+03 -0.71723357960E+03  0.76323874159E+03  0.80436079702E+02 0.  0.
         13    1    3    3    0    0 -0.44065384041E+03 -0.32969088420E+03  0.11209593399E+04  0.12487680841E+04  0.00000000000E+00 0.  1.
        -13    1    3    3    0    0 -0.30152238445E+01 -0.24299668965E+02  0.49465088846E+02  0.55193844776E+02  0.00000000000E+00 0. -1.
          4    1    6    6  502    0 -0.40023344679E+02 -0.20545128344E+02 -0.14395357129E+03  0.15081976364E+03  0.00000000000E+00 0. -1.
          3    1    5    5  503    0  0.69956850824E+02  0.11788485719E+03 -0.32494531127E+03  0.35267585095E+03  0.00000000000E+00 0. -1.
         -4    1    5    5    0  503  0.47233079335E+03  0.46395165650E+03 -0.14744417620E+04  0.16162691693E+04  0.00000000000E+00 0.  1.
         -3    1    6    6    0  502 -0.58595235232E+02 -0.20730083219E+03 -0.57328000831E+03  0.61241897795E+03  0.00000000000E+00 0.  1.
<mgrwt>
<rscale>  0 0.38050266E+04</rscale>
<asrwt>0</asrwt>
<pdfrwt beam="1">  1        1 0.41402630E+00 0.38050266E+04</pdfrwt>
<pdfrwt beam="2">  1       -1 0.20691919E+00 0.38050266E+04</pdfrwt>
<totfact> 0.10680784E-01</totfact>
</mgrwt>
</event>
<event>
12    1  0.1599266E-007  0.2304109E+04  0.7818608E-02  0.8476303E-01
          2   -1    0    0  501    0  0.00000000000E+00  0.00000000000E+00  0.94409806719E+03  0.94409806719E+03  0.00000000000E+00 0. -1.
         -2   -1    0    0    0  501 -0.00000000000E+00 -0.00000000000E+00 -0.14058172190E+04  0.14058172190E+04  0.00000000000E+00 0.  1.
         23    2    1    2    0    0  0.14735176697E+03  0.93466268905E+03 -0.42783247131E+03  0.10433499528E+04  0.10115144547E+03 0.  0.
        254    2    1    2    0    0 -0.14735176697E+03 -0.93466268905E+03 -0.33886680494E+02  0.13065653334E+04  0.90036535794E+03 0.  0.
        -24    2    4    4    0    0 -0.18342570693E+03  0.12512048785E+03 -0.47724736129E+02  0.24299140215E+03  0.86412063031E+02 0.  0.
         24    2    4    4    0    0  0.36073939953E+02 -0.10597831769E+04  0.13838055635E+02  0.10635739312E+04  0.80971008703E+02 0.  0.
         13    1    3    3    0    0  0.72425270565E+02  0.53140749292E+03 -0.18855519357E+03  0.56850013577E+03  0.00000000000E+00 0.  1.
        -13    1    3    3    0    0  0.74926496410E+02  0.40325519614E+03 -0.23927727774E+03  0.47484981701E+03  0.00000000000E+00 0. -1.
          2    1    6    6  502    0  0.16125764415E+02 -0.98789646037E+03  0.19529129146E+01  0.98802999477E+03  0.00000000000E+00 0. -1.
          3    1    5    5  503    0 -0.17918067936E+03  0.11215480172E+03 -0.20298459460E+02  0.21235923070E+03  0.00000000000E+00 0. -1.
         -4    1    5    5    0  503 -0.42450275652E+01  0.12965686129E+02 -0.27426276669E+02  0.30632171450E+02  0.00000000000E+00 0.  1.
         -1    1    6    6    0  502  0.19948175538E+02 -0.71886716530E+02  0.11885142720E+02  0.75543936476E+02  0.00000000000E+00 0.  1.
<mgrwt>
<rscale>  0 0.23041088E+04</rscale>
<asrwt>0</asrwt>
<pdfrwt beam="1">  1        2 0.14524586E+00 0.23041088E+04</pdfrwt>
<pdfrwt beam="2">  1       -2 0.21627957E+00 0.23041088E+04</pdfrwt>
<totfact> 0.25905802E+00</totfact>
</mgrwt>
</event>
<event>
12    1  0.1599266E-007  0.2932045E+04  0.7818608E-02  0.8263406E-01
         -2   -1    0    0    0  501 -0.00000000000E+00  0.00000000000E+00  0.22976031245E+04  0.22976031245E+04  0.00000000000E+00 0.  1.
          2   -1    0    0  501    0  0.00000000000E+00 -0.00000000000E+00 -0.93541927833E+03  0.93541927833E+03  0.00000000000E+00 0. -1.
         23    2    1    2    0    0 -0.13427246311E+03 -0.68950281254E+03 -0.63028025356E+03  0.94767593731E+03  0.85984075753E+02 0.  0.
        254    2    1    2    0    0  0.13427246311E+03  0.68950281254E+03  0.19924640997E+04  0.22853464655E+04  0.87146546453E+03 0.  0.
        -24    2    4    4    0    0  0.11073990743E+02 -0.39719282568E+02  0.11815307024E+04  0.11849353041E+04  0.79728411187E+02 0.  0.
         24    2    4    4    0    0  0.12319847237E+03  0.72922209511E+03  0.81093339735E+03  0.11004111614E+04  0.79680748284E+02 0.  0.
         13    1    3    3    0    0 -0.41423092678E+02 -0.35016852182E+03 -0.26992776099E+03  0.44406628157E+03  0.00000000000E+00 0. -1.
        -13    1    3    3    0    0 -0.92849370436E+02 -0.33933429072E+03 -0.36035249258E+03  0.50360965574E+03  0.00000000000E+00 0.  1.
          4    1    6    6  502    0  0.32784629287E+01  0.23697391639E+03  0.24679891292E+03  0.34216529454E+03  0.00000000000E+00 0. -1.
          1    1    5    5  503    0  0.45092239142E+02 -0.14691515894E+02  0.65306580298E+03  0.65478553260E+03  0.00000000000E+00 0. -1.
         -2    1    5    5    0  503 -0.34018248399E+02 -0.25027766674E+02  0.52846489938E+03  0.53014977149E+03  0.00000000000E+00 0.  1.
         -3    1    6    6    0  502  0.11992000944E+03  0.49224817871E+03  0.56413448443E+03  0.75824586688E+03  0.00000000000E+00 0.  1.
<mgrwt>
<rscale>  0 0.29320452E+04</rscale>
<asrwt>0</asrwt>
<pdfrwt beam="1">  1        2 0.14391066E+00 0.29320452E+04</pdfrwt>
<pdfrwt beam="2">  1       -2 0.35347740E+00 0.29320452E+04</pdfrwt>
<totfact> 0.35336801E-01</totfact>
</mgrwt>
</event>
<event>
12    1  0.1599266E-007  0.2030691E+04  0.7818608E-02  0.8592405E-01
         -1   -1    0    0    0  501 -0.00000000000E+00  0.00000000000E+00  0.12128019158E+04  0.12128019158E+04  0.00000000000E+00 0.  1.
          1   -1    0    0  501    0  0.00000000000E+00 -0.00000000000E+00 -0.85003687637E+03  0.85003687637E+03  0.00000000000E+00 0. -1.
         23    2    1    2    0    0 -0.67845550747E+03 -0.29814902273E+02  0.60368824957E+03  0.91312416919E+03  0.90362833461E+02 0.  0.
        254    2    1    2    0    0  0.67845550747E+03  0.29814902273E+02 -0.24092321013E+03  0.11497146230E+04  0.89588443291E+03 0.  0.
        -24    2    4    4    0    0 -0.11243978913E+03 -0.18392359909E+03  0.10997024714E+03  0.25484606865E+03  0.79890343372E+02 0.  0.
         24    2    4    4    0    0  0.79089529660E+03  0.21373850137E+03 -0.35089345727E+03  0.89486855435E+03  0.80398967977E+02 0.  0.
         11    1    3    3    0    0 -0.43644449156E+03 -0.15524321897E+02  0.32916074597E+03  0.54687438729E+03  0.00000000000E+00 0.  1.
        -11    1    3    3    0    0 -0.24201101591E+03 -0.14290580376E+02  0.27452750360E+03  0.36624978190E+03  0.00000000000E+00 0. -1.
          4    1    6    6  502    0  0.10007733872E+02  0.13789043993E+02 -0.54639073409E+01  0.17892645274E+02  0.00000000000E+00 0. -1.
          1    1    5    5  503    0 -0.61695757220E+01 -0.82090079405E+02  0.32368187339E+02  0.88456454558E+02  0.00000000000E+00 0. -1.
         -2    1    5    5    0  503 -0.10627021341E+03 -0.10183351969E+03  0.77602059803E+02  0.16638961409E+03  0.00000000000E+00 0.  1.
         -3    1    6    6    0  502  0.78088756273E+03  0.19994945737E+03 -0.34542954993E+03  0.87697590908E+03  0.00000000000E+00 0.  1.
<mgrwt>
<rscale>  0 0.20306909E+04</rscale>
<asrwt>0</asrwt>
<pdfrwt beam="1">  1        1 0.13077490E+00 0.20306909E+04</pdfrwt>
<pdfrwt beam="2">  1       -1 0.18658491E+00 0.20306909E+04</pdfrwt>
<totfact> 0.34604421E+00</totfact>
</mgrwt>
</event>
<event>
12    1  0.1599266E-007  0.1432668E+04  0.7818608E-02  0.8930505E-01
          2   -1    0    0  501    0  0.00000000000E+00  0.00000000000E+00  0.12988576260E+04  0.12988576260E+04  0.00000000000E+00 0.  1.
         -2   -1    0    0    0  501 -0.00000000000E+00 -0.00000000000E+00 -0.39506606042E+03  0.39506606042E+03  0.00000000000E+00 0. -1.
         23    2    1    2    0    0 -0.22402475331E+02 -0.15193998771E+02 -0.22908177685E+03  0.24842081531E+03  0.92204731392E+02 0.  0.
        254    2    1    2    0    0  0.22402475331E+02  0.15193998771E+02  0.11328733424E+04  0.14455028711E+04  0.89740950067E+03 0.  0.
        -24    2    4    4    0    0 -0.46987083713E+02 -0.37269844814E+03  0.20637047623E+03  0.43589638831E+03  0.79403832414E+02 0.  0.
         24    2    4    4    0    0  0.69389559044E+02  0.38789244691E+03  0.92650286621E+03  0.10096064828E+04  0.74981516028E+02 0.  0.
         11    1    3    3    0    0  0.18648991122E+01 -0.13880976889E+02  0.36099226127E+01  0.14463433526E+02  0.00000000000E+00 0.  1.
        -11    1    3    3    0    0 -0.24267374443E+02 -0.13130218819E+01 -0.23269169947E+03  0.23395738178E+03  0.00000000000E+00 0. -1.
          4    1    6    6  502    0  0.73954091791E+02  0.20346951597E+03  0.48651769280E+03  0.53251151822E+03  0.00000000000E+00 0. -1.
          3    1    5    5  503    0 -0.30111167853E+02 -0.14943994750E+03  0.41938917811E+02  0.15810709397E+03  0.00000000000E+00 0. -1.
         -4    1    5    5    0  503 -0.16875915860E+02 -0.22325850064E+03  0.16443155841E+03  0.27778929433E+03  0.00000000000E+00 0.  1.
         -3    1    6    6    0  502 -0.45645327472E+01  0.18442293094E+03  0.43998517341E+03  0.47709496459E+03  0.00000000000E+00 0.  1.
<mgrwt>
<rscale>  0 0.14326682E+04</rscale>
<asrwt>0</asrwt>
<pdfrwt beam="1">  1        2 0.19982425E+00 0.14326682E+04</pdfrwt>
<pdfrwt beam="2">  1       -2 0.60779394E-01 0.14326682E+04</pdfrwt>
<totfact> 0.40511981E+01</totfact>
</mgrwt>
</event>
<event>
12    1  0.1599266E-007  0.1833415E+04  0.7818608E-02  0.8688729E-01
          1   -1    0    0  501    0  0.00000000000E+00  0.00000000000E+00  0.18659043413E+04  0.18659043413E+04  0.00000000000E+00 0.  1.
         -1   -1    0    0    0  501 -0.00000000000E+00 -0.00000000000E+00 -0.45037298501E+03  0.45037298501E+03  0.00000000000E+00 0. -1.
         23    2    1    2    0    0 -0.64420361184E+03  0.15092096873E+03  0.66876938966E+03  0.94520213242E+03  0.91537654951E+02 0.  0.
        254    2    1    2    0    0  0.64420361184E+03 -0.15092096873E+03  0.74676196664E+03  0.13710751939E+04  0.94043517598E+03 0.  0.
        -24    2    4    4    0    0 -0.16692759553E+03 -0.78746392840E+02  0.46478711062E+03  0.50643541265E+03  0.79899639919E+02 0.  0.
         24    2    4    4    0    0  0.81113120737E+03 -0.72174575890E+02  0.28197485602E+03  0.86463978125E+03  0.70350031423E+02 0.  0.
         11    1    3    3    0    0 -0.10623293987E+03  0.48134063305E+02  0.82233712245E+02  0.14270497186E+03  0.00000000000E+00 0. -1.
        -11    1    3    3    0    0 -0.53797067197E+03  0.10278690543E+03  0.58653567742E+03  0.80249716056E+03  0.00000000000E+00 0.  1.
          4    1    6    6  502    0  0.68965194207E+03 -0.48433964198E+02  0.21559781773E+03  0.72418786865E+03  0.00000000000E+00 0. -1.
          3    1    5    5  503    0 -0.16289263456E+02  0.72744492559E+01  0.11082715287E+03  0.11225379962E+03  0.00000000000E+00 0. -1.
         -4    1    5    5    0  503 -0.15063833208E+03 -0.86020842096E+02  0.35395995774E+03  0.39418161303E+03  0.00000000000E+00 0.  1.
         -3    1    6    6    0  502  0.12147926530E+03 -0.23740611692E+02  0.66377038292E+02  0.14045191260E+03  0.00000000000E+00 0.  1.
<mgrwt>
<rscale>  0 0.18334153E+04</rscale>
<asrwt>0</asrwt>
<pdfrwt beam="1">  1        1 0.28706220E+00 0.18334153E+04</pdfrwt>
<pdfrwt beam="2">  1       -1 0.69288153E-01 0.18334153E+04</pdfrwt>
<totfact> 0.72853115E+00</totfact>
</mgrwt>
</event>
<event>
12    1  0.1599266E-007  0.1885073E+04  0.7818608E-02  0.8662322E-01
          2   -1    0    0  501    0  0.00000000000E+00  0.00000000000E+00  0.14757586241E+04  0.14757586241E+04  0.00000000000E+00 0. -1.
         -2   -1    0    0    0  501 -0.00000000000E+00 -0.00000000000E+00 -0.60197872959E+03  0.60197872959E+03  0.00000000000E+00 0.  1.
         23    2    1    2    0    0 -0.32446734171E+03  0.20083413686E+03 -0.33730613761E+03  0.51709388244E+03  0.89427324805E+02 0.  0.
        254    2    1    2    0    0  0.32446734171E+03 -0.20083413686E+03  0.12110860321E+04  0.15606434712E+04  0.90733966119E+03 0.  0.
        -24    2    4    4    0    0  0.13677636169E+03  0.28459292666E+03  0.11633067664E+03  0.34588733631E+03  0.80026970886E+02 0.  0.
         24    2    4    4    0    0  0.18769098002E+03 -0.48542706352E+03  0.10947553555E+04  0.12147561349E+04  0.79220206010E+02 0.  0.
         11    1    3    3    0    0 -0.27170318225E+03  0.20271971522E+03 -0.29646238325E+03  0.45034192217E+03  0.00000000000E+00 0.  1.
        -11    1    3    3    0    0 -0.52764159465E+02 -0.18855783563E+01 -0.40843754357E+02  0.66751960269E+02  0.00000000000E+00 0. -1.
          4    1    6    6  502    0  0.17193925347E+02 -0.12410692724E+03  0.30382397388E+03  0.32864443942E+03  0.00000000000E+00 0. -1.
          1    1    5    5  503    0  0.13600006268E+03  0.27931563401E+03  0.96434998960E+02  0.32528902453E+03  0.00000000000E+00 0. -1.
         -2    1    5    5    0  503  0.77629901142E+00  0.52772926444E+01  0.19895677682E+02  0.20598311781E+02  0.00000000000E+00 0.  1.
         -3    1    6    6    0  502  0.17049705467E+03 -0.36132013629E+03  0.79093138157E+03  0.88611169549E+03  0.00000000000E+00 0.  1.
<mgrwt>
<rscale>  0 0.18850733E+04</rscale>
<asrwt>0</asrwt>
<pdfrwt beam="1">  1        2 0.22703979E+00 0.18850733E+04</pdfrwt>
<pdfrwt beam="2">  1       -2 0.92612113E-01 0.18850733E+04</pdfrwt>
<totfact> 0.12150838E+01</totfact>
</mgrwt>
</event>
<event>
12    1  0.1599266E-007  0.2942245E+04  0.7818608E-02  0.8260418E-01
         -2   -1    0    0    0  501 -0.00000000000E+00  0.00000000000E+00  0.13018468457E+04  0.13018468457E+04  0.00000000000E+00 0.  1.
          2   -1    0    0  501    0  0.00000000000E+00 -0.00000000000E+00 -0.16624085839E+04  0.16624085839E+04  0.00000000000E+00 0. -1.
         23    2    1    2    0    0 -0.96977857136E+03 -0.38919645921E+03 -0.99458536271E+03  0.14456800537E+04  0.94055369661E+02 0.  0.
        254    2    1    2    0    0  0.96977857136E+03  0.38919645921E+03  0.63402362448E+03  0.15185753759E+04  0.90118857878E+03 0.  0.
        -24    2    4    4    0    0  0.78757302356E+03  0.12174216027E+03  0.81213240465E+03  0.11406798657E+04  0.80616948635E+02 0.  0.
         24    2    4    4    0    0  0.18220554780E+03  0.26745429894E+03 -0.17810878017E+03  0.37789551015E+03  0.79697022176E+02 0.  0.
         11    1    3    3    0    0 -0.51639347647E+03 -0.22936136870E+03 -0.59518824177E+03  0.82068136517E+03  0.00000000000E+00 0. -1.
        -11    1    3    3    0    0 -0.45338509490E+03 -0.15983509051E+03 -0.39939712094E+03  0.62499868852E+03  0.00000000000E+00 0.  1.
          4    1    6    6  502    0  0.93844512197E+02  0.84512249744E+02 -0.40934176895E+02  0.13275812466E+03  0.00000000000E+00 0. -1.
          3    1    5    5  503    0  0.72790901338E+03  0.10655240642E+03  0.77601435002E+03  0.10693003406E+04  0.00000000000E+00 0. -1.
         -4    1    5    5    0  503  0.59664010181E+02  0.15189753851E+02  0.36118054630E+02  0.71379525098E+02  0.00000000000E+00 0.  1.
         -3    1    6    6    0  502  0.88361035604E+02  0.18294204920E+03 -0.13717460328E+03  0.24513738548E+03  0.00000000000E+00 0.  1.
<mgrwt>
<rscale>  0 0.29422450E+04</rscale>
<asrwt>0</asrwt>
<pdfrwt beam="1">  1        2 0.25575516E+00 0.29422450E+04</pdfrwt>
<pdfrwt beam="2">  1       -2 0.20028413E+00 0.29422450E+04</pdfrwt>
<totfact> 0.11723356E+00</totfact>
</mgrwt>
</event>
<event>
12    1  0.1599266E-007  0.1727914E+04  0.7818608E-02  0.8745602E-01
         -2   -1    0    0    0  501 -0.00000000000E+00  0.00000000000E+00  0.31928445402E+03  0.31928445402E+03  0.00000000000E+00 0.  1.
          2   -1    0    0  501    0  0.00000000000E+00 -0.00000000000E+00 -0.23377946962E+04  0.23377946962E+04  0.00000000000E+00 0. -1.
         23    2    1    2    0    0 -0.11376451949E+03 -0.60891882845E+03 -0.63541542206E+03  0.89178564057E+03  0.88342314891E+02 0.  0.
        254    2    1    2    0    0  0.11376451949E+03  0.60891882845E+03 -0.13830948201E+04  0.17652935096E+04  0.90530955380E+03 0.  0.
        -24    2    4    4    0    0 -0.14837437828E+03  0.10216654534E+03  0.64428910218E+02  0.20741148630E+03  0.80096698206E+02 0.  0.
         24    2    4    4    0    0  0.26213889777E+03  0.50675228311E+03 -0.14475237303E+04  0.15578820233E+04  0.78465091590E+02 0.  0.
         13    1    3    3    0    0 -0.10652022783E+03 -0.50124424464E+03 -0.56579908541E+03  0.76336161600E+03  0.00000000000E+00 0.  1.
        -13    1    3    3    0    0 -0.72442916629E+01 -0.10767458380E+03 -0.69616336650E+02  0.12842402457E+03  0.00000000000E+00 0. -1.
          2    1    6    6  502    0  0.17039894397E+03  0.39560249480E+03 -0.10425443897E+04  0.11280230221E+04  0.00000000000E+00 0. -1.
          1    1    5    5  503    0 -0.99155241174E+02  0.42635869243E+02  0.72083285468E+02  0.12979052062E+03  0.00000000000E+00 0. -1.
         -2    1    5    5    0  503 -0.49219137101E+02  0.59530676096E+02 -0.76543752497E+01  0.77620965685E+02  0.00000000000E+00 0.  1.
         -1    1    6    6    0  502  0.91739953799E+02  0.11114978831E+03 -0.40497934063E+03  0.42985900119E+03  0.00000000000E+00 0.  1.
<mgrwt>
<rscale>  0 0.17279138E+04</rscale>
<asrwt>0</asrwt>
<pdfrwt beam="1">  1        2 0.35966072E+00 0.17279138E+04</pdfrwt>
<pdfrwt beam="2">  1       -2 0.49120685E-01 0.17279138E+04</pdfrwt>
<totfact> 0.16087930E+01</totfact>
</mgrwt>
</event>
<event>
12    1  0.1599266E-007  0.2096611E+04  0.7818608E-02  0.8562738E-01
         -1   -1    0    0    0  501 -0.00000000000E+00  0.00000000000E+00  0.94164460833E+03  0.94164460833E+03  0.00000000000E+00 0.  1.
          1   -1    0    0  501    0  0.00000000000E+00 -0.00000000000E+00 -0.11670482064E+04  0.11670482064E+04  0.00000000000E+00 0. -1.
         23    2    1    2    0    0  0.26687454424E+03 -0.78739968599E+03 -0.28733289490E+03  0.88417962488E+03  0.89404299048E+02 0.  0.
        254    2    1    2    0    0 -0.26687454424E+03  0.78739968599E+03  0.61929296792E+02  0.12245131899E+04  0.89687068553E+03 0.  0.
        -24    2    4    4    0    0  0.20696722246E+02  0.88659577156E+03 -0.46738575948E+02  0.89153314720E+03  0.78526693655E+02 0.  0.
         24    2    4    4    0    0 -0.28757126649E+03 -0.99196085563E+02  0.10866787274E+03  0.33298004270E+03  0.80807831108E+02 0.  0.
         13    1    3    3    0    0  0.21652744412E+03 -0.69094994212E+03 -0.27556054225E+03  0.77474484123E+03  0.00000000000E+00 0. -1.
        -13    1    3    3    0    0  0.50347100125E+02 -0.96449743877E+02 -0.11772352650E+02  0.10943478365E+03  0.00000000000E+00 0.  1.
          4    1    6    6  502    0 -0.21221954987E+03 -0.36205337510E+02  0.60699781540E+02  0.22367929562E+03  0.00000000000E+00 0. -1.
          1    1    5    5  503    0  0.46977115673E+02  0.71464360382E+03 -0.44555818551E+02  0.71757058945E+03  0.00000000000E+00 0. -1.
         -2    1    5    5    0  503 -0.26280393427E+02  0.17195216774E+03 -0.21827573968E+01  0.17396255775E+03  0.00000000000E+00 0.  1.
         -3    1    6    6    0  502 -0.75351716617E+02 -0.62990748053E+02  0.47968091201E+02  0.10930074707E+03  0.00000000000E+00 0.  1.
<mgrwt>
<rscale>  0 0.20966112E+04</rscale>
<asrwt>0</asrwt>
<pdfrwt beam="1">  1        1 0.17954588E+00 0.20966112E+04</pdfrwt>
<pdfrwt beam="2">  1       -1 0.14486840E+00 0.20966112E+04</pdfrwt>
<totfact> 0.39814775E+00</totfact>
</mgrwt>
</event>
<event>
12    1  0.2622594E-007  0.2191082E+04  0.7818608E-02  0.8522149E-01
         -2   -1    0    0    0  501 -0.00000000000E+00  0.00000000000E+00  0.67649222664E+03  0.67649222664E+03  0.00000000000E+00 0.  1.
          2   -1    0    0  501    0  0.00000000000E+00 -0.00000000000E+00 -0.17741669062E+04  0.17741669062E+04  0.00000000000E+00 0. -1.
         23    2    1    2    0    0  0.48800725697E+03 -0.72408424711E+03 -0.73231722851E+03  0.11433389257E+04  0.92121095083E+02 0.  0.
        254    2    1    2    0    0 -0.48800725697E+03  0.72408424711E+03 -0.36535745106E+03  0.13073202071E+04  0.90174884368E+03 0.  0.
        -24    2    4    4    0    0  0.13222761794E+03  0.16783718042E+02  0.16321946994E+03  0.22534994016E+03  0.79850886180E+02 0.  0.
         24    2    4    4    0    0 -0.62023487491E+03  0.70730052907E+03 -0.52857692100E+03  0.10819702669E+04  0.79377318304E+02 0.  0.
         11    1    3    3    0    0  0.31464888070E+03 -0.45035621698E+03 -0.40294112251E+03  0.68131210800E+03  0.00000000000E+00 0.  1.
        -11    1    3    3    0    0  0.17335837627E+03 -0.27372803013E+03 -0.32937610600E+03  0.46202681773E+03  0.00000000000E+00 0. -1.
          4    1    6    6  502    0 -0.99437914929E+01  0.52393310845E+01  0.14432071713E+01  0.11331920685E+02  0.00000000000E+00 0. -1.
          3    1    5    5  503    0 -0.76602354575E+01  0.79786730608E+01  0.12157492240E+01  0.11127285260E+02  0.00000000000E+00 0. -1.
         -4    1    5    5    0  503  0.13988785340E+03  0.88050449816E+01  0.16200372071E+03  0.21422265490E+03  0.00000000000E+00 0.  1.
         -3    1    6    6    0  502 -0.61029108342E+03  0.70206119799E+03 -0.53002012817E+03  0.10706383463E+04  0.00000000000E+00 0.  1.
<mgrwt>
<rscale>  0 0.21910820E+04</rscale>
<asrwt>0</asrwt>
<pdfrwt beam="1">  1        2 0.27294875E+00 0.21910820E+04</pdfrwt>
<pdfrwt beam="2">  1       -2 0.10407573E+00 0.21910820E+04</pdfrwt>
<totfact> 0.61255753E+00</totfact>
</mgrwt>
</event>
<event>
12    1  0.1599266E-007  0.3721859E+04  0.7818608E-02  0.8063135E-01
         -2   -1    0    0    0  501 -0.00000000000E+00  0.00000000000E+00  0.15828719309E+04  0.15828719309E+04  0.00000000000E+00 0. -1.
          2   -1    0    0  501    0  0.00000000000E+00 -0.00000000000E+00 -0.21878327122E+04  0.21878327122E+04  0.00000000000E+00 0.  1.
         23    2    1    2    0    0 -0.14136257074E+03 -0.17405862640E+04 -0.13968453750E+03  0.17541328649E+04  0.88580013199E+02 0.  0.
        254    2    1    2    0    0  0.14136257074E+03  0.17405862640E+04 -0.46527624383E+03  0.20165717782E+04  0.89468197396E+03 0.  0.
        -24    2    4    4    0    0 -0.32057816074E+03  0.58063355274E+03 -0.36550566598E+03  0.76154662845E+03  0.80331785335E+02 0.  0.
         24    2    4    4    0    0  0.46194073148E+03  0.11599527113E+04 -0.99770577849E+02  0.12550251497E+04  0.79084931670E+02 0.  0.
         11    1    3    3    0    0 -0.39667898975E+02 -0.49010029161E+03 -0.79387438943E+02  0.49807048046E+03  0.00000000000E+00 0.  1.
        -11    1    3    3    0    0 -0.10169467176E+03 -0.12504859724E+04 -0.60297098558E+02  0.12560623844E+04  0.00000000000E+00 0. -1.
          4    1    6    6  502    0  0.45532543559E+03  0.10969944837E+04 -0.95913504629E+02  0.11916029330E+04  0.00000000000E+00 0. -1.
          3    1    5    5  503    0 -0.25826452107E+03  0.39236388645E+03 -0.25261040502E+03  0.53334979044E+03  0.00000000000E+00 0. -1.
         -4    1    5    5    0  503 -0.62313639666E+02  0.18826966629E+03 -0.11289526096E+03  0.22819683802E+03  0.00000000000E+00 0.  1.
         -3    1    6    6    0  502  0.66152958807E+01  0.62958227551E+02 -0.38570732199E+01  0.63422216689E+02  0.00000000000E+00 0.  1.
<mgrwt>
<rscale>  0 0.37218592E+04</rscale>
<asrwt>0</asrwt>
<pdfrwt beam="1">  1        2 0.33658965E+00 0.37218592E+04</pdfrwt>
<pdfrwt beam="2">  1       -2 0.24351876E+00 0.37218592E+04</pdfrwt>
<totfact> 0.29826510E-01</totfact>
</mgrwt>
</event>
<event>
12    1  0.1599266E-007  0.2604171E+04  0.7818608E-02  0.8366786E-01
         -2   -1    0    0    0  501 -0.00000000000E+00  0.00000000000E+00  0.78806921789E+03  0.78806921789E+03  0.00000000000E+00 0.  1.
          2   -1    0    0  501    0  0.00000000000E+00 -0.00000000000E+00 -0.21513679862E+04  0.21513679862E+04  0.00000000000E+00 0. -1.
         23    2    1    2    0    0  0.15871127265E+03  0.85397445482E+02 -0.18706746682E+04  0.18815488861E+04  0.91216799422E+02 0.  0.
        254    2    1    2    0    0 -0.15871127265E+03 -0.85397445482E+02  0.50737589987E+03  0.10578883181E+04  0.91061264981E+03 0.  0.
        -24    2    4    4    0    0 -0.35569076290E+02 -0.16398383835E+03 -0.23352605312E+03  0.29852629906E+03  0.80172784121E+02 0.  0.
         24    2    4    4    0    0 -0.12314219636E+03  0.78586392868E+02  0.74090195299E+03  0.75936201902E+03  0.79719196679E+02 0.  0.
         13    1    3    3    0    0  0.13942454228E+03  0.73789428981E+02 -0.11787859595E+04  0.11892940853E+04  0.00000000000E+00 0. -1.
        -13    1    3    3    0    0  0.19286730374E+02  0.11608016501E+02 -0.69188870868E+03  0.69225480079E+03  0.00000000000E+00 0.  1.
          2    1    6    6  502    0 -0.53230334482E+02  0.75652286432E+02  0.33802019685E+03  0.35044884138E+03  0.00000000000E+00 0. -1.
          1    1    5    5  503    0 -0.12696394964E+02 -0.88129227785E+02 -0.58871513966E+02  0.10674181183E+03  0.00000000000E+00 0. -1.
         -2    1    5    5    0  503 -0.22872681326E+02 -0.75854610565E+02 -0.17465453916E+03  0.19178448723E+03  0.00000000000E+00 0.  1.
         -1    1    6    6    0  502 -0.69911861879E+02  0.29341064360E+01  0.40288175615E+03  0.40891317764E+03  0.00000000000E+00 0.  1.
<mgrwt>
<rscale>  0 0.26041712E+04</rscale>
<asrwt>0</asrwt>
<pdfrwt beam="1">  1        2 0.33097968E+00 0.26041712E+04</pdfrwt>
<pdfrwt beam="2">  1       -2 0.12124142E+00 0.26041712E+04</pdfrwt>
<totfact> 0.25165932E+00</totfact>
</mgrwt>
</event>
<event>
12    1  0.1599266E-007  0.1811497E+04  0.7818608E-02  0.8700209E-01
         -2   -1    0    0    0  501 -0.00000000000E+00  0.00000000000E+00  0.81084456439E+03  0.81084456439E+03  0.00000000000E+00 0.  1.
          2   -1    0    0  501    0  0.00000000000E+00 -0.00000000000E+00 -0.10117603140E+04  0.10117603140E+04  0.00000000000E+00 0. -1.
         23    2    1    2    0    0  0.56918207472E+03 -0.73184778982E+02  0.28510591287E+03  0.65001234931E+03  0.10911657365E+03 0.  0.
        254    2    1    2    0    0 -0.56918207472E+03  0.73184778982E+02 -0.48602166250E+03  0.11725925291E+04  0.89968435401E+03 0.  0.
        -24    2    4    4    0    0 -0.65080599088E+02 -0.32611196738E+03 -0.38896594781E+03  0.51795115372E+03  0.79964926354E+02 0.  0.
         24    2    4    4    0    0 -0.50410147563E+03  0.39929674636E+03 -0.97055714694E+02  0.65464137539E+03  0.74694907631E+02 0.  0.
         11    1    3    3    0    0  0.42379921002E+03 -0.12091813779E+02  0.18062827466E+03  0.46084547951E+03  0.00000000000E+00 0. -1.
        -11    1    3    3    0    0  0.14538286470E+03 -0.61092965203E+02  0.10447763821E+03  0.18916686980E+03  0.00000000000E+00 0.  1.
          4    1    6    6  502    0 -0.20094341293E+03  0.13792368992E+03 -0.69397675930E+02  0.25341120114E+03  0.00000000000E+00 0. -1.
          1    1    5    5  503    0 -0.38224910222E+02 -0.12457621677E+03 -0.98272880827E+02  0.16321132514E+03  0.00000000000E+00 0. -1.
         -2    1    5    5    0  503 -0.26855688866E+02 -0.20153575061E+03 -0.29069306698E+03  0.35473982859E+03  0.00000000000E+00 0.  1.
         -3    1    6    6    0  502 -0.30315806271E+03  0.26137305645E+03 -0.27658038764E+02  0.40123017425E+03  0.00000000000E+00 0.  1.
<mgrwt>
<rscale>  0 0.18114970E+04</rscale>
<asrwt>0</asrwt>
<pdfrwt beam="1">  1        2 0.15565543E+00 0.18114970E+04</pdfrwt>
<pdfrwt beam="2">  1       -2 0.12474532E+00 0.18114970E+04</pdfrwt>
<totfact> 0.11253158E+01</totfact>
</mgrwt>
</event>
<event>
12    1  0.1599266E-007  0.2360766E+04  0.7818608E-02  0.8454340E-01
         -2   -1    0    0    0  501 -0.00000000000E+00  0.00000000000E+00  0.10719290946E+04  0.10719290946E+04  0.00000000000E+00 0.  1.
          2   -1    0    0  501    0  0.00000000000E+00 -0.00000000000E+00 -0.12998098629E+04  0.12998098629E+04  0.00000000000E+00 0. -1.
         23    2    1    2    0    0  0.70507401738E+03 -0.31227453397E+03 -0.74488063195E+03  0.10760858772E+04  0.92026652155E+02 0.  0.
        254    2    1    2    0    0 -0.70507401738E+03  0.31227453397E+03  0.51699986362E+03  0.12956530803E+04  0.90376063807E+03 0.  0.
        -24    2    4    4    0    0  0.48483290003E+02  0.40895013344E+03  0.23733329092E+03  0.48178883637E+03  0.78756274805E+02 0.  0.
         24    2    4    4    0    0 -0.75355730738E+03 -0.96675599478E+02  0.27966657270E+03  0.81386424391E+03  0.83467530146E+02 0.  0.
         13    1    3    3    0    0  0.40519071946E+03 -0.13001700473E+03 -0.41839100070E+03  0.59677045010E+03  0.00000000000E+00 0. -1.
        -13    1    3    3    0    0  0.29988329792E+03 -0.18225752924E+03 -0.32648963125E+03  0.47931542710E+03  0.00000000000E+00 0.  1.
          2    1    6    6  502    0 -0.87203541791E+02 -0.80102285988E+01  0.61920718013E+02  0.10725109222E+03  0.00000000000E+00 0. -1.
          3    1    5    5  503    0  0.13568153140E+02  0.50009970210E+02  0.34064849795E+01  0.51929722125E+02  0.00000000000E+00 0. -1.
         -4    1    5    5    0  503  0.34915136863E+02  0.35894016323E+03  0.23392680594E+03  0.42985911425E+03  0.00000000000E+00 0.  1.
         -1    1    6    6    0  502 -0.66635376559E+03 -0.88665370880E+02  0.21774585469E+03  0.70661315169E+03  0.00000000000E+00 0.  1.
<mgrwt>
<rscale>  0 0.23607660E+04</rscale>
<asrwt>0</asrwt>
<pdfrwt beam="1">  1        2 0.19997075E+00 0.23607660E+04</pdfrwt>
<pdfrwt beam="2">  1       -2 0.16491217E+00 0.23607660E+04</pdfrwt>
<totfact> 0.34590092E+00</totfact>
</mgrwt>
</event>
<event>
12    1  0.1599266E-007  0.2338954E+04  0.7818608E-02  0.8462719E-01
          1   -1    0    0  501    0  0.00000000000E+00  0.00000000000E+00  0.28419176548E+04  0.28419176548E+04  0.00000000000E+00 0. -1.
         -1   -1    0    0    0  501 -0.00000000000E+00 -0.00000000000E+00 -0.48125121952E+03  0.48125121952E+03  0.00000000000E+00 0.  1.
         23    2    1    2    0    0  0.25951983251E+03 -0.95164806689E+03  0.96803290076E+03  0.13850725425E+04  0.91398383163E+02 0.  0.
        254    2    1    2    0    0 -0.25951983251E+03  0.95164806689E+03  0.13926335345E+04  0.19380963318E+04  0.91858839703E+03 0.  0.
        -24    2    4    4    0    0  0.32484487397E+03  0.32268765999E+03  0.65623125544E+03  0.80415199331E+03  0.79808832132E+02 0.  0.
         24    2    4    4    0    0 -0.58436470648E+03  0.62896040690E+03  0.73640227908E+03  0.11339443385E+04  0.80424763031E+02 0.  0.
         11    1    3    3    0    0  0.26434162602E+02 -0.14908264395E+03  0.19283206302E+03  0.24517056146E+03  0.00000000000E+00 0. -1.
        -11    1    3    3    0    0  0.23308566991E+03 -0.80256542294E+03  0.77520083774E+03  0.11399019811E+04  0.00000000000E+00 0.  1.
          2    1    6    6  502    0 -0.10869505220E+03  0.78657099716E+02  0.13202685177E+03  0.18823560582E+03  0.00000000000E+00 0. -1.
          3    1    5    5  503    0  0.11384283385E+03  0.92611738107E+02  0.15340011591E+03  0.21229394814E+03  0.00000000000E+00 0. -1.
         -4    1    5    5    0  503  0.21100204012E+03  0.23007592188E+03  0.50283113953E+03  0.59185804517E+03  0.00000000000E+00 0.  1.
         -1    1    6    6    0  502 -0.47566965427E+03  0.55030330718E+03  0.60437542731E+03  0.94570873266E+03  0.00000000000E+00 0.  1.
<mgrwt>
<rscale>  0 0.23389539E+04</rscale>
<asrwt>0</asrwt>
<pdfrwt beam="1">  1        1 0.43721809E+00 0.23389539E+04</pdfrwt>
<pdfrwt beam="2">  1       -1 0.74038651E-01 0.23389539E+04</pdfrwt>
<totfact> 0.12872528E+00</totfact>
</mgrwt>
</event>
<event>
12    1  0.1599266E-007  0.1807590E+04  0.7818608E-02  0.8702274E-01
         -3   -1    0    0    0  501 -0.00000000000E+00  0.00000000000E+00  0.10013275752E+04  0.10013275752E+04  0.00000000000E+00 0.  1.
          3   -1    0    0  501    0  0.00000000000E+00 -0.00000000000E+00 -0.81576256541E+03  0.81576256541E+03  0.00000000000E+00 0. -1.
         23    2    1    2    0    0  0.17449498672E+03 -0.59643981630E+03  0.33038618769E+03  0.70968793626E+03  0.91175539456E+02 0.  0.
        254    2    1    2    0    0 -0.17449498672E+03  0.59643981630E+03 -0.14482117796E+03  0.11074022043E+04  0.90508425776E+03 0.  0.
        -24    2    4    4    0    0  0.16771831124E+03  0.70560949676E+03 -0.11654997473E+03  0.73830325845E+03  0.74118897593E+02 0.  0.
         24    2    4    4    0    0 -0.34221329796E+03 -0.10916968046E+03 -0.28271203225E+02  0.36909894586E+03  0.80042554117E+02 0.  0.
         13    1    3    3    0    0  0.18402423263E+02 -0.19385609973E+02  0.31586885038E+02  0.41378525378E+02  0.00000000000E+00 0.  1.
        -13    1    3    3    0    0  0.15609256346E+03 -0.57705420633E+03  0.29879930265E+03  0.66830941089E+03  0.00000000000E+00 0. -1.
          4    1    6    6  502    0 -0.62724540809E+01 -0.18602310849E+02 -0.56558054753E+01  0.20429825861E+02  0.00000000000E+00 0. -1.
          3    1    5    5  503    0  0.38812124383E+02  0.10041959895E+03  0.47321890734E+01  0.10776302921E+03  0.00000000000E+00 0. -1.
         -4    1    5    5    0  503  0.12890618685E+03  0.60518989781E+03 -0.12128216380E+03  0.63054022923E+03  0.00000000000E+00 0.  1.
         -3    1    6    6    0  502 -0.33594084388E+03 -0.90567369608E+02 -0.22615397750E+02  0.34866912000E+03  0.00000000000E+00 0.  1.
<mgrwt>
<rscale>  0 0.18075902E+04</rscale>
<asrwt>0</asrwt>
<pdfrwt beam="1">  1        3 0.12550193E+00 0.18075902E+04</pdfrwt>
<pdfrwt beam="2">  1       -3 0.15405040E+00 0.18075902E+04</pdfrwt>
<totfact> 0.37682782E-01</totfact>
</mgrwt>
</event>
<event>
12    1  0.1599266E-007  0.1913989E+04  0.7818608E-02  0.8647924E-01
          1   -1    0    0  501    0  0.00000000000E+00  0.00000000000E+00  0.14075543126E+04  0.14075543126E+04  0.00000000000E+00 0. -1.
         -1   -1    0    0    0  501 -0.00000000000E+00 -0.00000000000E+00 -0.65065952855E+03  0.65065952855E+03  0.00000000000E+00 0.  1.
         23    2    1    2    0    0  0.49756645584E+03 -0.24613557208E+03 -0.22446586590E+03  0.60532795876E+03  0.88780149157E+02 0.  0.
        254    2    1    2    0    0 -0.49756645584E+03  0.24613557208E+03  0.98136064992E+03  0.14528858824E+04  0.91632612326E+03 0.  0.
        -24    2    4    4    0    0 -0.55680050633E+03  0.19221137773E+03  0.14950549015E+03  0.61299852648E+03  0.80270071057E+02 0.  0.
         24    2    4    4    0    0  0.59234050487E+02  0.53924194355E+02  0.83185515977E+03  0.83988735589E+03  0.83733340277E+02 0.  0.
         13    1    3    3    0    0  0.18774270484E+03 -0.67228764863E+02 -0.11949328740E+03  0.23247725863E+03  0.00000000000E+00 0. -1.
        -13    1    3    3    0    0  0.30982375100E+03 -0.17890680722E+03 -0.10497257849E+03  0.37285070013E+03  0.00000000000E+00 0.  1.
          4    1    6    6  502    0  0.79868012011E+01  0.59531845658E+02  0.55786957184E+03  0.56109383246E+03  0.00000000000E+00 0. -1.
          3    1    5    5  503    0 -0.52841323549E+03  0.19045371107E+03  0.15768908284E+03  0.58340295710E+03  0.00000000000E+00 0. -1.
         -4    1    5    5    0  503 -0.28387270834E+02  0.17576666569E+01 -0.81835926960E+01  0.29595569379E+02  0.00000000000E+00 0.  1.
         -3    1    6    6    0  502  0.51247249286E+02 -0.56076513037E+01  0.27398558793E+03  0.27879352343E+03  0.00000000000E+00 0.  1.
<mgrwt>
<rscale>  0 0.19139892E+04</rscale>
<asrwt>0</asrwt>
<pdfrwt beam="1">  1        1 0.21654682E+00 0.19139892E+04</pdfrwt>
<pdfrwt beam="2">  1       -1 0.10010147E+00 0.19139892E+04</pdfrwt>
<totfact> 0.67442902E+00</totfact>
</mgrwt>
</event>
<event>
12    1  0.1599266E-007  0.2227305E+04  0.7818608E-02  0.8507148E-01
         -2   -1    0    0    0  501 -0.00000000000E+00  0.00000000000E+00  0.66238861977E+03  0.66238861977E+03  0.00000000000E+00 0.  1.
          2   -1    0    0  501    0  0.00000000000E+00 -0.00000000000E+00 -0.18723476427E+04  0.18723476427E+04  0.00000000000E+00 0. -1.
         23    2    1    2    0    0 -0.22296419913E+03  0.84372651655E+03 -0.14916625843E+03  0.89000360595E+03  0.90930617077E+02 0.  0.
        254    2    1    2    0    0  0.22296419913E+03 -0.84372651655E+03 -0.10607927645E+04  0.16447326565E+04  0.90458650963E+03 0.  0.
        -24    2    4    4    0    0  0.34296688742E+03  0.46021672172E+02 -0.31814757717E+03  0.47676499504E+03  0.79641066445E+02 0.  0.
         24    2    4    4    0    0 -0.12000268829E+03 -0.88974818872E+03 -0.74264518737E+03  0.11679676615E+04  0.81080820628E+02 0.  0.
         11    1    3    3    0    0 -0.16042232502E+03  0.72835350079E+03 -0.13601253775E+03  0.75811183536E+03  0.00000000000E+00 0.  1.
        -11    1    3    3    0    0 -0.62541874106E+02  0.11537301576E+03 -0.13153720672E+02  0.13189177059E+03  0.00000000000E+00 0. -1.
          4    1    6    6  502    0 -0.99500831051E+02 -0.56289513552E+03 -0.43113327628E+03  0.71597992352E+03  0.00000000000E+00 0. -1.
          1    1    5    5  503    0  0.23644951192E+03  0.31592168844E+02 -0.26598149665E+03  0.35728503100E+03  0.00000000000E+00 0. -1.
         -2    1    5    5    0  503  0.10651737550E+03  0.14429503328E+02 -0.52166080513E+02  0.11947996404E+03  0.00000000000E+00 0.  1.
         -3    1    6    6    0  502 -0.20501857240E+02 -0.32685305320E+03 -0.31151191109E+03  0.45198773798E+03  0.00000000000E+00 0.  1.
<mgrwt>
<rscale>  0 0.22273049E+04</rscale>
<asrwt>0</asrwt>
<pdfrwt beam="1">  1        2 0.28805348E+00 0.22273049E+04</pdfrwt>
<pdfrwt beam="2">  1       -2 0.10190594E+00 0.22273049E+04</pdfrwt>
<totfact> 0.56653732E+00</totfact>
</mgrwt>
</event>
<event>
12    1  0.1599266E-007  0.1961326E+04  0.7818608E-02  0.8624918E-01
         -1   -1    0    0    0  501 -0.00000000000E+00  0.00000000000E+00  0.10571700173E+04  0.10571700173E+04  0.00000000000E+00 0.  1.
          1   -1    0    0  501    0  0.00000000000E+00 -0.00000000000E+00 -0.90969313488E+03  0.90969313488E+03  0.00000000000E+00 0. -1.
         23    2    1    2    0    0 -0.31904648032E+03 -0.39422416815E+02  0.76575088371E+03  0.83461598281E+03  0.82853118933E+02 0.  0.
        254    2    1    2    0    0  0.31904648032E+03  0.39422416815E+02 -0.61827400132E+03  0.11322471693E+04  0.89239908572E+03 0.  0.
        -24    2    4    4    0    0  0.12688192312E+03 -0.34043042630E+03  0.68513913737E+01  0.37171513953E+03  0.78315425227E+02 0.  0.
         24    2    4    4    0    0  0.19216455720E+03  0.37985284311E+03 -0.62512539269E+03  0.76053202980E+03  0.80073792864E+02 0.  0.
         11    1    3    3    0    0 -0.18806122506E+03 -0.60686341872E+02  0.49833113493E+03  0.53608187481E+03  0.00000000000E+00 0. -1.
        -11    1    3    3    0    0 -0.13098525526E+03  0.21263925057E+02  0.26741974878E+03  0.29853410800E+03  0.00000000000E+00 0.  1.
          4    1    6    6  502    0  0.90940278725E+02  0.26363236497E+03 -0.41248108799E+03  0.49790843145E+03  0.00000000000E+00 0. -1.
          1    1    5    5  503    0  0.85263607715E+02 -0.12547473210E+03  0.16217375022E+02  0.15256734398E+03  0.00000000000E+00 0. -1.
         -2    1    5    5    0  503  0.41618315401E+02 -0.21495569420E+03 -0.93659836488E+01  0.21914779555E+03  0.00000000000E+00 0.  1.
         -3    1    6    6    0  502  0.10122427848E+03  0.11622047814E+03 -0.21264430470E+03  0.26262359836E+03  0.00000000000E+00 0.  1.
<mgrwt>
<rscale>  0 0.19613264E+04</rscale>
<asrwt>0</asrwt>
<pdfrwt beam="1">  1        1 0.13995279E+00 0.19613264E+04</pdfrwt>
<pdfrwt beam="2">  1       -1 0.16264154E+00 0.19613264E+04</pdfrwt>
<totfact> 0.46416865E+00</totfact>
</mgrwt>
</event>
<event>
12    1  0.1599266E-007  0.1644800E+04  0.7818608E-02  0.8793489E-01
          2   -1    0    0  501    0  0.00000000000E+00  0.00000000000E+00  0.15293993613E+04  0.15293993613E+04  0.00000000000E+00 0. -1.
         -2   -1    0    0    0  501 -0.00000000000E+00 -0.00000000000E+00 -0.44222701679E+03  0.44222701679E+03  0.00000000000E+00 0.  1.
         23    2    1    2    0    0  0.56827870620E+03 -0.29746363751E+02  0.27759345294E+03  0.64001132215E+03  0.93438928112E+02 0.  0.
        254    2    1    2    0    0 -0.56827870620E+03  0.29746363751E+02  0.80957889152E+03  0.13316150559E+04  0.89104160478E+03 0.  0.
        -24    2    4    4    0    0 -0.44203950545E+03  0.41688776518E+03  0.63230225402E+03  0.88032875601E+03  0.77319111969E+02 0.  0.
         24    2    4    4    0    0 -0.12623920074E+03 -0.38714140143E+03  0.17727663750E+03  0.45128629990E+03  0.80109411254E+02 0.  0.
         13    1    3    3    0    0  0.33086304718E+03 -0.29589243953E+02  0.21062887611E+03  0.39333243293E+03  0.00000000000E+00 0.  1.
        -13    1    3    3    0    0  0.23741565902E+03 -0.15711979826E+00  0.66964576836E+02  0.24667888921E+03  0.00000000000E+00 0. -1.
          4    1    6    6  502    0 -0.89716825193E+02 -0.14793773469E+03  0.75901505719E+02  0.18893311154E+03  0.00000000000E+00 0. -1.
          1    1    5    5  503    0 -0.66050411437E+01  0.52672869029E+00  0.21103341863E+02  0.22119110502E+02  0.00000000000E+00 0. -1.
         -2    1    5    5    0  503 -0.43543446431E+03  0.41636103649E+03  0.61119891216E+03  0.85820964550E+03  0.00000000000E+00 0.  1.
         -3    1    6    6    0  502 -0.36522375551E+02 -0.23920366674E+03  0.10137513179E+03  0.26235318836E+03  0.00000000000E+00 0.  1.
<mgrwt>
<rscale>  0 0.16447999E+04</rscale>
<asrwt>0</asrwt>
<pdfrwt beam="1">  1        2 0.23529221E+00 0.16447999E+04</pdfrwt>
<pdfrwt beam="2">  1       -2 0.68034926E-01 0.16447999E+04</pdfrwt>
<totfact> 0.23092784E+01</totfact>
</mgrwt>
</event>
<event>
12    1  0.1599266E-007  0.9983883E+03  0.7818608E-02  0.9310314E-01
         -2   -1    0    0    0  501 -0.00000000000E+00  0.00000000000E+00  0.14937817675E+03  0.14937817675E+03  0.00000000000E+00 0.  1.
          2   -1    0    0  501    0  0.00000000000E+00 -0.00000000000E+00 -0.16682142864E+04  0.16682142864E+04  0.00000000000E+00 0. -1.
         23    2    1    2    0    0  0.61753046426E+02 -0.24667364811E+02 -0.24488818712E+03  0.26924745769E+03  0.90011397366E+02 0.  0.
        254    2    1    2    0    0 -0.61753046426E+02  0.24667364811E+02 -0.12739479225E+04  0.15483450054E+04  0.87750044384E+03 0.  0.
        -24    2    4    4    0    0  0.59000848873E+02 -0.12562448745E+03 -0.13238780433E+04  0.13340841027E+04  0.88683185805E+02 0.  0.
         24    2    4    4    0    0 -0.12075389530E+03  0.15029185226E+03  0.49930120828E+02  0.21426090273E+03  0.79028940181E+02 0.  0.
         13    1    3    3    0    0  0.64456539231E+02 -0.50122961076E+02 -0.21449389519E+03  0.22950945024E+03  0.00000000000E+00 0.  1.
        -13    1    3    3    0    0 -0.27034928052E+01  0.25455596265E+02 -0.30394291930E+02  0.39738007455E+02  0.00000000000E+00 0. -1.
          2    1    6    6  502    0 -0.20445239853E+02  0.41153201289E+02 -0.20295368438E+02  0.50234408417E+02  0.00000000000E+00 0. -1.
          1    1    5    5  503    0 -0.20857871288E+02 -0.84416279906E+01 -0.15176163274E+03  0.15342067999E+03  0.00000000000E+00 0. -1.
         -2    1    5    5    0  503  0.79858720160E+02 -0.11718285946E+03 -0.11721164106E+04  0.11806634227E+04  0.00000000000E+00 0.  1.
         -1    1    6    6    0  502 -0.10030865545E+03  0.10913865097E+03  0.70225489266E+02  0.16402649431E+03  0.00000000000E+00 0.  1.
<mgrwt>
<rscale>  0 0.99838832E+03</rscale>
<asrwt>0</asrwt>
<pdfrwt beam="1">  1        2 0.25664834E+00 0.99838832E+03</pdfrwt>
<pdfrwt beam="2">  1       -2 0.22981259E-01 0.99838832E+03</pdfrwt>
<totfact> 0.17036707E+02</totfact>
</mgrwt>
</event>
<event>
12    1  0.1599266E-007  0.1754428E+04  0.7818608E-02  0.8730917E-01
         -2   -1    0    0    0  501 -0.00000000000E+00  0.00000000000E+00  0.38113546471E+03  0.38113546471E+03  0.00000000000E+00 0.  1.
          2   -1    0    0  501    0  0.00000000000E+00 -0.00000000000E+00 -0.20189792920E+04  0.20189792920E+04  0.00000000000E+00 0. -1.
         23    2    1    2    0    0  0.33022420153E+03 -0.53867725071E+03 -0.73195727332E+03  0.97128600782E+03  0.91727069682E+02 0.  0.
        254    2    1    2    0    0 -0.33022420153E+03  0.53867725071E+03 -0.90588655400E+03  0.14288287489E+04  0.90647666340E+03 0.  0.
        -24    2    4    4    0    0 -0.18301730640E+03  0.55270614654E+02 -0.89322861932E+03  0.91706861121E+03  0.81285275455E+02 0.  0.
         24    2    4    4    0    0 -0.14720689514E+03  0.48340663606E+03 -0.12657934674E+02  0.51176013770E+03  0.79914763755E+02 0.  0.
         13    1    3    3    0    0  0.28324734737E+03 -0.50521983377E+03 -0.64444862006E+03  0.86648148516E+03  0.00000000000E+00 0. -1.
        -13    1    3    3    0    0  0.46976854164E+02 -0.33457416946E+02 -0.87508653255E+02  0.10480452266E+03  0.00000000000E+00 0.  1.
          4    1    6    6  502    0 -0.13917241326E+03  0.35809790633E+03  0.92217010933E+01  0.38430210890E+03  0.00000000000E+00 0. -1.
          1    1    5    5  503    0 -0.62341132841E+02  0.13134732312E+02 -0.48846245003E+03  0.49259973927E+03  0.00000000000E+00 0. -1.
         -2    1    5    5    0  503 -0.12067617356E+03  0.42135882342E+02 -0.40476616929E+03  0.42446887194E+03  0.00000000000E+00 0.  1.
         -1    1    6    6    0  502 -0.80344818771E+01  0.12530872973E+03 -0.21879635767E+02  0.12745802880E+03  0.00000000000E+00 0.  1.
<mgrwt>
<rscale>  0 0.17544282E+04</rscale>
<asrwt>0</asrwt>
<pdfrwt beam="1">  1        2 0.31061220E+00 0.17544282E+04</pdfrwt>
<pdfrwt beam="2">  1       -2 0.58636224E-01 0.17544282E+04</pdfrwt>
<totfact> 0.16798553E+01</totfact>
</mgrwt>
</event>
<event>
12    1  0.1599266E-007  0.1266403E+04  0.7818608E-02  0.9056640E-01
          3   -1    0    0  501    0  0.00000000000E+00  0.00000000000E+00  0.32454152120E+03  0.32454152120E+03  0.00000000000E+00 0. -1.
         -3   -1    0    0    0  501 -0.00000000000E+00 -0.00000000000E+00 -0.12354180475E+04  0.12354180475E+04  0.00000000000E+00 0.  1.
         23    2    1    2    0    0  0.68151278655E+02 -0.83274913597E+02 -0.59220572599E+03  0.60914552463E+03  0.93655433751E+02 0.  0.
        254    2    1    2    0    0 -0.68151278655E+02  0.83274913597E+02 -0.31867080035E+03  0.95081404411E+03  0.88933512213E+03 0.  0.
        -24    2    4    4    0    0  0.34036361225E+03  0.22024284449E+03 -0.30388394540E+03  0.51278573466E+03  0.79053515437E+02 0.  0.
         24    2    4    4    0    0 -0.40851489090E+03 -0.13696793090E+03 -0.14786854947E+02  0.43802830945E+03  0.77495281247E+02 0.  0.
         13    1    3    3    0    0  0.82629199591E+01  0.14991583334E+02 -0.24462688822E+02  0.29857102363E+02  0.00000000000E+00 0. -1.
        -13    1    3    3    0    0  0.59888358696E+02 -0.98266496931E+02 -0.56774303717E+03  0.57928842227E+03  0.00000000000E+00 0.  1.
          4    1    6    6  502    0 -0.36945960875E+03 -0.10354024864E+03 -0.28716779827E+02  0.38476699317E+03  0.00000000000E+00 0. -1.
          1    1    5    5  503    0  0.23512275441E+03  0.12825527394E+03 -0.15900477445E+03  0.31147173746E+03  0.00000000000E+00 0. -1.
         -2    1    5    5    0  503  0.10524085784E+03  0.91987570550E+02 -0.14487917095E+03  0.20131399720E+03  0.00000000000E+00 0.  1.
         -3    1    6    6    0  502 -0.39055282149E+02 -0.33427682252E+02  0.13929924880E+02  0.53261316277E+02  0.00000000000E+00 0.  1.
<mgrwt>
<rscale>  0 0.12664035E+04</rscale>
<asrwt>0</asrwt>
<pdfrwt beam="1">  1        3 0.49929465E-01 0.12664035E+04</pdfrwt>
<pdfrwt beam="2">  1       -3 0.19006432E+00 0.12664035E+04</pdfrwt>
<totfact> 0.17385822E+00</totfact>
</mgrwt>
</event>
<event>
12    1  0.1599266E-007  0.1958921E+04  0.7818608E-02  0.8626071E-01
          1   -1    0    0  501    0  0.00000000000E+00  0.00000000000E+00  0.90610555799E+03  0.90610555799E+03  0.00000000000E+00 0. -1.
         -1   -1    0    0    0  501 -0.00000000000E+00 -0.00000000000E+00 -0.10587543363E+04  0.10587543363E+04  0.00000000000E+00 0.  1.
         23    2    1    2    0    0  0.64952373247E+03  0.11433669357E+03 -0.46142988091E+03  0.80989264941E+03  0.89747479267E+02 0.  0.
        254    2    1    2    0    0 -0.64952373247E+03 -0.11433669357E+03  0.30878110263E+03  0.11549672449E+04  0.89646506279E+03 0.  0.
        -24    2    4    4    0    0 -0.84083582168E+03 -0.11819318566E+03  0.97006437653E+02  0.85841134442E+03  0.80531230832E+02 0.  0.
         24    2    4    4    0    0  0.19131208921E+03  0.38564920815E+01  0.21177466498E+03  0.29655590043E+03  0.80509038911E+02 0.  0.
         13    1    3    3    0    0  0.51028744108E+02  0.16554485696E+02 -0.69655980261E+02  0.87920073408E+02  0.00000000000E+00 0. -1.
        -13    1    3    3    0    0  0.59849498836E+03  0.97782207878E+02 -0.39177390065E+03  0.72197257600E+03  0.00000000000E+00 0.  1.
          4    1    6    6  502    0  0.15932808566E+03 -0.24630307712E+02  0.18765969794E+03  0.24740301770E+03  0.00000000000E+00 0. -1.
          3    1    5    5  503    0 -0.83614994768E+03 -0.11264626335E+03  0.10163055179E+03  0.84980273282E+03  0.00000000000E+00 0. -1.
         -4    1    5    5    0  503 -0.46858739954E+01 -0.55469223098E+01 -0.46241141337E+01  0.86086116031E+01  0.00000000000E+00 0.  1.
         -3    1    6    6    0  502  0.31984003545E+02  0.28486799794E+02  0.24114967044E+02  0.49152882731E+02  0.00000000000E+00 0.  1.
<mgrwt>
<rscale>  0 0.19589213E+04</rscale>
<asrwt>0</asrwt>
<pdfrwt beam="1">  1        1 0.13940085E+00 0.19589213E+04</pdfrwt>
<pdfrwt beam="2">  1       -1 0.16288528E+00 0.19589213E+04</pdfrwt>
<totfact> 0.46544302E+00</totfact>
</mgrwt>
</event>
<event>
12    1  0.1599266E-007  0.1454459E+04  0.7818608E-02  0.8915315E-01
         -2   -1    0    0    0  501 -0.00000000000E+00  0.00000000000E+00  0.63115259780E+03  0.63115259780E+03  0.00000000000E+00 0.  1.
          2   -1    0    0  501    0  0.00000000000E+00 -0.00000000000E+00 -0.83793205352E+03  0.83793205352E+03  0.00000000000E+00 0. -1.
         23    2    1    2    0    0  0.21211978613E+03  0.18558649700E+03 -0.40180927651E+03  0.49979616884E+03  0.94384130871E+02 0.  0.
        254    2    1    2    0    0 -0.21211978613E+03 -0.18558649700E+03  0.19502982079E+03  0.96928848247E+03  0.90666773391E+03 0.  0.
        -24    2    4    4    0    0 -0.36845668168E+03 -0.79947283605E+01  0.46741770434E+03  0.60010128043E+03  0.76275779166E+02 0.  0.
         24    2    4    4    0    0  0.15633689555E+03 -0.17759176864E+03 -0.27238788355E+03  0.36918720204E+03  0.78255797512E+02 0.  0.
         13    1    3    3    0    0  0.99013212648E+02  0.11300915141E+03 -0.28303229749E+03  0.32044026901E+03  0.00000000000E+00 0. -1.
        -13    1    3    3    0    0  0.11310657348E+03  0.72577345595E+02 -0.11877697902E+03  0.17935589983E+03  0.00000000000E+00 0.  1.
          2    1    6    6  502    0  0.52176911335E+02 -0.11934743119E+02 -0.58613957713E+02  0.79375463517E+02  0.00000000000E+00 0. -1.
          1    1    5    5  503    0 -0.16240087844E+03 -0.19822856524E+02  0.15304524889E+03  0.22403088887E+03  0.00000000000E+00 0. -1.
         -2    1    5    5    0  503 -0.20605580324E+03  0.11828128164E+02  0.31437245545E+03  0.37607039156E+03  0.00000000000E+00 0.  1.
         -1    1    6    6    0  502  0.10415998422E+03 -0.16565702552E+03 -0.21377392584E+03  0.28981173852E+03  0.00000000000E+00 0.  1.
<mgrwt>
<rscale>  0 0.14544593E+04</rscale>
<asrwt>0</asrwt>
<pdfrwt beam="1">  1        2 0.12891262E+00 0.14544593E+04</pdfrwt>
<pdfrwt beam="2">  1       -2 0.97100401E-01 0.14544593E+04</pdfrwt>
<totfact> 0.27786954E+01</totfact>
</mgrwt>
</event>
<event>
12    1  0.1599266E-007  0.2209600E+04  0.7818608E-02  0.8514443E-01
          2   -1    0    0  501    0  0.00000000000E+00  0.00000000000E+00  0.22494140987E+04  0.22494140987E+04  0.00000000000E+00 0. -1.
         -2   -1    0    0    0  501 -0.00000000000E+00 -0.00000000000E+00 -0.54262257223E+03  0.54262257223E+03  0.00000000000E+00 0.  1.
         23    2    1    2    0    0  0.64547596687E+02 -0.82608814630E+03  0.20541897566E+03  0.85862844679E+03  0.91966495921E+02 0.  0.
        254    2    1    2    0    0 -0.64547596687E+02  0.82608814630E+03  0.15013725508E+04  0.19334082242E+04  0.89295005861E+03 0.  0.
        -24    2    4    4    0    0 -0.46380089022E+02  0.43439699448E+03  0.72667469442E+02  0.44978533286E+03  0.78577497189E+02 0.  0.
         24    2    4    4    0    0 -0.18167507665E+02  0.39169115182E+03  0.14287050814E+04  0.14836228913E+04  0.78655306672E+02 0.  0.
         11    1    3    3    0    0  0.11662685785E+02 -0.40853347620E+02  0.30801089367E+02  0.52475912166E+02  0.00000000000E+00 0. -1.
        -11    1    3    3    0    0  0.52884910902E+02 -0.78523479868E+03  0.17461788629E+03  0.80615253462E+03  0.00000000000E+00 0.  1.
          4    1    6    6  502    0 -0.35269666819E+01  0.11891234995E+03  0.30985723270E+03  0.33190976352E+03  0.00000000000E+00 0. -1.
          3    1    5    5  503    0 -0.61278797086E+02  0.29663737579E+03  0.27959620946E+02  0.30418836942E+03  0.00000000000E+00 0. -1.
         -4    1    5    5    0  503  0.14898708064E+02  0.13775961869E+03  0.44707848496E+02  0.14559696344E+03  0.00000000000E+00 0.  1.
         -1    1    6    6    0  502 -0.14640540983E+02  0.27277880187E+03  0.11188478487E+04  0.11517131278E+04  0.00000000000E+00 0.  1.
<mgrwt>
<rscale>  0 0.22095998E+04</rscale>
<asrwt>0</asrwt>
<pdfrwt beam="1">  1        2 0.34606370E+00 0.22095998E+04</pdfrwt>
<pdfrwt beam="2">  1       -2 0.83480397E-01 0.22095998E+04</pdfrwt>
<totfact> 0.55520241E+00</totfact>
</mgrwt>
</event>
<event>
12    1  0.1599266E-007  0.1565917E+04  0.7818608E-02  0.8841765E-01
          1   -1    0    0  501    0  0.00000000000E+00  0.00000000000E+00  0.36042128182E+03  0.36042128182E+03  0.00000000000E+00 0. -1.
         -1   -1    0    0    0  501 -0.00000000000E+00 -0.00000000000E+00 -0.17008533403E+04  0.17008533403E+04  0.00000000000E+00 0.  1.
         23    2    1    2    0    0 -0.15017468362E+03  0.42818576949E+02 -0.10979972343E+04  0.11127689558E+04  0.90944798212E+02 0.  0.
        254    2    1    2    0    0  0.15017468362E+03 -0.42818576949E+02 -0.24243482418E+03  0.94850566632E+03  0.90360527274E+03 0.  0.
        -24    2    4    4    0    0 -0.10935175254E+03  0.34807260701E+03  0.68183572613E+02  0.38004231033E+03  0.81675042287E+02 0.  0.
         24    2    4    4    0    0  0.25952643616E+03 -0.39089118396E+03 -0.31061839679E+03  0.56846335599E+03  0.80727380228E+02 0.  0.
         11    1    3    3    0    0 -0.11724041230E+03  0.48251095575E+01 -0.93102976432E+03  0.93839491580E+03  0.00000000000E+00 0.  1.
        -11    1    3    3    0    0 -0.32934271319E+02  0.37993467392E+02 -0.16696747001E+03  0.17437404002E+03  0.00000000000E+00 0. -1.
          4    1    6    6  502    0  0.10011875950E+03 -0.17331170532E+03 -0.87612306643E+02  0.21848713802E+03  0.00000000000E+00 0. -1.
          3    1    5    5  503    0 -0.75340617612E+02  0.29637944444E+03  0.29865555433E+02  0.30726037029E+03  0.00000000000E+00 0. -1.
         -4    1    5    5    0  503 -0.34011134927E+02  0.51693162569E+02  0.38318017180E+02  0.72781940041E+02  0.00000000000E+00 0.  1.
         -3    1    6    6    0  502  0.15940767666E+03 -0.21757947863E+03 -0.22300609015E+03  0.34997621797E+03  0.00000000000E+00 0.  1.
<mgrwt>
<rscale>  0 0.15659167E+04</rscale>
<asrwt>0</asrwt>
<pdfrwt beam="1">  1        1 0.55449428E-01 0.15659167E+04</pdfrwt>
<pdfrwt beam="2">  1       -1 0.26166975E+00 0.15659167E+04</pdfrwt>
<totfact> 0.38826123E+00</totfact>
</mgrwt>
</event>
<event>
12    1  0.1599266E-007  0.1418328E+04  0.7818608E-02  0.8940658E-01
          2   -1    0    0  501    0  0.00000000000E+00  0.00000000000E+00  0.16872717243E+04  0.16872717243E+04  0.00000000000E+00 0. -1.
         -2   -1    0    0    0  501 -0.00000000000E+00 -0.00000000000E+00 -0.29806322493E+03  0.29806322493E+03  0.00000000000E+00 0.  1.
         23    2    1    2    0    0  0.32215814716E+03  0.53914513330E+02  0.79129606227E+03  0.86088554392E+03  0.91004478087E+02 0.  0.
        254    2    1    2    0    0 -0.32215814716E+03 -0.53914513330E+02  0.59791243708E+03  0.11244494053E+04  0.89453593339E+03 0.  0.
        -24    2    4    4    0    0  0.24161295443E+03 -0.44880226368E+02 -0.48585533194E+02  0.26308780024E+03  0.80396406235E+02 0.  0.
         24    2    4    4    0    0 -0.56377110159E+03 -0.90342869616E+01  0.64649797028E+03  0.86136160505E+03  0.77876284937E+02 0.  0.
         11    1    3    3    0    0  0.16332389632E+03  0.71010807743E+02  0.45360511511E+03  0.48731389307E+03  0.00000000000E+00 0. -1.
        -11    1    3    3    0    0  0.15883425084E+03 -0.17096294413E+02  0.33769094716E+03  0.37357165085E+03  0.00000000000E+00 0.  1.
          4    1    6    6  502    0 -0.39112030442E+03 -0.37746395887E+02  0.42052287419E+03  0.57553398740E+03  0.00000000000E+00 0. -1.
          1    1    5    5  503    0  0.12845121580E+03 -0.22439252527E+01 -0.59673058860E+02  0.14165318208E+03  0.00000000000E+00 0. -1.
         -2    1    5    5    0  503  0.11316173863E+03 -0.42636301116E+02  0.11087525667E+02  0.12143461816E+03  0.00000000000E+00 0.  1.
         -3    1    6    6    0  502 -0.17265079716E+03  0.28712108926E+02  0.22597509608E+03  0.28582761765E+03  0.00000000000E+00 0.  1.
<mgrwt>
<rscale>  0 0.14183281E+04</rscale>
<asrwt>0</asrwt>
<pdfrwt beam="1">  1        2 0.25958026E+00 0.14183281E+04</pdfrwt>
<pdfrwt beam="2">  1       -2 0.45855882E-01 0.14183281E+04</pdfrwt>
<totfact> 0.43687689E+01</totfact>
</mgrwt>
</event>
<event>
12    1  0.1599266E-007  0.1684883E+04  0.7818608E-02  0.8770033E-01
          2   -1    0    0  501    0  0.00000000000E+00  0.00000000000E+00  0.19799878753E+04  0.19799878753E+04  0.00000000000E+00 0.  1.
         -2   -1    0    0    0  501 -0.00000000000E+00 -0.00000000000E+00 -0.35844054730E+03  0.35844054730E+03  0.00000000000E+00 0. -1.
         23    2    1    2    0    0  0.97409802827E+02 -0.56148755988E+03  0.54472631718E+03  0.79364897357E+03  0.91624140031E+02 0.  0.
        254    2    1    2    0    0 -0.97409802827E+02  0.56148755988E+03  0.10768210108E+04  0.15447794490E+04  0.94975949966E+03 0.  0.
        -24    2    4    4    0    0  0.21961143335E+02 -0.63830734558E+02  0.86127138128E+03  0.86773554449E+03  0.81362942786E+02 0.  0.
         24    2    4    4    0    0 -0.11937094616E+03  0.62531829444E+03  0.21554962950E+03  0.67704390451E+03  0.81574589861E+02 0.  0.
         11    1    3    3    0    0  0.50944253474E+02 -0.90435372416E+02  0.10230630312E+03  0.14574104845E+03  0.00000000000E+00 0.  1.
        -11    1    3    3    0    0  0.46465549353E+02 -0.47105218746E+03  0.44242001406E+03  0.64790792512E+03  0.00000000000E+00 0. -1.
          4    1    6    6  502    0 -0.10440891733E+03  0.43899077466E+03  0.18476607351E+03  0.48759883529E+03  0.00000000000E+00 0. -1.
          1    1    5    5  503    0  0.34251804983E+02 -0.76597987462E+02  0.59660735147E+03  0.60247885412E+03  0.00000000000E+00 0. -1.
         -2    1    5    5    0  503 -0.12290661647E+02  0.12767252903E+02  0.26466402981E+03  0.26525669037E+03  0.00000000000E+00 0.  1.
         -3    1    6    6    0  502 -0.14962028834E+02  0.18632751978E+03  0.30783555992E+02  0.18944506922E+03  0.00000000000E+00 0.  1.
<mgrwt>
<rscale>  0 0.16848833E+04</rscale>
<asrwt>0</asrwt>
<pdfrwt beam="1">  1        2 0.30461351E+00 0.16848833E+04</pdfrwt>
<pdfrwt beam="2">  1       -2 0.55144700E-01 0.16848833E+04</pdfrwt>
<totfact> 0.20193706E+01</totfact>
</mgrwt>
</event>
<event>
12    1  0.1599266E-007  0.1707478E+04  0.7818608E-02  0.8757111E-01
         -2   -1    0    0    0  501 -0.00000000000E+00  0.00000000000E+00  0.38628862398E+03  0.38628862398E+03  0.00000000000E+00 0.  1.
          2   -1    0    0  501    0  0.00000000000E+00 -0.00000000000E+00 -0.18868532912E+04  0.18868532912E+04  0.00000000000E+00 0. -1.
         23    2    1    2    0    0 -0.88180357811E+02  0.54518825990E+03 -0.19412896033E+03  0.59248623848E+03  0.91366707922E+02 0.  0.
        254    2    1    2    0    0  0.88180357811E+02 -0.54518825990E+03 -0.13064357069E+04  0.16806556767E+04  0.90156709852E+03 0.  0.
        -24    2    4    4    0    0 -0.12670314199E+03 -0.64712031482E+03 -0.12629066066E+04  0.14267774414E+04  0.77086848553E+02 0.  0.
         24    2    4    4    0    0  0.21488349980E+03  0.10193205492E+03 -0.43529100354E+02  0.25387823536E+03  0.77422952033E+02 0.  0.
         11    1    3    3    0    0 -0.95481252152E+02  0.33062976514E+03 -0.13631947165E+03  0.37015633111E+03  0.00000000000E+00 0. -1.
        -11    1    3    3    0    0  0.73008943403E+01  0.21455849476E+03 -0.57809488681E+02  0.22232990737E+03  0.00000000000E+00 0.  1.
          4    1    6    6  502    0  0.51176280143E+02 -0.93394593643E+01 -0.54541108092E+01  0.52306638921E+02  0.00000000000E+00 0. -1.
          3    1    5    5  503    0 -0.88178114689E+02 -0.51968017379E+03 -0.10642721884E+04  0.11876523708E+04  0.00000000000E+00 0. -1.
         -4    1    5    5    0  503 -0.38525027304E+02 -0.12744014103E+03 -0.19863441817E+03  0.23912507053E+03  0.00000000000E+00 0.  1.
         -3    1    6    6    0  502  0.16370721966E+03  0.11127151429E+03 -0.38074989544E+02  0.20157159644E+03  0.00000000000E+00 0.  1.
<mgrwt>
<rscale>  0 0.17074776E+04</rscale>
<asrwt>0</asrwt>
<pdfrwt beam="1">  1        2 0.29028512E+00 0.17074776E+04</pdfrwt>
<pdfrwt beam="2">  1       -2 0.59429019E-01 0.17074776E+04</pdfrwt>
<totfact> 0.19407734E+01</totfact>
</mgrwt>
</event>
<event>
12    1  0.1599266E-007  0.1820877E+04  0.7818608E-02  0.8695275E-01
          2   -1    0    0  501    0  0.00000000000E+00  0.00000000000E+00  0.92716353008E+03  0.92716353008E+03  0.00000000000E+00 0. -1.
         -2   -1    0    0    0  501 -0.00000000000E+00 -0.00000000000E+00 -0.89401512127E+03  0.89401512127E+03  0.00000000000E+00 0.  1.
         23    2    1    2    0    0 -0.39457426700E+03  0.39049823223E+03  0.40585051368E+03  0.69321908211E+03  0.87523338501E+02 0.  0.
        254    2    1    2    0    0  0.39457426700E+03 -0.39049823223E+03 -0.37270210487E+03  0.11279595692E+04  0.90840971446E+03 0.  0.
        -24    2    4    4    0    0 -0.28016336531E+03 -0.15930891272E+03 -0.20727223293E+03  0.39139425509E+03  0.79729815223E+02 0.  0.
         24    2    4    4    0    0  0.67473763232E+03 -0.23118931951E+03 -0.16542987194E+03  0.73656531416E+03  0.80262354655E+02 0.  0.
         13    1    3    3    0    0 -0.25642465681E+03  0.24232982440E+03  0.30757049965E+03  0.46805657849E+03  0.00000000000E+00 0. -1.
        -13    1    3    3    0    0 -0.13814961019E+03  0.14816840784E+03  0.98280014033E+02  0.22516250362E+03  0.00000000000E+00 0.  1.
          2    1    6    6  502    0  0.65633602046E+03 -0.22399486286E+03 -0.17404284289E+03  0.71501159537E+03  0.00000000000E+00 0. -1.
          1    1    5    5  503    0 -0.23780706058E+03 -0.99560363231E+02 -0.14872414793E+03  0.29762952838E+03  0.00000000000E+00 0. -1.
         -2    1    5    5    0  503 -0.42356304736E+02 -0.59748549489E+02 -0.58548084999E+02  0.93764726704E+02  0.00000000000E+00 0.  1.
         -1    1    6    6    0  502  0.18401611852E+02 -0.71944566505E+01  0.86129709515E+01  0.21553718794E+02  0.00000000000E+00 0.  1.
<mgrwt>
<rscale>  0 0.18208769E+04</rscale>
<asrwt>0</asrwt>
<pdfrwt beam="1">  1        2 0.14264054E+00 0.18208769E+04</pdfrwt>
<pdfrwt beam="2">  1       -2 0.13754079E+00 0.18208769E+04</pdfrwt>
<totfact> 0.99633046E+00</totfact>
</mgrwt>
</event>
<event>
12    1  0.1599266E-007  0.1826969E+04  0.7818608E-02  0.8692087E-01
         -2   -1    0    0    0  501 -0.00000000000E+00  0.00000000000E+00  0.30621142272E+03  0.30621142272E+03  0.00000000000E+00 0.  1.
          2   -1    0    0  501    0  0.00000000000E+00 -0.00000000000E+00 -0.27250922179E+04  0.27250922179E+04  0.00000000000E+00 0. -1.
         23    2    1    2    0    0 -0.58953430672E+03 -0.34309859857E+03 -0.80386038899E+03  0.10587049912E+04  0.96940116887E+02 0.  0.
        254    2    1    2    0    0  0.58953430672E+03  0.34309859857E+03 -0.16150204062E+04  0.19725986494E+04  0.90420527103E+03 0.  0.
        -24    2    4    4    0    0  0.47648941097E+02 -0.23920380816E+02 -0.11775363460E+04  0.11814234221E+04  0.79541497773E+02 0.  0.
         24    2    4    4    0    0  0.54188536563E+03  0.36701897938E+03 -0.43748406020E+03  0.79117522736E+03  0.78887621023E+02 0.  0.
         13    1    3    3    0    0 -0.45214746112E+03 -0.25229606446E+03 -0.54367390872E+03  0.75078089331E+03  0.00000000000E+00 0.  1.
        -13    1    3    3    0    0 -0.13738684561E+03 -0.90802534106E+02 -0.26018648027E+03  0.30792409789E+03  0.00000000000E+00 0. -1.
          2    1    6    6  502    0  0.11058736642E+03  0.99799138136E+02 -0.13136192469E+03  0.19860863235E+03  0.00000000000E+00 0. -1.
          3    1    5    5  503    0  0.21785510239E+02 -0.73551598631E+01 -0.74684367576E+02  0.78143851922E+02  0.00000000000E+00 0. -1.
         -4    1    5    5    0  503  0.25863430858E+02 -0.16565220953E+02 -0.11028519784E+04  0.11032795701E+04  0.00000000000E+00 0.  1.
         -1    1    6    6    0  502  0.43129799921E+03  0.26721984125E+03 -0.30612213551E+03  0.59256659501E+03  0.00000000000E+00 0.  1.
<mgrwt>
<rscale>  0 0.18269695E+04</rscale>
<asrwt>0</asrwt>
<pdfrwt beam="1">  1        2 0.41924495E+00 0.18269695E+04</pdfrwt>
<pdfrwt beam="2">  1       -2 0.47109450E-01 0.18269695E+04</pdfrwt>
<totfact> 0.10342609E+01</totfact>
</mgrwt>
</event>
<event>
12    1  0.1599266E-007  0.1263978E+04  0.7818608E-02  0.9058629E-01
          2   -1    0    0  501    0  0.00000000000E+00  0.00000000000E+00  0.10645657270E+04  0.10645657270E+04  0.00000000000E+00 0. -1.
         -2   -1    0    0    0  501 -0.00000000000E+00 -0.00000000000E+00 -0.37518572510E+03  0.37518572510E+03  0.00000000000E+00 0.  1.
         23    2    1    2    0    0  0.96894249170E+02 -0.16204377851E+03  0.27392725894E+03  0.34557051270E+03  0.93467397445E+02 0.  0.
        254    2    1    2    0    0 -0.96894249170E+02  0.16204377851E+03  0.41545274298E+03  0.10941809394E+04  0.99447688000E+03 0.  0.
        -24    2    4    4    0    0 -0.50120785289E+03 -0.73774435442E+02  0.33464207803E+03  0.61248003672E+03  0.80588435094E+02 0.  0.
         24    2    4    4    0    0  0.40431360372E+03  0.23581821395E+03  0.80810664952E+02  0.48170090270E+03  0.80160313776E+02 0.  0.
         11    1    3    3    0    0  0.19096616089E+02 -0.11737769660E+03  0.13199691867E+03  0.17766651611E+03  0.00000000000E+00 0.  1.
        -11    1    3    3    0    0  0.77797633082E+02 -0.44666081908E+02  0.14193034026E+03  0.16790399660E+03  0.00000000000E+00 0. -1.
          4    1    6    6  502    0  0.49905686874E+02  0.62614990134E+02  0.20471284258E+02  0.82645556753E+02  0.00000000000E+00 0. -1.
          1    1    5    5  503    0 -0.69389129844E+02 -0.39239496822E+02  0.48509129829E+02  0.93315192376E+02  0.00000000000E+00 0. -1.
         -2    1    5    5    0  503 -0.43181872304E+03 -0.34534938620E+02  0.28613294820E+03  0.51916484434E+03  0.00000000000E+00 0.  1.
         -3    1    6    6    0  502  0.35440791684E+03  0.17320322382E+03  0.60339380694E+02  0.39905534594E+03  0.00000000000E+00 0.  1.
<mgrwt>
<rscale>  0 0.12639776E+04</rscale>
<asrwt>0</asrwt>
<pdfrwt beam="1">  1        2 0.16377934E+00 0.12639776E+04</pdfrwt>
<pdfrwt beam="2">  1       -2 0.57720881E-01 0.12639776E+04</pdfrwt>
<totfact> 0.63293189E+01</totfact>
</mgrwt>
</event>
<event>
12    1  0.1599266E-007  0.2339892E+04  0.7818608E-02  0.8462356E-01
          1   -1    0    0  501    0  0.00000000000E+00  0.00000000000E+00  0.11244844877E+04  0.11244844877E+04  0.00000000000E+00 0. -1.
         -1   -1    0    0    0  501 -0.00000000000E+00 -0.00000000000E+00 -0.12172454154E+04  0.12172454154E+04  0.00000000000E+00 0.  1.
         23    2    1    2    0    0  0.89298589814E+02  0.98264124165E+03  0.10967700032E+03  0.99698922576E+03  0.91653826648E+02 0.  0.
        254    2    1    2    0    0 -0.89298589814E+02 -0.98264124165E+03 -0.20243792797E+03  0.13447406773E+04  0.89094799322E+03 0.  0.
        -24    2    4    4    0    0  0.35902392236E+03 -0.21224688202E+03  0.10890440671E+02  0.42479787686E+03  0.79923205198E+02 0.  0.
         24    2    4    4    0    0 -0.44832251217E+03 -0.77039435963E+03 -0.21332836864E+03  0.91994280046E+03  0.79279372988E+02 0.  0.
         11    1    3    3    0    0  0.14182694244E+01  0.21698273607E+03  0.57832436926E+02  0.22456204043E+03  0.00000000000E+00 0. -1.
        -11    1    3    3    0    0  0.87880320390E+02  0.76565850558E+03  0.51844563395E+02  0.77242718533E+03  0.00000000000E+00 0.  1.
          4    1    6    6  502    0 -0.35291287207E+03 -0.60233858694E+03 -0.20018433903E+03  0.72624585244E+03  0.00000000000E+00 0. -1.
          1    1    5    5  503    0  0.25250520596E+03 -0.12831994923E+03  0.40138865851E+02  0.28606995116E+03  0.00000000000E+00 0. -1.
         -2    1    5    5    0  503  0.10651871640E+03 -0.83926932793E+02 -0.29248425181E+02  0.13872792569E+03  0.00000000000E+00 0.  1.
         -3    1    6    6    0  502 -0.95409640100E+02 -0.16805577269E+03 -0.13144029611E+02  0.19369694803E+03  0.00000000000E+00 0.  1.
<mgrwt>
<rscale>  0 0.23398920E+04</rscale>
<asrwt>0</asrwt>
<pdfrwt beam="1">  1        1 0.17299761E+00 0.23398920E+04</pdfrwt>
<pdfrwt beam="2">  1       -1 0.18726853E+00 0.23398920E+04</pdfrwt>
<totfact> 0.20220855E+00</totfact>
</mgrwt>
</event>
<event>
12    1  0.1599266E-007  0.1635138E+04  0.7818608E-02  0.8799247E-01
         -1   -1    0    0    0  501 -0.00000000000E+00  0.00000000000E+00  0.70901894951E+03  0.70901894951E+03  0.00000000000E+00 0.  1.
          1   -1    0    0  501    0  0.00000000000E+00 -0.00000000000E+00 -0.94273797156E+03  0.94273797156E+03  0.00000000000E+00 0. -1.
         23    2    1    2    0    0 -0.55140654613E+03  0.12226525683E+03 -0.30756424300E+02  0.57250156745E+03  0.88397482720E+02 0.  0.
        254    2    1    2    0    0  0.55140654613E+03 -0.12226525683E+03 -0.20296259775E+03  0.10792553536E+04  0.89699516727E+03 0.  0.
        -24    2    4    4    0    0  0.63104224198E+03  0.15797868551E+03  0.86341653626E+02  0.66077155858E+03  0.77411854698E+02 0.  0.
         24    2    4    4    0    0 -0.79635695849E+02 -0.28024394234E+03 -0.28930425138E+03  0.41848379505E+03  0.80951995522E+02 0.  0.
         11    1    3    3    0    0 -0.48733344705E+03  0.13522754227E+03 -0.19162169979E+02  0.50611023064E+03  0.00000000000E+00 0. -1.
        -11    1    3    3    0    0 -0.64073099077E+02 -0.12962285440E+02 -0.11594254321E+02  0.66391336803E+02  0.00000000000E+00 0.  1.
          2    1    6    6  502    0 -0.30893302760E+01 -0.30367837323E+01  0.52604773349E+01  0.68145901404E+01  0.00000000000E+00 0. -1.
          3    1    5    5  503    0  0.15940493688E+03  0.71828165427E+02  0.37795395752E+02  0.17887904067E+03  0.00000000000E+00 0. -1.
         -4    1    5    5    0  503  0.47163730509E+03  0.86150520080E+02  0.48546257874E+02  0.48189251791E+03  0.00000000000E+00 0.  1.
         -1    1    6    6    0  502 -0.76546365573E+02 -0.27720715861E+03 -0.29456472871E+03  0.41166920491E+03  0.00000000000E+00 0.  1.
<mgrwt>
<rscale>  0 0.16351380E+04</rscale>
<asrwt>0</asrwt>
<pdfrwt beam="1">  1        1 0.14503661E+00 0.16351380E+04</pdfrwt>
<pdfrwt beam="2">  1       -1 0.10907984E+00 0.16351380E+04</pdfrwt>
<totfact> 0.12515217E+01</totfact>
</mgrwt>
</event>
<event>
12    1  0.1599266E-007  0.1355146E+04  0.7818608E-02  0.8986942E-01
         -1   -1    0    0    0  501 -0.00000000000E+00  0.00000000000E+00  0.28223055224E+03  0.28223055224E+03  0.00000000000E+00 0.  1.
          1   -1    0    0  501    0  0.00000000000E+00 -0.00000000000E+00 -0.16267027438E+04  0.16267027438E+04  0.00000000000E+00 0. -1.
         23    2    1    2    0    0 -0.24021853695E+03 -0.24774502283E+03 -0.18022142034E+03  0.39994046776E+03  0.91597355674E+02 0.  0.
        254    2    1    2    0    0  0.24021853695E+03  0.24774502283E+03 -0.11642507713E+04  0.15089928283E+04  0.89582194421E+03 0.  0.
        -24    2    4    4    0    0 -0.41932108229E+02 -0.23079522714E+03 -0.37399209134E+02  0.25022500135E+03  0.78670908774E+02 0.  0.
         24    2    4    4    0    0  0.28215064518E+03  0.47854024997E+03 -0.11268515621E+04  0.12587678270E+04  0.78052813856E+02 0.  0.
         13    1    3    3    0    0 -0.61682017548E+02 -0.12676301018E+03 -0.80455890290E+02  0.16231661135E+03  0.00000000000E+00 0. -1.
        -13    1    3    3    0    0 -0.17853651940E+03 -0.12098201266E+03 -0.99765530052E+02  0.23762385641E+03  0.00000000000E+00 0.  1.
          4    1    6    6  502    0  0.28152341014E+03  0.45840809182E+03 -0.10562767412E+04  0.11853750306E+04  0.00000000000E+00 0. -1.
          3    1    5    5  503    0 -0.62372878200E+02 -0.16999548120E+03 -0.12809557076E+02  0.18152940345E+03  0.00000000000E+00 0. -1.
         -4    1    5    5    0  503  0.20440769971E+02 -0.60799745932E+02 -0.24589652058E+02  0.68695597900E+02  0.00000000000E+00 0.  1.
         -3    1    6    6    0  502  0.62723504631E+00  0.20132158146E+02 -0.70574820934E+02  0.73392796413E+02  0.00000000000E+00 0.  1.
<mgrwt>
<rscale>  0 0.13551461E+04</rscale>
<asrwt>0</asrwt>
<pdfrwt beam="1">  1        1 0.25026196E+00 0.13551461E+04</pdfrwt>
<pdfrwt beam="2">  1       -1 0.43420085E-01 0.13551461E+04</pdfrwt>
<totfact> 0.27401154E+01</totfact>
</mgrwt>
</event>
<event>
12    1  0.1599266E-007  0.1512049E+04  0.7818608E-02  0.8876480E-01
         -1   -1    0    0    0  501 -0.00000000000E+00  0.00000000000E+00  0.58935357737E+03  0.58935357737E+03  0.00000000000E+00 0.  1.
          1   -1    0    0  501    0  0.00000000000E+00 -0.00000000000E+00 -0.96983018083E+03  0.96983018083E+03  0.00000000000E+00 0. -1.
         23    2    1    2    0    0  0.12064746402E+03  0.27766377304E+03  0.25485158425E+03  0.40675793698E+03  0.94072885936E+02 0.  0.
        254    2    1    2    0    0 -0.12064746402E+03 -0.27766377304E+03 -0.63532818771E+03  0.11524258212E+04  0.91257349616E+03 0.  0.
        -24    2    4    4    0    0 -0.49149224841E+03 -0.12495409038E+03 -0.18804817060E+03  0.54669473881E+03  0.79591884197E+02 0.  0.
         24    2    4    4    0    0  0.37084478439E+03 -0.15270968266E+03 -0.44728001711E+03  0.60573108242E+03  0.77489542562E+02 0.  0.
         13    1    3    3    0    0  0.19623013504E+02  0.43402439119E+02  0.21626850869E+01  0.47681354713E+02  0.00000000000E+00 0. -1.
        -13    1    3    3    0    0  0.10102445051E+03  0.23426133392E+03  0.25268889916E+03  0.35907658227E+03  0.00000000000E+00 0.  1.
          2    1    6    6  502    0  0.34972920291E+03 -0.15311526230E+03 -0.44181936192E+03  0.58391707244E+03  0.00000000000E+00 0. -1.
          1    1    5    5  503    0 -0.30043367901E+03 -0.39761725725E+02 -0.12868462433E+03  0.32924325787E+03  0.00000000000E+00 0. -1.
         -2    1    5    5    0  503 -0.19105856940E+03 -0.85192364656E+02 -0.59363546262E+02  0.21745148094E+03  0.00000000000E+00 0.  1.
         -1    1    6    6    0  502  0.21115581478E+02  0.40557963816E+00 -0.54606551898E+01  0.21814009973E+02  0.00000000000E+00 0.  1.
<mgrwt>
<rscale>  0 0.15120488E+04</rscale>
<asrwt>0</asrwt>
<pdfrwt beam="1">  1        1 0.14920464E+00 0.15120488E+04</pdfrwt>
<pdfrwt beam="2">  1       -1 0.90669782E-01 0.15120488E+04</pdfrwt>
<totfact> 0.18358666E+01</totfact>
</mgrwt>
</event>
<event>
12    1  0.1599266E-007  0.1433562E+04  0.7818608E-02  0.8929877E-01
          1   -1    0    0  501    0  0.00000000000E+00  0.00000000000E+00  0.15153314380E+04  0.15153314380E+04  0.00000000000E+00 0. -1.
         -1   -1    0    0    0  501 -0.00000000000E+00 -0.00000000000E+00 -0.33905115297E+03  0.33905115297E+03  0.00000000000E+00 0.  1.
         23    2    1    2    0    0  0.18883499210E+03  0.17161528438E+03 -0.84396586650E+02  0.28394386978E+03  0.91601731820E+02 0.  0.
        254    2    1    2    0    0 -0.18883499210E+03 -0.17161528438E+03  0.12606768717E+04  0.15704387212E+04  0.90103337464E+03 0.  0.
        -24    2    4    4    0    0 -0.20883841947E+03 -0.44855607395E+03  0.34056556000E+03  0.60595563509E+03  0.79883002644E+02 0.  0.
         24    2    4    4    0    0  0.20003427373E+02  0.27694078957E+03  0.92011131172E+03  0.96448308615E+03  0.80786505578E+02 0.  0.
         11    1    3    3    0    0  0.13313238492E+03  0.11091136006E+03 -0.11038703743E+02  0.17363010881E+03  0.00000000000E+00 0.  1.
        -11    1    3    3    0    0  0.55702607182E+02  0.60703924313E+02 -0.73357882907E+02  0.11031376097E+03  0.00000000000E+00 0. -1.
          2    1    6    6  502    0 -0.19695108111E+02  0.14178788958E+03  0.55435599592E+03  0.57254019346E+03  0.00000000000E+00 0. -1.
          1    1    5    5  503    0 -0.16374554487E+02 -0.53047817988E+02  0.11654980118E+02  0.56727732103E+02  0.00000000000E+00 0. -1.
         -2    1    5    5    0  503 -0.19246386499E+03 -0.39550825596E+03  0.32891057988E+03  0.54922790299E+03  0.00000000000E+00 0.  1.
         -1    1    6    6    0  502  0.39698535483E+02  0.13515290000E+03  0.36575531580E+03  0.39194289269E+03  0.00000000000E+00 0.  1.
<mgrwt>
<rscale>  0 0.14335618E+04</rscale>
<asrwt>0</asrwt>
<pdfrwt beam="1">  1        1 0.23312791E+00 0.14335618E+04</pdfrwt>
<pdfrwt beam="2">  1       -1 0.52161717E-01 0.14335618E+04</pdfrwt>
<totfact> 0.22976680E+01</totfact>
</mgrwt>
</event>
<event>
12    1  0.1599266E-007  0.2994813E+04  0.7818608E-02  0.8245214E-01
         -1   -1    0    0    0  501 -0.00000000000E+00  0.00000000000E+00  0.16394517143E+04  0.16394517143E+04  0.00000000000E+00 0.  1.
          1   -1    0    0  501    0  0.00000000000E+00 -0.00000000000E+00 -0.13676682045E+04  0.13676682045E+04  0.00000000000E+00 0. -1.
         23    2    1    2    0    0 -0.10805749173E+04 -0.79162101324E+03 -0.46334937719E+02  0.13434119129E+04  0.91118937700E+02 0.  0.
        254    2    1    2    0    0  0.10805749173E+04  0.79162101324E+03  0.31811844760E+03  0.16637080059E+04  0.93403372616E+03 0.  0.
        -24    2    4    4    0    0  0.11001384671E+04  0.88597809263E+03  0.10736834105E+03  0.14186695046E+04  0.76376534874E+02 0.  0.
         24    2    4    4    0    0 -0.19563549817E+02 -0.94357079386E+02  0.21075010655E+03  0.24503850131E+03  0.79638362628E+02 0.  0.
         11    1    3    3    0    0 -0.25110300082E+03 -0.19516575917E+03 -0.48806410819E+02  0.32175216598E+03  0.00000000000E+00 0. -1.
        -11    1    3    3    0    0 -0.82947191648E+03 -0.59645525407E+03  0.24714731000E+01  0.10216597469E+04  0.00000000000E+00 0.  1.
          4    1    6    6  502    0 -0.13149701775E+01 -0.20207975721E+02  0.13830534091E+03  0.13978003703E+03  0.00000000000E+00 0. -1.
          1    1    5    5  503    0  0.10214992732E+04  0.80271349318E+03  0.84682029563E+02  0.13019142688E+04  0.00000000000E+00 0. -1.
         -2    1    5    5    0  503  0.78639193954E+02  0.83264599449E+02  0.22686311491E+02  0.11675523575E+03  0.00000000000E+00 0.  1.
         -3    1    6    6    0  502 -0.18248579639E+02 -0.74149103665E+02  0.72444765642E+02  0.10525846428E+03  0.00000000000E+00 0.  1.
<mgrwt>
<rscale>  0 0.29948128E+04</rscale>
<asrwt>0</asrwt>
<pdfrwt beam="1">  1        1 0.21041049E+00 0.29948128E+04</pdfrwt>
<pdfrwt beam="2">  1       -1 0.25222334E+00 0.29948128E+04</pdfrwt>
<totfact> 0.46482084E-01</totfact>
</mgrwt>
</event>
<event>
12    1  0.1599266E-007  0.2361867E+04  0.7818608E-02  0.8453919E-01
         -2   -1    0    0    0  501 -0.00000000000E+00  0.00000000000E+00  0.67704063411E+03  0.67704063411E+03  0.00000000000E+00 0.  1.
          2   -1    0    0  501    0  0.00000000000E+00 -0.00000000000E+00 -0.20598527565E+04  0.20598527565E+04  0.00000000000E+00 0. -1.
         23    2    1    2    0    0 -0.48556955085E+03  0.88065245581E+03 -0.60187844398E+03  0.11756132159E+04  0.92099052371E+02 0.  0.
        254    2    1    2    0    0  0.48556955085E+03 -0.88065245581E+03 -0.78093367836E+03  0.15612801747E+04  0.90355511019E+03 0.  0.
        -24    2    4    4    0    0 -0.22671369738E+03 -0.87372411038E+02 -0.37443361422E+02  0.25905151794E+03  0.81686258586E+02 0.  0.
         24    2    4    4    0    0  0.71228324822E+03 -0.79328004477E+03 -0.74349031694E+03  0.13022286567E+04  0.79880960638E+02 0.  0.
         13    1    3    3    0    0 -0.12614511585E+03  0.17690050883E+03 -0.97508583193E+02  0.23814765183E+03  0.00000000000E+00 0. -1.
        -13    1    3    3    0    0 -0.35942443500E+03  0.70375194698E+03 -0.50436986079E+03  0.93746556408E+03  0.00000000000E+00 0.  1.
          4    1    6    6  502    0  0.18834723985E+02 -0.20708208244E+02 -0.37419530616E+02  0.46731124402E+02  0.00000000000E+00 0. -1.
          1    1    5    5  503    0 -0.11467809196E+02 -0.27609725335E+02  0.83008747173E+01  0.31027602258E+02  0.00000000000E+00 0. -1.
         -2    1    5    5    0  503 -0.21524588818E+03 -0.59762685703E+02 -0.45744236139E+02  0.22802391568E+03  0.00000000000E+00 0.  1.
         -3    1    6    6    0  502  0.69344852424E+03 -0.77257183653E+03 -0.70607078632E+03  0.12554975323E+04  0.00000000000E+00 0.  1.
<mgrwt>
<rscale>  0 0.23618671E+04</rscale>
<asrwt>0</asrwt>
<pdfrwt beam="1">  1        2 0.31690043E+00 0.23618671E+04</pdfrwt>
<pdfrwt beam="2">  1       -2 0.10416010E+00 0.23618671E+04</pdfrwt>
<totfact> 0.41821912E+00</totfact>
</mgrwt>
</event>
<event>
12    1  0.1599266E-007  0.1298689E+04  0.7818608E-02  0.9030605E-01
         -2   -1    0    0    0  501 -0.00000000000E+00  0.00000000000E+00  0.26852126992E+03  0.26852126992E+03  0.00000000000E+00 0. -1.
          2   -1    0    0  501    0  0.00000000000E+00 -0.00000000000E+00 -0.15702614369E+04  0.15702614369E+04  0.00000000000E+00 0.  1.
         23    2    1    2    0    0 -0.16322174069E+03 -0.27412057448E+03 -0.23783349770E+03  0.40807668829E+03  0.90434423278E+02 0.  0.
        254    2    1    2    0    0  0.16322174069E+03  0.27412057448E+03 -0.10639066693E+04  0.14307060185E+04  0.90179758509E+03 0.  0.
        -24    2    4    4    0    0  0.33529832471E+03  0.52814447769E+03 -0.61306016022E+03  0.87956410991E+03  0.80179221269E+02 0.  0.
         24    2    4    4    0    0 -0.17207658402E+03 -0.25402390321E+03 -0.45084650903E+03  0.55114190857E+03  0.79726623605E+02 0.  0.
         11    1    3    3    0    0 -0.15587992725E+03 -0.23961156131E+03 -0.17261985530E+03  0.33393093070E+03  0.00000000000E+00 0. -1.
        -11    1    3    3    0    0 -0.73418134405E+01 -0.34509013165E+02 -0.65213642393E+02  0.74145757588E+02  0.00000000000E+00 0.  1.
          2    1    6    6  502    0 -0.54023856808E+02 -0.27774548391E+02 -0.10546063508E+03  0.12170434748E+03  0.00000000000E+00 0. -1.
          1    1    5    5  503    0  0.25237345942E+02  0.13701300371E+02 -0.41187748267E+02  0.50210356196E+02  0.00000000000E+00 0. -1.
         -2    1    5    5    0  503  0.31006097877E+03  0.51444317732E+03 -0.57187241196E+03  0.82935375372E+03  0.00000000000E+00 0.  1.
         -1    1    6    6    0  502 -0.11805272721E+03 -0.22624935482E+03 -0.34538587395E+03  0.42943756110E+03  0.00000000000E+00 0.  1.
<mgrwt>
<rscale>  0 0.12986895E+04</rscale>
<asrwt>0</asrwt>
<pdfrwt beam="1">  1        2 0.24157868E+00 0.12986895E+04</pdfrwt>
<pdfrwt beam="2">  1       -2 0.41310965E-01 0.12986895E+04</pdfrwt>
<totfact> 0.63034635E+01</totfact>
</mgrwt>
</event>
<event>
12    1  0.1599266E-007  0.2104304E+04  0.7818608E-02  0.8559350E-01
          2   -1    0    0  501    0  0.00000000000E+00  0.00000000000E+00  0.19323423491E+04  0.19323423491E+04  0.00000000000E+00 0. -1.
         -2   -1    0    0    0  501 -0.00000000000E+00 -0.00000000000E+00 -0.57289221699E+03  0.57289221699E+03  0.00000000000E+00 0.  1.
         23    2    1    2    0    0 -0.13709306812E+03 -0.91275570251E+02  0.15355588119E+04  0.15469963200E+04  0.90172115158E+02 0.  0.
        254    2    1    2    0    0  0.13709306812E+03  0.91275570251E+02 -0.17610867976E+03  0.95823824607E+03  0.92740526745E+03 0.  0.
        -24    2    4    4    0    0  0.31979521950E+03 -0.28143739571E+03  0.10978276235E+03  0.44740220814E+03  0.81489206772E+02 0.  0.
         24    2    4    4    0    0 -0.18270215138E+03  0.37271296596E+03 -0.28589144211E+03  0.51083603793E+03  0.83213639881E+02 0.  0.
         13    1    3    3    0    0 -0.11979588693E+03 -0.44144933700E+02  0.84216318037E+03  0.85178556695E+03  0.00000000000E+00 0. -1.
        -13    1    3    3    0    0 -0.17297181183E+02 -0.47130636550E+02  0.69339563154E+03  0.69521075309E+03  0.00000000000E+00 0.  1.
          4    1    6    6  502    0 -0.16450324377E+03  0.32949933010E+03 -0.21686309872E+03  0.42738826532E+03  0.00000000000E+00 0. -1.
          3    1    5    5  503    0  0.24768202810E+03 -0.19409631793E+03  0.47789296197E+02  0.31828224033E+03  0.00000000000E+00 0. -1.
         -4    1    5    5    0  503  0.72113191395E+02 -0.87341077788E+02  0.61993466151E+02  0.12911996781E+03  0.00000000000E+00 0.  1.
         -3    1    6    6    0  502 -0.18198907605E+02  0.43213635865E+02 -0.69028343388E+02  0.83447772610E+02  0.00000000000E+00 0.  1.
<mgrwt>
<rscale>  0 0.21043041E+04</rscale>
<asrwt>0</asrwt>
<pdfrwt beam="1">  1        2 0.29728344E+00 0.21043041E+04</pdfrwt>
<pdfrwt beam="2">  1       -2 0.88137265E-01 0.21043041E+04</pdfrwt>
<totfact> 0.74427672E+00</totfact>
</mgrwt>
</event>
<event>
12    1  0.1599266E-007  0.2010625E+04  0.7818608E-02  0.8601669E-01
          2   -1    0    0  501    0  0.00000000000E+00  0.00000000000E+00  0.12789036023E+04  0.12789036023E+04  0.00000000000E+00 0.  1.
         -2   -1    0    0    0  501 -0.00000000000E+00 -0.00000000000E+00 -0.79024979667E+03  0.79024979667E+03  0.00000000000E+00 0. -1.
         23    2    1    2    0    0  0.31736731235E+03  0.61778011189E+03  0.60558575265E+03  0.92600528656E+03  0.91528188722E+02 0.  0.
        254    2    1    2    0    0 -0.31736731235E+03 -0.61778011189E+03 -0.11693194702E+03  0.11431481124E+04  0.90041115558E+03 0.  0.
        -24    2    4    4    0    0  0.16991899334E+03  0.10926156587E+03  0.96510324530E+02  0.23893700941E+03  0.83463151466E+02 0.  0.
         24    2    4    4    0    0 -0.48728630569E+03 -0.72704167776E+03 -0.21344227154E+03  0.90421110300E+03  0.77476258323E+02 0.  0.
         13    1    3    3    0    0  0.24032056856E+03  0.52441337934E+03  0.46863755353E+03  0.74322575620E+03  0.00000000000E+00 0.  1.
        -13    1    3    3    0    0  0.77046743786E+02  0.93366732549E+02  0.13694819913E+03  0.18277953036E+03  0.00000000000E+00 0. -1.
          2    1    6    6  502    0 -0.30870049596E+03 -0.52470545260E+03 -0.14907545302E+03  0.62676574483E+03  0.00000000000E+00 0. -1.
          1    1    5    5  503    0  0.51741011661E+02  0.28551280779E+02  0.72980294510E+02  0.93906503015E+02  0.00000000000E+00 0. -1.
         -2    1    5    5    0  503  0.11817798168E+03  0.80710285092E+02  0.23530030019E+02  0.14503050640E+03  0.00000000000E+00 0.  1.
         -1    1    6    6    0  502 -0.17858580972E+03 -0.20233622516E+03 -0.64366818527E+02  0.27744535818E+03  0.00000000000E+00 0.  1.
<mgrwt>
<rscale>  0 0.20106251E+04</rscale>
<asrwt>0</asrwt>
<pdfrwt beam="1">  1        2 0.19675440E+00 0.20106251E+04</pdfrwt>
<pdfrwt beam="2">  1       -2 0.12157689E+00 0.20106251E+04</pdfrwt>
<totfact> 0.81165508E+00</totfact>
</mgrwt>
</event>
<event>
12    1  0.1599266E-007  0.1805782E+04  0.7818608E-02  0.8703231E-01
         -2   -1    0    0    0  501 -0.00000000000E+00  0.00000000000E+00  0.12425336999E+04  0.12425336999E+04  0.00000000000E+00 0. -1.
          2   -1    0    0  501    0  0.00000000000E+00 -0.00000000000E+00 -0.65608882312E+03  0.65608882312E+03  0.00000000000E+00 0.  1.
         23    2    1    2    0    0  0.54926153046E+03 -0.36108043545E+03  0.42226821874E+03  0.78654854627E+03  0.90999216350E+02 0.  0.
        254    2    1    2    0    0 -0.54926153046E+03  0.36108043545E+03  0.16417665802E+03  0.11120739767E+04  0.88186577492E+03 0.  0.
        -24    2    4    4    0    0 -0.76393689696E+03  0.20307081991E+03  0.12516786659E+02  0.79454737548E+03  0.79445084774E+02 0.  0.
         24    2    4    4    0    0  0.21467536650E+03  0.15800961553E+03  0.15165987136E+03  0.31752660125E+03  0.82279246092E+02 0.  0.
         11    1    3    3    0    0  0.28215597277E+02 -0.41091404762E+02  0.15699930363E+02  0.52260035289E+02  0.00000000000E+00 0.  1.
        -11    1    3    3    0    0  0.52104593318E+03 -0.31998903068E+03  0.40656828838E+03  0.73428851098E+03  0.00000000000E+00 0. -1.
          2    1    6    6  502    0  0.17033403920E+03  0.91560386671E+02  0.13521498019E+03  0.23596626917E+03  0.00000000000E+00 0. -1.
          1    1    5    5  503    0 -0.54093393095E+03  0.17974945301E+03  0.17256970639E+02  0.57027816594E+03  0.00000000000E+00 0. -1.
         -2    1    5    5    0  503 -0.22300296601E+03  0.23321366900E+02 -0.47401839800E+01  0.22426920954E+03  0.00000000000E+00 0.  1.
         -1    1    6    6    0  502  0.44341327298E+02  0.66449228863E+02  0.16444891163E+02  0.81560332077E+02  0.00000000000E+00 0.  1.
<mgrwt>
<rscale>  0 0.18057823E+04</rscale>
<asrwt>0</asrwt>
<pdfrwt beam="1">  1        2 0.10093674E+00 0.18057823E+04</pdfrwt>
<pdfrwt beam="2">  1       -2 0.19115903E+00 0.18057823E+04</pdfrwt>
<totfact> 0.63803252E+00</totfact>
</mgrwt>
</event>
<event>
12    1  0.1599266E-007  0.1276302E+04  0.7818608E-02  0.9048572E-01
         -2   -1    0    0    0  501 -0.00000000000E+00  0.00000000000E+00  0.47863911251E+03  0.47863911251E+03  0.00000000000E+00 0.  1.
          2   -1    0    0  501    0  0.00000000000E+00 -0.00000000000E+00 -0.85082166227E+03  0.85082166227E+03  0.00000000000E+00 0. -1.
         23    2    1    2    0    0 -0.11208880278E+03 -0.23109557345E+03  0.95067763847E+02  0.28898881104E+03  0.92236594718E+02 0.  0.
        254    2    1    2    0    0  0.11208880278E+03  0.23109557345E+03 -0.46725031361E+03  0.10404719638E+04  0.89347075386E+03 0.  0.
        -24    2    4    4    0    0  0.22470799044E+03  0.71655505661E+02  0.21285924348E+03  0.32750618082E+03  0.79517598560E+02 0.  0.
         24    2    4    4    0    0 -0.11261918765E+03  0.15944006779E+03 -0.68010955709E+03  0.71296578293E+03  0.87561300489E+02 0.  0.
         13    1    3    3    0    0 -0.94854533523E+02 -0.12433362945E+03  0.20715663997E+02  0.15775098313E+03  0.00000000000E+00 0.  1.
        -13    1    3    3    0    0 -0.17234269262E+02 -0.10676194400E+03  0.74352099850E+02  0.13123782791E+03  0.00000000000E+00 0. -1.
          2    1    6    6  502    0 -0.86893922907E+02  0.15613784156E+03 -0.64513189649E+03  0.66942120020E+03  0.00000000000E+00 0. -1.
          3    1    5    5  503    0  0.22674260814E+03  0.70548732312E+02  0.21769159550E+03  0.32214742701E+03  0.00000000000E+00 0. -1.
         -4    1    5    5    0  503 -0.20346176967E+01  0.11067733489E+01 -0.48323520178E+01  0.53587538142E+01  0.00000000000E+00 0.  1.
         -1    1    6    6    0  502 -0.25725264748E+02  0.33022262230E+01 -0.34977660597E+02  0.43544582731E+02  0.00000000000E+00 0.  1.
<mgrwt>
<rscale>  0 0.12763017E+04</rscale>
<asrwt>0</asrwt>
<pdfrwt beam="1">  1        2 0.13089564E+00 0.12763017E+04</pdfrwt>
<pdfrwt beam="2">  1       -2 0.73636787E-01 0.12763017E+04</pdfrwt>
<totfact> 0.51771456E+01</totfact>
</mgrwt>
</event>
<event>
12    1  0.1599266E-007  0.1940526E+04  0.7818608E-02  0.8634943E-01
         -1   -1    0    0    0  501 -0.00000000000E+00  0.00000000000E+00  0.10062655616E+04  0.10062655616E+04  0.00000000000E+00 0.  1.
          1   -1    0    0  501    0  0.00000000000E+00 -0.00000000000E+00 -0.93554815539E+03  0.93554815539E+03  0.00000000000E+00 0. -1.
         23    2    1    2    0    0 -0.25837080930E+03 -0.17691031330E+03  0.71618767533E+03  0.78692683889E+03  0.90974333891E+02 0.  0.
        254    2    1    2    0    0  0.25837080930E+03  0.17691031330E+03 -0.64547026911E+03  0.11548868781E+04  0.90502988839E+03 0.  0.
        -24    2    4    4    0    0  0.54738601137E+03 -0.25965950184E+02 -0.54972270840E+03  0.78033510726E+03  0.80138302191E+02 0.  0.
         24    2    4    4    0    0 -0.28901520207E+03  0.20287626348E+03 -0.95747560707E+02  0.37455177085E+03  0.80205164145E+02 0.  0.
         13    1    3    3    0    0 -0.18111107782E+03 -0.17019099575E+03  0.54701086919E+03  0.60082201071E+03  0.00000000000E+00 0. -1.
        -13    1    3    3    0    0 -0.77259731489E+02 -0.67193175498E+01  0.16917680614E+03  0.18610482819E+03  0.00000000000E+00 0.  1.
          2    1    6    6  502    0 -0.25721420218E+03  0.20276419629E+03 -0.10003960575E+03  0.34246224291E+03  0.00000000000E+00 0. -1.
          1    1    5    5  503    0  0.31845484150E+03  0.20263433229E+02 -0.34236728854E+03  0.46801650939E+03  0.00000000000E+00 0. -1.
         -2    1    5    5    0  503  0.22893116987E+03 -0.46229383413E+02 -0.20735541986E+03  0.31231859787E+03  0.00000000000E+00 0.  1.
         -3    1    6    6    0  502 -0.31800999885E+02  0.11206719535E+00  0.42920450456E+01  0.32089527940E+02  0.00000000000E+00 0.  1.
<mgrwt>
<rscale>  0 0.19405256E+04</rscale>
<asrwt>0</asrwt>
<pdfrwt beam="1">  1        1 0.14393049E+00 0.19405256E+04</pdfrwt>
<pdfrwt beam="2">  1       -1 0.15481009E+00 0.19405256E+04</pdfrwt>
<totfact> 0.50828444E+00</totfact>
</mgrwt>
</event>
<event>
12    1  0.1599266E-007  0.1171550E+04  0.7818608E-02  0.9138130E-01
          1   -1    0    0  501    0  0.00000000000E+00  0.00000000000E+00  0.27472106988E+04  0.27472106988E+04  0.00000000000E+00 0. -1.
         -1   -1    0    0    0  501 -0.00000000000E+00 -0.00000000000E+00 -0.12490199282E+03  0.12490199282E+03  0.00000000000E+00 0.  1.
         23    2    1    2    0    0 -0.10286544265E+03  0.12160019894E+03  0.15928831452E+03  0.24261563884E+03  0.90120327305E+02 0.  0.
        254    2    1    2    0    0  0.10286544265E+03 -0.12160019894E+03  0.24630203915E+04  0.26294970528E+04  0.90687231414E+03 0.  0.
        -24    2    4    4    0    0  0.52243075412E+02 -0.18518616149E+03  0.50764441579E+02  0.21449501485E+03  0.80048919614E+02 0.  0.
         24    2    4    4    0    0  0.50622367233E+02  0.63585962548E+02  0.24122559499E+04  0.24150020380E+04  0.81549228975E+02 0.  0.
         13    1    3    3    0    0 -0.34552035972E+02  0.53665993435E+02  0.12500212313E+03  0.14035459675E+03  0.00000000000E+00 0. -1.
        -13    1    3    3    0    0 -0.68313406673E+02  0.67934205506E+02  0.34286191385E+02  0.10226104209E+03  0.00000000000E+00 0.  1.
          2    1    6    6  502    0 -0.21007301249E+02  0.11710818130E+02  0.76032150874E+03  0.76070181189E+03  0.00000000000E+00 0. -1.
          3    1    5    5  503    0  0.19038289832E+02 -0.11995857790E+02 -0.14150427192E+02  0.26581792143E+02  0.00000000000E+00 0. -1.
         -4    1    5    5    0  503  0.33204785580E+02 -0.17319030370E+03  0.64914868771E+02  0.18791322271E+03  0.00000000000E+00 0.  1.
         -1    1    6    6    0  502  0.71629668482E+02  0.51875144418E+02  0.16519344412E+04  0.16543002261E+04  0.00000000000E+00 0.  1.
<mgrwt>
<rscale>  0 0.11715496E+04</rscale>
<asrwt>0</asrwt>
<pdfrwt beam="1">  1        1 0.42264775E+00 0.11715496E+04</pdfrwt>
<pdfrwt beam="2">  1       -1 0.19215693E-01 0.11715496E+04</pdfrwt>
<totfact> 0.19911865E+01</totfact>
</mgrwt>
</event>
<event>
12    1  0.1599266E-007  0.1069689E+04  0.7818608E-02  0.9235249E-01
          2   -1    0    0  501    0  0.00000000000E+00  0.00000000000E+00  0.50727155766E+03  0.50727155766E+03  0.00000000000E+00 0. -1.
         -2   -1    0    0    0  501 -0.00000000000E+00 -0.00000000000E+00 -0.56391649139E+03  0.56391649139E+03  0.00000000000E+00 0.  1.
         23    2    1    2    0    0  0.14414407488E+03  0.73019850217E+01 -0.28815410336E+02  0.17378853635E+03  0.92419122405E+02 0.  0.
        254    2    1    2    0    0 -0.14414407488E+03 -0.73019850217E+01 -0.27829523391E+02  0.89739951270E+03  0.88527993862E+03 0.  0.
        -24    2    4    4    0    0  0.12317821595E+03 -0.38025982041E+03 -0.11539597894E+03  0.42354419843E+03  0.79391763837E+02 0.  0.
         24    2    4    4    0    0 -0.26732229083E+03  0.37295783539E+03  0.87566455552E+02  0.47385531427E+03  0.79449484377E+02 0.  0.
         11    1    3    3    0    0  0.14771490381E+03  0.19806312622E+02 -0.80081986854E+01  0.14925184781E+03  0.00000000000E+00 0.  1.
        -11    1    3    3    0    0 -0.35708289325E+01 -0.12504327600E+02 -0.20807211650E+02  0.24536688543E+02  0.00000000000E+00 0. -1.
          4    1    6    6  502    0 -0.38543266623E+02  0.39759101505E+02  0.36828409898E+02  0.66503393373E+02  0.00000000000E+00 0. -1.
          1    1    5    5  503    0  0.32890288338E+02 -0.87745226971E+02 -0.63115296193E+02  0.11298024844E+03  0.00000000000E+00 0. -1.
         -2    1    5    5    0  503  0.90287927611E+02 -0.29251459344E+03 -0.52280682750E+02  0.31056395000E+03  0.00000000000E+00 0.  1.
         -3    1    6    6    0  502 -0.22877902421E+03  0.33319873389E+03  0.50738045654E+02  0.40735192090E+03  0.00000000000E+00 0.  1.
<mgrwt>
<rscale>  0 0.10696893E+04</rscale>
<asrwt>0</asrwt>
<pdfrwt beam="1">  1        2 0.78041778E-01 0.10696893E+04</pdfrwt>
<pdfrwt beam="2">  1       -2 0.86756383E-01 0.10696893E+04</pdfrwt>
<totfact> 0.69292006E+01</totfact>
</mgrwt>
</event>
<event>
12    1  0.1599266E-007  0.1240691E+04  0.7818608E-02  0.9077967E-01
          2   -1    0    0  501    0  0.00000000000E+00  0.00000000000E+00  0.18312244671E+04  0.18312244671E+04  0.00000000000E+00 0. -1.
         -2   -1    0    0    0  501 -0.00000000000E+00 -0.00000000000E+00 -0.21014815735E+03  0.21014815735E+03  0.00000000000E+00 0.  1.
         23    2    1    2    0    0 -0.98299883997E+02 -0.25801869092E+03  0.27947358091E+03  0.40321630323E+03  0.90782116646E+02 0.  0.
        254    2    1    2    0    0  0.98299883997E+02  0.25801869092E+03  0.13416027289E+04  0.16381563213E+04  0.89856649095E+03 0.  0.
        -24    2    4    4    0    0 -0.67891030917E+02 -0.20010477547E+03  0.20593838350E+02  0.22795139809E+03  0.82985664219E+02 0.  0.
         24    2    4    4    0    0  0.16619091491E+03  0.45812346640E+03  0.13210088905E+04  0.14102049232E+04  0.78210650171E+02 0.  0.
         11    1    3    3    0    0  0.24100702330E+01  0.48111480185E+01 -0.14241032117E+01  0.55662962319E+01  0.00000000000E+00 0.  1.
        -11    1    3    3    0    0 -0.10070995423E+03 -0.26282983894E+03  0.28089768412E+03  0.39765000700E+03  0.00000000000E+00 0. -1.
          2    1    6    6  502    0  0.11380743784E+03  0.23116444841E+03  0.77074288462E+03  0.81267073856E+03  0.00000000000E+00 0. -1.
          1    1    5    5  503    0 -0.69423937425E+02 -0.84284527843E+02  0.25064400508E+02  0.11203476645E+03  0.00000000000E+00 0. -1.
         -2    1    5    5    0  503  0.15329065088E+01 -0.11582024763E+03 -0.44705621573E+01  0.11591663163E+03  0.00000000000E+00 0.  1.
         -1    1    6    6    0  502  0.52383477078E+02  0.22695901798E+03  0.55026600591E+03  0.59753418461E+03  0.00000000000E+00 0.  1.
<mgrwt>
<rscale>  0 0.12406909E+04</rscale>
<asrwt>0</asrwt>
<pdfrwt beam="1">  1        2 0.28172683E+00 0.12406909E+04</pdfrwt>
<pdfrwt beam="2">  1       -2 0.32330487E-01 0.12406909E+04</pdfrwt>
<totfact> 0.72716005E+01</totfact>
</mgrwt>
</event>
<event>
12    1  0.1599266E-007  0.1807362E+04  0.7818608E-02  0.8702394E-01
         -1   -1    0    0    0  501 -0.00000000000E+00  0.00000000000E+00  0.30137501405E+03  0.30137501405E+03  0.00000000000E+00 0.  1.
          1   -1    0    0  501    0  0.00000000000E+00 -0.00000000000E+00 -0.27097109779E+04  0.27097109779E+04  0.00000000000E+00 0. -1.
         23    2    1    2    0    0  0.19264572246E+03 -0.58279768984E+03 -0.48296443910E+03  0.78632409938E+03  0.91024272429E+02 0.  0.
        254    2    1    2    0    0 -0.19264572246E+03  0.58279768984E+03 -0.19253715247E+04  0.22247618926E+04  0.93045389389E+03 0.  0.
        -24    2    4    4    0    0  0.44554736946E+02  0.15312532915E+03  0.51637032651E+02  0.18649976064E+03  0.81751370413E+02 0.  0.
         24    2    4    4    0    0 -0.23720045941E+03  0.42967236068E+03 -0.19770085574E+04  0.20382621319E+04  0.71184878781E+02 0.  0.
         11    1    3    3    0    0  0.99176597141E+02 -0.42875384114E+03 -0.33211137960E+03  0.55132914141E+03  0.00000000000E+00 0.  1.
        -11    1    3    3    0    0  0.93469125323E+02 -0.15404384870E+03 -0.15085305950E+03  0.23499495797E+03  0.00000000000E+00 0. -1.
          4    1    6    6  502    0 -0.73207236564E+02  0.19030286701E+03 -0.90445800374E+03  0.92715627659E+03  0.00000000000E+00 0. -1.
          3    1    5    5  503    0  0.17503459232E+02  0.67540542674E+02 -0.18963295769E+02  0.72302853168E+02  0.00000000000E+00 0. -1.
         -4    1    5    5    0  503  0.27051277714E+02  0.85584786479E+02  0.70600328420E+02  0.11419690747E+03  0.00000000000E+00 0.  1.
         -3    1    6    6    0  502 -0.16399322285E+03  0.23936949367E+03 -0.10725505536E+04  0.11111058553E+04  0.00000000000E+00 0.  1.
<mgrwt>
<rscale>  0 0.18073618E+04</rscale>
<asrwt>0</asrwt>
<pdfrwt beam="1">  1        1 0.41687863E+00 0.18073618E+04</pdfrwt>
<pdfrwt beam="2">  1       -1 0.46365385E-01 0.18073618E+04</pdfrwt>
<totfact> 0.42256063E+00</totfact>
</mgrwt>
</event>
<event>
12    1  0.1740096E-007  0.1643284E+04  0.7818608E-02  0.8794389E-01
          2   -1    0    0  501    0  0.00000000000E+00  0.00000000000E+00  0.21782077150E+04  0.21782077150E+04  0.00000000000E+00 0. -1.
         -2   -1    0    0    0  501 -0.00000000000E+00 -0.00000000000E+00 -0.30993170741E+03  0.30993170741E+03  0.00000000000E+00 0.  1.
         23    2    1    2    0    0 -0.41531433633E+03  0.33798711869E+01  0.12862322836E+04  0.13547721167E+04  0.92285314672E+02 0.  0.
        254    2    1    2    0    0  0.41531433633E+03 -0.33798711869E+01  0.58204372398E+03  0.11333673057E+04  0.87934585434E+03 0.  0.
        -24    2    4    4    0    0  0.41476014360E+03 -0.88536067987E+02 -0.99182696404E+02  0.44202927432E+03  0.75419228537E+02 0.  0.
         24    2    4    4    0    0  0.55419272750E+00  0.85156196800E+02  0.68122642038E+03  0.69133803139E+03  0.81406098276E+02 0.  0.
         11    1    3    3    0    0 -0.16009417376E+03 -0.36487682997E+02  0.57939703533E+03  0.60221459633E+03  0.00000000000E+00 0. -1.
        -11    1    3    3    0    0 -0.25522016258E+03  0.39867554184E+02  0.70683524823E+03  0.75255752033E+03  0.00000000000E+00 0.  1.
          4    1    6    6  502    0 -0.16802865544E+02  0.55639273198E+01  0.28509196237E+02  0.33556934422E+02  0.00000000000E+00 0. -1.
          1    1    5    5  503    0  0.39148259220E+02 -0.92822509150E+01  0.12673872048E+02  0.42182619818E+02  0.00000000000E+00 0. -1.
         -2    1    5    5    0  503  0.37561188438E+03 -0.79253817072E+02 -0.11185656845E+03  0.39984665450E+03  0.00000000000E+00 0.  1.
         -3    1    6    6    0  502  0.17357058272E+02  0.79592269480E+02  0.65271722415E+03  0.65778109697E+03  0.00000000000E+00 0.  1.
<mgrwt>
<rscale>  0 0.16432841E+04</rscale>
<asrwt>0</asrwt>
<pdfrwt beam="1">  1        2 0.33510887E+00 0.16432841E+04</pdfrwt>
<pdfrwt beam="2">  1       -2 0.47681803E-01 0.16432841E+04</pdfrwt>
<totfact> 0.21171178E+01</totfact>
</mgrwt>
</event>
<event>
12    1  0.1599266E-007  0.2173295E+04  0.7818608E-02  0.8529626E-01
          1   -1    0    0  501    0  0.00000000000E+00  0.00000000000E+00  0.10876717027E+04  0.10876717027E+04  0.00000000000E+00 0. -1.
         -1   -1    0    0    0  501 -0.00000000000E+00 -0.00000000000E+00 -0.10856241903E+04  0.10856241903E+04  0.00000000000E+00 0.  1.
         23    2    1    2    0    0  0.32626501511E+03  0.70556059446E+03 -0.43754151170E+03  0.89691728471E+03  0.93559759608E+02 0.  0.
        254    2    1    2    0    0 -0.32626501511E+03 -0.70556059446E+03  0.43958902414E+03  0.12763786083E+04  0.91194255795E+03 0.  0.
        -24    2    4    4    0    0 -0.63552286826E+03 -0.43268845554E+03  0.33849463749E+03  0.84429015842E+03  0.84490451290E+02 0.  0.
         24    2    4    4    0    0  0.30925785314E+03 -0.27287213892E+03  0.10109438665E+03  0.43208844986E+03  0.79879468979E+02 0.  0.
         11    1    3    3    0    0  0.21849018137E+03  0.55779857189E+03 -0.35410340847E+03  0.69589254202E+03  0.00000000000E+00 0.  1.
        -11    1    3    3    0    0  0.10777483375E+03  0.14776202257E+03 -0.83438103233E+02  0.20102474269E+03  0.00000000000E+00 0. -1.
          2    1    6    6  502    0  0.25513268642E+03 -0.17941915102E+03  0.80848696133E+02  0.32221177989E+03  0.00000000000E+00 0. -1.
          1    1    5    5  503    0 -0.62023187442E+03 -0.40734606442E+03  0.31347455046E+03  0.80553379075E+03  0.00000000000E+00 0. -1.
         -2    1    5    5    0  503 -0.15290993833E+02 -0.25342391117E+02  0.25020087034E+02  0.38756367672E+02  0.00000000000E+00 0.  1.
         -1    1    6    6    0  502  0.54125166718E+02 -0.93452987896E+02  0.20245690516E+02  0.10987666997E+03  0.00000000000E+00 0.  1.
<mgrwt>
<rscale>  0 0.21732949E+04</rscale>
<asrwt>0</asrwt>
<pdfrwt beam="1">  1        1 0.16733411E+00 0.21732949E+04</pdfrwt>
<pdfrwt beam="2">  1       -1 0.16701911E+00 0.21732949E+04</pdfrwt>
<totfact> 0.30645612E+00</totfact>
</mgrwt>
</event>
<event>
12    1  0.1599266E-007  0.1694316E+04  0.7818608E-02  0.8764613E-01
         -1   -1    0    0    0  501 -0.00000000000E+00  0.00000000000E+00  0.34996399106E+03  0.34996399106E+03  0.00000000000E+00 0.  1.
          1   -1    0    0  501    0  0.00000000000E+00 -0.00000000000E+00 -0.20507154772E+04  0.20507154772E+04  0.00000000000E+00 0. -1.
         23    2    1    2    0    0 -0.15233676899E+03 -0.41362494590E+03 -0.16248124827E+02  0.45064022026E+03  0.92306660061E+02 0.  0.
        254    2    1    2    0    0  0.15233676899E+03  0.41362494590E+03 -0.16845033613E+04  0.19500392480E+04  0.87795752029E+03 0.  0.
        -24    2    4    4    0    0  0.19991148086E+03  0.43557663872E+03 -0.31656360125E+03  0.57881139557E+03  0.71543760245E+02 0.  0.
         24    2    4    4    0    0 -0.47574711861E+02 -0.21951692816E+02 -0.13679397601E+04  0.13712278524E+04  0.79129047259E+02 0.  0.
         11    1    3    3    0    0 -0.13966704237E+03 -0.27440241323E+03  0.11493928879E+02  0.30811633763E+03  0.00000000000E+00 0.  1.
        -11    1    3    3    0    0 -0.12669726627E+02 -0.13922253267E+03 -0.27742053706E+02  0.14252388263E+03  0.00000000000E+00 0. -1.
          4    1    6    6  502    0 -0.92393568318E+01 -0.88098680128E+01 -0.11141302628E+04  0.11142034025E+04  0.00000000000E+00 0. -1.
          3    1    5    5  503    0  0.18683310754E+03  0.42022896160E+03 -0.28401064368E+03  0.54051922812E+03  0.00000000000E+00 0. -1.
         -4    1    5    5    0  503  0.13078373312E+02  0.15347677117E+02 -0.32552957576E+02  0.38292167454E+02  0.00000000000E+00 0.  1.
         -3    1    6    6    0  502 -0.38335355029E+02 -0.13141824804E+02 -0.25380949723E+03  0.25702444998E+03  0.00000000000E+00 0.  1.
<mgrwt>
<rscale>  0 0.16943159E+04</rscale>
<asrwt>0</asrwt>
<pdfrwt beam="1">  1        1 0.31549469E+00 0.16943159E+04</pdfrwt>
<pdfrwt beam="2">  1       -1 0.53840613E-01 0.16943159E+04</pdfrwt>
<totfact> 0.91291074E+00</totfact>
</mgrwt>
</event>
<event>
12    1  0.1599266E-007  0.1335882E+04  0.7818608E-02  0.9001585E-01
         -2   -1    0    0    0  501 -0.00000000000E+00  0.00000000000E+00  0.57430145805E+03  0.57430145805E+03  0.00000000000E+00 0.  1.
          2   -1    0    0  501    0  0.00000000000E+00 -0.00000000000E+00 -0.77684798383E+03  0.77684798383E+03  0.00000000000E+00 0. -1.
         23    2    1    2    0    0  0.29605149339E+03  0.13315590190E+03  0.10202284495E+03  0.35283816006E+03  0.93322694742E+02 0.  0.
        254    2    1    2    0    0 -0.29605149339E+03 -0.13315590190E+03 -0.30456937074E+03  0.99831128182E+03  0.89358040089E+03 0.  0.
        -24    2    4    4    0    0 -0.27304930459E+00 -0.33625917484E+03  0.17999449023E+03  0.39002620638E+03  0.81560516979E+02 0.  0.
         24    2    4    4    0    0 -0.29577844409E+03  0.20310327293E+03 -0.48456386097E+03  0.60828507544E+03  0.80453528062E+02 0.  0.
         13    1    3    3    0    0  0.16126847253E+03  0.93879073166E+02  0.10155501955E+03  0.21244816452E+03  0.00000000000E+00 0.  1.
        -13    1    3    3    0    0  0.13478302087E+03  0.39276828739E+02  0.46782539656E+00  0.14038999555E+03  0.00000000000E+00 0. -1.
          4    1    6    6  502    0 -0.21805706512E+03  0.13959822071E+03 -0.40276501376E+03  0.47880706259E+03  0.00000000000E+00 0. -1.
          3    1    5    5  503    0  0.14231056869E+02 -0.31243548548E+03  0.18234917039E+03  0.36203546168E+03  0.00000000000E+00 0. -1.
         -4    1    5    5    0  503 -0.14504106173E+02 -0.23823689357E+02 -0.23546801594E+01  0.27990744705E+02  0.00000000000E+00 0.  1.
         -3    1    6    6    0  502 -0.77721378962E+02  0.63505052224E+02 -0.81798847206E+02  0.12947801284E+03  0.00000000000E+00 0.  1.
<mgrwt>
<rscale>  0 0.13358816E+04</rscale>
<asrwt>0</asrwt>
<pdfrwt beam="1">  1        2 0.11951507E+00 0.13358816E+04</pdfrwt>
<pdfrwt beam="2">  1       -2 0.88354070E-01 0.13358816E+04</pdfrwt>
<totfact> 0.38627860E+01</totfact>
</mgrwt>
</event>
<event>
12    1  0.1599266E-007  0.1594239E+04  0.7818608E-02  0.8824095E-01
          1   -1    0    0  501    0  0.00000000000E+00  0.00000000000E+00  0.41002671819E+03  0.41002671819E+03  0.00000000000E+00 0. -1.
         -1   -1    0    0    0  501 -0.00000000000E+00 -0.00000000000E+00 -0.15496537545E+04  0.15496537545E+04  0.00000000000E+00 0.  1.
         23    2    1    2    0    0 -0.46378190149E+03 -0.24036211785E+03 -0.45657379352E+03  0.69961993543E+03  0.90226522016E+02 0.  0.
        254    2    1    2    0    0  0.46378190149E+03  0.24036211785E+03 -0.68305324282E+03  0.12600605373E+04  0.92104463804E+03 0.  0.
        -24    2    4    4    0    0 -0.10320494569E+03 -0.17105441226E+02  0.16130490462E+03  0.20786031981E+03  0.79011286302E+02 0.  0.
         24    2    4    4    0    0  0.56698684719E+03  0.25746755908E+03 -0.84435814744E+03  0.10522002175E+04  0.80131065567E+02 0.  0.
         11    1    3    3    0    0 -0.31030238476E+03 -0.14149654469E+03 -0.34779358074E+03  0.48710288128E+03  0.00000000000E+00 0.  1.
        -11    1    3    3    0    0 -0.15347951673E+03 -0.98865573167E+02 -0.10878021278E+03  0.21251705416E+03  0.00000000000E+00 0. -1.
          2    1    6    6  502    0  0.56226326844E+03  0.25224563744E+03 -0.84414603553E+03  0.10451556697E+04  0.00000000000E+00 0. -1.
          1    1    5    5  503    0 -0.57195329500E+02  0.30533136182E+02  0.77444583583E+02  0.10100119627E+03  0.00000000000E+00 0. -1.
         -2    1    5    5    0  503 -0.46009616193E+02 -0.47638577409E+02  0.83860321035E+02  0.10685912354E+03  0.00000000000E+00 0.  1.
         -1    1    6    6    0  502  0.47235787443E+01  0.52219216396E+01 -0.21211190949E+00  0.70445477659E+01  0.00000000000E+00 0.  1.
<mgrwt>
<rscale>  0 0.15942389E+04</rscale>
<asrwt>0</asrwt>
<pdfrwt beam="1">  1        1 0.63081034E-01 0.15942389E+04</pdfrwt>
<pdfrwt beam="2">  1       -1 0.23840827E+00 0.15942389E+04</pdfrwt>
<totfact> 0.46285568E+00</totfact>
</mgrwt>
</event>
<event>
12    1  0.1599266E-007  0.2059739E+04  0.7818608E-02  0.8579189E-01
          2   -1    0    0  501    0  0.00000000000E+00  0.00000000000E+00  0.15256232060E+04  0.15256232060E+04  0.00000000000E+00 0. -1.
         -2   -1    0    0    0  501 -0.00000000000E+00 -0.00000000000E+00 -0.69521201476E+03  0.69521201476E+03  0.00000000000E+00 0.  1.
         23    2    1    2    0    0  0.11945052496E+03 -0.38852182526E+03  0.11170209800E+04  0.11922404671E+04  0.92107681389E+02 0.  0.
        254    2    1    2    0    0 -0.11945052496E+03  0.38852182526E+03 -0.28660978873E+03  0.10285947537E+04  0.90035790646E+03 0.  0.
        -24    2    4    4    0    0 -0.37122772109E+03  0.31676481019E+02  0.14633038664E+03  0.40825253568E+03  0.80275341688E+02 0.  0.
         24    2    4    4    0    0  0.25177719613E+03  0.35684534424E+03 -0.43294017537E+03  0.62034221801E+03  0.81589924608E+02 0.  0.
         11    1    3    3    0    0  0.34409280215E+02 -0.25569337661E+03  0.65136059839E+03  0.70059526871E+03  0.00000000000E+00 0.  1.
        -11    1    3    3    0    0  0.85041244740E+02 -0.13282844865E+03  0.46566038163E+03  0.49164519839E+03  0.00000000000E+00 0. -1.
          2    1    6    6  502    0  0.81283274776E+02  0.81861180872E+02 -0.73778929306E+02  0.13693631404E+03  0.00000000000E+00 0. -1.
          3    1    5    5  503    0 -0.35678300625E+03  0.45446915056E+02  0.12990879870E+03  0.38240793875E+03  0.00000000000E+00 0. -1.
         -4    1    5    5    0  503 -0.14444714841E+02 -0.13770434037E+02  0.16421587943E+02  0.25844596939E+02  0.00000000000E+00 0.  1.
         -1    1    6    6    0  502  0.17049392136E+03  0.27498416337E+03 -0.35916124607E+03  0.48340590398E+03  0.00000000000E+00 0.  1.
<mgrwt>
<rscale>  0 0.20597394E+04</rscale>
<asrwt>0</asrwt>
<pdfrwt beam="1">  1        2 0.23471126E+00 0.20597394E+04</pdfrwt>
<pdfrwt beam="2">  1       -2 0.10695570E+00 0.20597394E+04</pdfrwt>
<totfact> 0.79830881E+00</totfact>
</mgrwt>
</event>
<event>
12    1  0.1599266E-007  0.1812964E+04  0.7818608E-02  0.8699436E-01
         -1   -1    0    0    0  501 -0.00000000000E+00  0.00000000000E+00  0.10833905015E+04  0.10833905015E+04  0.00000000000E+00 0.  1.
          1   -1    0    0  501    0  0.00000000000E+00 -0.00000000000E+00 -0.75846119313E+03  0.75846119313E+03  0.00000000000E+00 0. -1.
         23    2    1    2    0    0 -0.12981427750E+03 -0.15533180777E+03  0.77997012529E+03  0.81031798888E+03  0.85335394810E+02 0.  0.
        254    2    1    2    0    0  0.12981427750E+03  0.15533180777E+03 -0.45504081689E+03  0.10315337058E+04  0.90333821129E+03 0.  0.
        -24    2    4    4    0    0  0.13955777129E+03  0.45678761273E+03 -0.38990683668E+01  0.48369585702E+03  0.76257358325E+02 0.  0.
         24    2    4    4    0    0 -0.97434937842E+01 -0.30145580496E+03 -0.45114174852E+03  0.54783784876E+03  0.75012620635E+02 0.  0.
         11    1    3    3    0    0 -0.57277417648E+02 -0.32603750609E+02  0.38063542926E+03  0.38629915498E+03  0.00000000000E+00 0. -1.
        -11    1    3    3    0    0 -0.72536859856E+02 -0.12272805716E+03  0.39933469603E+03  0.42401883390E+03  0.00000000000E+00 0.  1.
          4    1    6    6  502    0 -0.56892149374E+01 -0.43867996729E+01 -0.39691315142E+02  0.40336232790E+02  0.00000000000E+00 0. -1.
          3    1    5    5  503    0  0.45607180852E+02  0.70697584129E+02 -0.18216798446E+02  0.86081444531E+02  0.00000000000E+00 0. -1.
         -4    1    5    5    0  503  0.93950590437E+02  0.38609002860E+03  0.14317730080E+02  0.39761441249E+03  0.00000000000E+00 0.  1.
         -3    1    6    6    0  502 -0.40542788468E+01 -0.29706900529E+03 -0.41145043338E+03  0.50750161597E+03  0.00000000000E+00 0.  1.
<mgrwt>
<rscale>  0 0.18129640E+04</rscale>
<asrwt>0</asrwt>
<pdfrwt beam="1">  1        1 0.11668634E+00 0.18129640E+04</pdfrwt>
<pdfrwt beam="2">  1       -1 0.16667546E+00 0.18129640E+04</pdfrwt>
<totfact> 0.59065652E+00</totfact>
</mgrwt>
</event>
<event>
12    1  0.1599266E-007  0.2949695E+04  0.7818608E-02  0.8258243E-01
         -2   -1    0    0    0  501 -0.00000000000E+00  0.00000000000E+00  0.62398766708E+03  0.62398766708E+03  0.00000000000E+00 0.  1.
          2   -1    0    0  501    0  0.00000000000E+00 -0.00000000000E+00 -0.34859272012E+04  0.34859272012E+04  0.00000000000E+00 0. -1.
         23    2    1    2    0    0  0.49801197228E+03  0.12240189231E+04 -0.15771947612E+04  0.20608744643E+04  0.11585333017E+03 0.  0.
        254    2    1    2    0    0 -0.49801197228E+03 -0.12240189231E+04 -0.12847447729E+04  0.20490404040E+04  0.89541007189E+03 0.  0.
        -24    2    4    4    0    0 -0.10598838323E+03  0.12894236756E+03 -0.17180174360E+03  0.25197983925E+03  0.78219746572E+02 0.  0.
         24    2    4    4    0    0 -0.39202358906E+03 -0.13529612907E+04 -0.11129430293E+04  0.17970605647E+04  0.81226462941E+02 0.  0.
         13    1    3    3    0    0  0.44556097649E+03  0.10316899679E+04 -0.13894613304E+04  0.17870398883E+04  0.00000000000E+00 0.  1.
        -13    1    3    3    0    0  0.52450995789E+02  0.19232895521E+03 -0.18773343075E+03  0.27383457596E+03  0.00000000000E+00 0. -1.
          4    1    6    6  502    0 -0.29210514858E+03 -0.10982212262E+04 -0.87096533818E+03  0.14317806745E+04  0.00000000000E+00 0. -1.
          1    1    5    5  503    0 -0.10953375757E+03  0.84884455411E+02 -0.14354155445E+03  0.19951739942E+03  0.00000000000E+00 0. -1.
         -2    1    5    5    0  503  0.35453743440E+01  0.44057912148E+02 -0.28260189153E+02  0.52462439831E+02  0.00000000000E+00 0.  1.
         -3    1    6    6    0  502 -0.99918440476E+02 -0.25474006447E+03 -0.24197769116E+03  0.36527989024E+03  0.00000000000E+00 0.  1.
<mgrwt>
<rscale>  0 0.29496953E+04</rscale>
<asrwt>0</asrwt>
<pdfrwt beam="1">  1        2 0.53629649E+00 0.29496953E+04</pdfrwt>
<pdfrwt beam="2">  1       -2 0.95998104E-01 0.29496953E+04</pdfrwt>
<totfact> 0.64968040E-01</totfact>
</mgrwt>
</event>
<event>
12    1  0.1599266E-007  0.1075943E+04  0.7818608E-02  0.9228962E-01
          1   -1    0    0  501    0  0.00000000000E+00  0.00000000000E+00  0.62361153078E+03  0.62361153078E+03  0.00000000000E+00 0. -1.
         -1   -1    0    0    0  501 -0.00000000000E+00 -0.00000000000E+00 -0.46409197996E+03  0.46409197996E+03  0.00000000000E+00 0.  1.
         23    2    1    2    0    0  0.71508687321E+02  0.22829527452E+03  0.28157447005E+02  0.25789161796E+03  0.92103311890E+02 0.  0.
        254    2    1    2    0    0 -0.71508687321E+02 -0.22829527452E+03  0.13136210381E+03  0.82981189278E+03  0.78364504104E+03 0.  0.
        -24    2    4    4    0    0 -0.36428554300E+03 -0.12624462593E+03 -0.13215636888E+03  0.41513111792E+03  0.78910562104E+02 0.  0.
         24    2    4    4    0    0  0.29277685568E+03 -0.10205064859E+03  0.26351847268E+03  0.41468077486E+03  0.79909558215E+02 0.  0.
         11    1    3    3    0    0 -0.11217167466E+02  0.30148883818E+02  0.28788044754E+02  0.43168640958E+02  0.00000000000E+00 0. -1.
        -11    1    3    3    0    0  0.82725854787E+02  0.19814639070E+03 -0.63059774939E+00  0.21472297700E+03  0.00000000000E+00 0.  1.
          2    1    6    6  502    0  0.28596101035E+02 -0.36388198633E+02  0.54328806754E+02  0.71368461084E+02  0.00000000000E+00 0. -1.
          3    1    5    5  503    0 -0.11956089776E+03 -0.15120087951E+02 -0.69625299473E+02  0.13918012667E+03  0.00000000000E+00 0. -1.
         -4    1    5    5    0  503 -0.24472464524E+03 -0.11112453798E+03 -0.62531069405E+02  0.27595099125E+03  0.00000000000E+00 0.  1.
         -1    1    6    6    0  502  0.26418075465E+03 -0.65662449957E+02  0.20918966593E+03  0.34331231378E+03  0.00000000000E+00 0.  1.
<mgrwt>
<rscale>  0 0.10759426E+04</rscale>
<asrwt>0</asrwt>
<pdfrwt beam="1">  1        1 0.95940236E-01 0.10759426E+04</pdfrwt>
<pdfrwt beam="2">  1       -1 0.71398766E-01 0.10759426E+04</pdfrwt>
<totfact> 0.64029186E+01</totfact>
</mgrwt>
</event>
<event>
12    1  0.1599266E-007  0.1997540E+04  0.7818608E-02  0.8607772E-01
         -1   -1    0    0    0  501 -0.00000000000E+00  0.00000000000E+00  0.11033471000E+04  0.11033471000E+04  0.00000000000E+00 0.  1.
          1   -1    0    0  501    0  0.00000000000E+00 -0.00000000000E+00 -0.90410474269E+03  0.90410474269E+03  0.00000000000E+00 0. -1.
         23    2    1    2    0    0  0.29551561490E+03  0.56943294183E+03  0.55836895741E+03  0.85533354832E+03  0.90753690779E+02 0.  0.
        254    2    1    2    0    0 -0.29551561490E+03 -0.56943294183E+03 -0.35912660006E+03  0.11521182944E+04  0.88702947839E+03 0.  0.
        -24    2    4    4    0    0  0.24996101335E+03  0.44174762906E+02 -0.12629918350E+03  0.29498548973E+03  0.81443462118E+02 0.  0.
         24    2    4    4    0    0 -0.54547662826E+03 -0.61360770474E+03 -0.23282741656E+03  0.85713280468E+03  0.80055428721E+02 0.  0.
         11    1    3    3    0    0  0.15730094966E+03  0.38578919305E+03  0.38700744814E+03  0.56864018075E+03  0.00000000000E+00 0.  1.
        -11    1    3    3    0    0  0.13821466524E+03  0.18364374878E+03  0.17136150927E+03  0.28669336758E+03  0.00000000000E+00 0. -1.
          4    1    6    6  502    0 -0.30445618242E+03 -0.35862397516E+03 -0.93598407124E+02  0.47965131543E+03  0.00000000000E+00 0. -1.
          3    1    5    5  503    0  0.20513801548E+03  0.34372883459E+02 -0.13543167862E+03  0.24820322336E+03  0.00000000000E+00 0. -1.
         -4    1    5    5    0  503  0.44822997876E+02  0.98018794475E+01  0.91324951223E+01  0.46782266367E+02  0.00000000000E+00 0.  1.
         -3    1    6    6    0  502 -0.24102044583E+03 -0.25498372958E+03 -0.13922900944E+03  0.37748148925E+03  0.00000000000E+00 0.  1.
<mgrwt>
<rscale>  0 0.19975398E+04</rscale>
<asrwt>0</asrwt>
<pdfrwt beam="1">  1        1 0.13909304E+00 0.19975398E+04</pdfrwt>
<pdfrwt beam="2">  1       -1 0.16974571E+00 0.19975398E+04</pdfrwt>
<totfact> 0.41401890E+00</totfact>
</mgrwt>
</event>
<event>
12    1  0.1599266E-007  0.1451385E+04  0.7818608E-02  0.8917441E-01
          4   -1    0    0  501    0  0.00000000000E+00  0.00000000000E+00  0.73009287894E+03  0.73009287894E+03  0.00000000000E+00 0. -1.
         -4   -1    0    0    0  501 -0.00000000000E+00 -0.00000000000E+00 -0.72131855729E+03  0.72131855729E+03  0.00000000000E+00 0.  1.
         23    2    1    2    0    0 -0.12274630004E+03  0.20243164361E+03  0.31447684161E+03  0.40375319136E+03  0.89865071699E+02 0.  0.
        254    2    1    2    0    0  0.12274630004E+03 -0.20243164361E+03 -0.30570251996E+03  0.10476582449E+04  0.97369838392E+03 0.  0.
        -24    2    4    4    0    0  0.13422915494E+03  0.26209660840E+03  0.19164741233E+03  0.36232340428E+03  0.88529206841E+02 0.  0.
         24    2    4    4    0    0 -0.11482854900E+02 -0.46452825201E+03 -0.49734993229E+03  0.68533484060E+03  0.80053330472E+02 0.  0.
         11    1    3    3    0    0 -0.90942158168E+02  0.13608589888E+03  0.14371772797E+03  0.21781789031E+03  0.00000000000E+00 0. -1.
        -11    1    3    3    0    0 -0.31804141877E+02  0.66345744735E+02  0.17075911364E+03  0.18593530105E+03  0.00000000000E+00 0.  1.
          4    1    6    6  502    0 -0.45404426395E+00 -0.11208273771E+03 -0.17357541084E+03  0.20661841520E+03  0.00000000000E+00 0. -1.
          1    1    5    5  503    0  0.34482847655E+02  0.94154310131E+01  0.19552657280E+02  0.40743386338E+02  0.00000000000E+00 0. -1.
         -2    1    5    5    0  503  0.99746307289E+02  0.25268117739E+03  0.17209475505E+03  0.32158001794E+03  0.00000000000E+00 0.  1.
         -3    1    6    6    0  502 -0.11028810637E+02 -0.35244551430E+03 -0.32377452145E+03  0.47871642540E+03  0.00000000000E+00 0.  1.
<mgrwt>
<rscale>  0 0.14513849E+04</rscale>
<asrwt>0</asrwt>
<pdfrwt beam="1">  1        4 0.11232198E+00 0.14513849E+04</pdfrwt>
<pdfrwt beam="2">  1       -4 0.11097208E+00 0.14513849E+04</pdfrwt>
<totfact> 0.77533462E-01</totfact>
</mgrwt>
</event>
<event>
12    1  0.1599266E-007  0.1647859E+04  0.7818608E-02  0.8791674E-01
         -2   -1    0    0    0  501 -0.00000000000E+00  0.00000000000E+00  0.25547960836E+03  0.25547960836E+03  0.00000000000E+00 0.  1.
          2   -1    0    0  501    0  0.00000000000E+00 -0.00000000000E+00 -0.26571964024E+04  0.26571964024E+04  0.00000000000E+00 0. -1.
         23    2    1    2    0    0  0.40384704366E+03 -0.61872270190E+02 -0.13192471378E+03  0.43695824041E+03  0.81288137342E+02 0.  0.
        254    2    1    2    0    0 -0.40384704366E+03  0.61872270190E+02 -0.22697920803E+04  0.24757177704E+04  0.90016763900E+03 0.  0.
        -24    2    4    4    0    0  0.56412614943E+02  0.37358907941E+03 -0.59352596570E+03  0.70791098258E+03  0.78190177895E+02 0.  0.
         24    2    4    4    0    0 -0.46025965860E+03 -0.31171680922E+03 -0.16762661146E+04  0.17678067878E+04  0.79160782990E+02 0.  0.
         11    1    3    3    0    0  0.30076382694E+03 -0.70058574137E+02 -0.12552676399E+03  0.33335274393E+03  0.00000000000E+00 0.  1.
        -11    1    3    3    0    0  0.10308321672E+03  0.81863039479E+01 -0.63979497872E+01  0.10360549649E+03  0.00000000000E+00 0. -1.
          4    1    6    6  502    0 -0.73044581725E+02 -0.19962931094E+02 -0.26356073093E+03  0.27422306327E+03  0.00000000000E+00 0. -1.
          1    1    5    5  503    0 -0.10004127556E+02  0.56016308515E+02 -0.54605129620E+02  0.78864628121E+02  0.00000000000E+00 0. -1.
         -2    1    5    5    0  503  0.66416742499E+02  0.31757277089E+03 -0.53892083608E+03  0.62904635446E+03  0.00000000000E+00 0.  1.
         -3    1    6    6    0  502 -0.38721507687E+03 -0.29175387812E+03 -0.14127053837E+04  0.14935837245E+04  0.00000000000E+00 0.  1.
<mgrwt>
<rscale>  0 0.16478586E+04</rscale>
<asrwt>0</asrwt>
<pdfrwt beam="1">  1        2 0.40879940E+00 0.16478586E+04</pdfrwt>
<pdfrwt beam="2">  1       -2 0.39304559E-01 0.16478586E+04</pdfrwt>
<totfact> 0.16512265E+01</totfact>
</mgrwt>
</event>
<event>
12    1  0.1599266E-007  0.2936130E+04  0.7818608E-02  0.8262208E-01
          2   -1    0    0  501    0  0.00000000000E+00  0.00000000000E+00  0.30586499980E+04  0.30586499980E+04  0.00000000000E+00 0. -1.
         -2   -1    0    0    0  501 -0.00000000000E+00 -0.00000000000E+00 -0.70462957216E+03  0.70462957216E+03  0.00000000000E+00 0.  1.
         23    2    1    2    0    0  0.40543117960E+03 -0.76151002352E+03 -0.22905178830E+03  0.89737886918E+03  0.92477866598E+02 0.  0.
        254    2    1    2    0    0 -0.40543117960E+03  0.76151002352E+03  0.25830722142E+04  0.28659007010E+04  0.89266612296E+03 0.  0.
        -24    2    4    4    0    0 -0.20700872076E+02 -0.88442209449E+02  0.11344447349E+04  0.11410606818E+04  0.82486801218E+02 0.  0.
         24    2    4    4    0    0 -0.38473030752E+03  0.84995223297E+03  0.14486274792E+04  0.17248400192E+04  0.78200450443E+02 0.  0.
         11    1    3    3    0    0  0.23825077935E+02 -0.10562007932E+03 -0.39336975457E+02  0.11519823406E+03  0.00000000000E+00 0. -1.
        -11    1    3    3    0    0  0.38160610166E+03 -0.65588994421E+03 -0.18971481284E+03  0.78218063512E+03  0.00000000000E+00 0.  1.
          2    1    6    6  502    0 -0.21019008983E+03  0.37273337992E+03  0.67974453238E+03  0.80322019127E+03  0.00000000000E+00 0. -1.
          3    1    5    5  503    0  0.19059713241E+02 -0.57388961506E+02  0.85217999402E+03  0.85432283580E+03  0.00000000000E+00 0. -1.
         -4    1    5    5    0  503 -0.39760585316E+02 -0.31053247944E+02  0.28226474093E+03  0.28673784599E+03  0.00000000000E+00 0.  1.
         -1    1    6    6    0  502 -0.17454021769E+03  0.47721885305E+03  0.76888294686E+03  0.92161982795E+03  0.00000000000E+00 0.  1.
<mgrwt>
<rscale>  0 0.29361303E+04</rscale>
<asrwt>0</asrwt>
<pdfrwt beam="1">  1        2 0.47056153E+00 0.29361303E+04</pdfrwt>
<pdfrwt beam="2">  1       -2 0.10840455E+00 0.29361303E+04</pdfrwt>
<totfact> 0.93600251E-01</totfact>
</mgrwt>
</event>
<event>
12    1  0.1599266E-007  0.2231063E+04  0.7818608E-02  0.8505609E-01
          2   -1    0    0  501    0  0.00000000000E+00  0.00000000000E+00  0.67649612821E+03  0.67649612821E+03  0.00000000000E+00 0. -1.
         -2   -1    0    0    0  501 -0.00000000000E+00 -0.00000000000E+00 -0.18394938007E+04  0.18394938007E+04  0.00000000000E+00 0.  1.
         23    2    1    2    0    0  0.91596740260E+03 -0.80122778224E+02 -0.31939400886E+03  0.97762710777E+03  0.91248489022E+02 0.  0.
        254    2    1    2    0    0 -0.91596740260E+03  0.80122778224E+02 -0.84360366359E+03  0.15383628211E+04  0.89970944526E+03 0.  0.
        -24    2    4    4    0    0 -0.51938021540E+02 -0.31807653931E+03 -0.22868116705E+03  0.40296070377E+03  0.78816303363E+02 0.  0.
         24    2    4    4    0    0 -0.86402938106E+03  0.39819931753E+03 -0.61492249654E+03  0.11354021173E+04  0.76803798502E+02 0.  0.
         11    1    3    3    0    0  0.48066100743E+03 -0.73033996835E+02 -0.13301167390E+03  0.50404471444E+03  0.00000000000E+00 0. -1.
        -11    1    3    3    0    0  0.43530639517E+03 -0.70887813889E+01 -0.18638233496E+03  0.47358239334E+03  0.00000000000E+00 0.  1.
          4    1    6    6  502    0 -0.68092199543E+03  0.33024440504E+03 -0.45549685726E+03  0.88328563777E+03  0.00000000000E+00 0. -1.
          1    1    5    5  503    0  0.94807415459E+01 -0.15632711683E+03 -0.85829316343E+02  0.17859093891E+03  0.00000000000E+00 0. -1.
         -2    1    5    5    0  503 -0.61418763086E+02 -0.16174942248E+03 -0.14285185071E+03  0.22436976486E+03  0.00000000000E+00 0.  1.
         -3    1    6    6    0  502 -0.18310738563E+03  0.67954912497E+02 -0.15942563928E+03  0.25211647956E+03  0.00000000000E+00 0.  1.
<mgrwt>
<rscale>  0 0.22310629E+04</rscale>
<asrwt>0</asrwt>
<pdfrwt beam="1">  1        2 0.10407633E+00 0.22310629E+04</pdfrwt>
<pdfrwt beam="2">  1       -2 0.28299904E+00 0.22310629E+04</pdfrwt>
<totfact> 0.15750061E+00</totfact>
</mgrwt>
</event>
<event>
12    1  0.1599266E-007  0.1326165E+04  0.7818608E-02  0.9009069E-01
         -2   -1    0    0    0  501 -0.00000000000E+00  0.00000000000E+00  0.20844720836E+03  0.20844720836E+03  0.00000000000E+00 0. -1.
          2   -1    0    0  501    0  0.00000000000E+00 -0.00000000000E+00 -0.21093040372E+04  0.21093040372E+04  0.00000000000E+00 0.  1.
         23    2    1    2    0    0  0.77100861025E+02  0.19286625280E+03 -0.23705530501E+02  0.22757184857E+03  0.89916960812E+02 0.  0.
        254    2    1    2    0    0 -0.77100861025E+02 -0.19286625280E+03 -0.18771512984E+04  0.20901793970E+04  0.89555065771E+03 0.  0.
        -24    2    4    4    0    0  0.29246887894E+03 -0.25817420277E+03 -0.15003645900E+04  0.15522516211E+04  0.78735178228E+02 0.  0.
         24    2    4    4    0    0 -0.36956973997E+03  0.65307949962E+02 -0.37678670840E+03  0.53792777591E+03  0.80939158872E+02 0.  0.
         11    1    3    3    0    0 -0.12013438223E+02  0.30706907688E+01  0.90532756662E+01  0.15352968443E+02  0.00000000000E+00 0.  1.
        -11    1    3    3    0    0  0.89114299248E+02  0.18979556204E+03 -0.32758806167E+02  0.21221888012E+03  0.00000000000E+00 0. -1.
          4    1    6    6  502    0 -0.17218046994E+02 -0.11470939870E+02 -0.81565185101E+01  0.22238983745E+02  0.00000000000E+00 0. -1.
          1    1    5    5  503    0  0.79630737810E+01  0.34346925162E+01 -0.71954997811E+02  0.72475715704E+02  0.00000000000E+00 0. -1.
         -2    1    5    5    0  503  0.28450580516E+03 -0.26160889528E+03 -0.14284095922E+04  0.14797759054E+04  0.00000000000E+00 0.  1.
         -3    1    6    6    0  502 -0.35235169297E+03  0.76778889832E+02 -0.36863018989E+03  0.51568879216E+03  0.00000000000E+00 0.  1.
<mgrwt>
<rscale>  0 0.13261652E+04</rscale>
<asrwt>0</asrwt>
<pdfrwt beam="1">  1        2 0.32450831E+00 0.13261652E+04</pdfrwt>
<pdfrwt beam="2">  1       -2 0.32068802E-01 0.13261652E+04</pdfrwt>
<totfact> 0.51464101E+01</totfact>
</mgrwt>
</event>
<event>
12    1  0.1599266E-007  0.1696036E+04  0.7818608E-02  0.8763629E-01
         -1   -1    0    0    0  501 -0.00000000000E+00  0.00000000000E+00  0.46233125287E+03  0.46233125287E+03  0.00000000000E+00 0.  1.
          1   -1    0    0  501    0  0.00000000000E+00 -0.00000000000E+00 -0.15554522496E+04  0.15554522496E+04  0.00000000000E+00 0. -1.
         23    2    1    2    0    0 -0.47536908692E+03  0.82931070602E+02 -0.83849069864E+03  0.97177171475E+03  0.91762097827E+02 0.  0.
        254    2    1    2    0    0  0.47536908692E+03 -0.82931070602E+02 -0.25463029805E+03  0.10460117877E+04  0.89244088882E+03 0.  0.
        -24    2    4    4    0    0  0.51157484840E+02  0.27914873354E+03  0.17037068895E+03  0.34026924374E+03  0.78840870690E+02 0.  0.
         24    2    4    4    0    0  0.42421160208E+03 -0.36207980414E+03 -0.42500098700E+03  0.70574254396E+03  0.79933919523E+02 0.  0.
         11    1    3    3    0    0 -0.33394740939E+03  0.97128712345E+02 -0.56250950556E+03  0.66134091272E+03  0.00000000000E+00 0. -1.
        -11    1    3    3    0    0 -0.14142167753E+03 -0.14197641743E+02 -0.27598119309E+03  0.31043080202E+03  0.00000000000E+00 0.  1.
          4    1    6    6  502    0  0.20251138170E+03 -0.21026893359E+03 -0.25630654800E+03  0.38848028354E+03  0.00000000000E+00 0. -1.
          1    1    5    5  503    0  0.50507989106E+02  0.93904838671E+02  0.40611175462E+02  0.11409839290E+03  0.00000000000E+00 0. -1.
         -2    1    5    5    0  503  0.64949573402E+00  0.18524389487E+03  0.12975951349E+03  0.22617085084E+03  0.00000000000E+00 0.  1.
         -3    1    6    6    0  502  0.22170022038E+03 -0.15181087055E+03 -0.16869443900E+03  0.31726226042E+03  0.00000000000E+00 0.  1.
<mgrwt>
<rscale>  0 0.16960356E+04</rscale>
<asrwt>0</asrwt>
<pdfrwt beam="1">  1        1 0.23930034E+00 0.16960356E+04</pdfrwt>
<pdfrwt beam="2">  1       -1 0.71127886E-01 0.16960356E+04</pdfrwt>
<totfact> 0.11379938E+01</totfact>
</mgrwt>
</event>
<event>
12    1  0.1599266E-007  0.1616620E+04  0.7818608E-02  0.8810403E-01
         -1   -1    0    0    0  501 -0.00000000000E+00  0.00000000000E+00  0.15756780730E+04  0.15756780730E+04  0.00000000000E+00 0.  1.
          1   -1    0    0  501    0  0.00000000000E+00 -0.00000000000E+00 -0.41465621047E+03  0.41465621047E+03  0.00000000000E+00 0. -1.
         23    2    1    2    0    0 -0.54200857581E+03  0.14796277109E+02  0.26923718354E+03  0.61199733133E+03  0.89776647766E+02 0.  0.
        254    2    1    2    0    0  0.54200857581E+03 -0.14796277109E+02  0.89178467898E+03  0.13783369521E+04  0.90030029095E+03 0.  0.
        -24    2    4    4    0    0  0.29856194674E+03  0.40638025193E+02 -0.11884580361E+03  0.33444402799E+03  0.83293443244E+02 0.  0.
         24    2    4    4    0    0  0.24344662907E+03 -0.55434302302E+02  0.10106304826E+04  0.10438929241E+04  0.77454771630E+02 0.  0.
         11    1    3    3    0    0 -0.71146923015E+02  0.29312190200E+02  0.22301718273E+02  0.80115265629E+02  0.00000000000E+00 0. -1.
        -11    1    3    3    0    0 -0.47086165280E+03 -0.14515913091E+02  0.24693546527E+03  0.53188206570E+03  0.00000000000E+00 0.  1.
          4    1    6    6  502    0  0.78054248588E+02 -0.14155518956E+02  0.48122748000E+03  0.48772198222E+03  0.00000000000E+00 0. -1.
          3    1    5    5  503    0  0.26061666219E+03  0.67542996261E+01 -0.89075872881E+02  0.27550168112E+03  0.00000000000E+00 0. -1.
         -4    1    5    5    0  503  0.37945284558E+02  0.33883725566E+02 -0.29769930733E+02  0.58942346868E+02  0.00000000000E+00 0.  1.
         -3    1    6    6    0  502  0.16539238048E+03 -0.41278783346E+02  0.52940300260E+03  0.55617094192E+03  0.00000000000E+00 0.  1.
<mgrwt>
<rscale>  0 0.16166196E+04</rscale>
<asrwt>0</asrwt>
<pdfrwt beam="1">  1        1 0.63793264E-01 0.16166196E+04</pdfrwt>
<pdfrwt beam="2">  1       -1 0.24241201E+00 0.16166196E+04</pdfrwt>
<totfact> 0.42836513E+00</totfact>
</mgrwt>
</event>
<event>
12    1  0.1599266E-007  0.2389825E+04  0.7818608E-02  0.8443323E-01
         -3   -1    0    0    0  501 -0.00000000000E+00  0.00000000000E+00  0.12562705641E+04  0.12562705641E+04  0.00000000000E+00 0.  1.
          3   -1    0    0  501    0  0.00000000000E+00 -0.00000000000E+00 -0.11365516668E+04  0.11365516668E+04  0.00000000000E+00 0. -1.
         23    2    1    2    0    0  0.44980367991E+03  0.90652689629E+03  0.42027341071E+02  0.10170077102E+04  0.91782466176E+02 0.  0.
        254    2    1    2    0    0 -0.44980367991E+03 -0.90652689629E+03  0.77691556234E+02  0.13758145207E+04  0.92882466224E+03 0.  0.
        -24    2    4    4    0    0 -0.65944052627E+03 -0.52794035077E+03 -0.17785301315E+03  0.86699440239E+03  0.80403842169E+02 0.  0.
         24    2    4    4    0    0  0.20963684636E+03 -0.37858654552E+03  0.25554456938E+03  0.50882011826E+03  0.79495320673E+02 0.  0.
         13    1    3    3    0    0  0.36732843486E+03  0.77265387242E+03  0.65485782940E+02  0.85802830570E+03  0.00000000000E+00 0.  1.
        -13    1    3    3    0    0  0.82475245050E+02  0.13387302387E+03 -0.23458441869E+02  0.15897940452E+03  0.00000000000E+00 0. -1.
          4    1    6    6  502    0  0.12356770462E+03 -0.21372433929E+03  0.99954468131E+02  0.26634182272E+03  0.00000000000E+00 0. -1.
          3    1    5    5  503    0 -0.40684462209E+03 -0.27699055961E+03 -0.91650504219E+02  0.50064571462E+03  0.00000000000E+00 0. -1.
         -4    1    5    5    0  503 -0.25259590417E+03 -0.25094979116E+03 -0.86202508930E+02  0.36634868777E+03  0.00000000000E+00 0.  1.
         -3    1    6    6    0  502  0.86069141737E+02 -0.16486220623E+03  0.15559010125E+03  0.24247829554E+03  0.00000000000E+00 0.  1.
<mgrwt>
<rscale>  0 0.23898254E+04</rscale>
<asrwt>0</asrwt>
<pdfrwt beam="1">  1        3 0.17485410E+00 0.23898254E+04</pdfrwt>
<pdfrwt beam="2">  1       -3 0.19327239E+00 0.23898254E+04</pdfrwt>
<totfact> 0.81579316E-02</totfact>
</mgrwt>
</event>
<event>
12    1  0.1599266E-007  0.2227512E+04  0.7818608E-02  0.8507064E-01
          1   -1    0    0  501    0  0.00000000000E+00  0.00000000000E+00  0.98222122861E+03  0.98222122861E+03  0.00000000000E+00 0. -1.
         -1   -1    0    0    0  501 -0.00000000000E+00 -0.00000000000E+00 -0.12629049866E+04  0.12629049866E+04  0.00000000000E+00 0.  1.
         23    2    1    2    0    0 -0.71952887665E+03 -0.46074747291E+03  0.24789982982E+03  0.89432028924E+03  0.91347774977E+02 0.  0.
        254    2    1    2    0    0  0.71952887665E+03  0.46074747291E+03 -0.52858358780E+03  0.13508059260E+04  0.90292081722E+03 0.  0.
        -24    2    4    4    0    0  0.92741182017E+03  0.35509903968E+03 -0.42211397125E+03  0.10821469503E+04  0.81693360231E+02 0.  0.
         24    2    4    4    0    0 -0.20788294352E+03  0.10564843323E+03 -0.10646961654E+03  0.26865897566E+03  0.80404952016E+02 0.  0.
         13    1    3    3    0    0 -0.23498368015E+03 -0.15741668828E+03  0.38164979200E+02  0.28540131276E+03  0.00000000000E+00 0.  1.
        -13    1    3    3    0    0 -0.48454519651E+03 -0.30333078463E+03  0.20973485062E+03  0.60891897649E+03  0.00000000000E+00 0. -1.
          4    1    6    6  502    0 -0.16274319756E+03  0.54195250694E+02 -0.10309713004E+03  0.20012868803E+03  0.00000000000E+00 0. -1.
          3    1    5    5  503    0  0.62475523200E+03  0.20472815096E+03 -0.25539511688E+03  0.70530800465E+03  0.00000000000E+00 0. -1.
         -4    1    5    5    0  503  0.30265658818E+03  0.15037088872E+03 -0.16671885437E+03  0.37683894563E+03  0.00000000000E+00 0.  1.
         -1    1    6    6    0  502 -0.45139745960E+02  0.51453182536E+02 -0.33724865037E+01  0.68530287637E+02  0.00000000000E+00 0.  1.
<mgrwt>
<rscale>  0 0.22275117E+04</rscale>
<asrwt>0</asrwt>
<pdfrwt beam="1">  1        1 0.15111096E+00 0.22275117E+04</pdfrwt>
<pdfrwt beam="2">  1       -1 0.19429307E+00 0.22275117E+04</pdfrwt>
<totfact> 0.23432573E+00</totfact>
</mgrwt>
</event>
<event>
12    1  0.1599266E-007  0.1654242E+04  0.7818608E-02  0.8787901E-01
          2   -1    0    0  501    0  0.00000000000E+00  0.00000000000E+00  0.29356628760E+04  0.29356628760E+04  0.00000000000E+00 0. -1.
         -2   -1    0    0    0  501 -0.00000000000E+00 -0.00000000000E+00 -0.23304065527E+03  0.23304065527E+03  0.00000000000E+00 0.  1.
         23    2    1    2    0    0  0.32480263979E+03 -0.22852615623E+03  0.17954560657E+04  0.18411001150E+04  0.90918594149E+02 0.  0.
        254    2    1    2    0    0 -0.32480263979E+03  0.22852615623E+03  0.90716615502E+03  0.13276034162E+04  0.88422816010E+03 0.  0.
        -24    2    4    4    0    0 -0.54415821845E+02  0.52955978730E+03  0.38422886663E+03  0.66136854056E+03  0.79886635339E+02 0.  0.
         24    2    4    4    0    0 -0.27038681794E+03 -0.30103363107E+03  0.52293728840E+03  0.66623487568E+03  0.81702041707E+02 0.  0.
         13    1    3    3    0    0  0.37000306620E+02 -0.68194555677E+01  0.93184591863E+02  0.10049326258E+03  0.00000000000E+00 0.  1.
        -13    1    3    3    0    0  0.28780233317E+03 -0.22170670066E+03  0.17022714738E+04  0.17406068524E+04  0.00000000000E+00 0. -1.
          2    1    6    6  502    0 -0.11011180967E+03 -0.18367988947E+03  0.27084579123E+03  0.34528300719E+03  0.00000000000E+00 0. -1.
          1    1    5    5  503    0 -0.49232613513E+02  0.19997592036E+03  0.18061457125E+03  0.27392670973E+03  0.00000000000E+00 0. -1.
         -2    1    5    5    0  503 -0.51832083315E+01  0.32958386694E+03  0.20361429538E+03  0.38744183083E+03  0.00000000000E+00 0.  1.
         -1    1    6    6    0  502 -0.16027500827E+03 -0.11735374161E+03  0.25209149717E+03  0.32095186849E+03  0.00000000000E+00 0.  1.
<mgrwt>
<rscale>  0 0.16542416E+04</rscale>
<asrwt>0</asrwt>
<pdfrwt beam="1">  1        2 0.45164042E+00 0.16542416E+04</pdfrwt>
<pdfrwt beam="2">  1       -2 0.35852411E-01 0.16542416E+04</pdfrwt>
<totfact> 0.13403809E+01</totfact>
</mgrwt>
</event>
<event>
12    1  0.1599266E-007  0.2584308E+04  0.7818608E-02  0.8373551E-01
         -2   -1    0    0    0  501 -0.00000000000E+00  0.00000000000E+00  0.38541559889E+03  0.38541559889E+03  0.00000000000E+00 0.  1.
          2   -1    0    0  501    0  0.00000000000E+00 -0.00000000000E+00 -0.43321073685E+04  0.43321073685E+04  0.00000000000E+00 0. -1.
         23    2    1    2    0    0  0.14302892855E+03  0.72836374774E+03 -0.19421819955E+03  0.77347141367E+03  0.97807439920E+02 0.  0.
        254    2    1    2    0    0 -0.14302892855E+03 -0.72836374774E+03 -0.37524735700E+04  0.39440515537E+04  0.96099622316E+03 0.  0.
        -24    2    4    4    0    0 -0.10644656659E+03 -0.93250881417E+03 -0.24933181505E+04  0.26652759482E+04  0.78466047054E+02 0.  0.
         24    2    4    4    0    0 -0.36582361955E+02  0.20414506644E+03 -0.12591554195E+04  0.12787756055E+04  0.82348049296E+02 0.  0.
         13    1    3    3    0    0  0.13983063112E+03  0.70013149455E+03 -0.20543160739E+03  0.74292587812E+03  0.00000000000E+00 0.  1.
        -13    1    3    3    0    0  0.31982974306E+01  0.28232253187E+02  0.11213407846E+02  0.30545535549E+02  0.00000000000E+00 0. -1.
          4    1    6    6  502    0 -0.54178767816E+02  0.11361630042E+03 -0.58864151368E+03  0.60194919572E+03  0.00000000000E+00 0. -1.
          3    1    5    5  503    0 -0.94144570231E+02 -0.50058997645E+03 -0.13112197119E+04  0.14066807234E+04  0.00000000000E+00 0. -1.
         -4    1    5    5    0  503 -0.12301996361E+02 -0.43191883773E+03 -0.11820984386E+04  0.12585952249E+04  0.00000000000E+00 0.  1.
         -3    1    6    6    0  502  0.17596405861E+02  0.90528766017E+02 -0.67051390586E+03  0.67682640975E+03  0.00000000000E+00 0.  1.
<mgrwt>
<rscale>  0 0.25843078E+04</rscale>
<asrwt>0</asrwt>
<pdfrwt beam="1">  1        2 0.66647803E+00 0.25843078E+04</pdfrwt>
<pdfrwt beam="2">  1       -2 0.59294710E-01 0.25843078E+04</pdfrwt>
<totfact> 0.41878724E-01</totfact>
</mgrwt>
</event>
<event>
12    1  0.1599266E-007  0.2761566E+04  0.7818608E-02  0.8315301E-01
          2   -1    0    0  501    0  0.00000000000E+00  0.00000000000E+00  0.21587330825E+04  0.21587330825E+04  0.00000000000E+00 0. -1.
         -2   -1    0    0    0  501 -0.00000000000E+00 -0.00000000000E+00 -0.88318517540E+03  0.88318517540E+03  0.00000000000E+00 0.  1.
         23    2    1    2    0    0  0.13954427214E+03 -0.67286001856E+03 -0.55672003960E+03  0.88915042520E+03  0.91858955386E+02 0.  0.
        254    2    1    2    0    0 -0.13954427214E+03  0.67286001856E+03  0.18322679467E+04  0.21527678327E+04  0.89721251918E+03 0.  0.
        -24    2    4    4    0    0 -0.35315926287E+02  0.36970197072E+03  0.17782513708E+04  0.18184190439E+04  0.80889551338E+02 0.  0.
         24    2    4    4    0    0 -0.10422834585E+03  0.30315804784E+03  0.54016575871E+02  0.33434878882E+03  0.78121521164E+02 0.  0.
         11    1    3    3    0    0 -0.36401620455E+01 -0.18926189382E+02 -0.36784637419E+02  0.41527833730E+02  0.00000000000E+00 0. -1.
        -11    1    3    3    0    0  0.14318443418E+03 -0.65393382918E+03 -0.51993540218E+03  0.84762259147E+03  0.00000000000E+00 0.  1.
          4    1    6    6  502    0 -0.11208315924E+03  0.23338369304E+03  0.52186520244E+02  0.26410985528E+03  0.00000000000E+00 0. -1.
          1    1    5    5  503    0 -0.45615769634E+02  0.28713323428E+03  0.12302595008E+04  0.12641458508E+04  0.00000000000E+00 0. -1.
         -2    1    5    5    0  503  0.10299843347E+02  0.82568736440E+02  0.54799187002E+03  0.55427319313E+03  0.00000000000E+00 0.  1.
         -3    1    6    6    0  502  0.78548133899E+01  0.69774354797E+02  0.18300556270E+01  0.70238933537E+02  0.00000000000E+00 0.  1.
<mgrwt>
<rscale>  0 0.27615655E+04</rscale>
<asrwt>0</asrwt>
<pdfrwt beam="1">  1        2 0.33211278E+00 0.27615655E+04</pdfrwt>
<pdfrwt beam="2">  1       -2 0.13587464E+00 0.27615655E+04</pdfrwt>
<totfact> 0.18450176E+00</totfact>
</mgrwt>
</event>
<event>
12    1  0.1599266E-007  0.1546546E+04  0.7818608E-02  0.8854077E-01
         -1   -1    0    0    0  501 -0.00000000000E+00  0.00000000000E+00  0.31939666432E+03  0.31939666432E+03  0.00000000000E+00 0.  1.
          1   -1    0    0  501    0  0.00000000000E+00 -0.00000000000E+00 -0.18721267325E+04  0.18721267325E+04  0.00000000000E+00 0. -1.
         23    2    1    2    0    0  0.15888746007E+03 -0.41104767793E+03 -0.16932337607E+03  0.48112225599E+03  0.92751285844E+02 0.  0.
        254    2    1    2    0    0 -0.15888746007E+03  0.41104767793E+03 -0.13834066921E+04  0.17104011408E+04  0.90413083580E+03 0.  0.
        -24    2    4    4    0    0 -0.42203787166E+02  0.13827277046E+03  0.10323506108E+03  0.19238543316E+03  0.73852273868E+02 0.  0.
         24    2    4    4    0    0 -0.11668367290E+03  0.27277490748E+03 -0.14866417532E+04  0.15180157077E+04  0.79036426331E+02 0.  0.
         13    1    3    3    0    0  0.10931851765E+03 -0.30693260920E+03 -0.80636408846E+02  0.33564921469E+03  0.00000000000E+00 0.  1.
        -13    1    3    3    0    0  0.49568942417E+02 -0.10411506873E+03 -0.88686967222E+02  0.14547304130E+03  0.00000000000E+00 0. -1.
          2    1    6    6  502    0 -0.10233796336E+02  0.12191311799E+03 -0.60619947183E+03  0.61842165112E+03  0.00000000000E+00 0. -1.
          3    1    5    5  503    0 -0.58646423633E+02  0.12027702059E+03  0.69558245258E+02  0.15081218177E+03  0.00000000000E+00 0. -1.
         -4    1    5    5    0  503  0.16442636467E+02  0.17995749867E+02  0.33676815825E+02  0.41573251393E+02  0.00000000000E+00 0.  1.
         -1    1    6    6    0  502 -0.10644987657E+03  0.15086178949E+03 -0.88044228136E+03  0.89959405654E+03  0.00000000000E+00 0.  1.
<mgrwt>
<rscale>  0 0.15465459E+04</rscale>
<asrwt>0</asrwt>
<pdfrwt beam="1">  1        1 0.28801950E+00 0.15465459E+04</pdfrwt>
<pdfrwt beam="2">  1       -1 0.49137948E-01 0.15465459E+04</pdfrwt>
<totfact> 0.14555322E+01</totfact>
</mgrwt>
</event>
<event>
12    1  0.1599266E-007  0.1880745E+04  0.7818608E-02  0.8664501E-01
         -4   -1    0    0    0  501 -0.00000000000E+00  0.00000000000E+00  0.13491275491E+04  0.13491275491E+04  0.00000000000E+00 0.  1.
          4   -1    0    0  501    0  0.00000000000E+00 -0.00000000000E+00 -0.65546080282E+03  0.65546080282E+03  0.00000000000E+00 0. -1.
         23    2    1    2    0    0 -0.69602090854E+03 -0.12585979371E+03  0.40113970933E+03  0.82057162488E+03  0.11017682318E+03 0.  0.
        254    2    1    2    0    0  0.69602090854E+03  0.12585979371E+03  0.29252703691E+03  0.11840167270E+04  0.90334807783E+03 0.  0.
        -24    2    4    4    0    0  0.31229577524E+03 -0.10222567285E+03 -0.29059001046E+03  0.44515315342E+03  0.75763027876E+02 0.  0.
         24    2    4    4    0    0  0.38372513330E+03  0.22808546656E+03  0.58311704738E+03  0.73886357359E+03  0.81399824682E+02 0.  0.
         11    1    3    3    0    0 -0.80277866141E+02  0.17896426868E+02  0.30982577818E+02  0.87890488763E+02  0.00000000000E+00 0. -1.
        -11    1    3    3    0    0 -0.61574304240E+03 -0.14375622058E+03  0.37015713151E+03  0.73268113612E+03  0.00000000000E+00 0.  1.
          4    1    6    6  502    0  0.13294396566E+03  0.36082511660E+02  0.18617712771E+03  0.23159872309E+03  0.00000000000E+00 0. -1.
          1    1    5    5  503    0  0.51934992796E+01  0.44734092055E+01  0.26348672349E+01  0.73434562729E+01  0.00000000000E+00 0. -1.
         -2    1    5    5    0  503  0.30710227596E+03 -0.10669908206E+03 -0.29322487770E+03  0.43780969714E+03  0.00000000000E+00 0.  1.
         -3    1    6    6    0  502  0.25078116764E+03  0.19200295490E+03  0.39693991966E+03  0.50726485050E+03  0.00000000000E+00 0.  1.
<mgrwt>
<rscale>  0 0.18807448E+04</rscale>
<asrwt>0</asrwt>
<pdfrwt beam="1">  1        4 0.10084012E+00 0.18807448E+04</pdfrwt>
<pdfrwt beam="2">  1       -4 0.20755808E+00 0.18807448E+04</pdfrwt>
<totfact> 0.17826573E-01</totfact>
</mgrwt>
</event>
<event>
12    1  0.1599266E-007  0.1223833E+04  0.7818608E-02  0.9092248E-01
         -1   -1    0    0    0  501 -0.00000000000E+00  0.00000000000E+00  0.26498105912E+03  0.26498105912E+03  0.00000000000E+00 0.  1.
          1   -1    0    0  501    0  0.00000000000E+00 -0.00000000000E+00 -0.14130890537E+04  0.14130890537E+04  0.00000000000E+00 0. -1.
         23    2    1    2    0    0  0.17751316864E+02 -0.15946592825E+03 -0.47721515626E+03  0.51121988103E+03  0.88695940541E+02 0.  0.
        254    2    1    2    0    0 -0.17751316864E+02  0.15946592825E+03 -0.67089283831E+03  0.11668502318E+04  0.94111517436E+03 0.  0.
        -24    2    4    4    0    0  0.14965294045E+03 -0.65259266193E+02 -0.81991946414E+03  0.84026134919E+03  0.84358952498E+02 0.  0.
         24    2    4    4    0    0 -0.16740425731E+03  0.22472519444E+03  0.14902662583E+03  0.32658888259E+03  0.76978988334E+02 0.  0.
         13    1    3    3    0    0  0.24926260653E+02 -0.83743756505E+02 -0.13613997785E+03  0.16176658738E+03  0.00000000000E+00 0.  1.
        -13    1    3    3    0    0 -0.71749437884E+01 -0.75722171746E+02 -0.34107517841E+03  0.34945329365E+03  0.00000000000E+00 0. -1.
          4    1    6    6  502    0 -0.88548502092E+02  0.15412655533E+03  0.57961716315E+02  0.18696361368E+03  0.00000000000E+00 0. -1.
          1    1    5    5  503    0  0.96411165290E+01 -0.40089172023E+02 -0.20433639022E+03  0.20845491889E+03  0.00000000000E+00 0. -1.
         -2    1    5    5    0  503  0.14001182392E+03 -0.25170094170E+02 -0.61558307391E+03  0.63180643030E+03  0.00000000000E+00 0.  1.
         -3    1    6    6    0  502 -0.78855755219E+02  0.70598639113E+02  0.91064909513E+02  0.13962526892E+03  0.00000000000E+00 0.  1.
<mgrwt>
<rscale>  0 0.12238331E+04</rscale>
<asrwt>0</asrwt>
<pdfrwt beam="1">  1        1 0.21739832E+00 0.12238331E+04</pdfrwt>
<pdfrwt beam="2">  1       -1 0.40766316E-01 0.12238331E+04</pdfrwt>
<totfact> 0.43703008E+01</totfact>
</mgrwt>
</event>
<event>
12    1  0.1599266E-007  0.1671850E+04  0.7818608E-02  0.8777584E-01
         -1   -1    0    0    0  501 -0.00000000000E+00  0.00000000000E+00  0.25875676437E+03  0.25875676437E+03  0.00000000000E+00 0.  1.
          1   -1    0    0  501    0  0.00000000000E+00 -0.00000000000E+00 -0.27004923332E+04  0.27004923332E+04  0.00000000000E+00 0. -1.
         23    2    1    2    0    0 -0.29380972918E+03  0.49872916164E+02 -0.17700275794E+04  0.17979146194E+04  0.10338221296E+03 0.  0.
        254    2    1    2    0    0  0.29380972918E+03 -0.49872916164E+02 -0.67170798942E+03  0.11613344782E+04  0.89927453121E+03 0.  0.
        -24    2    4    4    0    0  0.36119538685E+03  0.30780632404E+03 -0.12076318760E+03  0.49617935320E+03  0.80021012611E+02 0.  0.
         24    2    4    4    0    0 -0.67385657673E+02 -0.35767924020E+03 -0.55094480182E+03  0.66515512501E+03  0.80099312985E+02 0.  0.
         11    1    3    3    0    0 -0.20534236238E+03  0.70067914841E+02 -0.14116897906E+04  0.14282657538E+04  0.00000000000E+00 0. -1.
        -11    1    3    3    0    0 -0.88467366803E+02 -0.20194998678E+02 -0.35833778883E+03  0.36964886563E+03  0.00000000000E+00 0.  1.
          4    1    6    6  502    0 -0.17704847075E+01  0.33435310578E+01 -0.16108800818E+02  0.16547123008E+02  0.00000000000E+00 0. -1.
          1    1    5    5  503    0  0.10601601403E+02  0.22258144400E+02  0.82006836866E+01  0.25982112258E+02  0.00000000000E+00 0. -1.
         -2    1    5    5    0  503  0.35059378545E+03  0.28554817964E+03 -0.12896387129E+03  0.47019724094E+03  0.00000000000E+00 0.  1.
         -3    1    6    6    0  502 -0.65615172966E+02 -0.36102277126E+03 -0.53483600100E+03  0.64860800200E+03  0.00000000000E+00 0.  1.
<mgrwt>
<rscale>  0 0.16718501E+04</rscale>
<asrwt>0</asrwt>
<pdfrwt beam="1">  1        1 0.41546035E+00 0.16718501E+04</pdfrwt>
<pdfrwt beam="2">  1       -1 0.39808733E-01 0.16718501E+04</pdfrwt>
<totfact> 0.57620281E+00</totfact>
</mgrwt>
</event>
<event>
12    1  0.1599266E-007  0.1558206E+04  0.7818608E-02  0.8846643E-01
          2   -1    0    0  501    0  0.00000000000E+00  0.00000000000E+00  0.26934680854E+04  0.26934680854E+04  0.00000000000E+00 0.  1.
         -2   -1    0    0    0  501 -0.00000000000E+00 -0.00000000000E+00 -0.22536067298E+03  0.22536067298E+03  0.00000000000E+00 0. -1.
         23    2    1    2    0    0  0.35419370630E+03 -0.33668456444E+03  0.53677830812E+03  0.73166946936E+03  0.91649237903E+02 0.  0.
        254    2    1    2    0    0 -0.35419370630E+03  0.33668456444E+03  0.19313291043E+04  0.21871592891E+04  0.90267600440E+03 0.  0.
        -24    2    4    4    0    0 -0.57053461260E+03  0.31757385833E+03  0.81910881763E+03  0.10511662358E+04  0.87454562755E+02 0.  0.
         24    2    4    4    0    0  0.21634090630E+03  0.19110706115E+02  0.11122202867E+04  0.11359930532E+04  0.79231584569E+02 0.  0.
         13    1    3    3    0    0  0.22374198478E+03 -0.19269102173E+03  0.38454946426E+03  0.48483873203E+03  0.00000000000E+00 0. -1.
        -13    1    3    3    0    0  0.13045172152E+03 -0.14399354271E+03  0.15222884386E+03  0.24683073733E+03  0.00000000000E+00 0.  1.
          2    1    6    6  502    0  0.20293324780E+03  0.15905322143E+02  0.87469458850E+03  0.89806765084E+03  0.00000000000E+00 0. -1.
          1    1    5    5  503    0 -0.39182404482E+03  0.21057139274E+03  0.61959416223E+03  0.76273410793E+03  0.00000000000E+00 0. -1.
         -2    1    5    5    0  503 -0.17871056778E+03  0.10700246559E+03  0.19951465541E+03  0.28843212789E+03  0.00000000000E+00 0.  1.
         -1    1    6    6    0  502  0.13407658504E+02  0.32053839725E+01  0.23752569822E+03  0.23792540240E+03  0.00000000000E+00 0.  1.
<mgrwt>
<rscale>  0 0.15582064E+04</rscale>
<asrwt>0</asrwt>
<pdfrwt beam="1">  1        2 0.41437968E+00 0.15582064E+04</pdfrwt>
<pdfrwt beam="2">  1       -2 0.34670875E-01 0.15582064E+04</pdfrwt>
<totfact> 0.20181782E+01</totfact>
</mgrwt>
</event>
<event>
12    1  0.1599266E-007  0.2454529E+04  0.7818608E-02  0.8419366E-01
         -2   -1    0    0    0  501 -0.00000000000E+00  0.00000000000E+00  0.70836665393E+03  0.70836665393E+03  0.00000000000E+00 0.  1.
          2   -1    0    0  501    0  0.00000000000E+00 -0.00000000000E+00 -0.21262686260E+04  0.21262686260E+04  0.00000000000E+00 0. -1.
         23    2    1    2    0    0  0.29808675696E+03 -0.56774270362E+03  0.35981198495E+03  0.74053784666E+03  0.88000827534E+02 0.  0.
        254    2    1    2    0    0 -0.29808675696E+03  0.56774270362E+03 -0.17777139570E+04  0.20940974333E+04  0.90210290702E+03 0.  0.
        -24    2    4    4    0    0 -0.13906913082E+03  0.55891061826E+03 -0.18190222748E+04  0.19095805994E+04  0.77037178364E+02 0.  0.
         24    2    4    4    0    0 -0.15901762614E+03  0.88320853530E+01  0.41308317788E+02  0.18451683391E+03  0.83519301493E+02 0.  0.
         11    1    3    3    0    0  0.81109115176E+02 -0.82457235755E+02  0.63474958951E+02  0.13193541870E+03  0.00000000000E+00 0. -1.
        -11    1    3    3    0    0  0.21697764178E+03 -0.48528546786E+03  0.29633702600E+03  0.60860242797E+03  0.00000000000E+00 0.  1.
          2    1    6    6  502    0 -0.25004415218E+02  0.80440230856E+01 -0.23869801134E+02  0.35492175109E+02  0.00000000000E+00 0. -1.
          3    1    5    5  503    0 -0.39529577340E+02  0.25208818363E+03 -0.90628838202E+03  0.94152518352E+03  0.00000000000E+00 0. -1.
         -4    1    5    5    0  503 -0.99539553479E+02  0.30682243463E+03 -0.91273389279E+03  0.96805541585E+03  0.00000000000E+00 0.  1.
         -1    1    6    6    0  502 -0.13401321092E+03  0.78806226738E+00  0.65178118922E+02  0.14902465880E+03  0.00000000000E+00 0.  1.
<mgrwt>
<rscale>  0 0.24545287E+04</rscale>
<asrwt>0</asrwt>
<pdfrwt beam="1">  1        2 0.32711825E+00 0.24545287E+04</pdfrwt>
<pdfrwt beam="2">  1       -2 0.10897949E+00 0.24545287E+04</pdfrwt>
<totfact> 0.34169689E+00</totfact>
</mgrwt>
</event>
<event>
12    1  0.1599266E-007  0.1706805E+04  0.7818608E-02  0.8757493E-01
         -2   -1    0    0    0  501 -0.00000000000E+00  0.00000000000E+00  0.12905980191E+04  0.12905980191E+04  0.00000000000E+00 0.  1.
          2   -1    0    0  501    0  0.00000000000E+00 -0.00000000000E+00 -0.56430895953E+03  0.56430895953E+03  0.00000000000E+00 0. -1.
         23    2    1    2    0    0  0.12802431571E+03  0.49356085607E+03  0.34443619277E+03  0.61964638718E+03  0.73026092508E+02 0.  0.
        254    2    1    2    0    0 -0.12802431571E+03 -0.49356085607E+03  0.38185286684E+03  0.12352605915E+04  0.10583310318E+04 0.  0.
        -24    2    4    4    0    0  0.15425342194E+03 -0.63480733667E+03 -0.87058894146E+02  0.66385389575E+03  0.79676037671E+02 0.  0.
         24    2    4    4    0    0 -0.28227773766E+03  0.14124648060E+03  0.46891176098E+03  0.57140669573E+03  0.83642590099E+02 0.  0.
         11    1    3    3    0    0  0.34755601849E+02  0.13951924669E+03  0.59044870463E+02  0.15543445173E+03  0.00000000000E+00 0. -1.
        -11    1    3    3    0    0  0.93268713863E+02  0.35404160939E+03  0.28539132231E+03  0.46421193545E+03  0.00000000000E+00 0.  1.
          4    1    6    6  502    0 -0.17266384928E+01  0.57057622015E+01  0.44532672560E+02  0.44929900157E+02  0.00000000000E+00 0. -1.
          1    1    5    5  503    0  0.91786270475E+02 -0.24502093725E+03 -0.11317206508E+02  0.26189321927E+03  0.00000000000E+00 0. -1.
         -2    1    5    5    0  503  0.62467151470E+02 -0.38978639943E+03 -0.75741687638E+02  0.40196067648E+03  0.00000000000E+00 0.  1.
         -3    1    6    6    0  502 -0.28055109916E+03  0.13554071840E+03  0.42437908842E+03  0.52647679557E+03  0.00000000000E+00 0.  1.
<mgrwt>
<rscale>  0 0.17068052E+04</rscale>
<asrwt>0</asrwt>
<pdfrwt beam="1">  1        2 0.86816764E-01 0.17068052E+04</pdfrwt>
<pdfrwt beam="2">  1       -2 0.19855354E+00 0.17068052E+04</pdfrwt>
<totfact> 0.68971036E+00</totfact>
</mgrwt>
</event>
<event>
12    1  0.1599266E-007  0.1058403E+04  0.7818608E-02  0.9246711E-01
         -1   -1    0    0    0  501 -0.00000000000E+00  0.00000000000E+00  0.12691416237E+03  0.12691416237E+03  0.00000000000E+00 0.  1.
          1   -1    0    0  501    0  0.00000000000E+00 -0.00000000000E+00 -0.22066437995E+04  0.22066437995E+04  0.00000000000E+00 0. -1.
         23    2    1    2    0    0  0.81210888019E+02 -0.73476747087E+02 -0.33172117116E+03  0.36127974338E+03  0.92141613216E+02 0.  0.
        254    2    1    2    0    0 -0.81210888019E+02  0.73476747087E+02 -0.17480084659E+04  0.19722782185E+04  0.90683721434E+03 0.  0.
        -24    2    4    4    0    0  0.11742330133E+03 -0.15946829611E+03 -0.16169924975E+04  0.16309904171E+04  0.79035654215E+02 0.  0.
         24    2    4    4    0    0 -0.19863418935E+03  0.23294504320E+03 -0.13101596848E+03  0.34128780137E+03  0.74788000607E+02 0.  0.
         13    1    3    3    0    0 -0.50337960307E+01 -0.32705508562E+02 -0.17268097701E+03  0.17582294848E+03  0.00000000000E+00 0. -1.
        -13    1    3    3    0    0  0.86244684050E+02 -0.40771238525E+02 -0.15904019415E+03  0.18545679489E+03  0.00000000000E+00 0.  1.
          4    1    6    6  502    0 -0.36548598781E+02  0.76186570613E+02 -0.92007906726E+01  0.84999106840E+02  0.00000000000E+00 0. -1.
          1    1    5    5  503    0  0.64026958091E+01 -0.66960959201E+02 -0.60605236191E+03  0.60977391708E+03  0.00000000000E+00 0. -1.
         -2    1    5    5    0  503  0.11102060552E+03 -0.92507336910E+02 -0.10109401356E+04  0.10212165000E+04  0.00000000000E+00 0.  1.
         -3    1    6    6    0  502 -0.16208559057E+03  0.15675847259E+03 -0.12181517781E+03  0.25628869453E+03  0.00000000000E+00 0.  1.
<mgrwt>
<rscale>  0 0.10584032E+04</rscale>
<asrwt>0</asrwt>
<pdfrwt beam="1">  1        1 0.33948365E+00 0.10584032E+04</pdfrwt>
<pdfrwt beam="2">  1       -1 0.19525257E-01 0.10584032E+04</pdfrwt>
<totfact> 0.46143716E+01</totfact>
</mgrwt>
</event>
<event>
12    1  0.1599266E-007  0.1514738E+04  0.7818608E-02  0.8874711E-01
          1   -1    0    0  501    0  0.00000000000E+00  0.00000000000E+00  0.24385291041E+03  0.24385291041E+03  0.00000000000E+00 0. -1.
         -1   -1    0    0    0  501 -0.00000000000E+00 -0.00000000000E+00 -0.23522710036E+04  0.23522710036E+04  0.00000000000E+00 0.  1.
         23    2    1    2    0    0  0.52675244250E+02 -0.28849309189E+03 -0.40885594117E+02  0.30965577047E+03  0.90620742410E+02 0.  0.
        254    2    1    2    0    0 -0.52675244250E+02  0.28849309189E+03 -0.20675324990E+04  0.22864681435E+04  0.93125882076E+03 0.  0.
        -24    2    4    4    0    0 -0.40870106964E+03  0.19332746365E+03 -0.16977033270E+04  0.17587145913E+04  0.80426080000E+02 0.  0.
         24    2    4    4    0    0  0.35602582539E+03  0.95165628236E+02 -0.36982917201E+03  0.52775355225E+03  0.77066920931E+02 0.  0.
         11    1    3    3    0    0  0.37489648361E+02 -0.13004363093E+03 -0.62401385652E+02  0.14903272329E+03  0.00000000000E+00 0. -1.
        -11    1    3    3    0    0  0.15185595889E+02 -0.15844946096E+03  0.21515791535E+02  0.16062304718E+03  0.00000000000E+00 0.  1.
          4    1    6    6  502    0  0.34055295597E+03  0.88622983317E+02 -0.32172007942E+03  0.47679571988E+03  0.00000000000E+00 0. -1.
          3    1    5    5  503    0 -0.34213739425E+03  0.19010525243E+03 -0.14919981905E+04  0.15424839072E+04  0.00000000000E+00 0. -1.
         -4    1    5    5    0  503 -0.66563675391E+02  0.32222112256E+01 -0.20570513657E+03  0.21623068408E+03  0.00000000000E+00 0.  1.
         -3    1    6    6    0  502  0.15472869423E+02  0.65426449190E+01 -0.48109092584E+02  0.50957832371E+02  0.00000000000E+00 0.  1.
<mgrwt>
<rscale>  0 0.15147384E+04</rscale>
<asrwt>0</asrwt>
<pdfrwt beam="1">  1        1 0.37515831E-01 0.15147384E+04</pdfrwt>
<pdfrwt beam="2">  1       -1 0.36188786E+00 0.15147384E+04</pdfrwt>
<totfact> 0.14451201E+00</totfact>
</mgrwt>
</event>
<event>
12    1  0.1599266E-007  0.2898448E+04  0.7818608E-02  0.8273339E-01
         -1   -1    0    0    0  501 -0.00000000000E+00  0.00000000000E+00  0.78471639210E+03  0.78471639210E+03  0.00000000000E+00 0.  1.
          1   -1    0    0  501    0  0.00000000000E+00 -0.00000000000E+00 -0.26764442915E+04  0.26764442915E+04  0.00000000000E+00 0. -1.
         23    2    1    2    0    0 -0.11633787114E+04 -0.59984173525E+03 -0.83229973026E+03  0.15538531991E+04  0.92069483540E+02 0.  0.
        254    2    1    2    0    0  0.11633787114E+04  0.59984173525E+03 -0.10594281691E+04  0.19073074845E+04  0.89564148034E+03 0.  0.
        -24    2    4    4    0    0  0.52934020770E+03  0.72768257942E+03 -0.79593387718E+03  0.12039565455E+04  0.79231525540E+02 0.  0.
         24    2    4    4    0    0  0.63403850372E+03 -0.12784084418E+03 -0.26349429193E+03  0.70335093901E+03  0.83217761869E+02 0.  0.
         13    1    3    3    0    0 -0.45952386665E+02 -0.41102591448E+02 -0.25896201814E+02  0.66870457844E+02  0.00000000000E+00 0.  1.
        -13    1    3    3    0    0 -0.11174263248E+04 -0.55873914380E+03 -0.80640352845E+03  0.14869827412E+04  0.00000000000E+00 0. -1.
          4    1    6    6  502    0  0.35295930777E+03 -0.66202685208E+02 -0.10174906508E+03  0.37325050665E+03  0.00000000000E+00 0. -1.
          3    1    5    5  503    0  0.14905347862E+03  0.20054655493E+03 -0.26958103109E+03  0.36757283973E+03  0.00000000000E+00 0. -1.
         -4    1    5    5    0  503  0.38028672908E+03  0.52713602449E+03 -0.52635284609E+03  0.83638370574E+03  0.00000000000E+00 0.  1.
         -3    1    6    6    0  502  0.28107919595E+03 -0.61638158968E+02 -0.16174522685E+03  0.33010043236E+03  0.00000000000E+00 0.  1.
<mgrwt>
<rscale>  0 0.28984477E+04</rscale>
<asrwt>0</asrwt>
<pdfrwt beam="1">  1        1 0.41176066E+00 0.28984477E+04</pdfrwt>
<pdfrwt beam="2">  1       -1 0.12072560E+00 0.28984477E+04</pdfrwt>
<totfact> 0.53366519E-01</totfact>
</mgrwt>
</event>
<event>
12    1  0.1599266E-007  0.1512287E+04  0.7818608E-02  0.8876323E-01
          3   -1    0    0  501    0  0.00000000000E+00  0.00000000000E+00  0.83705462626E+03  0.83705462626E+03  0.00000000000E+00 0. -1.
         -3   -1    0    0    0  501 -0.00000000000E+00 -0.00000000000E+00 -0.68305336210E+03  0.68305336210E+03  0.00000000000E+00 0.  1.
         23    2    1    2    0    0 -0.10886315581E+03 -0.36954892010E+03  0.29798710939E+03  0.49624023659E+03  0.95081354639E+02 0.  0.
        254    2    1    2    0    0  0.10886315581E+03  0.36954892010E+03 -0.14398584523E+03  0.10238677518E+04  0.93763300841E+03 0.  0.
        -24    2    4    4    0    0  0.28765809176E+03  0.57876775515E+03  0.85677279326E+02  0.65650187208E+03  0.77037781007E+02 0.  0.
         24    2    4    4    0    0 -0.17879493594E+03 -0.20921883505E+03 -0.22966312456E+03  0.36736587969E+03  0.80451157358E+02 0.  0.
         11    1    3    3    0    0 -0.12089829772E+03 -0.34457145012E+03  0.25614189565E+03  0.44604321913E+03  0.00000000000E+00 0. -1.
        -11    1    3    3    0    0  0.12035141911E+02 -0.24977469984E+02  0.41845213749E+02  0.50197017454E+02  0.00000000000E+00 0.  1.
          4    1    6    6  502    0 -0.46932174903E+02 -0.21720539359E+02 -0.74016685591E+02  0.90293303279E+02  0.00000000000E+00 0. -1.
          1    1    5    5  503    0  0.82975670918E+02  0.10440839881E+03  0.37958483578E+01  0.13341845514E+03  0.00000000000E+00 0. -1.
         -2    1    5    5    0  503  0.20468242084E+03  0.47435935634E+03  0.81881430968E+02  0.52308341695E+03  0.00000000000E+00 0.  1.
         -3    1    6    6    0  502 -0.13186276104E+03 -0.18749829569E+03 -0.15564643897E+03  0.27707257641E+03  0.00000000000E+00 0.  1.
<mgrwt>
<rscale>  0 0.15122870E+04</rscale>
<asrwt>0</asrwt>
<pdfrwt beam="1">  1        3 0.12877764E+00 0.15122870E+04</pdfrwt>
<pdfrwt beam="2">  1       -3 0.10508513E+00 0.15122870E+04</pdfrwt>
<totfact> 0.93592587E-01</totfact>
</mgrwt>
</event>
<event>
12    1  0.1599266E-007  0.1317158E+04  0.7818608E-02  0.9016068E-01
         -2   -1    0    0    0  501 -0.00000000000E+00  0.00000000000E+00  0.63671141970E+03  0.63671141970E+03  0.00000000000E+00 0.  1.
          2   -1    0    0  501    0  0.00000000000E+00 -0.00000000000E+00 -0.68119768441E+03  0.68119768441E+03  0.00000000000E+00 0. -1.
         23    2    1    2    0    0  0.13594233499E+03 -0.85630293136E+02 -0.28654811478E+03  0.34096903382E+03  0.91308238349E+02 0.  0.
        254    2    1    2    0    0 -0.13594233499E+03  0.85630293136E+02  0.24206185007E+03  0.97694007030E+03  0.93274063713E+03 0.  0.
        -24    2    4    4    0    0  0.34940026431E+03  0.90707541661E+02 -0.93892534971E+02  0.38146685604E+03  0.79954682914E+02 0.  0.
         24    2    4    4    0    0 -0.48534259930E+03 -0.50772485248E+01  0.33595438504E+03  0.59547321425E+03  0.78356766865E+02 0.  0.
         11    1    3    3    0    0  0.11546405520E+03 -0.79280485178E+02 -0.16011207880E+03  0.21272804505E+03  0.00000000000E+00 0. -1.
        -11    1    3    3    0    0  0.20478279791E+02 -0.63498079576E+01 -0.12643603599E+03  0.12824098877E+03  0.00000000000E+00 0.  1.
          2    1    6    6  502    0 -0.42230980515E+02  0.22030430849E+02  0.35805046927E+02  0.59588564206E+02  0.00000000000E+00 0. -1.
          3    1    5    5  503    0  0.65227802700E+02 -0.15920984109E+01 -0.43609104270E+02  0.78479009918E+02  0.00000000000E+00 0. -1.
         -4    1    5    5    0  503  0.28417246161E+03  0.92299640071E+02 -0.50283430701E+02  0.30298784612E+03  0.00000000000E+00 0.  1.
         -1    1    6    6    0  502 -0.44311161879E+03 -0.27107679374E+02  0.30014933812E+03  0.53588465005E+03  0.00000000000E+00 0.  1.
<mgrwt>
<rscale>  0 0.13171581E+04</rscale>
<asrwt>0</asrwt>
<pdfrwt beam="1">  1        2 0.10479964E+00 0.13171581E+04</pdfrwt>
<pdfrwt beam="2">  1       -2 0.97955603E-01 0.13171581E+04</pdfrwt>
<totfact> 0.36018319E+01</totfact>
</mgrwt>
</event>
<event>
12    1  0.1599266E-007  0.2541582E+04  0.7818608E-02  0.8388320E-01
         -1   -1    0    0    0  501 -0.00000000000E+00  0.00000000000E+00  0.91644553415E+03  0.91644553415E+03  0.00000000000E+00 0.  1.
          1   -1    0    0  501    0  0.00000000000E+00 -0.00000000000E+00 -0.17621452666E+04  0.17621452666E+04  0.00000000000E+00 0. -1.
         23    2    1    2    0    0 -0.54124162041E+02 -0.20197369640E+03  0.77677072142E+03  0.80986403329E+03  0.93724062108E+02 0.  0.
        254    2    1    2    0    0  0.54124162041E+02  0.20197369640E+03 -0.16224704538E+04  0.18687267674E+04  0.90333081360E+03 0.  0.
        -24    2    4    4    0    0  0.37986355414E+03  0.26570004746E+03 -0.13578691410E+04  0.14369484652E+04  0.78226928404E+02 0.  0.
         24    2    4    4    0    0 -0.32573939210E+03 -0.63726351062E+02 -0.26460131279E+03  0.43177830228E+03  0.79066100179E+02 0.  0.
         11    1    3    3    0    0 -0.34752723483E+02 -0.15027146406E+02  0.18970876132E+03  0.19345020300E+03  0.00000000000E+00 0. -1.
        -11    1    3    3    0    0 -0.19371438559E+02 -0.18694654999E+03  0.58706196010E+03  0.61641383030E+03  0.00000000000E+00 0.  1.
          2    1    6    6  502    0 -0.30363834454E+03 -0.40425052101E+02 -0.22142510576E+03  0.37796759990E+03  0.00000000000E+00 0. -1.
          3    1    5    5  503    0  0.25778170619E+03  0.13453505927E+03 -0.85795852282E+03  0.90589398778E+03  0.00000000000E+00 0. -1.
         -4    1    5    5    0  503  0.12208184795E+03  0.13116498819E+03 -0.49991061823E+03  0.53105447738E+03  0.00000000000E+00 0.  1.
         -1    1    6    6    0  502 -0.22101047565E+02 -0.23301298961E+02 -0.43176207036E+02  0.53810702381E+02  0.00000000000E+00 0.  1.
<mgrwt>
<rscale>  0 0.25415823E+04</rscale>
<asrwt>0</asrwt>
<pdfrwt beam="1">  1        1 0.27109927E+00 0.25415823E+04</pdfrwt>
<pdfrwt beam="2">  1       -1 0.14099162E+00 0.25415823E+04</pdfrwt>
<totfact> 0.15745250E+00</totfact>
</mgrwt>
</event>
<event>
12    1  0.1599266E-007  0.2198141E+04  0.7818608E-02  0.8519202E-01
          1   -1    0    0  501    0  0.00000000000E+00  0.00000000000E+00  0.14875045925E+04  0.14875045925E+04  0.00000000000E+00 0. -1.
         -1   -1    0    0    0  501 -0.00000000000E+00 -0.00000000000E+00 -0.81206879410E+03  0.81206879410E+03  0.00000000000E+00 0.  1.
         23    2    1    2    0    0 -0.64615989439E+03  0.63469047407E+03  0.43547004485E+03  0.10090616570E+04  0.90645797849E+02 0.  0.
        254    2    1    2    0    0  0.64615989439E+03 -0.63469047407E+03  0.23996575352E+03  0.12905117296E+04  0.88740202518E+03 0.  0.
        -24    2    4    4    0    0  0.20330672100E+03  0.19336065142E+03 -0.66978549533E+02  0.29927303490E+03  0.79726150029E+02 0.  0.
         24    2    4    4    0    0  0.44285317339E+03 -0.82805112549E+03  0.30694430306E+03  0.99123869467E+03  0.80942850359E+02 0.  0.
         13    1    3    3    0    0 -0.19714394298E+03  0.14356846219E+03  0.13725364639E+03  0.27985031899E+03  0.00000000000E+00 0.  1.
        -13    1    3    3    0    0 -0.44901595142E+03  0.49112201188E+03  0.29821639845E+03  0.72921133801E+03  0.00000000000E+00 0. -1.
          2    1    6    6  502    0  0.24339034670E+03 -0.40138684647E+03  0.12001924918E+03  0.48451509942E+03  0.00000000000E+00 0. -1.
          3    1    5    5  503    0  0.15968713511E+03  0.18544293244E+03 -0.41729683866E+02  0.24825476597E+03  0.00000000000E+00 0. -1.
         -4    1    5    5    0  503  0.43619585889E+02  0.79177189814E+01 -0.25248865667E+02  0.51018268929E+02  0.00000000000E+00 0.  1.
         -1    1    6    6    0  502  0.19946282669E+03 -0.42666427901E+03  0.18692505387E+03  0.50672359525E+03  0.00000000000E+00 0.  1.
<mgrwt>
<rscale>  0 0.21981411E+04</rscale>
<asrwt>0</asrwt>
<pdfrwt beam="1">  1        1 0.22884686E+00 0.21981411E+04</pdfrwt>
<pdfrwt beam="2">  1       -1 0.12493366E+00 0.21981411E+04</pdfrwt>
<totfact> 0.34101740E+00</totfact>
</mgrwt>
</event>
<event>
12    1  0.1599266E-007  0.1477314E+04  0.7818608E-02  0.8899680E-01
         -1   -1    0    0    0  501 -0.00000000000E+00  0.00000000000E+00  0.49041343544E+03  0.49041343544E+03  0.00000000000E+00 0.  1.
          1   -1    0    0  501    0  0.00000000000E+00 -0.00000000000E+00 -0.11125600973E+04  0.11125600973E+04  0.00000000000E+00 0. -1.
         23    2    1    2    0    0  0.67229488738E+02 -0.94657435004E+01 -0.69331386035E+03  0.70249405024E+03  0.90578017222E+02 0.  0.
        254    2    1    2    0    0 -0.67229488738E+02  0.94657435004E+01  0.71167198448E+02  0.90047948254E+03  0.89509168463E+03 0.  0.
        -24    2    4    4    0    0 -0.48688568616E+02 -0.70689753867E+02  0.47147345732E+03  0.48586640948E+03  0.80070774244E+02 0.  0.
         24    2    4    4    0    0 -0.18540920122E+02  0.80155497368E+02 -0.40030625887E+03  0.41461307307E+03  0.69930179405E+02 0.  0.
         13    1    3    3    0    0  0.74573257767E+02 -0.96844168096E+01 -0.69056849298E+03  0.69465084913E+03  0.00000000000E+00 0. -1.
        -13    1    3    3    0    0 -0.73437690295E+01  0.21867330918E+00 -0.27453673751E+01  0.78432011066E+01  0.00000000000E+00 0.  1.
          2    1    6    6  502    0 -0.19267179686E+02  0.13109297256E+02 -0.28525624315E+02  0.36834618638E+02  0.00000000000E+00 0. -1.
          3    1    5    5  503    0 -0.41318719989E+02  0.47142692187E+01  0.16155697657E+03  0.16682361234E+03  0.00000000000E+00 0. -1.
         -4    1    5    5    0  503 -0.73698486267E+01 -0.75404023086E+02  0.30991648075E+03  0.31904279714E+03  0.00000000000E+00 0.  1.
         -1    1    6    6    0  502  0.72625956405E+00  0.67046200112E+02 -0.37178063455E+03  0.37777845443E+03  0.00000000000E+00 0.  1.
<mgrwt>
<rscale>  0 0.14773143E+04</rscale>
<asrwt>0</asrwt>
<pdfrwt beam="1">  1        1 0.17116309E+00 0.14773143E+04</pdfrwt>
<pdfrwt beam="2">  1       -1 0.75448220E-01 0.14773143E+04</pdfrwt>
<totfact> 0.21231239E+01</totfact>
</mgrwt>
</event>
<event>
12    1  0.1599266E-007  0.1506912E+04  0.7818608E-02  0.8879869E-01
          1   -1    0    0  501    0  0.00000000000E+00  0.00000000000E+00  0.72417177795E+03  0.72417177795E+03  0.00000000000E+00 0. -1.
         -1   -1    0    0    0  501 -0.00000000000E+00 -0.00000000000E+00 -0.78392491798E+03  0.78392491798E+03  0.00000000000E+00 0.  1.
         23    2    1    2    0    0 -0.47509422100E+02  0.49774116069E+03 -0.78884341545E+02  0.51419646120E+03  0.90398302732E+02 0.  0.
        254    2    1    2    0    0  0.47509422100E+02 -0.49774116069E+03  0.19131201511E+02  0.99390023473E+03  0.85875972512E+03 0.  0.
        -24    2    4    4    0    0  0.37050281750E+03 -0.29337365586E+03  0.24949779879E+03  0.54019832075E+03  0.78896352344E+02 0.  0.
         24    2    4    4    0    0 -0.32299339540E+03 -0.20436750483E+03 -0.23036659728E+03  0.45370191398E+03  0.81767029462E+02 0.  0.
         13    1    3    3    0    0 -0.11441655880E+02  0.43145969991E+03 -0.55312939833E+02  0.43514124769E+03  0.00000000000E+00 0. -1.
        -13    1    3    3    0    0 -0.36067766220E+02  0.66281460783E+02 -0.23571401713E+02  0.79055213505E+02  0.00000000000E+00 0.  1.
          4    1    6    6  502    0 -0.14314575517E+03 -0.13839961841E+03 -0.12449897204E+03  0.23483005693E+03  0.00000000000E+00 0. -1.
          3    1    5    5  503    0  0.33103617423E+03 -0.22819266447E+03  0.19754407462E+03  0.44797377399E+03  0.00000000000E+00 0. -1.
         -4    1    5    5    0  503  0.39466643263E+02 -0.65180991391E+02  0.51953724164E+02  0.92224546752E+02  0.00000000000E+00 0.  1.
         -3    1    6    6    0  502 -0.17984764023E+03 -0.65967886417E+02 -0.10586762524E+03  0.21887185705E+03  0.00000000000E+00 0.  1.
<mgrwt>
<rscale>  0 0.15069125E+04</rscale>
<asrwt>0</asrwt>
<pdfrwt beam="1">  1        1 0.11141104E+00 0.15069125E+04</pdfrwt>
<pdfrwt beam="2">  1       -1 0.12060383E+00 0.15069125E+04</pdfrwt>
<totfact> 0.15294651E+01</totfact>
</mgrwt>
</event>
<event>
12    1  0.1599266E-007  0.1692216E+04  0.7818608E-02  0.8765816E-01
          1   -1    0    0  501    0  0.00000000000E+00  0.00000000000E+00  0.23564776380E+04  0.23564776380E+04  0.00000000000E+00 0. -1.
         -1   -1    0    0    0  501 -0.00000000000E+00 -0.00000000000E+00 -0.30380051405E+03  0.30380051405E+03  0.00000000000E+00 0.  1.
         23    2    1    2    0    0 -0.47515529512E+02  0.47901038700E+03  0.12990138945E+04  0.13881198310E+04  0.87925484614E+02 0.  0.
        254    2    1    2    0    0  0.47515529512E+02 -0.47901038700E+03  0.75366322942E+03  0.12721583210E+04  0.90480376539E+03 0.  0.
        -24    2    4    4    0    0  0.25407568105E+03 -0.26169661563E+03 -0.80758106149E+02  0.38191265325E+03  0.79346283270E+02 0.  0.
         24    2    4    4    0    0 -0.20656015154E+03 -0.21731377136E+03  0.83442133557E+03  0.89024566773E+03  0.79912528587E+02 0.  0.
         13    1    3    3    0    0 -0.40640776609E+01  0.19658190286E+03  0.64749852987E+03  0.67669439737E+03  0.00000000000E+00 0. -1.
        -13    1    3    3    0    0 -0.43451451851E+02  0.28242848414E+03  0.65151536461E+03  0.71142543365E+03  0.00000000000E+00 0.  1.
          4    1    6    6  502    0 -0.56002262927E+02 -0.11045604628E+03  0.38318494932E+03  0.40270025701E+03  0.00000000000E+00 0. -1.
          3    1    5    5  503    0  0.23329584213E+03 -0.21199582154E+03 -0.88676047164E+02  0.32746392113E+03  0.00000000000E+00 0. -1.
         -4    1    5    5    0  503  0.20779838926E+02 -0.49700794094E+02  0.79179410144E+01  0.54448732118E+02  0.00000000000E+00 0.  1.
         -3    1    6    6    0  502 -0.15055788861E+03 -0.10685772509E+03  0.45123638625E+03  0.48754541072E+03  0.00000000000E+00 0.  1.
<mgrwt>
<rscale>  0 0.16922164E+04</rscale>
<asrwt>0</asrwt>
<pdfrwt beam="1">  1        1 0.36253501E+00 0.16922164E+04</pdfrwt>
<pdfrwt beam="2">  1       -1 0.46738542E-01 0.16922164E+04</pdfrwt>
<totfact> 0.74011142E+00</totfact>
</mgrwt>
</event>
<event>
12    1  0.1599266E-007  0.1300953E+04  0.7818608E-02  0.9028810E-01
         -1   -1    0    0    0  501 -0.00000000000E+00  0.00000000000E+00  0.16736913908E+03  0.16736913908E+03  0.00000000000E+00 0.  1.
          1   -1    0    0  501    0  0.00000000000E+00 -0.00000000000E+00 -0.25280617413E+04  0.25280617413E+04  0.00000000000E+00 0. -1.
         23    2    1    2    0    0 -0.25600236243E+03  0.98600688282E+02 -0.24050088891E+03  0.37581365177E+03  0.90199323640E+02 0.  0.
        254    2    1    2    0    0  0.25600236243E+03 -0.98600688282E+02 -0.21201917133E+04  0.23196172287E+04  0.90008437430E+03 0.  0.
        -24    2    4    4    0    0  0.28041697241E+03 -0.28142771688E+02 -0.12001973450E+03  0.31651763222E+03  0.79705588385E+02 0.  0.
         24    2    4    4    0    0 -0.24414609979E+02 -0.70457916594E+02 -0.20001719788E+04  0.20030995964E+04  0.78483483038E+02 0.  0.
         11    1    3    3    0    0 -0.39953845835E+02 -0.10356561988E+02 -0.64621308996E+02  0.76677778721E+02  0.00000000000E+00 0. -1.
        -11    1    3    3    0    0 -0.21604851660E+03  0.10895725027E+03 -0.17587957991E+03  0.29913587304E+03  0.00000000000E+00 0.  1.
          2    1    6    6  502    0 -0.23145919734E+02 -0.52869406194E+02 -0.58972585753E+03  0.59254324293E+03  0.00000000000E+00 0. -1.
          3    1    5    5  503    0  0.27984094077E+03 -0.34950732771E+02 -0.12457697024E+03  0.30830492595E+03  0.00000000000E+00 0. -1.
         -4    1    5    5    0  503  0.57603164486E+00  0.68079610835E+01  0.45572357446E+01  0.82127062654E+01  0.00000000000E+00 0.  1.
         -1    1    6    6    0  502 -0.12686902452E+01 -0.17588510401E+02 -0.14104461213E+04  0.14105563535E+04  0.00000000000E+00 0.  1.
<mgrwt>
<rscale>  0 0.13009528E+04</rscale>
<asrwt>0</asrwt>
<pdfrwt beam="1">  1        1 0.38893262E+00 0.13009528E+04</pdfrwt>
<pdfrwt beam="2">  1       -1 0.25749095E-01 0.13009528E+04</pdfrwt>
<totfact> 0.17024399E+01</totfact>
</mgrwt>
</event>
<event>
12    1  0.1599266E-007  0.2189307E+04  0.7818608E-02  0.8522892E-01
          2   -1    0    0  501    0  0.00000000000E+00  0.00000000000E+00  0.13622193620E+04  0.13622193620E+04  0.00000000000E+00 0.  1.
         -2   -1    0    0    0  501 -0.00000000000E+00 -0.00000000000E+00 -0.87964267432E+03  0.87964267432E+03  0.00000000000E+00 0. -1.
         23    2    1    2    0    0 -0.62494636412E+03  0.42590546962E+02 -0.46955777292E+03  0.78809045744E+03  0.90720197729E+02 0.  0.
        254    2    1    2    0    0  0.62494636412E+03 -0.42590546962E+02  0.95213446058E+03  0.14537715789E+04  0.90250754001E+03 0.  0.
        -24    2    4    4    0    0  0.43888720806E+03 -0.39419683367E+03  0.25742368709E+03  0.64923252995E+03  0.84987047235E+02 0.  0.
         24    2    4    4    0    0  0.18605915606E+03  0.35160628671E+03  0.69471077349E+03  0.80453904892E+03  0.80093895038E+02 0.  0.
         11    1    3    3    0    0 -0.48558242018E+03  0.35814060084E+02 -0.40940047655E+03  0.63614596115E+03  0.00000000000E+00 0. -1.
        -11    1    3    3    0    0 -0.13936394394E+03  0.67764868776E+01 -0.60157296365E+02  0.15194449629E+03  0.00000000000E+00 0.  1.
          4    1    6    6  502    0  0.94673573963E+02  0.18702033550E+03  0.28635335598E+03  0.35487735343E+03  0.00000000000E+00 0. -1.
          1    1    5    5  503    0  0.28310605043E+02 -0.59225176425E+02  0.36766253799E+02  0.75238748653E+02  0.00000000000E+00 0. -1.
         -2    1    5    5    0  503  0.41057660302E+03 -0.33497165724E+03  0.22065743329E+03  0.57399378130E+03  0.00000000000E+00 0.  1.
         -3    1    6    6    0  502  0.91385582098E+02  0.16458595120E+03  0.40835741751E+03  0.44966169548E+03  0.00000000000E+00 0.  1.
<mgrwt>
<rscale>  0 0.21893070E+04</rscale>
<asrwt>0</asrwt>
<pdfrwt beam="1">  1        2 0.20957221E+00 0.21893070E+04</pdfrwt>
<pdfrwt beam="2">  1       -2 0.13532964E+00 0.21893070E+04</pdfrwt>
<totfact> 0.54573598E+00</totfact>
</mgrwt>
</event>
<event>
12    1  0.1599266E-007  0.1403128E+04  0.7818608E-02  0.8951557E-01
          2   -1    0    0  501    0  0.00000000000E+00  0.00000000000E+00  0.59435606018E+03  0.59435606018E+03  0.00000000000E+00 0. -1.
         -2   -1    0    0    0  501 -0.00000000000E+00 -0.00000000000E+00 -0.82811018346E+03  0.82811018346E+03  0.00000000000E+00 0.  1.
         23    2    1    2    0    0 -0.12798842226E+03  0.10219039853E+03 -0.44370247174E+03  0.48062507469E+03  0.85467334174E+02 0.  0.
        254    2    1    2    0    0  0.12798842226E+03 -0.10219039853E+03  0.20994834846E+03  0.94184116895E+03  0.90341715985E+03 0.  0.
        -24    2    4    4    0    0  0.15611660294E+03  0.28937332826E+03  0.37890373587E+03  0.50720427895E+03  0.74691516949E+02 0.  0.
         24    2    4    4    0    0 -0.28128180681E+02 -0.39156372679E+03 -0.16895538741E+03  0.43463689000E+03  0.79056666521E+02 0.  0.
         11    1    3    3    0    0 -0.87885102446E+02  0.10272211188E+03 -0.39523257013E+03  0.41771330837E+03  0.00000000000E+00 0.  1.
        -11    1    3    3    0    0 -0.40103319816E+02 -0.53171335183E+00 -0.48469901612E+02  0.62911766321E+02  0.00000000000E+00 0. -1.
          2    1    6    6  502    0 -0.26686171519E+02 -0.35581811358E+03 -0.17648649761E+03  0.39807808976E+03  0.00000000000E+00 0. -1.
          3    1    5    5  503    0  0.14933816909E+03  0.29127759230E+03  0.37812110221E+03  0.50012007804E+03  0.00000000000E+00 0. -1.
         -4    1    5    5    0  503  0.67784338514E+01 -0.19042640406E+01  0.78263365798E+00  0.70842009046E+01  0.00000000000E+00 0.  1.
         -1    1    6    6    0  502 -0.14420091621E+01 -0.35745613210E+02  0.75311101997E+01  0.36558800240E+02  0.00000000000E+00 0.  1.
<mgrwt>
<rscale>  0 0.14031284E+04</rscale>
<asrwt>0</asrwt>
<pdfrwt beam="1">  1        2 0.91439394E-01 0.14031284E+04</pdfrwt>
<pdfrwt beam="2">  1       -2 0.12740157E+00 0.14031284E+04</pdfrwt>
<totfact> 0.22303740E+01</totfact>
</mgrwt>
</event>
<event>
12    1  0.1599266E-007  0.2174409E+04  0.7818608E-02  0.8529156E-01
          1   -1    0    0  501    0  0.00000000000E+00  0.00000000000E+00  0.19198602055E+04  0.19198602055E+04  0.00000000000E+00 0. -1.
         -1   -1    0    0    0  501 -0.00000000000E+00 -0.00000000000E+00 -0.61567718974E+03  0.61567718974E+03  0.00000000000E+00 0.  1.
         23    2    1    2    0    0 -0.23194512104E+03  0.15722629633E+03  0.15372685570E+04  0.15652038934E+04  0.90277152418E+02 0.  0.
        254    2    1    2    0    0  0.23194512104E+03 -0.15722629633E+03 -0.23308554124E+03  0.97033350180E+03  0.89927725855E+03 0.  0.
        -24    2    4    4    0    0  0.43471849504E+03 -0.23400573728E+03 -0.43589519131E+03  0.66324839236E+03  0.78453535015E+02 0.  0.
         24    2    4    4    0    0 -0.20277337400E+03  0.76779440955E+02  0.20280965007E+03  0.30708510944E+03  0.78469016294E+02 0.  0.
         13    1    3    3    0    0 -0.21431909146E+03  0.11152125815E+03  0.11700872630E+04  0.11947693782E+04  0.00000000000E+00 0. -1.
        -13    1    3    3    0    0 -0.17626029579E+02  0.45705038175E+02  0.36718129400E+03  0.37043451526E+03  0.00000000000E+00 0.  1.
          2    1    6    6  502    0 -0.70622739438E+02 -0.10283607804E+02  0.76356349675E+02  0.10451610427E+03  0.00000000000E+00 0. -1.
          3    1    5    5  503    0  0.70982685599E+02 -0.69669090623E+02 -0.10673696235E+03  0.14589414990E+03  0.00000000000E+00 0. -1.
         -4    1    5    5    0  503  0.36373580944E+03 -0.16433664666E+03 -0.32915822896E+03  0.51735424246E+03  0.00000000000E+00 0.  1.
         -1    1    6    6    0  502 -0.13215063456E+03  0.87063048758E+02  0.12645330039E+03  0.20256900517E+03  0.00000000000E+00 0.  1.
<mgrwt>
<rscale>  0 0.21744095E+04</rscale>
<asrwt>0</asrwt>
<pdfrwt beam="1">  1        1 0.29536311E+00 0.21744095E+04</pdfrwt>
<pdfrwt beam="2">  1       -1 0.94719568E-01 0.21744095E+04</pdfrwt>
<totfact> 0.33262220E+00</totfact>
</mgrwt>
</event>
<event>
12    1  0.1599266E-007  0.2012303E+04  0.7818608E-02  0.8600890E-01
         -1   -1    0    0    0  501 -0.00000000000E+00  0.00000000000E+00  0.51308418074E+03  0.51308418074E+03  0.00000000000E+00 0.  1.
          1   -1    0    0  501    0  0.00000000000E+00 -0.00000000000E+00 -0.19730509831E+04  0.19730509831E+04  0.00000000000E+00 0. -1.
         23    2    1    2    0    0  0.49168523777E+02  0.79942829333E+03 -0.53016159352E+03  0.96492479297E+03  0.92224730690E+02 0.  0.
        254    2    1    2    0    0 -0.49168523777E+02 -0.79942829333E+03 -0.92980520885E+03  0.15212103709E+04  0.89891052178E+03 0.  0.
        -24    2    4    4    0    0  0.31030298586E+03 -0.57233787111E+03 -0.86270520126E+03  0.10837785896E+04  0.80356613308E+02 0.  0.
         24    2    4    4    0    0 -0.35947150964E+03 -0.22709042222E+03 -0.67100007591E+02  0.43743178126E+03  0.77809550388E+02 0.  0.
         13    1    3    3    0    0  0.32309305911E+02  0.90802166776E+02 -0.48150854899E+02  0.10773778152E+03  0.00000000000E+00 0. -1.
        -13    1    3    3    0    0  0.16859217866E+02  0.70862612655E+03 -0.48201073862E+03  0.85718701145E+03  0.00000000000E+00 0.  1.
          4    1    6    6  502    0 -0.25120926182E+03 -0.15411843699E+03 -0.98771765787E+01  0.29488327260E+03  0.00000000000E+00 0. -1.
          3    1    5    5  503    0  0.21093279685E+03 -0.39996942608E+03 -0.65726014193E+03  0.79778385591E+03  0.00000000000E+00 0. -1.
         -4    1    5    5    0  503  0.99370189015E+02 -0.17236844503E+03 -0.20544505933E+03  0.28599473371E+03  0.00000000000E+00 0.  1.
         -3    1    6    6    0  502 -0.10826224782E+03 -0.72971985234E+02 -0.57222831012E+02  0.14254850866E+03  0.00000000000E+00 0.  1.
<mgrwt>
<rscale>  0 0.20123034E+04</rscale>
<asrwt>0</asrwt>
<pdfrwt beam="1">  1        1 0.30354631E+00 0.20123034E+04</pdfrwt>
<pdfrwt beam="2">  1       -1 0.78936027E-01 0.20123034E+04</pdfrwt>
<totfact> 0.46224348E+00</totfact>
</mgrwt>
</event>
<event>
12    1  0.1599266E-007  0.1440969E+04  0.7818608E-02  0.8924686E-01
         -1   -1    0    0    0  501 -0.00000000000E+00  0.00000000000E+00  0.15815166429E+03  0.15815166429E+03  0.00000000000E+00 0.  1.
          1   -1    0    0  501    0  0.00000000000E+00 -0.00000000000E+00 -0.32822788837E+04  0.32822788837E+04  0.00000000000E+00 0. -1.
         23    2    1    2    0    0 -0.38217622749E+03 -0.18080344675E+03 -0.82460629297E+03  0.93087321310E+03  0.88322393878E+02 0.  0.
        254    2    1    2    0    0  0.38217622749E+03  0.18080344675E+03 -0.22995209264E+04  0.25095573349E+04  0.91177462716E+03 0.  0.
        -24    2    4    4    0    0  0.61130047215E+03 -0.10913083574E+03 -0.13765084025E+04  0.15122207798E+04  0.80240253218E+02 0.  0.
         24    2    4    4    0    0 -0.22912424466E+03  0.28993428249E+03 -0.92301252393E+03  0.99733655505E+03  0.78538379475E+02 0.  0.
         11    1    3    3    0    0 -0.38460865029E+03 -0.17383768316E+03 -0.79202529535E+03  0.89746722638E+03  0.00000000000E+00 0.  1.
        -11    1    3    3    0    0  0.24324227937E+01 -0.69657635934E+01 -0.32580997620E+02  0.33405986724E+02  0.00000000000E+00 0. -1.
          4    1    6    6  502    0 -0.22039735693E+03  0.23985387204E+03 -0.76875591227E+03  0.83491947368E+03  0.00000000000E+00 0. -1.
          1    1    5    5  503    0  0.23298153323E+03 -0.49757426266E+02 -0.62268890225E+03  0.66670658109E+03  0.00000000000E+00 0. -1.
         -2    1    5    5    0  503  0.37831893892E+03 -0.59373409470E+02 -0.75381950023E+03  0.84551419872E+03  0.00000000000E+00 0.  1.
         -3    1    6    6    0  502 -0.87268877248E+01  0.50080410443E+02 -0.15425661166E+03  0.16241708137E+03  0.00000000000E+00 0.  1.
<mgrwt>
<rscale>  0 0.14409689E+04</rscale>
<asrwt>0</asrwt>
<pdfrwt beam="1">  1        1 0.50496596E+00 0.14409689E+04</pdfrwt>
<pdfrwt beam="2">  1       -1 0.24331027E-01 0.14409689E+04</pdfrwt>
<totfact> 0.53088797E+00</totfact>
</mgrwt>
</event>
<event>
12    1  0.1599266E-007  0.1515162E+04  0.7818608E-02  0.8874433E-01
         -2   -1    0    0    0  501 -0.00000000000E+00  0.00000000000E+00  0.16274840432E+04  0.16274840432E+04  0.00000000000E+00 0.  1.
          2   -1    0    0  501    0  0.00000000000E+00 -0.00000000000E+00 -0.35264781106E+03  0.35264781106E+03  0.00000000000E+00 0. -1.
         23    2    1    2    0    0 -0.17211391686E+03  0.42711584362E+03  0.61824474063E+03  0.77615713194E+03  0.90234083865E+02 0.  0.
        254    2    1    2    0    0  0.17211391686E+03 -0.42711584362E+03  0.65659149156E+03  0.12039747224E+04  0.89799309633E+03 0.  0.
        -24    2    4    4    0    0  0.23546155937E+02  0.25542919104E+01  0.73184246041E+03  0.73650964178E+03  0.79322882663E+02 0.  0.
         24    2    4    4    0    0  0.14856776093E+03 -0.42967013553E+03 -0.75250968841E+02  0.46746508059E+03  0.78562639339E+02 0.  0.
         13    1    3    3    0    0 -0.69982810974E+02  0.25905156013E+03  0.40739178820E+03  0.48782514668E+03  0.00000000000E+00 0.  1.
        -13    1    3    3    0    0 -0.10213110589E+03  0.16806428350E+03  0.21085295242E+03  0.28833198526E+03  0.00000000000E+00 0. -1.
          4    1    6    6  502    0  0.15494197400E+03 -0.37913104591E+03 -0.75788219783E+02  0.41652277193E+03  0.00000000000E+00 0. -1.
          1    1    5    5  503    0 -0.35624241824E+01  0.37638934260E+02  0.38279175435E+03  0.38465427001E+03  0.00000000000E+00 0. -1.
         -2    1    5    5    0  503  0.27108580119E+02 -0.35084642350E+02  0.34905070606E+03  0.35185537177E+03  0.00000000000E+00 0.  1.
         -3    1    6    6    0  502 -0.63742130772E+01 -0.50539089626E+02  0.53725094161E+00  0.50942308655E+02  0.00000000000E+00 0.  1.
<mgrwt>
<rscale>  0 0.15151616E+04</rscale>
<asrwt>0</asrwt>
<pdfrwt beam="1">  1        2 0.54253510E-01 0.15151616E+04</pdfrwt>
<pdfrwt beam="2">  1       -2 0.25038216E+00 0.15151616E+04</pdfrwt>
<totfact> 0.56554571E+00</totfact>
</mgrwt>
</event>
<event>
12    1  0.1599266E-007  0.2397736E+04  0.7818608E-02  0.8440352E-01
          1   -1    0    0  501    0  0.00000000000E+00  0.00000000000E+00  0.13283189369E+04  0.13283189369E+04  0.00000000000E+00 0. -1.
         -1   -1    0    0    0  501 -0.00000000000E+00 -0.00000000000E+00 -0.10820325230E+04  0.10820325230E+04  0.00000000000E+00 0.  1.
         23    2    1    2    0    0  0.42966595032E+03 -0.16110782382E+03  0.10328076470E+04  0.11341602154E+04  0.95179823051E+02 0.  0.
        254    2    1    2    0    0 -0.42966595032E+03  0.16110782382E+03 -0.78652123310E+03  0.12761912446E+04  0.89413638941E+03 0.  0.
        -24    2    4    4    0    0 -0.66273116145E+03  0.27588923559E+03 -0.48443779989E+03  0.86972938375E+03  0.80135861665E+02 0.  0.
         24    2    4    4    0    0  0.23306521113E+03 -0.11478141177E+03 -0.30208343321E+03  0.40646186083E+03  0.80390786548E+02 0.  0.
         13    1    3    3    0    0  0.38881535792E+03 -0.13560922706E+03  0.97827379262E+03  0.10614079604E+04  0.00000000000E+00 0. -1.
        -13    1    3    3    0    0  0.40850592394E+02 -0.25498596758E+02  0.54533854349E+02  0.72752254987E+02  0.00000000000E+00 0.  1.
          4    1    6    6  502    0  0.11698048797E+03 -0.18402895485E+02 -0.10507934125E+03  0.15831856835E+03  0.00000000000E+00 0. -1.
          3    1    5    5  503    0 -0.14295784699E+03  0.96009830667E+02 -0.12162623673E+03  0.21082640978E+03  0.00000000000E+00 0. -1.
         -4    1    5    5    0  503 -0.51977331446E+03  0.17987940493E+03 -0.36281156316E+03  0.65890297397E+03  0.00000000000E+00 0.  1.
         -3    1    6    6    0  502  0.11608472317E+03 -0.96378516288E+02 -0.19700409196E+03  0.24814329248E+03  0.00000000000E+00 0.  1.
<mgrwt>
<rscale>  0 0.23977358E+04</rscale>
<asrwt>0</asrwt>
<pdfrwt beam="1">  1        1 0.20435676E+00 0.23977358E+04</pdfrwt>
<pdfrwt beam="2">  1       -1 0.16646654E+00 0.23977358E+04</pdfrwt>
<totfact> 0.20225126E+00</totfact>
</mgrwt>
</event>
<event>
12    1  0.1599266E-007  0.1798100E+04  0.7818608E-02  0.8707310E-01
          2   -1    0    0  501    0  0.00000000000E+00  0.00000000000E+00  0.15864352555E+04  0.15864352555E+04  0.00000000000E+00 0. -1.
         -2   -1    0    0    0  501 -0.00000000000E+00 -0.00000000000E+00 -0.50950161041E+03  0.50950161041E+03  0.00000000000E+00 0.  1.
         23    2    1    2    0    0  0.59185056309E+03 -0.22271154752E+03  0.13644592211E+03  0.65345471765E+03  0.92184900781E+02 0.  0.
        254    2    1    2    0    0 -0.59185056309E+03  0.22271154752E+03  0.94048772296E+03  0.14424821482E+04  0.89238448467E+03 0.  0.
        -24    2    4    4    0    0 -0.18688621872E+03  0.53534662320E+03  0.54418845567E+03  0.78992373898E+03  0.79473092328E+02 0.  0.
         24    2    4    4    0    0 -0.40496434438E+03 -0.31263507569E+03  0.39629926730E+03  0.65255840924E+03  0.83919946669E+02 0.  0.
         11    1    3    3    0    0  0.45496587754E+03 -0.17661850878E+03  0.14392453309E+03  0.50882444772E+03  0.00000000000E+00 0. -1.
        -11    1    3    3    0    0  0.13688468555E+03 -0.46093038735E+02 -0.74786109873E+01  0.14463026994E+03  0.00000000000E+00 0.  1.
          4    1    6    6  502    0 -0.19714561306E+03 -0.12594330204E+03  0.22660843814E+03  0.32569846840E+03  0.00000000000E+00 0. -1.
          3    1    5    5  503    0 -0.59558209237E+01  0.64146230919E+01 -0.13112266665E+01  0.88509043412E+01  0.00000000000E+00 0. -1.
         -4    1    5    5    0  503 -0.18093039779E+03  0.52893200011E+03  0.54549968233E+03  0.78107283464E+03  0.00000000000E+00 0.  1.
         -3    1    6    6    0  502 -0.20781873132E+03 -0.18669177364E+03  0.16969082915E+03  0.32685994085E+03  0.00000000000E+00 0.  1.
<mgrwt>
<rscale>  0 0.17981005E+04</rscale>
<asrwt>0</asrwt>
<pdfrwt beam="1">  1        2 0.24406696E+00 0.17981005E+04</pdfrwt>
<pdfrwt beam="2">  1       -2 0.78384863E-01 0.17981005E+04</pdfrwt>
<totfact> 0.15505791E+01</totfact>
</mgrwt>
</event>
<event>
12    1  0.1599266E-007  0.1988783E+04  0.7818608E-02  0.8611883E-01
         -2   -1    0    0    0  501 -0.00000000000E+00  0.00000000000E+00  0.52389804835E+03  0.52389804835E+03  0.00000000000E+00 0.  1.
          2   -1    0    0  501    0  0.00000000000E+00 -0.00000000000E+00 -0.18874167911E+04  0.18874167911E+04  0.00000000000E+00 0. -1.
         23    2    1    2    0    0 -0.15934724341E+02  0.61127829862E+03 -0.11612734832E+04  0.13156982897E+04  0.92686638727E+02 0.  0.
        254    2    1    2    0    0  0.15934724341E+02 -0.61127829862E+03 -0.20224525960E+03  0.10956165498E+04  0.88631676351E+03 0.  0.
        -24    2    4    4    0    0 -0.13615209447E+03 -0.79657376822E+03 -0.83430558498E+02  0.81619351130E+03  0.78383855146E+02 0.  0.
         24    2    4    4    0    0  0.15208681881E+03  0.18529546960E+03 -0.11881470110E+03  0.27942303847E+03  0.80594601048E+02 0.  0.
         13    1    3    3    0    0 -0.20982738676E+02  0.51148234101E+02 -0.71393014160E+02  0.90296066607E+02  0.00000000000E+00 0.  1.
        -13    1    3    3    0    0  0.50480143352E+01  0.56013006452E+03 -0.10898804690E+04  0.12254022231E+04  0.00000000000E+00 0. -1.
          4    1    6    6  502    0  0.16158640117E+03  0.17307810156E+03 -0.11608551208E+03  0.26370824863E+03  0.00000000000E+00 0. -1.
          3    1    5    5  503    0 -0.10857364928E+03 -0.72692514379E+03 -0.92294810784E+02  0.74076091561E+03  0.00000000000E+00 0. -1.
         -4    1    5    5    0  503 -0.27578445190E+02 -0.69648624432E+02  0.88642522863E+01  0.75432595693E+02  0.00000000000E+00 0.  1.
         -3    1    6    6    0  502 -0.94995823587E+01  0.12217368042E+02 -0.27291890235E+01  0.15714789836E+02  0.00000000000E+00 0.  1.
<mgrwt>
<rscale>  0 0.19887825E+04</rscale>
<asrwt>0</asrwt>
<pdfrwt beam="1">  1        2 0.29037181E+00 0.19887825E+04</pdfrwt>
<pdfrwt beam="2">  1       -2 0.80599700E-01 0.19887825E+04</pdfrwt>
<totfact> 0.97526164E+00</totfact>
</mgrwt>
</event>
<event>
12    1  0.1599266E-007  0.2853076E+04  0.7818608E-02  0.8286977E-01
          2   -1    0    0  501    0  0.00000000000E+00  0.00000000000E+00  0.24404331526E+04  0.24404331526E+04  0.00000000000E+00 0. -1.
         -2   -1    0    0    0  501 -0.00000000000E+00 -0.00000000000E+00 -0.83387290671E+03  0.83387290671E+03  0.00000000000E+00 0.  1.
         23    2    1    2    0    0  0.51190057004E+03 -0.10423404014E+04  0.11161884541E+03  0.11701580431E+04  0.91078940233E+02 0.  0.
        254    2    1    2    0    0 -0.51190057004E+03  0.10423404014E+04  0.14949414004E+04  0.21041480161E+04  0.91873466091E+03 0.  0.
        -24    2    4    4    0    0 -0.25585424779E+03  0.86737136650E+03  0.45352158200E+03  0.10145931194E+04  0.76960307902E+02 0.  0.
         24    2    4    4    0    0 -0.25604632225E+03  0.17496903486E+03  0.10414198184E+04  0.10895548968E+04  0.80004703254E+02 0.  0.
         11    1    3    3    0    0  0.11037970895E+03 -0.20685059732E+03 -0.13190825654E+02  0.23482940114E+03  0.00000000000E+00 0.  1.
        -11    1    3    3    0    0  0.40152086109E+03 -0.83548980403E+03  0.12480967106E+03  0.93532864199E+03  0.00000000000E+00 0. -1.
          4    1    6    6  502    0 -0.35445994340E+02  0.60280191768E+02  0.27838984577E+03  0.28703837071E+03  0.00000000000E+00 0. -1.
          3    1    5    5  503    0 -0.19206608819E+03  0.52090516635E+03  0.28526386460E+03  0.62418510636E+03  0.00000000000E+00 0. -1.
         -4    1    5    5    0  503 -0.63788159604E+02  0.34646620015E+03  0.16825771739E+03  0.39040801300E+03  0.00000000000E+00 0.  1.
         -3    1    6    6    0  502 -0.22060032791E+03  0.11468884309E+03  0.76302997267E+03  0.80251652606E+03  0.00000000000E+00 0.  1.
<mgrwt>
<rscale>  0 0.28530763E+04</rscale>
<asrwt>0</asrwt>
<pdfrwt beam="1">  1        2 0.37545125E+00 0.28530763E+04</pdfrwt>
<pdfrwt beam="2">  1       -2 0.12828814E+00 0.28530763E+04</pdfrwt>
<totfact> 0.14660222E+00</totfact>
</mgrwt>
</event>
<event>
12    1  0.1599266E-007  0.3105072E+04  0.7818608E-02  0.8214347E-01
          2   -1    0    0  501    0  0.00000000000E+00  0.00000000000E+00  0.12677836731E+04  0.12677836731E+04  0.00000000000E+00 0. -1.
         -2   -1    0    0    0  501 -0.00000000000E+00 -0.00000000000E+00 -0.19012456098E+04  0.19012456098E+04  0.00000000000E+00 0.  1.
         23    2    1    2    0    0  0.89336227945E+03 -0.64824011863E+03 -0.12062013461E+04  0.16375423045E+04  0.91168514510E+02 0.  0.
        254    2    1    2    0    0 -0.89336227945E+03  0.64824011863E+03  0.57273940939E+03  0.15314869783E+04  0.89392981821E+03 0.  0.
        -24    2    4    4    0    0 -0.40448385433E+03  0.25991870851E+03 -0.20669982736E+03  0.52957512293E+03  0.80994251283E+02 0.  0.
         24    2    4    4    0    0 -0.48887842512E+03  0.38832141012E+03  0.77943923675E+03  0.10019118554E+04  0.80661081372E+02 0.  0.
         13    1    3    3    0    0  0.50340601147E+03 -0.41375963373E+03 -0.67793325438E+03  0.94032342536E+03  0.00000000000E+00 0. -1.
        -13    1    3    3    0    0  0.38995626798E+03 -0.23448048490E+03 -0.52826809175E+03  0.69721887919E+03  0.00000000000E+00 0.  1.
          4    1    6    6  502    0 -0.47675552148E+03  0.36368075315E+03  0.76090716712E+03  0.96878234628E+03  0.00000000000E+00 0. -1.
          1    1    5    5  503    0 -0.33527197912E+03  0.24812420381E+03 -0.18291951647E+03  0.45544754913E+03  0.00000000000E+00 0. -1.
         -2    1    5    5    0  503 -0.69211875206E+02  0.11794504704E+02 -0.23780310886E+02  0.74127573794E+02  0.00000000000E+00 0.  1.
         -3    1    6    6    0  502 -0.12122903632E+02  0.24640656968E+02  0.18532069632E+02  0.33129509099E+02  0.00000000000E+00 0.  1.
<mgrwt>
<rscale>  0 0.31050721E+04</rscale>
<asrwt>0</asrwt>
<pdfrwt beam="1">  1        2 0.19504364E+00 0.31050721E+04</pdfrwt>
<pdfrwt beam="2">  1       -2 0.29249933E+00 0.31050721E+04</pdfrwt>
<totfact> 0.51758173E-01</totfact>
</mgrwt>
</event>
<event>
12    1  0.1599266E-007  0.2719060E+04  0.7818608E-02  0.8328847E-01
          2   -1    0    0  501    0  0.00000000000E+00  0.00000000000E+00  0.18116932123E+04  0.18116932123E+04  0.00000000000E+00 0. -1.
         -2   -1    0    0    0  501 -0.00000000000E+00 -0.00000000000E+00 -0.10202181647E+04  0.10202181647E+04  0.00000000000E+00 0.  1.
         23    2    1    2    0    0 -0.94306991774E+03  0.75081846557E+03  0.54883474619E+03  0.13277919003E+04  0.93287265615E+02 0.  0.
        254    2    1    2    0    0  0.94306991774E+03 -0.75081846557E+03  0.24264030132E+03  0.15041194767E+04  0.86625160681E+03 0.  0.
        -24    2    4    4    0    0  0.66614496510E+03 -0.31080597332E+03  0.52534390150E+03  0.90706174835E+03  0.80158174284E+02 0.  0.
         24    2    4    4    0    0  0.27692495264E+03 -0.44001249224E+03 -0.28270360018E+03  0.59705772832E+03  0.79108676310E+02 0.  0.
         11    1    3    3    0    0 -0.44573710830E+03  0.37402656349E+03  0.21641770301E+03  0.62081725337E+03  0.00000000000E+00 0. -1.
        -11    1    3    3    0    0 -0.49733280944E+03  0.37679190208E+03  0.33241704318E+03  0.70697464694E+03  0.00000000000E+00 0.  1.
          4    1    6    6  502    0  0.10894690391E+03 -0.14220686563E+03 -0.13638800272E+03  0.22515307635E+03  0.00000000000E+00 0. -1.
          1    1    5    5  503    0  0.16779015962E+03 -0.10718523095E+03  0.11293860937E+03  0.22890465457E+03  0.00000000000E+00 0. -1.
         -2    1    5    5    0  503  0.49835480548E+03 -0.20362074237E+03  0.41240529213E+03  0.67815709378E+03  0.00000000000E+00 0.  1.
         -3    1    6    6    0  502  0.16797804873E+03 -0.29780562661E+03 -0.14631559746E+03  0.37190465197E+03  0.00000000000E+00 0.  1.
<mgrwt>
<rscale>  0 0.27190604E+04</rscale>
<asrwt>0</asrwt>
<pdfrwt beam="1">  1        2 0.27872203E+00 0.27190604E+04</pdfrwt>
<pdfrwt beam="2">  1       -2 0.15695664E+00 0.27190604E+04</pdfrwt>
<totfact> 0.19763350E+00</totfact>
</mgrwt>
</event>
<event>
12    1  0.1599266E-007  0.1843956E+04  0.7818608E-02  0.8683267E-01
         -4   -1    0    0    0  501 -0.00000000000E+00  0.00000000000E+00  0.15660510864E+04  0.15660510864E+04  0.00000000000E+00 0.  1.
          4   -1    0    0  501    0  0.00000000000E+00 -0.00000000000E+00 -0.54279448469E+03  0.54279448469E+03  0.00000000000E+00 0. -1.
         23    2    1    2    0    0  0.20316010991E+03  0.66444469122E+03  0.28807763144E+03  0.75763533796E+03  0.90894475314E+02 0.  0.
        254    2    1    2    0    0 -0.20316010991E+03 -0.66444469122E+03  0.73517897032E+03  0.13512102332E+04  0.89583491663E+03 0.  0.
        -24    2    4    4    0    0 -0.22868729610E+03 -0.84011992114E+03  0.75604512641E+03  0.11562345014E+04  0.84703173754E+02 0.  0.
         24    2    4    4    0    0  0.25527186196E+02  0.17567522992E+03 -0.20866156097E+02  0.19497573181E+03  0.77889125578E+02 0.  0.
         13    1    3    3    0    0  0.39830483917E+02  0.22973352325E+03  0.13079619282E+03  0.26734173489E+03  0.00000000000E+00 0. -1.
        -13    1    3    3    0    0  0.16332962599E+03  0.43471116797E+03  0.15728143861E+03  0.49029360307E+03  0.00000000000E+00 0.  1.
          2    1    6    6  502    0 -0.26312462256E+02  0.75629386320E+02 -0.18917062327E+02  0.82280040060E+02  0.00000000000E+00 0. -1.
          3    1    5    5  503    0 -0.15225876372E+03 -0.67359740900E+03  0.61935434302E+03  0.92764001787E+03  0.00000000000E+00 0. -1.
         -2    1    5    5    0  503 -0.76428532386E+02 -0.16652251214E+03  0.13669078340E+03  0.22859448348E+03  0.00000000000E+00 0.  1.
         -1    1    6    6    0  502  0.51839648452E+02  0.10004584360E+03 -0.19490937701E+01  0.11269569175E+03  0.00000000000E+00 0.  1.
<mgrwt>
<rscale>  0 0.18439565E+04</rscale>
<asrwt>0</asrwt>
<pdfrwt beam="1">  1        4 0.83506845E-01 0.18439565E+04</pdfrwt>
<pdfrwt beam="2">  1       -4 0.24093093E+00 0.18439565E+04</pdfrwt>
<totfact> 0.17046368E-01</totfact>
</mgrwt>
</event>
<event>
12    1  0.1599266E-007  0.3124519E+04  0.7818608E-02  0.8209041E-01
          1   -1    0    0  501    0  0.00000000000E+00  0.00000000000E+00  0.37017861849E+04  0.37017861849E+04  0.00000000000E+00 0. -1.
         -1   -1    0    0    0  501 -0.00000000000E+00 -0.00000000000E+00 -0.65931816571E+03  0.65931816571E+03  0.00000000000E+00 0.  1.
         23    2    1    2    0    0 -0.67716791655E+03  0.10123103490E+03 -0.35945053673E+03  0.77873411485E+03  0.91749788180E+02 0.  0.
        254    2    1    2    0    0  0.67716791655E+03 -0.10123103490E+03  0.34019185559E+04  0.35823702357E+04  0.88967552253E+03 0.  0.
        -24    2    4    4    0    0  0.76561431971E+03  0.91922786744E+02  0.17397628637E+04  0.19047585706E+04  0.81946964765E+02 0.  0.
         24    2    4    4    0    0 -0.88446403159E+02 -0.19315382165E+03  0.16621556922E+04  0.16776116652E+04  0.80549295067E+02 0.  0.
         13    1    3    3    0    0 -0.13392781838E+03  0.27431067036E+01 -0.10801525412E+03  0.17207986603E+03  0.00000000000E+00 0. -1.
        -13    1    3    3    0    0 -0.54324009817E+03  0.98487928197E+02 -0.25143528261E+03  0.60665424881E+03  0.00000000000E+00 0.  1.
          4    1    6    6  502    0 -0.31322798383E+02 -0.20335862343E+02  0.48858439455E+03  0.49000956684E+03  0.00000000000E+00 0. -1.
          1    1    5    5  503    0  0.29588165809E+03  0.57448173948E+02  0.76275777113E+03  0.82014978248E+03  0.00000000000E+00 0. -1.
         -2    1    5    5    0  503  0.46973266163E+03  0.34474612796E+02  0.97700509253E+03  0.10846087881E+04  0.00000000000E+00 0.  1.
         -3    1    6    6    0  502 -0.57123604775E+02 -0.17281795930E+03  0.11735712977E+04  0.11876020983E+04  0.00000000000E+00 0.  1.
<mgrwt>
<rscale>  0 0.31245191E+04</rscale>
<asrwt>0</asrwt>
<pdfrwt beam="1">  1        1 0.56950555E+00 0.31245191E+04</pdfrwt>
<pdfrwt beam="2">  1       -1 0.10143357E+00 0.31245191E+04</pdfrwt>
<totfact> 0.13339465E-01</totfact>
</mgrwt>
</event>
<event>
12    1  0.1599266E-007  0.1524051E+04  0.7818608E-02  0.8868615E-01
         -1   -1    0    0    0  501 -0.00000000000E+00  0.00000000000E+00  0.28114951383E+03  0.28114951383E+03  0.00000000000E+00 0.  1.
          1   -1    0    0  501    0  0.00000000000E+00 -0.00000000000E+00 -0.20653885349E+04  0.20653885349E+04  0.00000000000E+00 0. -1.
         23    2    1    2    0    0  0.23352144418E+02 -0.21402398378E+03 -0.12577885365E+04  0.12800005990E+04  0.10008967298E+03 0.  0.
        254    2    1    2    0    0 -0.23352144418E+02  0.21402398378E+03 -0.52645048463E+03  0.10665374498E+04  0.90221972421E+03 0.  0.
        -24    2    4    4    0    0 -0.71048396726E+02 -0.28520568179E+03 -0.46377745551E+03  0.55487532813E+03  0.80043400223E+02 0.  0.
         24    2    4    4    0    0  0.47696252308E+02  0.49922966557E+03 -0.62673029120E+02  0.51166212166E+03  0.79781117398E+02 0.  0.
         11    1    3    3    0    0 -0.19509743393E+02 -0.80409212928E+02 -0.27294880303E+03  0.28521451697E+03  0.00000000000E+00 0.  1.
        -11    1    3    3    0    0  0.42861887810E+02 -0.13361477085E+03 -0.98483973342E+03  0.99478608200E+03  0.00000000000E+00 0. -1.
          4    1    6    6  502    0  0.34881049428E+02  0.13927309779E+03  0.11088906317E+02  0.14400224727E+03  0.00000000000E+00 0. -1.
          3    1    5    5  503    0  0.12442139579E+01 -0.29689566079E+02 -0.10109606617E+03  0.10537282855E+03  0.00000000000E+00 0. -1.
         -4    1    5    5    0  503 -0.72292610684E+02 -0.25551611571E+03 -0.36268138935E+03  0.44950249958E+03  0.00000000000E+00 0.  1.
         -3    1    6    6    0  502  0.12815202880E+02  0.35995656778E+03 -0.73761935436E+02  0.36765987439E+03  0.00000000000E+00 0.  1.
<mgrwt>
<rscale>  0 0.15240512E+04</rscale>
<asrwt>0</asrwt>
<pdfrwt beam="1">  1        1 0.31775209E+00 0.15240512E+04</pdfrwt>
<pdfrwt beam="2">  1       -1 0.43253771E-01 0.15240512E+04</pdfrwt>
<totfact> 0.13704679E+01</totfact>
</mgrwt>
</event>
<event>
12    1  0.1599266E-007  0.1082934E+04  0.7818608E-02  0.9221987E-01
         -1   -1    0    0    0  501 -0.00000000000E+00  0.00000000000E+00  0.13828805533E+03  0.13828805533E+03  0.00000000000E+00 0.  1.
          1   -1    0    0  501    0  0.00000000000E+00 -0.00000000000E+00 -0.21201146055E+04  0.21201146055E+04  0.00000000000E+00 0. -1.
         23    2    1    2    0    0  0.51687382401E+02  0.40222001774E+01 -0.51450689325E+02  0.13246944904E+03  0.11051342861E+03 0.  0.
        254    2    1    2    0    0 -0.51687382401E+02 -0.40222001774E+01 -0.19303758608E+04  0.21259332117E+04  0.88913063899E+03 0.  0.
        -24    2    4    4    0    0  0.26602555438E+02 -0.35727589850E+03 -0.36889956402E+03  0.52103031594E+03  0.83856652605E+02 0.  0.
         24    2    4    4    0    0 -0.78289937839E+02  0.35325369832E+03 -0.15614762968E+04  0.16049028958E+04  0.81163968560E+02 0.  0.
         11    1    3    3    0    0 -0.24416877755E+02 -0.14851241980E+02 -0.45634163503E+02  0.53844407196E+02  0.00000000000E+00 0. -1.
        -11    1    3    3    0    0  0.76104260156E+02  0.18873442157E+02 -0.58165258221E+01  0.78625041847E+02  0.00000000000E+00 0.  1.
          4    1    6    6  502    0  0.14258851760E+02  0.23539687507E+02 -0.90682320679E+02  0.94766634557E+02  0.00000000000E+00 0. -1.
          1    1    5    5  503    0 -0.27242802593E+02 -0.74422871582E+02 -0.93868053676E+02  0.12285009405E+03  0.00000000000E+00 0. -1.
         -2    1    5    5    0  503  0.53845358031E+02 -0.28285302692E+03 -0.27503151034E+03  0.39818022188E+03  0.00000000000E+00 0.  1.
         -3    1    6    6    0  502 -0.92548789598E+02  0.32971401081E+03 -0.14707939761E+04  0.15101362612E+04  0.00000000000E+00 0.  1.
<mgrwt>
<rscale>  0 0.10829340E+04</rscale>
<asrwt>0</asrwt>
<pdfrwt beam="1">  1        1 0.32617148E+00 0.10829340E+04</pdfrwt>
<pdfrwt beam="2">  1       -1 0.21275086E-01 0.10829340E+04</pdfrwt>
<totfact> 0.45615125E+01</totfact>
</mgrwt>
</event>
<event>
12    1  0.1599266E-007  0.2384276E+04  0.7818608E-02  0.8445414E-01
         -2   -1    0    0    0  501 -0.00000000000E+00  0.00000000000E+00  0.72746440414E+03  0.72746440414E+03  0.00000000000E+00 0.  1.
          2   -1    0    0  501    0  0.00000000000E+00 -0.00000000000E+00 -0.19536251969E+04  0.19536251969E+04  0.00000000000E+00 0. -1.
         23    2    1    2    0    0 -0.34225986708E+02  0.34132819704E+03  0.55436572907E+03  0.65895394895E+03  0.96034311616E+02 0.  0.
        254    2    1    2    0    0  0.34225986708E+02 -0.34132819704E+03 -0.17805265218E+04  0.20221356521E+04  0.89503158843E+03 0.  0.
        -24    2    4    4    0    0 -0.21184915140E+03 -0.34192966018E+03 -0.27353350845E+03  0.49307948297E+03  0.80689781391E+02 0.  0.
         24    2    4    4    0    0  0.24607513811E+03  0.60146314397E+00 -0.15069930134E+04  0.15290561691E+04  0.80196574936E+02 0.  0.
         11    1    3    3    0    0  0.31087773281E+02  0.13976808289E+03  0.25005279015E+03  0.28814573484E+03  0.00000000000E+00 0. -1.
        -11    1    3    3    0    0 -0.65313759989E+02  0.20156011414E+03  0.30431293892E+03  0.37080821411E+03  0.00000000000E+00 0.  1.
          2    1    6    6  502    0  0.19277001448E+03 -0.14130534980E+02 -0.13193447063E+04  0.13334280650E+04  0.00000000000E+00 0. -1.
          1    1    5    5  503    0 -0.16485907548E+03 -0.31118940309E+03 -0.21840369652E+03  0.41438814415E+03  0.00000000000E+00 0. -1.
         -2    1    5    5    0  503 -0.46990075921E+02 -0.30740257091E+02 -0.55129811927E+02  0.78691338813E+02  0.00000000000E+00 0.  1.
         -1    1    6    6    0  502  0.53305123625E+02  0.14731998124E+02 -0.18764830702E+03  0.19562810407E+03  0.00000000000E+00 0.  1.
<mgrwt>
<rscale>  0 0.23842758E+04</rscale>
<asrwt>0</asrwt>
<pdfrwt beam="1">  1        2 0.30055771E+00 0.23842758E+04</pdfrwt>
<pdfrwt beam="2">  1       -2 0.11191760E+00 0.23842758E+04</pdfrwt>
<totfact> 0.40219073E+00</totfact>
</mgrwt>
</event>
<event>
12    1  0.1599266E-007  0.1350764E+04  0.7818608E-02  0.8990250E-01
          2   -1    0    0  501    0  0.00000000000E+00  0.00000000000E+00  0.26103069180E+04  0.26103069180E+04  0.00000000000E+00 0. -1.
         -2   -1    0    0    0  501 -0.00000000000E+00 -0.00000000000E+00 -0.17474612736E+03  0.17474612736E+03  0.00000000000E+00 0.  1.
         23    2    1    2    0    0 -0.37257646084E+02 -0.16226911596E+03  0.54890860252E+01  0.18981815973E+03  0.91002228053E+02 0.  0.
        254    2    1    2    0    0  0.37257646084E+02  0.16226911596E+03  0.24300717046E+04  0.25952348856E+04  0.89569873498E+03 0.  0.
        -24    2    4    4    0    0 -0.11921969611E+03 -0.33319868848E+03  0.12869146284E+04  0.13370305558E+04  0.79162772615E+02 0.  0.
         24    2    4    4    0    0  0.15647734219E+03  0.49546780444E+03  0.11431570762E+04  0.12582043298E+04  0.79350681795E+02 0.  0.
         13    1    3    3    0    0 -0.16067658524E+02 -0.44153182156E+01 -0.22611858507E+02  0.28088446567E+02  0.00000000000E+00 0. -1.
        -13    1    3    3    0    0 -0.21189987561E+02 -0.15785379775E+03  0.28100944532E+02  0.16172971316E+03  0.00000000000E+00 0.  1.
          2    1    6    6  502    0  0.32368566332E+02  0.34971865708E+02  0.12844621842E+03  0.13700068067E+03  0.00000000000E+00 0. -1.
          1    1    5    5  503    0 -0.15163310393E+02 -0.76448055561E+02  0.18341113698E+03  0.19928340711E+03  0.00000000000E+00 0. -1.
         -2    1    5    5    0  503 -0.10405638571E+03 -0.25675063292E+03  0.11035034914E+04  0.11377471487E+04  0.00000000000E+00 0.  1.
         -1    1    6    6    0  502  0.12410877586E+03  0.46049593874E+03  0.10147108578E+04  0.11212036491E+04  0.00000000000E+00 0.  1.
<mgrwt>
<rscale>  0 0.13507643E+04</rscale>
<asrwt>0</asrwt>
<pdfrwt beam="1">  1        2 0.40158565E+00 0.13507643E+04</pdfrwt>
<pdfrwt beam="2">  1       -2 0.26884021E-01 0.13507643E+04</pdfrwt>
<totfact> 0.37022821E+01</totfact>
</mgrwt>
</event>
<event>
12    1  0.1599266E-007  0.1241100E+04  0.7818608E-02  0.9077623E-01
          2   -1    0    0  501    0  0.00000000000E+00  0.00000000000E+00  0.31798874894E+04  0.31798874894E+04  0.00000000000E+00 0. -1.
         -2   -1    0    0    0  501 -0.00000000000E+00 -0.00000000000E+00 -0.12109939128E+03  0.12109939128E+03  0.00000000000E+00 0.  1.
         23    2    1    2    0    0 -0.24151042537E+03  0.12308091724E+03  0.91741972271E+03  0.96090939543E+03  0.90618545923E+02 0.  0.
        254    2    1    2    0    0  0.24151042537E+03 -0.12308091724E+03  0.21413683754E+04  0.23400774852E+04  0.90389596747E+03 0.  0.
        -24    2    4    4    0    0  0.52739973704E+03  0.30451679102E+02  0.17279530695E+04  0.18084390014E+04  0.74511904406E+02 0.  0.
         24    2    4    4    0    0 -0.28588931167E+03 -0.15353259635E+03  0.41341530587E+03  0.53163848384E+03  0.80139289369E+02 0.  0.
         13    1    3    3    0    0 -0.23728388555E+03  0.11014578931E+03  0.90640782285E+03  0.94340387882E+03  0.00000000000E+00 0. -1.
        -13    1    3    3    0    0 -0.42265398144E+01  0.12935127933E+02  0.11011899859E+02  0.17505516614E+02  0.00000000000E+00 0.  1.
          4    1    6    6  502    0 -0.34668672773E+02 -0.11754634380E+02  0.14551140905E+02  0.39393197419E+02  0.00000000000E+00 0. -1.
          3    1    5    5  503    0  0.23120487565E+03  0.42848308063E+02  0.68908122135E+03  0.72809656066E+03  0.00000000000E+00 0. -1.
         -4    1    5    5    0  503  0.29619486139E+03 -0.12396628961E+02  0.10388718482E+04  0.10803424407E+04  0.00000000000E+00 0.  1.
         -3    1    6    6    0  502 -0.25122063890E+03 -0.14177796197E+03  0.39886416496E+03  0.49224528642E+03  0.00000000000E+00 0.  1.
<mgrwt>
<rscale>  0 0.12411002E+04</rscale>
<asrwt>0</asrwt>
<pdfrwt beam="1">  1        2 0.48921340E+00 0.12411002E+04</pdfrwt>
<pdfrwt beam="2">  1       -2 0.18630678E-01 0.12411002E+04</pdfrwt>
<totfact> 0.32359993E+01</totfact>
</mgrwt>
</event>
<event>
12    1  0.1599266E-007  0.1474446E+04  0.7818608E-02  0.8901626E-01
          1   -1    0    0  501    0  0.00000000000E+00  0.00000000000E+00  0.70172759897E+03  0.70172759897E+03  0.00000000000E+00 0. -1.
         -1   -1    0    0    0  501 -0.00000000000E+00 -0.00000000000E+00 -0.77451378993E+03  0.77451378993E+03  0.00000000000E+00 0.  1.
         23    2    1    2    0    0  0.32786864022E+02  0.26657915286E+03 -0.40423784366E+03  0.49414553366E+03  0.92909369798E+02 0.  0.
        254    2    1    2    0    0 -0.32786864022E+02 -0.26657915286E+03  0.33145165270E+03  0.98209585523E+03  0.88459744946E+03 0.  0.
        -24    2    4    4    0    0  0.26414027656E+03  0.19673322036E+03  0.96516809426E+01  0.33979810767E+03  0.83039468523E+02 0.  0.
         24    2    4    4    0    0 -0.29692714058E+03 -0.46331237323E+03  0.32179997176E+03  0.64229774757E+03  0.78530839161E+02 0.  0.
         13    1    3    3    0    0  0.59456145262E+02  0.15193386180E+03 -0.27136259755E+03  0.31663321196E+03  0.00000000000E+00 0.  1.
        -13    1    3    3    0    0 -0.26669281240E+02  0.11464529106E+03 -0.13287524612E+03  0.17751232170E+03  0.00000000000E+00 0. -1.
          2    1    6    6  502    0 -0.15467612953E+03 -0.30703504313E+03  0.21539085650E+03  0.40569501330E+03  0.00000000000E+00 0. -1.
          3    1    5    5  503    0  0.19214909165E+03  0.17580177726E+03 -0.15021776822E+02  0.26087006744E+03  0.00000000000E+00 0. -1.
         -4    1    5    5    0  503  0.71991184916E+02  0.20931443107E+02  0.24673457765E+02  0.78928040228E+02  0.00000000000E+00 0.  1.
         -1    1    6    6    0  502 -0.14225101106E+03 -0.15627733010E+03  0.10640911526E+03  0.23660273426E+03  0.00000000000E+00 0.  1.
<mgrwt>
<rscale>  0 0.14744459E+04</rscale>
<asrwt>0</asrwt>
<pdfrwt beam="1">  1        1 0.10795809E+00 0.14744459E+04</pdfrwt>
<pdfrwt beam="2">  1       -1 0.11915597E+00 0.14744459E+04</pdfrwt>
<totfact> 0.16577604E+01</totfact>
</mgrwt>
</event>
<event>
12    1  0.2058311E-007  0.2346159E+04  0.7818608E-02  0.8459941E-01
         -1   -1    0    0    0  501 -0.00000000000E+00  0.00000000000E+00  0.69358595169E+03  0.69358595169E+03  0.00000000000E+00 0.  1.
          1   -1    0    0  501    0  0.00000000000E+00 -0.00000000000E+00 -0.19840583221E+04  0.19840583221E+04  0.00000000000E+00 0. -1.
         23    2    1    2    0    0  0.44912031174E+03  0.37306532079E+03 -0.14921317910E+04  0.16049748072E+04  0.92736518842E+02 0.  0.
        254    2    1    2    0    0 -0.44912031174E+03 -0.37306532079E+03  0.20165942054E+03  0.10726694667E+04  0.87696435209E+03 0.  0.
        -24    2    4    4    0    0  0.23134944395E+03 -0.18434008222E+03  0.19339881333E+03  0.36211071765E+03  0.78849475018E+02 0.  0.
         24    2    4    4    0    0 -0.68046975569E+03 -0.18872523857E+03  0.82606072061E+01  0.71055874902E+03  0.78544217446E+02 0.  0.
         13    1    3    3    0    0  0.43561647731E+03  0.34817601926E+03 -0.13609759118E+04  0.14707969569E+04  0.00000000000E+00 0. -1.
        -13    1    3    3    0    0  0.13503834431E+02  0.24889301527E+02 -0.13115587916E+03  0.13417785030E+03  0.00000000000E+00 0.  1.
          4    1    6    6  502    0 -0.58095942232E+02  0.39754163017E+01 -0.83275720429E+01  0.58824237306E+02  0.00000000000E+00 0. -1.
          1    1    5    5  503    0 -0.44028613282E+01 -0.12648601926E+02  0.27286086036E+01  0.13668124358E+02  0.00000000000E+00 0. -1.
         -2    1    5    5    0  503  0.23575230528E+03 -0.17169148029E+03  0.19067020473E+03  0.34844259329E+03  0.00000000000E+00 0.  1.
         -3    1    6    6    0  502 -0.62237381346E+03 -0.19270065487E+03  0.16588179249E+02  0.65173451172E+03  0.00000000000E+00 0.  1.
<mgrwt>
<rscale>  0 0.23461585E+04</rscale>
<asrwt>0</asrwt>
<pdfrwt beam="1">  1        1 0.30523974E+00 0.23461585E+04</pdfrwt>
<pdfrwt beam="2">  1       -1 0.10670553E+00 0.23461585E+04</pdfrwt>
<totfact> 0.22546963E+00</totfact>
</mgrwt>
</event>
<event>
12    1  0.1599266E-007  0.2446837E+04  0.7818608E-02  0.8422174E-01
         -1   -1    0    0    0  501 -0.00000000000E+00  0.00000000000E+00  0.14875844459E+04  0.14875844459E+04  0.00000000000E+00 0.  1.
          1   -1    0    0  501    0  0.00000000000E+00 -0.00000000000E+00 -0.10061633730E+04  0.10061633730E+04  0.00000000000E+00 0. -1.
         23    2    1    2    0    0 -0.95932418360E+03 -0.47198586391E+03  0.86287019295E+02  0.10792793038E+04  0.11968634366E+03 0.  0.
        254    2    1    2    0    0  0.95932418360E+03  0.47198586391E+03  0.39513405368E+03  0.14144685151E+04  0.83756594658E+03 0.  0.
        -24    2    4    4    0    0  0.17815287480E+03 -0.42427134874E+02  0.43065087274E+03  0.47492358891E+03  0.80955126700E+02 0.  0.
         24    2    4    4    0    0  0.78117130880E+03  0.51441299879E+03 -0.35516819059E+02  0.93954492620E+03  0.81448615060E+02 0.  0.
         13    1    3    3    0    0 -0.90561993923E+03 -0.42768017518E+03  0.10546343700E+03  0.10070652129E+04  0.00000000000E+00 0. -1.
        -13    1    3    3    0    0 -0.53704244376E+02 -0.44305688736E+02 -0.19176417701E+02  0.72214090829E+02  0.00000000000E+00 0.  1.
          4    1    6    6  502    0  0.41089081227E+02  0.73340321060E+01 -0.14736651355E+01  0.41764486253E+02  0.00000000000E+00 0. -1.
          3    1    5    5  503    0  0.19782398650E+02 -0.31150579514E+02  0.12722228649E+03  0.13246589026E+03  0.00000000000E+00 0. -1.
         -4    1    5    5    0  503  0.15837047615E+03 -0.11276555360E+02  0.30342858624E+03  0.34245769865E+03  0.00000000000E+00 0.  1.
         -3    1    6    6    0  502  0.74008222757E+03  0.50707896668E+03 -0.34043153924E+02  0.89778043995E+03  0.00000000000E+00 0.  1.
<mgrwt>
<rscale>  0 0.24468371E+04</rscale>
<asrwt>0</asrwt>
<pdfrwt beam="1">  1        1 0.15479437E+00 0.24468371E+04</pdfrwt>
<pdfrwt beam="2">  1       -1 0.22885914E+00 0.24468371E+04</pdfrwt>
<totfact> 0.12827761E+00</totfact>
</mgrwt>
</event>
<event>
12    1  0.1599266E-007  0.1714392E+04  0.7818608E-02  0.8753199E-01
          1   -1    0    0  501    0  0.00000000000E+00  0.00000000000E+00  0.50421873240E+03  0.50421873240E+03  0.00000000000E+00 0. -1.
         -1   -1    0    0    0  501 -0.00000000000E+00 -0.00000000000E+00 -0.14572738291E+04  0.14572738291E+04  0.00000000000E+00 0.  1.
         23    2    1    2    0    0  0.69181940814E+02 -0.61025017987E+03 -0.34612026620E+03  0.71090781795E+03  0.91647498546E+02 0.  0.
        254    2    1    2    0    0 -0.69181940814E+02  0.61025017987E+03 -0.60693483055E+03  0.12505847436E+04  0.90465512180E+03 0.  0.
        -24    2    4    4    0    0 -0.34375506198E+03  0.78935287169E+02 -0.53112988391E+03  0.64241448375E+03  0.78734320005E+02 0.  0.
         24    2    4    4    0    0  0.27457312116E+03  0.53131489270E+03 -0.75804946634E+02  0.60817025984E+03  0.80241890246E+02 0.  0.
         11    1    3    3    0    0  0.34712941522E+02 -0.69702977110E+02 -0.60228647440E+02  0.98442792014E+02  0.00000000000E+00 0.  1.
        -11    1    3    3    0    0  0.34468999291E+02 -0.54054720276E+03 -0.28589161876E+03  0.61246502594E+03  0.00000000000E+00 0. -1.
          4    1    6    6  502    0  0.75615171887E+02  0.22774495074E+03 -0.18077030369E+02  0.24064952905E+03  0.00000000000E+00 0. -1.
          3    1    5    5  503    0 -0.85767074679E+02 -0.82399475855E+01 -0.95043375009E+02  0.12828534978E+03  0.00000000000E+00 0. -1.
         -4    1    5    5    0  503 -0.25798798730E+03  0.87175234755E+02 -0.43608650890E+03  0.51412913397E+03  0.00000000000E+00 0.  1.
         -3    1    6    6    0  502  0.19895794927E+03  0.30356994196E+03 -0.57727916265E+02  0.36752073079E+03  0.00000000000E+00 0.  1.
<mgrwt>
<rscale>  0 0.17143917E+04</rscale>
<asrwt>0</asrwt>
<pdfrwt beam="1">  1        1 0.77572114E-01 0.17143917E+04</pdfrwt>
<pdfrwt beam="2">  1       -1 0.22419597E+00 0.17143917E+04</pdfrwt>
<totfact> 0.42953040E+00</totfact>
</mgrwt>
</event>
<event>
12    1  0.1599266E-007  0.1991352E+04  0.7818608E-02  0.8610675E-01
          1   -1    0    0  501    0  0.00000000000E+00  0.00000000000E+00  0.16289695085E+04  0.16289695085E+04  0.00000000000E+00 0. -1.
         -1   -1    0    0    0  501 -0.00000000000E+00 -0.00000000000E+00 -0.60858739289E+03  0.60858739289E+03  0.00000000000E+00 0.  1.
         23    2    1    2    0    0 -0.70787615713E+03 -0.12293605040E+03  0.43462146549E+02  0.72656989987E+03  0.99060258859E+02 0.  0.
        254    2    1    2    0    0  0.70787615713E+03  0.12293605040E+03  0.97691996907E+03  0.15109870015E+04  0.90139179412E+03 0.  0.
        -24    2    4    4    0    0 -0.15449289461E+03 -0.89510448133E+02  0.40944315877E+03  0.45402671682E+03  0.81341161227E+02 0.  0.
         24    2    4    4    0    0  0.86236905175E+03  0.21244649854E+03  0.56747681030E+03  0.10569602847E+04  0.79506082045E+02 0.  0.
         13    1    3    3    0    0 -0.58640690549E+03 -0.13907721399E+03  0.32667753168E+02  0.60355837527E+03  0.00000000000E+00 0.  1.
        -13    1    3    3    0    0 -0.12146925164E+03  0.16141163582E+02  0.10794393382E+02  0.12301152460E+03  0.00000000000E+00 0. -1.
          4    1    6    6  502    0  0.23032559962E+03  0.69167777176E+02  0.11511090689E+03  0.26661692393E+03  0.00000000000E+00 0. -1.
          1    1    5    5  503    0 -0.40790066269E+02 -0.55311178912E+01  0.35849661343E+02  0.54585904680E+02  0.00000000000E+00 0. -1.
         -2    1    5    5    0  503 -0.11370282835E+03 -0.83979330242E+02  0.37359349743E+03  0.39944081214E+03  0.00000000000E+00 0.  1.
         -3    1    6    6    0  502  0.63204345213E+03  0.14327872136E+03  0.45236590341E+03  0.79034336079E+03  0.00000000000E+00 0.  1.
<mgrwt>
<rscale>  0 0.19913516E+04</rscale>
<asrwt>0</asrwt>
<pdfrwt beam="1">  1        1 0.25061069E+00 0.19913516E+04</pdfrwt>
<pdfrwt beam="2">  1       -1 0.93628830E-01 0.19913516E+04</pdfrwt>
<totfact> 0.54737544E+00</totfact>
</mgrwt>
</event>
<event>
12    1  0.1599266E-007  0.1430210E+04  0.7818608E-02  0.8932237E-01
         -2   -1    0    0    0  501 -0.00000000000E+00  0.00000000000E+00  0.15243377470E+03  0.15243377470E+03  0.00000000000E+00 0.  1.
          2   -1    0    0  501    0  0.00000000000E+00 -0.00000000000E+00 -0.33547349467E+04  0.33547349467E+04  0.00000000000E+00 0. -1.
         23    2    1    2    0    0 -0.17412321976E+02 -0.41260755064E+03 -0.91371197549E+03  0.10066386546E+04  0.88902344881E+02 0.  0.
        254    2    1    2    0    0  0.17412321976E+02  0.41260755064E+03 -0.22885891965E+04  0.25005300668E+04  0.91894609465E+03 0.  0.
        -24    2    4    4    0    0 -0.13765240733E+03  0.61644500492E+03 -0.20307365828E+04  0.21281998745E+04  0.79943778436E+02 0.  0.
         24    2    4    4    0    0  0.15506472930E+03 -0.20383745428E+03 -0.25785261368E+03  0.37233019230E+03  0.80913680395E+02 0.  0.
         13    1    3    3    0    0  0.14385853397E+02 -0.98881765241E+02 -0.14836794550E+03  0.17887873973E+03  0.00000000000E+00 0.  1.
        -13    1    3    3    0    0 -0.31798175373E+02 -0.31372578540E+03 -0.76534402999E+03  0.82775991484E+03  0.00000000000E+00 0. -1.
          4    1    6    6  502    0  0.19030872974E+02  0.34982049092E+01 -0.10231150048E+02  0.21888078834E+02  0.00000000000E+00 0. -1.
          1    1    5    5  503    0 -0.49674169483E+02  0.19987139630E+03 -0.79184869991E+03  0.81819341340E+03  0.00000000000E+00 0. -1.
         -2    1    5    5    0  503 -0.87978237844E+02  0.41657360862E+03 -0.12388878829E+04  0.13100064611E+04  0.00000000000E+00 0.  1.
         -3    1    6    6    0  502  0.13603385633E+03 -0.20733565919E+03 -0.24762146363E+03  0.35044211347E+03  0.00000000000E+00 0.  1.
<mgrwt>
<rscale>  0 0.14302097E+04</rscale>
<asrwt>0</asrwt>
<pdfrwt beam="1">  1        2 0.51611305E+00 0.14302097E+04</pdfrwt>
<pdfrwt beam="2">  1       -2 0.23451351E-01 0.14302097E+04</pdfrwt>
<totfact> 0.16227345E+01</totfact>
</mgrwt>
</event>
<event>
12    1  0.1599266E-007  0.1461460E+04  0.7818608E-02  0.8910494E-01
         -2   -1    0    0    0  501 -0.00000000000E+00  0.00000000000E+00  0.43148368891E+03  0.43148368891E+03  0.00000000000E+00 0.  1.
          2   -1    0    0  501    0  0.00000000000E+00 -0.00000000000E+00 -0.12375117806E+04  0.12375117806E+04  0.00000000000E+00 0. -1.
         23    2    1    2    0    0 -0.41630231906E+02 -0.43198724476E+03 -0.37967097558E+03  0.58370090008E+03  0.90612555527E+02 0.  0.
        254    2    1    2    0    0  0.41630231906E+02  0.43198724476E+03 -0.42635711613E+03  0.10852945694E+04  0.89874237474E+03 0.  0.
        -24    2    4    4    0    0 -0.41111608248E+03  0.31337680493E+03 -0.22803140661E+03  0.57053147564E+03  0.79286740122E+02 0.  0.
         24    2    4    4    0    0  0.45274631439E+03  0.11861043983E+03 -0.19832570952E+03  0.51476309380E+03  0.81242193805E+02 0.  0.
         13    1    3    3    0    0 -0.57293477061E-01 -0.38975911164E+02 -0.75605694173E+02  0.85060836611E+02  0.00000000000E+00 0. -1.
        -13    1    3    3    0    0 -0.41572938429E+02 -0.39301133360E+03 -0.30406528140E+03  0.49864006347E+03  0.00000000000E+00 0.  1.
          2    1    6    6  502    0  0.76543698514E+02  0.42701428314E+01 -0.55760734504E+01  0.76865235947E+02  0.00000000000E+00 0. -1.
          3    1    5    5  503    0 -0.26589731428E+03  0.24734969819E+03 -0.16725239151E+03  0.39982073158E+03  0.00000000000E+00 0. -1.
         -4    1    5    5    0  503 -0.14521876820E+03  0.66027106736E+02 -0.60779015100E+02  0.17071074406E+03  0.00000000000E+00 0.  1.
         -3    1    6    6    0  502  0.37620261587E+03  0.11434029700E+03 -0.19274963607E+03  0.43789785786E+03  0.00000000000E+00 0.  1.
<mgrwt>
<rscale>  0 0.14614597E+04</rscale>
<asrwt>0</asrwt>
<pdfrwt beam="1">  1        2 0.19038642E+00 0.14614597E+04</pdfrwt>
<pdfrwt beam="2">  1       -2 0.66382107E-01 0.14614597E+04</pdfrwt>
<totfact> 0.36370786E+01</totfact>
</mgrwt>
</event>
<event>
12    1  0.1599266E-007  0.1272993E+04  0.7818608E-02  0.9051260E-01
         -1   -1    0    0    0  501 -0.00000000000E+00  0.00000000000E+00  0.12116499283E+04  0.12116499283E+04  0.00000000000E+00 0.  1.
          1   -1    0    0  501    0  0.00000000000E+00 -0.00000000000E+00 -0.33436067349E+03  0.33436067349E+03  0.00000000000E+00 0. -1.
         23    2    1    2    0    0 -0.26820185869E+03 -0.74900119771E+02  0.25881674903E+03  0.39082818663E+03  0.90654823019E+02 0.  0.
        254    2    1    2    0    0  0.26820185869E+03  0.74900119771E+02  0.61847250581E+03  0.11551824152E+04  0.93509138965E+03 0.  0.
        -24    2    4    4    0    0  0.38695643553E+03 -0.22073887596E+03  0.68370171312E+03  0.82004268421E+03  0.81000228687E+02 0.  0.
         24    2    4    4    0    0 -0.11875457684E+03  0.29563899573E+03 -0.65229207311E+02  0.33513973099E+03  0.80985952383E+02 0.  0.
         13    1    3    3    0    0 -0.16182768769E+03 -0.53676164555E+01  0.17595209571E+03  0.23911535248E+03  0.00000000000E+00 0.  1.
        -13    1    3    3    0    0 -0.10637417100E+03 -0.69532503316E+02  0.82864653324E+02  0.15171283415E+03  0.00000000000E+00 0. -1.
          4    1    6    6  502    0 -0.11900622787E+03  0.28482486041E+03 -0.44661737971E+02  0.31190119304E+03  0.00000000000E+00 0. -1.
          3    1    5    5  503    0  0.36658264841E+03 -0.22597635996E+03  0.63803976434E+03  0.76976807822E+03  0.00000000000E+00 0. -1.
         -4    1    5    5    0  503  0.20373787118E+02  0.52374840080E+01  0.45661948788E+02  0.50274605989E+02  0.00000000000E+00 0.  1.
         -3    1    6    6    0  502  0.25165102637E+00  0.10814135314E+02 -0.20567469340E+02  0.23238537946E+02  0.00000000000E+00 0.  1.
<mgrwt>
<rscale>  0 0.12729935E+04</rscale>
<asrwt>0</asrwt>
<pdfrwt beam="1">  1        1 0.51440104E-01 0.12729935E+04</pdfrwt>
<pdfrwt beam="2">  1       -1 0.18640768E+00 0.12729935E+04</pdfrwt>
<totfact> 0.14026050E+01</totfact>
</mgrwt>
</event>
<event>
12    1  0.1599266E-007  0.2250065E+04  0.7818608E-02  0.8497874E-01
         -2   -1    0    0    0  501 -0.00000000000E+00  0.00000000000E+00  0.99659358117E+03  0.99659358117E+03  0.00000000000E+00 0.  1.
          2   -1    0    0  501    0  0.00000000000E+00 -0.00000000000E+00 -0.12700238791E+04  0.12700238791E+04  0.00000000000E+00 0. -1.
         23    2    1    2    0    0  0.55301068078E+03 -0.74160756235E+03  0.64173523176E+02  0.93187361087E+03  0.92019541212E+02 0.  0.
        254    2    1    2    0    0 -0.55301068078E+03  0.74160756235E+03 -0.33760382109E+03  0.13347438494E+04  0.90097847580E+03 0.  0.
        -24    2    4    4    0    0  0.15503832117E+03 -0.39109824818E+02  0.82209930111E+02  0.19744859786E+03  0.81615052278E+02 0.  0.
         24    2    4    4    0    0 -0.70804900196E+03  0.78071738717E+03 -0.41981375120E+03  0.11372952515E+04  0.79648450323E+02 0.  0.
         11    1    3    3    0    0  0.31817588456E+03 -0.42455504465E+03 -0.88475489594E+01  0.53062336792E+03  0.00000000000E+00 0.  1.
        -11    1    3    3    0    0  0.23483479622E+03 -0.31705251770E+03  0.73021072136E+02  0.40125024295E+03  0.00000000000E+00 0. -1.
          4    1    6    6  502    0 -0.19667423287E+03  0.16683658215E+03 -0.10916798685E+03  0.28005865167E+03  0.00000000000E+00 0. -1.
          1    1    5    5  503    0  0.81834738005E+02 -0.25787025062E+02 -0.10214251620E+01  0.85807565606E+02  0.00000000000E+00 0. -1.
         -2    1    5    5    0  503  0.73203583167E+02 -0.13322799757E+02  0.83231355273E+02  0.11164103225E+03  0.00000000000E+00 0.  1.
         -3    1    6    6    0  502 -0.51137476908E+03  0.61388080502E+03 -0.31064576435E+03  0.85723659985E+03  0.00000000000E+00 0.  1.
<mgrwt>
<rscale>  0 0.22500646E+04</rscale>
<asrwt>0</asrwt>
<pdfrwt beam="1">  1        2 0.19538829E+00 0.22500646E+04</pdfrwt>
<pdfrwt beam="2">  1       -2 0.15332209E+00 0.22500646E+04</pdfrwt>
<totfact> 0.44294035E+00</totfact>
</mgrwt>
</event>
<event>
12    1  0.1599266E-007  0.1374405E+04  0.7818608E-02  0.8972556E-01
         -2   -1    0    0    0  501 -0.00000000000E+00  0.00000000000E+00  0.82239764425E+03  0.82239764425E+03  0.00000000000E+00 0.  1.
          2   -1    0    0  501    0  0.00000000000E+00 -0.00000000000E+00 -0.57423254207E+03  0.57423254207E+03  0.00000000000E+00 0. -1.
         23    2    1    2    0    0  0.16220202736E+03 -0.29826856118E+03 -0.11366393576E+03  0.36969891464E+03  0.92109526814E+02 0.  0.
        254    2    1    2    0    0 -0.16220202736E+03  0.29826856118E+03  0.36182903794E+03  0.10269312717E+04  0.89910730827E+03 0.  0.
        -24    2    4    4    0    0  0.13364739609E+03 -0.59054215997E+02 -0.22137695197E+03  0.27732423159E+03  0.80944102042E+02 0.  0.
         24    2    4    4    0    0 -0.29584942345E+03  0.35732277717E+03  0.58320598991E+03  0.74960704008E+03  0.81086616779E+02 0.  0.
         13    1    3    3    0    0  0.72364648761E+02 -0.13784403696E+03 -0.42537926355E+01  0.15574246584E+03  0.00000000000E+00 0.  1.
        -13    1    3    3    0    0  0.89837378601E+02 -0.16042452422E+03 -0.10941014313E+03  0.21395644880E+03  0.00000000000E+00 0. -1.
          2    1    6    6  502    0 -0.20290767832E+03  0.23546140024E+03  0.44777427325E+03  0.54508292646E+03  0.00000000000E+00 0. -1.
          3    1    5    5  503    0  0.12575606320E+03 -0.21375493957E+02 -0.18204877701E+03  0.22229092735E+03  0.00000000000E+00 0. -1.
         -4    1    5    5    0  503  0.78913328875E+01 -0.37678722041E+02 -0.39328174967E+02  0.55033304240E+02  0.00000000000E+00 0.  1.
         -1    1    6    6    0  502 -0.92941745129E+02  0.12186137693E+03  0.13543171666E+03  0.20452411362E+03  0.00000000000E+00 0.  1.
<mgrwt>
<rscale>  0 0.13744053E+04</rscale>
<asrwt>0</asrwt>
<pdfrwt beam="1">  1        2 0.88343468E-01 0.13744053E+04</pdfrwt>
<pdfrwt beam="2">  1       -2 0.12652271E+00 0.13744053E+04</pdfrwt>
<totfact> 0.23706063E+01</totfact>
</mgrwt>
</event>
<event>
12    1  0.1599266E-007  0.1402839E+04  0.7818608E-02  0.8951766E-01
          2   -1    0    0  501    0  0.00000000000E+00  0.00000000000E+00  0.87614084873E+03  0.87614084873E+03  0.00000000000E+00 0. -1.
         -2   -1    0    0    0  501 -0.00000000000E+00 -0.00000000000E+00 -0.56154115644E+03  0.56154115644E+03  0.00000000000E+00 0.  1.
         23    2    1    2    0    0 -0.23352656380E+03 -0.15566175916E+03 -0.20648606730E+03  0.36279201396E+03  0.10107576436E+03 0.  0.
        254    2    1    2    0    0  0.23352656380E+03  0.15566175916E+03  0.52108575959E+03  0.10748899912E+04  0.89726968360E+03 0.  0.
        -24    2    4    4    0    0  0.48944348110E+03  0.34451991572E+03  0.40291729594E+03  0.72637216810E+03  0.83816977375E+02 0.  0.
         24    2    4    4    0    0 -0.25591691730E+03 -0.18885815657E+03  0.11816846365E+03  0.34851782312E+03  0.79624213456E+02 0.  0.
         13    1    3    3    0    0 -0.21693482797E+01  0.10730398155E+02 -0.18173304471E+02  0.21215949470E+02  0.00000000000E+00 0. -1.
        -13    1    3    3    0    0 -0.23135721552E+03 -0.16639215731E+03 -0.18831276283E+03  0.34157606449E+03  0.00000000000E+00 0.  1.
          4    1    6    6  502    0 -0.12936749247E+03 -0.77442213657E+02  0.16611658151E+02  0.15168781016E+03  0.00000000000E+00 0. -1.
          1    1    5    5  503    0  0.37375731505E+03  0.22532006979E+03  0.31668124272E+03  0.53921301347E+03  0.00000000000E+00 0. -1.
         -2    1    5    5    0  503  0.11568616605E+03  0.11919984593E+03  0.86236053218E+02  0.18715915462E+03  0.00000000000E+00 0.  1.
         -3    1    6    6    0  502 -0.12654942483E+03 -0.11141594291E+03  0.10155680550E+03  0.19683001296E+03  0.00000000000E+00 0.  1.
<mgrwt>
<rscale>  0 0.14028388E+04</rscale>
<asrwt>0</asrwt>
<pdfrwt beam="1">  1        2 0.13479090E+00 0.14028388E+04</pdfrwt>
<pdfrwt beam="2">  1       -2 0.86390948E-01 0.14028388E+04</pdfrwt>
<totfact> 0.34405455E+01</totfact>
</mgrwt>
</event>
<event>
12    1  0.1599266E-007  0.3485262E+04  0.7818608E-02  0.8117292E-01
          3   -1    0    0  501    0  0.00000000000E+00  0.00000000000E+00  0.99576084308E+03  0.99576084308E+03  0.00000000000E+00 0. -1.
         -3   -1    0    0    0  501 -0.00000000000E+00 -0.00000000000E+00 -0.30496912446E+04  0.30496912446E+04  0.00000000000E+00 0.  1.
         23    2    1    2    0    0  0.16826731874E+03 -0.58174234465E+03  0.79726815251E+03  0.10053666823E+04  0.91583911387E+02 0.  0.
        254    2    1    2    0    0 -0.16826731874E+03  0.58174234465E+03 -0.28511985540E+04  0.30400854053E+04  0.86374071987E+03 0.  0.
        -24    2    4    4    0    0 -0.10774901233E+03 -0.20039927289E+03 -0.98135951685E+03  0.10107509306E+04  0.82348188096E+02 0.  0.
         24    2    4    4    0    0 -0.60518306411E+02  0.78214161754E+03 -0.18698390372E+04  0.20293344748E+04  0.80575494267E+02 0.  0.
         13    1    3    3    0    0  0.11081607651E+03 -0.36143197183E+03  0.56760849397E+03  0.68197703444E+03  0.00000000000E+00 0. -1.
        -13    1    3    3    0    0  0.57451242235E+02 -0.22031037282E+03  0.22965965855E+03  0.32338964790E+03  0.00000000000E+00 0.  1.
          4    1    6    6  502    0  0.14146446432E+02  0.13777981245E+03 -0.28463095395E+03  0.31654095882E+03  0.00000000000E+00 0. -1.
          1    1    5    5  503    0 -0.10006405091E+03 -0.13578818404E+03 -0.81174125825E+03  0.82908088601E+03  0.00000000000E+00 0. -1.
         -2    1    5    5    0  503 -0.76849614222E+01 -0.64611088854E+02 -0.16961825860E+03  0.18167004455E+03  0.00000000000E+00 0.  1.
         -3    1    6    6    0  502 -0.74664752843E+02  0.64436180509E+03 -0.15852080832E+04  0.17127935159E+04  0.00000000000E+00 0.  1.
<mgrwt>
<rscale>  0 0.34852622E+04</rscale>
<asrwt>0</asrwt>
<pdfrwt beam="1">  1        3 0.15319398E+00 0.34852622E+04</pdfrwt>
<pdfrwt beam="2">  1       -3 0.46918327E+00 0.34852622E+04</pdfrwt>
<totfact> 0.28889262E-03</totfact>
</mgrwt>
</event>
<event>
12    1  0.1599266E-007  0.1404674E+04  0.7818608E-02  0.8950442E-01
          2   -1    0    0  501    0  0.00000000000E+00  0.00000000000E+00  0.17081786594E+04  0.17081786594E+04  0.00000000000E+00 0. -1.
         -2   -1    0    0    0  501 -0.00000000000E+00 -0.00000000000E+00 -0.28877385398E+03  0.28877385398E+03  0.00000000000E+00 0.  1.
         23    2    1    2    0    0  0.31915347145E+03  0.12421070818E+03  0.47864801173E+02  0.35755246758E+03  0.90914737613E+02 0.  0.
        254    2    1    2    0    0 -0.31915347145E+03 -0.12421070818E+03  0.13715400042E+04  0.16394000458E+04  0.83019472929E+03 0.  0.
        -24    2    4    4    0    0 -0.10818995895E+03  0.23403833245E+03  0.11071163839E+04  0.11399774742E+04  0.85807610175E+02 0.  0.
         24    2    4    4    0    0 -0.21096351250E+03 -0.35824904063E+03  0.26442362029E+03  0.49942257152E+03  0.81578644620E+02 0.  0.
         11    1    3    3    0    0  0.76155388256E+02  0.25653640713E+02 -0.27127788484E+02  0.84815501828E+02  0.00000000000E+00 0. -1.
        -11    1    3    3    0    0  0.24299808320E+03  0.98557067472E+02  0.74992589657E+02  0.27273696576E+03  0.00000000000E+00 0.  1.
          4    1    6    6  502    0 -0.10145498666E+03 -0.17708448656E+03  0.81895732050E+02  0.21990666344E+03  0.00000000000E+00 0. -1.
          3    1    5    5  503    0 -0.84468319337E+02  0.10414673292E+03  0.67281468447E+03  0.68604740258E+03  0.00000000000E+00 0. -1.
         -4    1    5    5    0  503 -0.23721639615E+02  0.12989159953E+03  0.43430169945E+03  0.45393007166E+03  0.00000000000E+00 0.  1.
         -3    1    6    6    0  502 -0.10950852584E+03 -0.18116455407E+03  0.18252788824E+03  0.27951590808E+03  0.00000000000E+00 0.  1.
<mgrwt>
<rscale>  0 0.14046741E+04</rscale>
<asrwt>0</asrwt>
<pdfrwt beam="1">  1        2 0.26279671E+00 0.14046741E+04</pdfrwt>
<pdfrwt beam="2">  1       -2 0.44426748E-01 0.14046741E+04</pdfrwt>
<totfact> 0.45364194E+01</totfact>
</mgrwt>
</event>
<event>
12    1  0.1599266E-007  0.2480525E+04  0.7818608E-02  0.8409957E-01
          1   -1    0    0  501    0  0.00000000000E+00  0.00000000000E+00  0.14120308306E+04  0.14120308306E+04  0.00000000000E+00 0. -1.
         -1   -1    0    0    0  501 -0.00000000000E+00 -0.00000000000E+00 -0.10893887591E+04  0.10893887591E+04  0.00000000000E+00 0.  1.
         23    2    1    2    0    0 -0.25480978085E+02 -0.44759435008E+03  0.11277201064E+04  0.12170239685E+04  0.91677255123E+02 0.  0.
        254    2    1    2    0    0  0.25480978085E+02  0.44759435008E+03 -0.80507803487E+03  0.12843956211E+04  0.89472425185E+03 0.  0.
        -24    2    4    4    0    0  0.62146665784E+01  0.43938134511E+03  0.27655779150E+02  0.44753462894E+03  0.80173645738E+02 0.  0.
         24    2    4    4    0    0  0.19266311507E+02  0.82130049702E+01 -0.83273381402E+03  0.83686099217E+03  0.80324784485E+02 0.  0.
         13    1    3    3    0    0  0.16463899316E+02 -0.34889518467E+02  0.57733992503E+02  0.69437398928E+02  0.00000000000E+00 0.  1.
        -13    1    3    3    0    0 -0.41944877401E+02 -0.41270483162E+03  0.10699861139E+04  0.11475865696E+04  0.00000000000E+00 0. -1.
          4    1    6    6  502    0 -0.39672443774E+01  0.36855715196E+02 -0.60729905281E+03  0.60842930757E+03  0.00000000000E+00 0. -1.
          3    1    5    5  503    0 -0.50472571996E+01  0.22529743521E+03  0.53457307080E+02  0.23160762681E+03  0.00000000000E+00 0. -1.
         -4    1    5    5    0  503  0.11261923778E+02  0.21408390990E+03 -0.25801527930E+02  0.21592700213E+03  0.00000000000E+00 0.  1.
         -3    1    6    6    0  502  0.23233555884E+02 -0.28642710226E+02 -0.22543476120E+03  0.22843168460E+03  0.00000000000E+00 0.  1.
<mgrwt>
<rscale>  0 0.24805246E+04</rscale>
<asrwt>0</asrwt>
<pdfrwt beam="1">  1        1 0.21723551E+00 0.24805246E+04</pdfrwt>
<pdfrwt beam="2">  1       -1 0.16759827E+00 0.24805246E+04</pdfrwt>
<totfact> 0.17187904E+00</totfact>
</mgrwt>
</event>
<event>
12    1  0.1599266E-007  0.1959528E+04  0.7818608E-02  0.8625780E-01
         -2   -1    0    0    0  501 -0.00000000000E+00  0.00000000000E+00  0.90746886248E+03  0.90746886248E+03  0.00000000000E+00 0.  1.
          2   -1    0    0  501    0  0.00000000000E+00 -0.00000000000E+00 -0.10578187109E+04  0.10578187109E+04  0.00000000000E+00 0. -1.
         23    2    1    2    0    0 -0.39198567326E+03  0.49006600026E+03  0.20520574205E+03  0.66650148180E+03  0.91089933643E+02 0.  0.
        254    2    1    2    0    0  0.39198567326E+03 -0.49006600026E+03 -0.35555559047E+03  0.12987860916E+04  0.10800963296E+04 0.  0.
        -24    2    4    4    0    0  0.40470250044E+03  0.66238260858E+02 -0.56159095566E+03  0.70000873043E+03  0.80350483035E+02 0.  0.
         24    2    4    4    0    0 -0.12716827184E+02 -0.55630426112E+03  0.20603536519E+03  0.59877736116E+03  0.80296998045E+02 0.  0.
         11    1    3    3    0    0 -0.37147317279E+03  0.41822419621E+03  0.17878115206E+03  0.58725334970E+03  0.00000000000E+00 0.  1.
        -11    1    3    3    0    0 -0.20512500468E+02  0.71841804047E+02  0.26424589990E+02  0.79248132094E+02  0.00000000000E+00 0. -1.
          4    1    6    6  502    0  0.97417866541E+00 -0.11025251210E+03  0.79950865120E+01  0.11054631092E+03  0.00000000000E+00 0. -1.
          1    1    5    5  503    0  0.10077319286E+03  0.31817073149E+02 -0.95018216689E+02  0.14211271599E+03  0.00000000000E+00 0. -1.
         -2    1    5    5    0  503  0.30392930758E+03  0.34421187709E+02 -0.46657273898E+03  0.55789601444E+03  0.00000000000E+00 0.  1.
         -3    1    6    6    0  502 -0.13691005850E+02 -0.44605174902E+03  0.19804027868E+03  0.48823105024E+03  0.00000000000E+00 0.  1.
<mgrwt>
<rscale>  0 0.19595280E+04</rscale>
<asrwt>0</asrwt>
<pdfrwt beam="1">  1        2 0.16274134E+00 0.19595280E+04</pdfrwt>
<pdfrwt beam="2">  1       -2 0.13961060E+00 0.19595280E+04</pdfrwt>
<totfact> 0.78046235E+00</totfact>
</mgrwt>
</event>
<event>
12    1  0.1599266E-007  0.2210367E+04  0.7818608E-02  0.8514126E-01
         -2   -1    0    0    0  501 -0.00000000000E+00  0.00000000000E+00  0.64595989190E+03  0.64595989190E+03  0.00000000000E+00 0.  1.
          2   -1    0    0  501    0  0.00000000000E+00 -0.00000000000E+00 -0.18908759679E+04  0.18908759679E+04  0.00000000000E+00 0. -1.
         23    2    1    2    0    0 -0.28590956637E+03  0.64608623845E+03  0.16185459200E+03  0.73051202344E+03  0.90990108141E+02 0.  0.
        254    2    1    2    0    0  0.28590956637E+03 -0.64608623845E+03 -0.14067706680E+04  0.18063238364E+04  0.88579364519E+03 0.  0.
        -24    2    4    4    0    0  0.27021879214E+03 -0.16717174474E+03 -0.12553780990E+04  0.12974053290E+04  0.79509927885E+02 0.  0.
         24    2    4    4    0    0  0.15690774236E+02 -0.47891449370E+03 -0.15139256909E+03  0.50891850736E+03  0.80455232815E+02 0.  0.
         13    1    3    3    0    0 -0.13113950526E+03  0.29162606439E+03  0.11978199889E+03  0.34145432861E+03  0.00000000000E+00 0.  1.
        -13    1    3    3    0    0 -0.15477006111E+03  0.35446017406E+03  0.42072593109E+02  0.38905769482E+03  0.00000000000E+00 0. -1.
          4    1    6    6  502    0 -0.12536737472E+02 -0.69069280381E+02  0.24526742325E+01  0.70240664075E+02  0.00000000000E+00 0. -1.
          1    1    5    5  503    0  0.15089529749E+03 -0.11685096815E+03 -0.60983201817E+03  0.63899814550E+03  0.00000000000E+00 0. -1.
         -2    1    5    5    0  503  0.11932349465E+03 -0.50320776598E+02 -0.64554608078E+03  0.65840718354E+03  0.00000000000E+00 0.  1.
         -3    1    6    6    0  502  0.28227511708E+02 -0.40984521332E+03 -0.15384524332E+03  0.43867784329E+03  0.00000000000E+00 0.  1.
<mgrwt>
<rscale>  0 0.22103665E+04</rscale>
<asrwt>0</asrwt>
<pdfrwt beam="1">  1        2 0.29090399E+00 0.22103665E+04</pdfrwt>
<pdfrwt beam="2">  1       -2 0.99378446E-01 0.22103665E+04</pdfrwt>
<totfact> 0.58814612E+00</totfact>
</mgrwt>
</event>
<event>
12    1  0.1599266E-007  0.1378209E+04  0.7818608E-02  0.8969745E-01
          2   -1    0    0  501    0  0.00000000000E+00  0.00000000000E+00  0.83184949466E+03  0.83184949466E+03  0.00000000000E+00 0. -1.
         -2   -1    0    0    0  501 -0.00000000000E+00 -0.00000000000E+00 -0.57085476701E+03  0.57085476701E+03  0.00000000000E+00 0.  1.
         23    2    1    2    0    0 -0.24473456490E+03  0.71288290548E+02 -0.21982265280E+03  0.34770012036E+03  0.87157027188E+02 0.  0.
        254    2    1    2    0    0  0.24473456490E+03 -0.71288290548E+02  0.48081738045E+03  0.10550041413E+04  0.90380935889E+03 0.  0.
        -24    2    4    4    0    0 -0.27291373589E+03 -0.25702176982E+03  0.20704685195E+03  0.43551099781E+03  0.79115945992E+02 0.  0.
         24    2    4    4    0    0  0.51764830079E+03  0.18573347927E+03  0.27377052850E+03  0.61949314351E+03  0.79779470676E+02 0.  0.
         11    1    3    3    0    0 -0.97232216327E+02 -0.12836101339E+02 -0.63073665143E+02  0.11660684639E+03  0.00000000000E+00 0. -1.
        -11    1    3    3    0    0 -0.14750234857E+03  0.84124391886E+02 -0.15674898765E+03  0.23109327397E+03  0.00000000000E+00 0.  1.
          2    1    6    6  502    0  0.13195904822E+03  0.11924747881E+02  0.58677264971E+02  0.14490828632E+03  0.00000000000E+00 0. -1.
          1    1    5    5  503    0  0.13635428795E+01  0.87220555302E+00  0.10859978298E+02  0.10979941728E+02  0.00000000000E+00 0. -1.
         -2    1    5    5    0  503 -0.27427727877E+03 -0.25789397537E+03  0.19618687365E+03  0.42453105608E+03  0.00000000000E+00 0.  1.
         -1    1    6    6    0  502  0.38568925257E+03  0.17380873139E+03  0.21509326353E+03  0.47458485719E+03  0.00000000000E+00 0.  1.
<mgrwt>
<rscale>  0 0.13782093E+04</rscale>
<asrwt>0</asrwt>
<pdfrwt beam="1">  1        2 0.12797684E+00 0.13782093E+04</pdfrwt>
<pdfrwt beam="2">  1       -2 0.87823811E-01 0.13782093E+04</pdfrwt>
<totfact> 0.35637468E+01</totfact>
</mgrwt>
</event>
<event>
12    1  0.1599266E-007  0.1440267E+04  0.7818608E-02  0.8925176E-01
          1   -1    0    0  501    0  0.00000000000E+00  0.00000000000E+00  0.22156109358E+04  0.22156109358E+04  0.00000000000E+00 0. -1.
         -1   -1    0    0    0  501 -0.00000000000E+00 -0.00000000000E+00 -0.23406301810E+03  0.23406301810E+03  0.00000000000E+00 0.  1.
         23    2    1    2    0    0 -0.19729742066E+03 -0.31205819055E+03  0.22512902832E+03  0.44196240834E+03  0.91329647465E+02 0.  0.
        254    2    1    2    0    0  0.19729742066E+03  0.31205819055E+03  0.17564188893E+04  0.20077115455E+04  0.89977316513E+03 0.  0.
        -24    2    4    4    0    0  0.10925339668E+03 -0.30355295959E+03  0.45814407960E+03  0.56593718056E+03  0.79424119204E+02 0.  0.
         24    2    4    4    0    0  0.88044023978E+02  0.61561115015E+03  0.12982748097E+04  0.14417743650E+04  0.80417656569E+02 0.  0.
         11    1    3    3    0    0 -0.10483658213E+02 -0.35065518497E+02 -0.40334741799E+01  0.36820735883E+02  0.00000000000E+00 0.  1.
        -11    1    3    3    0    0 -0.18681376245E+03 -0.27699267206E+03  0.22916250250E+03  0.40514167246E+03  0.00000000000E+00 0. -1.
          2    1    6    6  502    0  0.47521725531E+01  0.19955760739E+03  0.48485311536E+03  0.52433611862E+03  0.00000000000E+00 0. -1.
          3    1    5    5  503    0 -0.82184193601E+01 -0.34157094145E+01  0.62370654969E+01  0.10867864261E+02  0.00000000000E+00 0. -1.
         -4    1    5    5    0  503  0.11747181604E+03 -0.30013725018E+03  0.45190701410E+03  0.55506931630E+03  0.00000000000E+00 0.  1.
         -1    1    6    6    0  502  0.83291851425E+02  0.41605354276E+03  0.81342169439E+03  0.91743824634E+03  0.00000000000E+00 0.  1.
<mgrwt>
<rscale>  0 0.14402675E+04</rscale>
<asrwt>0</asrwt>
<pdfrwt beam="1">  1        1 0.34086321E+00 0.14402675E+04</pdfrwt>
<pdfrwt beam="2">  1       -1 0.36009697E-01 0.14402675E+04</pdfrwt>
<totfact> 0.15258093E+01</totfact>
</mgrwt>
</event>
<event>
12    1  0.1599266E-007  0.2551892E+04  0.7818608E-02  0.8384729E-01
         -1   -1    0    0    0  501 -0.00000000000E+00  0.00000000000E+00  0.12753818527E+04  0.12753818527E+04  0.00000000000E+00 0.  1.
          1   -1    0    0  501    0  0.00000000000E+00 -0.00000000000E+00 -0.12765100249E+04  0.12765100249E+04  0.00000000000E+00 0. -1.
         23    2    1    2    0    0 -0.36541503039E+03  0.47611096477E+03 -0.94270706282E+03  0.11205910785E+04  0.82570961990E+02 0.  0.
        254    2    1    2    0    0  0.36541503039E+03 -0.47611096477E+03  0.94157889059E+03  0.14313007991E+04  0.89545595939E+03 0.  0.
        -24    2    4    4    0    0  0.60299916418E+03 -0.25194240922E+03  0.86463451096E+03  0.10866555247E+04  0.78386365622E+02 0.  0.
         24    2    4    4    0    0 -0.23758413378E+03 -0.22416855555E+03  0.76944379632E+02  0.34464527442E+03  0.78499463027E+02 0.  0.
         13    1    3    3    0    0 -0.28762416437E+03  0.32136257110E+03 -0.70550257660E+03  0.82688297094E+03  0.00000000000E+00 0. -1.
        -13    1    3    3    0    0 -0.77790866026E+02  0.15474839367E+03 -0.23720448621E+03  0.29370810758E+03  0.00000000000E+00 0.  1.
          4    1    6    6  502    0 -0.97793409987E+02 -0.70312393147E+02 -0.65541851606E+01  0.12062479434E+03  0.00000000000E+00 0. -1.
          3    1    5    5  503    0  0.92436244668E+02 -0.40581047669E+02  0.18475484574E+03  0.21053653788E+03  0.00000000000E+00 0. -1.
         -4    1    5    5    0  503  0.51056291951E+03 -0.21136136155E+03  0.67987966522E+03  0.87611898685E+03  0.00000000000E+00 0.  1.
         -3    1    6    6    0  502 -0.13979072380E+03 -0.15385616241E+03  0.83498564793E+02  0.22402048007E+03  0.00000000000E+00 0.  1.
<mgrwt>
<rscale>  0 0.25518916E+04</rscale>
<asrwt>0</asrwt>
<pdfrwt beam="1">  1        1 0.19638616E+00 0.25518916E+04</pdfrwt>
<pdfrwt beam="2">  1       -1 0.19621259E+00 0.25518916E+04</pdfrwt>
<totfact> 0.13297196E+00</totfact>
</mgrwt>
</event>
<event>
12    1  0.1599266E-007  0.3105903E+04  0.7818608E-02  0.8214120E-01
          2   -1    0    0  501    0  0.00000000000E+00  0.00000000000E+00  0.21994774969E+04  0.21994774969E+04  0.00000000000E+00 0. -1.
         -2   -1    0    0    0  501 -0.00000000000E+00 -0.00000000000E+00 -0.10964688234E+04  0.10964688234E+04  0.00000000000E+00 0.  1.
         23    2    1    2    0    0 -0.16758388825E+03  0.12585603359E+04  0.11662935236E+04  0.17265446749E+04  0.93045432597E+02 0.  0.
        254    2    1    2    0    0  0.16758388825E+03 -0.12585603359E+04 -0.63284850114E+02  0.15694016455E+04  0.92030325097E+03 0.  0.
        -24    2    4    4    0    0  0.53062664468E+03 -0.59458070184E+03  0.37817826704E+02  0.80177573155E+03  0.79519108594E+02 0.  0.
         24    2    4    4    0    0 -0.36304275643E+03 -0.66397963409E+03 -0.10110267682E+03  0.76762591391E+03  0.79742052684E+02 0.  0.
         13    1    3    3    0    0 -0.11243888609E+03  0.10885507911E+04  0.10034900325E+04  0.14847819952E+04  0.00000000000E+00 0. -1.
        -13    1    3    3    0    0 -0.55145002158E+02  0.17000954481E+03  0.16280349116E+03  0.24176267975E+03  0.00000000000E+00 0.  1.
          2    1    6    6  502    0 -0.10703311182E+03 -0.27016733445E+03 -0.53842066519E+02  0.29554262595E+03  0.00000000000E+00 0. -1.
          3    1    5    5  503    0  0.19869029711E+03 -0.16683221965E+03  0.10762411350E+02  0.25966642674E+03  0.00000000000E+00 0. -1.
         -4    1    5    5    0  503  0.33193634758E+03 -0.42774848219E+03  0.27055415354E+02  0.54210930480E+03  0.00000000000E+00 0.  1.
         -1    1    6    6    0  502 -0.25600964462E+03 -0.39381229964E+03 -0.47260610300E+02  0.47208328796E+03  0.00000000000E+00 0.  1.
<mgrwt>
<rscale>  0 0.31059031E+04</rscale>
<asrwt>0</asrwt>
<pdfrwt beam="1">  1        2 0.33838115E+00 0.31059031E+04</pdfrwt>
<pdfrwt beam="2">  1       -2 0.16868751E+00 0.31059031E+04</pdfrwt>
<totfact> 0.95496411E-01</totfact>
</mgrwt>
</event>
<event>
12    1  0.1599266E-007  0.2551171E+04  0.7818608E-02  0.8384979E-01
         -2   -1    0    0    0  501 -0.00000000000E+00  0.00000000000E+00  0.72182049217E+03  0.72182049217E+03  0.00000000000E+00 0.  1.
          2   -1    0    0  501    0  0.00000000000E+00 -0.00000000000E+00 -0.22541878676E+04  0.22541878676E+04  0.00000000000E+00 0. -1.
         23    2    1    2    0    0  0.16705292060E+03  0.54260327927E+03  0.45482795804E+03  0.73332910886E+03  0.92618105841E+02 0.  0.
        254    2    1    2    0    0 -0.16705292060E+03 -0.54260327927E+03 -0.19871953335E+04  0.22426792509E+04  0.87082715403E+03 0.  0.
        -24    2    4    4    0    0 -0.96192421818E+02 -0.57083222035E+02 -0.16168502162E+04  0.16226569236E+04  0.79368720562E+02 0.  0.
         24    2    4    4    0    0 -0.70860498778E+02 -0.48552005724E+03 -0.37034511731E+03  0.62002232736E+03  0.80754221260E+02 0.  0.
         11    1    3    3    0    0  0.20896260566E+02  0.56113816441E+02  0.15799281793E+02  0.61927630396E+02  0.00000000000E+00 0. -1.
        -11    1    3    3    0    0  0.14615666003E+03  0.48648946283E+03  0.43902867625E+03  0.67140147846E+03  0.00000000000E+00 0.  1.
          4    1    6    6  502    0 -0.37094752960E+02 -0.15668755444E+03 -0.78819067476E+02  0.17927480529E+03  0.00000000000E+00 0. -1.
          1    1    5    5  503    0  0.69294599720E+01 -0.25709069740E+02 -0.46958451393E+03  0.47033880278E+03  0.00000000000E+00 0. -1.
         -2    1    5    5    0  503 -0.10312188179E+03 -0.31374152295E+02 -0.11472657022E+04  0.11523181208E+04  0.00000000000E+00 0.  1.
         -3    1    6    6    0  502 -0.33765745818E+02 -0.32883250280E+03 -0.29152604983E+03  0.44074752208E+03  0.00000000000E+00 0.  1.
<mgrwt>
<rscale>  0 0.25511715E+04</rscale>
<asrwt>0</asrwt>
<pdfrwt beam="1">  1        2 0.34679813E+00 0.25511715E+04</pdfrwt>
<pdfrwt beam="2">  1       -2 0.11104931E+00 0.25511715E+04</pdfrwt>
<totfact> 0.27440461E+00</totfact>
</mgrwt>
</event>
<event>
12    1  0.1599266E-007  0.2831503E+04  0.7818608E-02  0.8293554E-01
          2   -1    0    0  501    0  0.00000000000E+00  0.00000000000E+00  0.30739274302E+04  0.30739274302E+04  0.00000000000E+00 0. -1.
         -2   -1    0    0    0  501 -0.00000000000E+00 -0.00000000000E+00 -0.65204950877E+03  0.65204950877E+03  0.00000000000E+00 0.  1.
         23    2    1    2    0    0 -0.75472991308E+03 -0.97201897060E+03  0.14597518077E+04  0.19114121705E+04  0.90460071781E+02 0.  0.
        254    2    1    2    0    0  0.75472991308E+03  0.97201897060E+03  0.96212611372E+03  0.18145647684E+04  0.92332037739E+03 0.  0.
        -24    2    4    4    0    0  0.67727989171E+03  0.29780585355E+03  0.83706647823E+03  0.11199928461E+04  0.79418563375E+02 0.  0.
         24    2    4    4    0    0  0.77450021375E+02  0.67421311705E+03  0.12505963548E+03  0.69457192235E+03  0.78920275478E+02 0.  0.
         11    1    3    3    0    0 -0.72746340772E+03 -0.93314722759E+03  0.14270288644E+04  0.18537470534E+04  0.00000000000E+00 0. -1.
        -11    1    3    3    0    0 -0.27266505365E+02 -0.38871743004E+02  0.32722943253E+02  0.57665117134E+02  0.00000000000E+00 0.  1.
          2    1    6    6  502    0  0.90308117216E+02  0.52191540285E+03  0.11018622004E+03  0.54101039441E+03  0.00000000000E+00 0. -1.
          1    1    5    5  503    0  0.50785765804E+03  0.22925693096E+03  0.67896148382E+03  0.87833184944E+03  0.00000000000E+00 0. -1.
         -2    1    5    5    0  503  0.16942223367E+03  0.68548922584E+02  0.15810499442E+03  0.24166099666E+03  0.00000000000E+00 0.  1.
         -1    1    6    6    0  502 -0.12858095841E+02  0.15229771420E+03  0.14873415448E+02  0.15356152795E+03  0.00000000000E+00 0.  1.
<mgrwt>
<rscale>  0 0.28315034E+04</rscale>
<asrwt>0</asrwt>
<pdfrwt beam="1">  1        2 0.47291190E+00 0.28315034E+04</pdfrwt>
<pdfrwt beam="2">  1       -2 0.10031531E+00 0.28315034E+04</pdfrwt>
<totfact> 0.11121133E+00</totfact>
</mgrwt>
</event>
<event>
12    1  0.1599266E-007  0.1254671E+04  0.7818608E-02  0.9066305E-01
          4   -1    0    0  501    0  0.00000000000E+00  0.00000000000E+00  0.34261986652E+03  0.34261986652E+03  0.00000000000E+00 0. -1.
         -4   -1    0    0    0  501 -0.00000000000E+00 -0.00000000000E+00 -0.11486484917E+04  0.11486484917E+04  0.00000000000E+00 0.  1.
         23    2    1    2    0    0  0.76790327913E+02 -0.20169836694E+03 -0.43464715313E+03  0.49265024470E+03  0.84894818412E+02 0.  0.
        254    2    1    2    0    0 -0.76790327913E+02  0.20169836694E+03 -0.37138147201E+03  0.99861811348E+03  0.90151813799E+03 0.  0.
        -24    2    4    4    0    0  0.61141812664E+02  0.43974467024E+03 -0.50978366234E+03  0.68061682068E+03  0.79032765082E+02 0.  0.
         24    2    4    4    0    0 -0.13793214058E+03 -0.23804630330E+03  0.13840219032E+03  0.31800129280E+03  0.79235964168E+02 0.  0.
         13    1    3    3    0    0  0.27789318550E+02 -0.93650337819E+01 -0.30020679781E+02  0.41966549748E+02  0.00000000000E+00 0. -1.
        -13    1    3    3    0    0  0.49001009362E+02 -0.19233333316E+03 -0.40462647335E+03  0.45068369495E+03  0.00000000000E+00 0.  1.
          2    1    6    6  502    0 -0.67452896280E+02 -0.88400961818E+02  0.96825774541E+02  0.14744440946E+03  0.00000000000E+00 0. -1.
          1    1    5    5  503    0  0.45983533174E+02  0.13019435632E+03 -0.19436847414E+03  0.23842013229E+03  0.00000000000E+00 0. -1.
         -2    1    5    5    0  503  0.15158279489E+02  0.30955031392E+03 -0.31541518819E+03  0.44219668839E+03  0.00000000000E+00 0.  1.
         -1    1    6    6    0  502 -0.70479244296E+02 -0.14964534148E+03  0.41576415780E+02  0.17055688333E+03  0.00000000000E+00 0.  1.
<mgrwt>
<rscale>  0 0.12546709E+04</rscale>
<asrwt>0</asrwt>
<pdfrwt beam="1">  1        4 0.52710749E-01 0.12546709E+04</pdfrwt>
<pdfrwt beam="2">  1       -4 0.17671515E+00 0.12546709E+04</pdfrwt>
<totfact> 0.12853602E+00</totfact>
</mgrwt>
</event>
<event>
12    1  0.1599266E-007  0.1778852E+04  0.7818608E-02  0.8717627E-01
         -1   -1    0    0    0  501 -0.00000000000E+00  0.00000000000E+00  0.10108258186E+04  0.10108258186E+04  0.00000000000E+00 0.  1.
          1   -1    0    0  501    0  0.00000000000E+00 -0.00000000000E+00 -0.78260644575E+03  0.78260644575E+03  0.00000000000E+00 0. -1.
         23    2    1    2    0    0 -0.85218421489E+02 -0.15228226824E+03 -0.55424210421E+03  0.58812207038E+03  0.90836066669E+02 0.  0.
        254    2    1    2    0    0  0.85218421489E+02  0.15228226824E+03  0.78246147711E+03  0.12053101940E+04  0.90004146130E+03 0.  0.
        -24    2    4    4    0    0 -0.29235180742E+03  0.15008509614E+03  0.74484050664E+03  0.81736429567E+03  0.72814120310E+02 0.  0.
         24    2    4    4    0    0  0.37757022891E+03  0.21971720966E+01  0.37620970466E+02  0.38794589835E+03  0.80762474623E+02 0.  0.
         11    1    3    3    0    0 -0.83321482820E+02 -0.11751714562E+03 -0.51884056733E+03  0.53846846084E+03  0.00000000000E+00 0. -1.
        -11    1    3    3    0    0 -0.18969386683E+01 -0.34765122613E+02 -0.35401536882E+02  0.49653609539E+02  0.00000000000E+00 0.  1.
          4    1    6    6  502    0  0.30440679262E+03 -0.13278270018E+01 -0.25193174522E+01  0.30442011345E+03  0.00000000000E+00 0. -1.
          1    1    5    5  503    0 -0.24365628597E+03  0.15282758202E+03  0.64656483168E+03  0.70765156475E+03  0.00000000000E+00 0. -1.
         -2    1    5    5    0  503 -0.48695521443E+02 -0.27424858824E+01  0.98275674956E+02  0.10971273092E+03  0.00000000000E+00 0.  1.
         -3    1    6    6    0  502  0.73163436289E+02  0.35249990984E+01  0.40140287918E+02  0.83525784896E+02  0.00000000000E+00 0.  1.
<mgrwt>
<rscale>  0 0.17788522E+04</rscale>
<asrwt>0</asrwt>
<pdfrwt beam="1">  1        1 0.12040099E+00 0.17788522E+04</pdfrwt>
<pdfrwt beam="2">  1       -1 0.15551166E+00 0.17788522E+04</pdfrwt>
<totfact> 0.68467177E+00</totfact>
</mgrwt>
</event>
<event>
12    1  0.1600448E-007  0.2157351E+04  0.7818608E-02  0.8536392E-01
         -1   -1    0    0    0  501 -0.00000000000E+00  0.00000000000E+00  0.80137362074E+03  0.80137362074E+03  0.00000000000E+00 0.  1.
          1   -1    0    0  501    0  0.00000000000E+00 -0.00000000000E+00 -0.14519331347E+04  0.14519331347E+04  0.00000000000E+00 0. -1.
         23    2    1    2    0    0  0.28188939433E+03  0.23770506192E+03 -0.11251332989E+04  0.11874077483E+04  0.89704477188E+02 0.  0.
        254    2    1    2    0    0 -0.28188939433E+03 -0.23770506192E+03  0.47457378498E+03  0.10658990072E+04  0.88031533496E+03 0.  0.
        -24    2    4    4    0    0 -0.29373537851E+03  0.27729472463E+03  0.10003540381E+03  0.42382997902E+03  0.80323920450E+02 0.  0.
         24    2    4    4    0    0  0.11845984185E+02 -0.51499978655E+03  0.37453838117E+03  0.64206902814E+03  0.81292868305E+02 0.  0.
         11    1    3    3    0    0  0.16571291924E+03  0.12632867743E+03 -0.76649041923E+03  0.79430930317E+03  0.00000000000E+00 0. -1.
        -11    1    3    3    0    0  0.11617647509E+03  0.11137638449E+03 -0.35864287971E+03  0.39309844511E+03  0.00000000000E+00 0.  1.
          4    1    6    6  502    0  0.36593900501E+02 -0.45309222411E+03  0.31955056972E+03  0.55564758950E+03  0.00000000000E+00 0. -1.
          1    1    5    5  503    0 -0.27946676448E+03  0.22847990701E+03  0.86292017706E+02  0.37114828934E+03  0.00000000000E+00 0. -1.
         -2    1    5    5    0  503 -0.14268614031E+02  0.48814817618E+02  0.13743386103E+02  0.52681689675E+02  0.00000000000E+00 0.  1.
         -3    1    6    6    0  502 -0.24747916316E+02 -0.61907562442E+02  0.54987811448E+02  0.86421438644E+02  0.00000000000E+00 0.  1.
<mgrwt>
<rscale>  0 0.21573511E+04</rscale>
<asrwt>0</asrwt>
<pdfrwt beam="1">  1        1 0.22337433E+00 0.21573511E+04</pdfrwt>
<pdfrwt beam="2">  1       -1 0.12328825E+00 0.21573511E+04</pdfrwt>
<totfact> 0.37446294E+00</totfact>
</mgrwt>
</event>
<event>
12    1  0.1599266E-007  0.2101871E+04  0.7818608E-02  0.8560420E-01
         -1   -1    0    0    0  501 -0.00000000000E+00  0.00000000000E+00  0.10889349060E+04  0.10889349060E+04  0.00000000000E+00 0.  1.
          1   -1    0    0  501    0  0.00000000000E+00 -0.00000000000E+00 -0.10142621771E+04  0.10142621771E+04  0.00000000000E+00 0. -1.
         23    2    1    2    0    0 -0.40828046894E+03 -0.74207223226E+03 -0.96246126661E+02  0.85720796616E+03  0.90432522615E+02 0.  0.
        254    2    1    2    0    0  0.40828046894E+03  0.74207223226E+03  0.17091885559E+03  0.12459891170E+04  0.89772572941E+03 0.  0.
        -24    2    4    4    0    0  0.21963639118E+03  0.11454519960E+02 -0.27870332114E+03  0.36331022596E+03  0.77119574145E+02 0.  0.
         24    2    4    4    0    0  0.18864407776E+03  0.73061771230E+03  0.44962217673E+03  0.88267889102E+03  0.87023521270E+02 0.  0.
         13    1    3    3    0    0  0.11447662858E+01 -0.31109835242E+02 -0.73046294123E+01  0.31976396755E+02  0.00000000000E+00 0. -1.
        -13    1    3    3    0    0 -0.40942523522E+03 -0.71096239702E+03 -0.88941497249E+02  0.82523156941E+03  0.00000000000E+00 0.  1.
          4    1    6    6  502    0  0.15005663079E+03  0.43290562235E+03  0.29577567100E+03  0.54535082091E+03  0.00000000000E+00 0. -1.
          3    1    5    5  503    0  0.49906505950E+02  0.35885704232E+02 -0.68563490865E+02  0.92083632552E+02  0.00000000000E+00 0. -1.
         -4    1    5    5    0  503  0.16972988523E+03 -0.24431184272E+02 -0.21013983028E+03  0.27122659341E+03  0.00000000000E+00 0.  1.
         -3    1    6    6    0  502  0.38587446966E+02  0.29771208995E+03  0.15384650573E+03  0.33732807012E+03  0.00000000000E+00 0.  1.
<mgrwt>
<rscale>  0 0.21018711E+04</rscale>
<asrwt>0</asrwt>
<pdfrwt beam="1">  1        1 0.15604033E+00 0.21018711E+04</pdfrwt>
<pdfrwt beam="2">  1       -1 0.16752845E+00 0.21018711E+04</pdfrwt>
<totfact> 0.34803163E+00</totfact>
</mgrwt>
</event>
<event>
12    1  0.1599266E-007  0.1143519E+04  0.7818608E-02  0.9163784E-01
         -2   -1    0    0    0  501 -0.00000000000E+00  0.00000000000E+00  0.81822006602E+03  0.81822006602E+03  0.00000000000E+00 0.  1.
          2   -1    0    0  501    0  0.00000000000E+00 -0.00000000000E+00 -0.39953634613E+03  0.39953634613E+03  0.00000000000E+00 0. -1.
         23    2    1    2    0    0 -0.96108573233E+02 -0.53264312737E+02  0.25849142980E+03  0.29689889400E+03  0.96214287486E+02 0.  0.
        254    2    1    2    0    0  0.96108573233E+02  0.53264312737E+02  0.16019229010E+03  0.92085751815E+03  0.90013501991E+03 0.  0.
        -24    2    4    4    0    0  0.47692157637E+03 -0.36507043960E+02 -0.13671616281E+02  0.48524160517E+03  0.80532900252E+02 0.  0.
         24    2    4    4    0    0 -0.38081300314E+03  0.89771356697E+02  0.17386390638E+03  0.43561591298E+03  0.80343797882E+02 0.  0.
         11    1    3    3    0    0 -0.26461734867E+02 -0.37669310900E+02  0.24261768700E+02  0.52036850561E+02  0.00000000000E+00 0. -1.
        -11    1    3    3    0    0 -0.69646838367E+02 -0.15595001837E+02  0.23422966110E+03  0.24486204344E+03  0.00000000000E+00 0.  1.
          2    1    6    6  502    0 -0.38095152460E+03  0.96017443928E+02  0.17314146342E+03  0.42932665884E+03  0.00000000000E+00 0. -1.
          3    1    5    5  503    0  0.40283742268E+03 -0.23658622261E+02  0.17347986251E+02  0.40390428587E+03  0.00000000000E+00 0. -1.
         -4    1    5    5    0  503  0.74084153693E+02 -0.12848421699E+02 -0.31019602533E+02  0.81337319293E+02  0.00000000000E+00 0.  1.
         -1    1    6    6    0  502  0.13852145693E+00 -0.62460872312E+01  0.72244295793E+00  0.62892541466E+01  0.00000000000E+00 0.  1.
<mgrwt>
<rscale>  0 0.11435185E+04</rscale>
<asrwt>0</asrwt>
<pdfrwt beam="1">  1        2 0.61467130E-01 0.11435185E+04</pdfrwt>
<pdfrwt beam="2">  1       -2 0.12588001E+00 0.11435185E+04</pdfrwt>
<totfact> 0.37124997E+01</totfact>
</mgrwt>
</event>
<event>
12    1  0.1599266E-007  0.2063068E+04  0.7818608E-02  0.8577689E-01
          2   -1    0    0  501    0  0.00000000000E+00  0.00000000000E+00  0.16287426297E+04  0.16287426297E+04  0.00000000000E+00 0. -1.
         -2   -1    0    0    0  501 -0.00000000000E+00 -0.00000000000E+00 -0.65330287952E+03  0.65330287952E+03  0.00000000000E+00 0.  1.
         23    2    1    2    0    0 -0.63851562093E+02 -0.68035286927E+03 -0.11466365481E+03  0.69885570007E+03  0.91074074725E+02 0.  0.
        254    2    1    2    0    0  0.63851562093E+02  0.68035286927E+03  0.10901034050E+04  0.15831898092E+04  0.92260906649E+03 0.  0.
        -24    2    4    4    0    0 -0.27829299923E+03  0.69889652683E+03  0.91940290402E+03  0.11906425411E+04  0.80153677982E+02 0.  0.
         24    2    4    4    0    0  0.34214456132E+03 -0.18543657566E+02  0.17070050098E+03  0.39254726808E+03  0.86878815421E+02 0.  0.
         11    1    3    3    0    0  0.22313998618E+02 -0.90371796533E+02 -0.12365744005E+02  0.93903608917E+02  0.00000000000E+00 0. -1.
        -11    1    3    3    0    0 -0.86165560711E+02 -0.58998107273E+03 -0.10229791080E+03  0.60495209115E+03  0.00000000000E+00 0.  1.
          2    1    6    6  502    0  0.20395256875E+03 -0.51753396436E+02  0.87711585973E+02  0.22796575764E+03  0.00000000000E+00 0. -1.
          3    1    5    5  503    0 -0.24198770032E+01  0.43438740638E+02  0.74684643709E+02  0.86432493883E+02  0.00000000000E+00 0. -1.
         -4    1    5    5    0  503 -0.27587312222E+03  0.65545778619E+03  0.84471826032E+03  0.11042100472E+04  0.00000000000E+00 0.  1.
         -1    1    6    6    0  502  0.13819199257E+03  0.33209738870E+02  0.82988915004E+02  0.16458151044E+03  0.00000000000E+00 0.  1.
<mgrwt>
<rscale>  0 0.20630679E+04</rscale>
<asrwt>0</asrwt>
<pdfrwt beam="1">  1        2 0.25057579E+00 0.20630679E+04</pdfrwt>
<pdfrwt beam="2">  1       -2 0.10050814E+00 0.20630679E+04</pdfrwt>
<totfact> 0.81073461E+00</totfact>
</mgrwt>
</event>
<event>
12    1  0.1599266E-007  0.1566319E+04  0.7818608E-02  0.8841511E-01
         -2   -1    0    0    0  501 -0.00000000000E+00  0.00000000000E+00  0.31459939390E+03  0.31459939390E+03  0.00000000000E+00 0. -1.
          2   -1    0    0  501    0  0.00000000000E+00 -0.00000000000E+00 -0.19495867275E+04  0.19495867275E+04  0.00000000000E+00 0.  1.
         23    2    1    2    0    0  0.41421425152E+03 -0.30846774564E+03 -0.59446174926E+03  0.79482123209E+03  0.10784351337E+03 0.  0.
        254    2    1    2    0    0 -0.41421425152E+03  0.30846774564E+03 -0.10405255843E+04  0.14693648893E+04  0.89978546885E+03 0.  0.
        -24    2    4    4    0    0 -0.11827674135E+03  0.31900999029E+03  0.34735450519E+02  0.35120569092E+03  0.79888199144E+02 0.  0.
         24    2    4    4    0    0 -0.29593751018E+03 -0.10542244647E+02 -0.10752610348E+04  0.11181591983E+04  0.80022190662E+02 0.  0.
         13    1    3    3    0    0  0.36162149691E+03 -0.29584124235E+03 -0.56525468446E+03  0.73335189780E+03  0.00000000000E+00 0.  1.
        -13    1    3    3    0    0  0.52592754615E+02 -0.12626503296E+02 -0.29207064796E+02  0.61469334285E+02  0.00000000000E+00 0. -1.
          4    1    6    6  502    0 -0.37385403294E+02 -0.24045546029E+02 -0.10663505464E+03  0.11552874769E+03  0.00000000000E+00 0. -1.
          1    1    5    5  503    0 -0.65331232298E+02  0.93335686962E+02 -0.12589820026E+02  0.11462209186E+03  0.00000000000E+00 0. -1.
         -2    1    5    5    0  503 -0.52945509049E+02  0.22567430333E+03  0.47325270546E+02  0.23658359906E+03  0.00000000000E+00 0.  1.
         -3    1    6    6    0  502 -0.25855210688E+03  0.13503301383E+02 -0.96862598017E+03  0.10026304507E+04  0.00000000000E+00 0.  1.
<mgrwt>
<rscale>  0 0.15663190E+04</rscale>
<asrwt>0</asrwt>
<pdfrwt beam="1">  1        2 0.29993642E+00 0.15663190E+04</pdfrwt>
<pdfrwt beam="2">  1       -2 0.48399907E-01 0.15663190E+04</pdfrwt>
<totfact> 0.27708693E+01</totfact>
</mgrwt>
</event>
<event>
12    1  0.1599266E-007  0.1076375E+04  0.7818608E-02  0.9228529E-01
         -1   -1    0    0    0  501 -0.00000000000E+00  0.00000000000E+00  0.26153505334E+03  0.26153505334E+03  0.00000000000E+00 0.  1.
          1   -1    0    0  501    0  0.00000000000E+00 -0.00000000000E+00 -0.11074837691E+04  0.11074837691E+04  0.00000000000E+00 0. -1.
         23    2    1    2    0    0  0.31184663447E+02 -0.32401873512E+02  0.20326819872E+02  0.12261181025E+03  0.11224131042E+03 0.  0.
        254    2    1    2    0    0 -0.31184663447E+02  0.32401873512E+02 -0.86627553565E+03  0.12464070122E+04  0.89502780502E+03 0.  0.
        -24    2    4    4    0    0 -0.26075215061E+03 -0.33517662765E+03 -0.28816350808E+03  0.51962304505E+03  0.81454562676E+02 0.  0.
         24    2    4    4    0    0  0.22956748717E+03  0.36757850116E+03 -0.57811202757E+03  0.72678396716E+03  0.78652608411E+02 0.  0.
         11    1    3    3    0    0  0.69621795281E+02 -0.41951606102E+02  0.12490833618E+02  0.82238388586E+02  0.00000000000E+00 0.  1.
        -11    1    3    3    0    0 -0.38437131835E+02  0.95497325901E+01  0.78359862544E+01  0.40373421663E+02  0.00000000000E+00 0. -1.
          2    1    6    6  502    0  0.13469945242E+03  0.27122611737E+03 -0.36337784844E+03  0.47302326577E+03  0.00000000000E+00 0. -1.
          1    1    5    5  503    0 -0.22339213888E+03 -0.28577174548E+03 -0.27766039908E+03  0.45679846261E+03  0.00000000000E+00 0. -1.
         -2    1    5    5    0  503 -0.37360011738E+02 -0.49404882174E+02 -0.10503108999E+02  0.62824582436E+02  0.00000000000E+00 0.  1.
         -1    1    6    6    0  502  0.94868034745E+02  0.96352383799E+02 -0.21473417913E+03  0.25376070138E+03  0.00000000000E+00 0.  1.
<mgrwt>
<rscale>  0 0.10763751E+04</rscale>
<asrwt>0</asrwt>
<pdfrwt beam="1">  1        1 0.17038212E+00 0.10763751E+04</pdfrwt>
<pdfrwt beam="2">  1       -1 0.40236162E-01 0.10763751E+04</pdfrwt>
<totfact> 0.75201092E+01</totfact>
</mgrwt>
</event>
<event>
12    1  0.1599266E-007  0.1337072E+04  0.7818608E-02  0.9000673E-01
          1   -1    0    0  501    0  0.00000000000E+00  0.00000000000E+00  0.18973575206E+04  0.18973575206E+04  0.00000000000E+00 0. -1.
         -1   -1    0    0    0  501 -0.00000000000E+00 -0.00000000000E+00 -0.23555928505E+03  0.23555928505E+03  0.00000000000E+00 0.  1.
         23    2    1    2    0    0  0.99051226321E+01  0.31579132949E+03  0.71524266798E+03  0.78726041369E+03  0.91567513989E+02 0.  0.
        254    2    1    2    0    0 -0.99051226321E+01 -0.31579132949E+03  0.94655556755E+03  0.13456563920E+04  0.90277428381E+03 0.  0.
        -24    2    4    4    0    0  0.38877471137E+03 -0.30407388620E+03  0.30383227746E+03  0.58501646676E+03  0.79520494696E+02 0.  0.
         24    2    4    4    0    0 -0.39867983401E+03 -0.11717443282E+02  0.64272329009E+03  0.76063992519E+03  0.79980995578E+02 0.  0.
         11    1    3    3    0    0  0.16056324965E+02  0.29167514499E+03  0.69888545630E+03  0.75747810318E+03  0.00000000000E+00 0. -1.
        -11    1    3    3    0    0 -0.61512023329E+01  0.24116184493E+02  0.16357211685E+02  0.29782310501E+02  0.00000000000E+00 0.  1.
          4    1    6    6  502    0 -0.28468262922E+03 -0.30980119830E+02  0.40169803786E+03  0.49332066734E+03  0.00000000000E+00 0. -1.
          1    1    5    5  503    0  0.14753622414E+03 -0.71893484697E+02  0.11744603250E+03  0.20181471979E+03  0.00000000000E+00 0. -1.
         -2    1    5    5    0  503  0.24123848724E+03 -0.23218040151E+03  0.18638624496E+03  0.38320174697E+03  0.00000000000E+00 0.  1.
         -3    1    6    6    0  502 -0.11399720479E+03  0.19262676547E+02  0.24102525223E+03  0.26731925785E+03  0.00000000000E+00 0.  1.
<mgrwt>
<rscale>  0 0.13370717E+04</rscale>
<asrwt>0</asrwt>
<pdfrwt beam="1">  1        1 0.29190115E+00 0.13370717E+04</pdfrwt>
<pdfrwt beam="2">  1       -1 0.36239891E-01 0.13370717E+04</pdfrwt>
<totfact> 0.25002137E+01</totfact>
</mgrwt>
</event>
<event>
12    1  0.1599266E-007  0.1085057E+04  0.7818608E-02  0.9219880E-01
          1   -1    0    0  501    0  0.00000000000E+00  0.00000000000E+00  0.18186171640E+04  0.18186171640E+04  0.00000000000E+00 0. -1.
         -1   -1    0    0    0  501 -0.00000000000E+00 -0.00000000000E+00 -0.16184673568E+03  0.16184673568E+03  0.00000000000E+00 0.  1.
         23    2    1    2    0    0  0.28132016298E+01  0.14998137249E+03  0.30461398442E+03  0.35178628962E+03  0.91986889630E+02 0.  0.
        254    2    1    2    0    0 -0.28132016298E+01 -0.14998137249E+03  0.13521564439E+04  0.16286776101E+04  0.89541129238E+03 0.  0.
        -24    2    4    4    0    0 -0.43349864464E+03 -0.16186250434E+03  0.71570080740E+03  0.85596758475E+03  0.79575845740E+02 0.  0.
         24    2    4    4    0    0  0.43068544301E+03  0.11881131859E+02  0.63645563651E+03  0.77271002531E+03  0.79836669862E+02 0.  0.
         11    1    3    3    0    0  0.19562546910E+02  0.29738430179E+02  0.15539048497E+03  0.15941540167E+03  0.00000000000E+00 0. -1.
        -11    1    3    3    0    0 -0.16749345280E+02  0.12024294231E+03  0.14922349946E+03  0.19237088796E+03  0.00000000000E+00 0.  1.
          4    1    6    6  502    0  0.23520594874E+03  0.69342860483E+01  0.41672293918E+03  0.47856862694E+03  0.00000000000E+00 0. -1.
          1    1    5    5  503    0 -0.43299215229E+03 -0.16310515616E+03  0.69324147043E+03  0.83346819509E+03  0.00000000000E+00 0. -1.
         -4    1    5    5    0  503 -0.50649234722E+00  0.12426518146E+01  0.22459336966E+02  0.22499389658E+02  0.00000000000E+00 0.  1.
         -3    1    6    6    0  502  0.19547949426E+03  0.49468458102E+01  0.21973269732E+03  0.29414139837E+03  0.00000000000E+00 0.  1.
<mgrwt>
<rscale>  0 0.10850571E+04</rscale>
<asrwt>0</asrwt>
<pdfrwt beam="1">  1        1 0.27978724E+00 0.10850571E+04</pdfrwt>
<pdfrwt beam="2">  1       -1 0.24899499E-01 0.10850571E+04</pdfrwt>
<totfact> 0.55755636E+01</totfact>
</mgrwt>
</event>
<event>
12    1  0.1599266E-007  0.1065580E+04  0.7818608E-02  0.9239404E-01
          2   -1    0    0  501    0  0.00000000000E+00  0.00000000000E+00  0.91608399256E+03  0.91608399256E+03  0.00000000000E+00 0. -1.
         -2   -1    0    0    0  501 -0.00000000000E+00 -0.00000000000E+00 -0.30986831486E+03  0.30986831486E+03  0.00000000000E+00 0.  1.
         23    2    1    2    0    0  0.11885141538E+03 -0.33750189349E+02  0.66265135208E+02  0.16724750047E+03  0.91191688488E+02 0.  0.
        254    2    1    2    0    0 -0.11885141538E+03  0.33750189349E+02  0.53995054250E+03  0.10587048070E+04  0.90224417188E+03 0.  0.
        -24    2    4    4    0    0 -0.29754682635E+03  0.35815061986E+03  0.48282941610E+03  0.67552825815E+03  0.80051246903E+02 0.  0.
         24    2    4    4    0    0  0.17869541097E+03 -0.32440043051E+03  0.57121126395E+02  0.38317654880E+03  0.79960960799E+02 0.  0.
         11    1    3    3    0    0  0.38407436895E+02 -0.57885596995E+02  0.33077753535E+02  0.76941609856E+02  0.00000000000E+00 0. -1.
        -11    1    3    3    0    0  0.80443978485E+02  0.24135407646E+02  0.33187381673E+02  0.90305890610E+02  0.00000000000E+00 0.  1.
          2    1    6    6  502    0  0.15971852798E+03 -0.31127046128E+03  0.35669851614E+02  0.35166979762E+03  0.00000000000E+00 0. -1.
          1    1    5    5  503    0 -0.58655336562E+02  0.92442997589E+02  0.16069755958E+03  0.19444758154E+03  0.00000000000E+00 0. -1.
         -2    1    5    5    0  503 -0.23889148979E+03  0.26570762227E+03  0.32213185653E+03  0.48108067662E+03  0.00000000000E+00 0.  1.
         -1    1    6    6    0  502  0.18976882992E+02 -0.13129969232E+02  0.21451274781E+02  0.31506751179E+02  0.00000000000E+00 0.  1.
<mgrwt>
<rscale>  0 0.10655804E+04</rscale>
<asrwt>0</asrwt>
<pdfrwt beam="1">  1        2 0.14093600E+00 0.10655804E+04</pdfrwt>
<pdfrwt beam="2">  1       -2 0.47672049E-01 0.10655804E+04</pdfrwt>
<totfact> 0.11859682E+02</totfact>
</mgrwt>
</event>
<event>
12    1  0.1599266E-007  0.2491514E+04  0.7818608E-02  0.8406015E-01
          2   -1    0    0  501    0  0.00000000000E+00  0.00000000000E+00  0.62008916088E+03  0.62008916088E+03  0.00000000000E+00 0.  1.
         -2   -1    0    0    0  501 -0.00000000000E+00 -0.00000000000E+00 -0.25027207692E+04  0.25027207692E+04  0.00000000000E+00 0. -1.
         23    2    1    2    0    0 -0.10036248509E+04  0.13406376122E+03 -0.37984155430E+03  0.10848766920E+04  0.86266430987E+02 0.  0.
        254    2    1    2    0    0  0.10036248509E+04 -0.13406376122E+03 -0.15027900540E+04  0.20379332381E+04  0.93250093996E+03 0.  0.
        -24    2    4    4    0    0  0.18535810852E+03  0.11147285386E+02 -0.10862179079E+04  0.11048002838E+04  0.78945762240E+02 0.  0.
         24    2    4    4    0    0  0.81826674236E+03 -0.14521104661E+03 -0.41657214616E+03  0.93313295427E+03  0.80981773727E+02 0.  0.
         13    1    3    3    0    0 -0.14718792635E+03  0.42660700613E+02 -0.35567795847E+02  0.15731906795E+03  0.00000000000E+00 0. -1.
        -13    1    3    3    0    0 -0.85643692453E+03  0.91403060611E+02 -0.34427375845E+03  0.92755762406E+03  0.00000000000E+00 0.  1.
          4    1    6    6  502    0  0.74950041914E+03 -0.15463409618E+03 -0.37497991626E+03  0.85221623992E+03  0.00000000000E+00 0. -1.
          1    1    5    5  503    0  0.13307491465E+03  0.14910223131E+02 -0.55170374567E+03  0.56772200120E+03  0.00000000000E+00 0. -1.
         -2    1    5    5    0  503  0.52283193863E+02 -0.37629377451E+01 -0.53451416219E+03  0.53707828260E+03  0.00000000000E+00 0.  1.
         -3    1    6    6    0  502  0.68766323228E+02  0.94230495685E+01 -0.41592229896E+02  0.80916714350E+02  0.00000000000E+00 0.  1.
<mgrwt>
<rscale>  0 0.24915136E+04</rscale>
<asrwt>0</asrwt>
<pdfrwt beam="1">  1        2 0.95398333E-01 0.24915136E+04</pdfrwt>
<pdfrwt beam="2">  1       -2 0.38503396E+00 0.24915136E+04</pdfrwt>
<totfact> 0.39521702E-01</totfact>
</mgrwt>
</event>
<event>
12    1  0.2166345E-007  0.2056096E+04  0.7818608E-02  0.8580834E-01
          2   -1    0    0  501    0  0.00000000000E+00  0.00000000000E+00  0.12620200563E+04  0.12620200563E+04  0.00000000000E+00 0. -1.
         -2   -1    0    0    0  501 -0.00000000000E+00 -0.00000000000E+00 -0.83745311519E+03  0.83745311519E+03  0.00000000000E+00 0.  1.
         23    2    1    2    0    0 -0.49303328714E+03 -0.44340703926E+02  0.85068548027E+03  0.98833892513E+03  0.90000690835E+02 0.  0.
        254    2    1    2    0    0  0.49303328714E+03  0.44340703926E+02 -0.42611853913E+03  0.11111342464E+04  0.89888507822E+03 0.  0.
        -24    2    4    4    0    0 -0.98084714682E+02  0.29124101384E+03 -0.32905735630E+03  0.45819928719E+03  0.85005315438E+02 0.  0.
         24    2    4    4    0    0  0.59111800182E+03 -0.24690030991E+03 -0.97061182824E+02  0.65293495919E+03  0.80764674307E+02 0.  0.
         11    1    3    3    0    0 -0.48339292119E+03 -0.39151399335E+02  0.84828117077E+03  0.97712972169E+03  0.00000000000E+00 0. -1.
        -11    1    3    3    0    0 -0.96403659465E+01 -0.51893045904E+01  0.24043094965E+01  0.11209203445E+02  0.00000000000E+00 0.  1.
          4    1    6    6  502    0  0.12698795650E+02  0.49292099937E+01 -0.80544796702E+01  0.15825017058E+02  0.00000000000E+00 0. -1.
          3    1    5    5  503    0  0.88309353648E+01  0.66797459926E+02 -0.46632854688E+02  0.81942108884E+02  0.00000000000E+00 0. -1.
         -4    1    5    5    0  503 -0.10691565005E+03  0.22444355391E+03 -0.28242450161E+03  0.37625717831E+03  0.00000000000E+00 0.  1.
         -3    1    6    6    0  502  0.57841920617E+03 -0.25182951990E+03 -0.89006703154E+02  0.63710994213E+03  0.00000000000E+00 0.  1.
<mgrwt>
<rscale>  0 0.20560959E+04</rscale>
<asrwt>0</asrwt>
<pdfrwt beam="1">  1        2 0.19415693E+00 0.20560959E+04</pdfrwt>
<pdfrwt beam="2">  1       -2 0.12883894E+00 0.20560959E+04</pdfrwt>
<totfact> 0.71511938E+00</totfact>
</mgrwt>
</event>
<event>
12    1  0.1599266E-007  0.1808507E+04  0.7818608E-02  0.8701788E-01
          2   -1    0    0  501    0  0.00000000000E+00  0.00000000000E+00  0.96327181916E+03  0.96327181916E+03  0.00000000000E+00 0. -1.
         -2   -1    0    0    0  501 -0.00000000000E+00 -0.00000000000E+00 -0.84885152669E+03  0.84885152669E+03  0.00000000000E+00 0.  1.
         23    2    1    2    0    0  0.36360103622E+03 -0.16486358625E+03 -0.50227513503E+03  0.64801311218E+03  0.90856847214E+02 0.  0.
        254    2    1    2    0    0 -0.36360103622E+03  0.16486358625E+03  0.61669542750E+03  0.11641102337E+04  0.90302473401E+03 0.  0.
        -24    2    4    4    0    0  0.28733185955E+03  0.14659991651E+03  0.18237264516E+03  0.37728428225E+03  0.70940220568E+02 0.  0.
         24    2    4    4    0    0 -0.65093289577E+03  0.18263669739E+02  0.43432278233E+03  0.78682595142E+03  0.80072480616E+02 0.  0.
         13    1    3    3    0    0 -0.34220501312E+01 -0.97254884383E+01 -0.19317691994E+02  0.21896775480E+02  0.00000000000E+00 0. -1.
        -13    1    3    3    0    0  0.36702308635E+03 -0.15513809781E+03 -0.48295744303E+03  0.62611633670E+03  0.00000000000E+00 0.  1.
          4    1    6    6  502    0 -0.17226555010E+01 -0.16155022063E-02  0.12000794141E+02  0.12123803224E+02  0.00000000000E+00 0. -1.
          1    1    5    5  503    0  0.11107544491E+03  0.92724925323E+02  0.63818415771E+02  0.15814062233E+03  0.00000000000E+00 0. -1.
         -2    1    5    5    0  503  0.17625641464E+03  0.53874991185E+02  0.11855422939E+03  0.21914365992E+03  0.00000000000E+00 0.  1.
         -3    1    6    6    0  502 -0.64921024027E+03  0.18265285242E+02  0.42232198819E+03  0.77470214820E+03  0.00000000000E+00 0.  1.
<mgrwt>
<rscale>  0 0.18085074E+04</rscale>
<asrwt>0</asrwt>
<pdfrwt beam="1">  1        2 0.14819566E+00 0.18085074E+04</pdfrwt>
<pdfrwt beam="2">  1       -2 0.13059254E+00 0.18085074E+04</pdfrwt>
<totfact> 0.10777674E+01</totfact>
</mgrwt>
</event>
<event>
12    1  0.1599266E-007  0.3495250E+04  0.7818608E-02  0.8114917E-01
         -1   -1    0    0    0  501 -0.00000000000E+00  0.00000000000E+00  0.12280405005E+04  0.12280405005E+04  0.00000000000E+00 0.  1.
          1   -1    0    0  501    0  0.00000000000E+00 -0.00000000000E+00 -0.24870459183E+04  0.24870459183E+04  0.00000000000E+00 0. -1.
         23    2    1    2    0    0 -0.72564935588E+03  0.12373418167E+04  0.23547030363E+03  0.14565767084E+04  0.92669760492E+02 0.  0.
        254    2    1    2    0    0  0.72564935588E+03 -0.12373418167E+04 -0.14944757214E+04  0.22585097103E+04  0.89990370074E+03 0.  0.
        -24    2    4    4    0    0  0.47935068227E+03 -0.10068847259E+04 -0.53741926146E+03  0.12405800280E+04  0.81396655498E+02 0.  0.
         24    2    4    4    0    0  0.24629867361E+03 -0.23045709083E+03 -0.95705645997E+03  0.10179296823E+04  0.80313530697E+02 0.  0.
         11    1    3    3    0    0 -0.34711038928E+00  0.20647033029E+02 -0.62784936921E-01  0.20650046016E+02  0.00000000000E+00 0. -1.
        -11    1    3    3    0    0 -0.72530224549E+03  0.12166947837E+04  0.23553308856E+03  0.14359266624E+04  0.00000000000E+00 0.  1.
          2    1    6    6  502    0  0.25038763138E+03 -0.23108741765E+03 -0.92788804994E+03  0.98846931857E+03  0.00000000000E+00 0. -1.
          3    1    5    5  503    0  0.34536875820E+03 -0.68807356811E+03 -0.33261633128E+03  0.83866467560E+03  0.00000000000E+00 0. -1.
         -2    1    5    5    0  503  0.13398192407E+03 -0.31881115776E+03 -0.20480293017E+03  0.40191535240E+03  0.00000000000E+00 0.  1.
         -1    1    6    6    0  502 -0.40889577620E+01  0.63032682325E+00 -0.29168410035E+02  0.29460363736E+02  0.00000000000E+00 0.  1.
<mgrwt>
<rscale>  0 0.34952500E+04</rscale>
<asrwt>0</asrwt>
<pdfrwt beam="1">  1        1 0.38262245E+00 0.34952500E+04</pdfrwt>
<pdfrwt beam="2">  1       -1 0.18892931E+00 0.34952500E+04</pdfrwt>
<totfact> 0.20291901E-01</totfact>
</mgrwt>
</event>
<event>
12    1  0.1599266E-007  0.1774277E+04  0.7818608E-02  0.8720100E-01
         -1   -1    0    0    0  501 -0.00000000000E+00  0.00000000000E+00  0.92846753086E+03  0.92846753086E+03  0.00000000000E+00 0.  1.
          1   -1    0    0  501    0  0.00000000000E+00 -0.00000000000E+00 -0.84764871929E+03  0.84764871929E+03  0.00000000000E+00 0. -1.
         23    2    1    2    0    0 -0.11265724405E+03 -0.28871868579E+03 -0.55926294115E+03  0.64597069757E+03  0.91940038135E+02 0.  0.
        254    2    1    2    0    0  0.11265724405E+03  0.28871868579E+03  0.64008175272E+03  0.11301455526E+04  0.87833603234E+03 0.  0.
        -24    2    4    4    0    0  0.44429564437E+03  0.10809145542E+03  0.57557179748E+03  0.73938192401E+03  0.79500648748E+02 0.  0.
         24    2    4    4    0    0 -0.33163840032E+03  0.18062723037E+03  0.64509955232E+02  0.39076362858E+03  0.76970475988E+02 0.  0.
         13    1    3    3    0    0 -0.28490255000E+02 -0.10659899816E+03 -0.28924042060E+03  0.30957238564E+03  0.00000000000E+00 0. -1.
        -13    1    3    3    0    0 -0.84166989046E+02 -0.18211968763E+03 -0.27002252055E+03  0.33639831193E+03  0.00000000000E+00 0.  1.
          2    1    6    6  502    0 -0.10800849610E+03  0.29508999581E+02  0.43234975264E+02  0.12002449488E+03  0.00000000000E+00 0. -1.
          1    1    5    5  503    0  0.13545762004E+03  0.14136835986E+02  0.22342439512E+03  0.26166214340E+03  0.00000000000E+00 0. -1.
         -2    1    5    5    0  503  0.30883802433E+03  0.93954619433E+02  0.35214740237E+03  0.47771978061E+03  0.00000000000E+00 0.  1.
         -1    1    6    6    0  502 -0.22362990423E+03  0.15111823079E+03  0.21274979968E+02  0.27073913370E+03  0.00000000000E+00 0.  1.
<mgrwt>
<rscale>  0 0.17742765E+04</rscale>
<asrwt>0</asrwt>
<pdfrwt beam="1">  1        1 0.13040750E+00 0.17742765E+04</pdfrwt>
<pdfrwt beam="2">  1       -1 0.14284116E+00 0.17742765E+04</pdfrwt>
<totfact> 0.75655472E+00</totfact>
</mgrwt>
</event>
<event>
12    1  0.1599266E-007  0.1749255E+04  0.7818608E-02  0.8733761E-01
         -1   -1    0    0    0  501 -0.00000000000E+00  0.00000000000E+00  0.78692438430E+03  0.78692438430E+03  0.00000000000E+00 0. -1.
          1   -1    0    0  501    0  0.00000000000E+00 -0.00000000000E+00 -0.97210493102E+03  0.97210493102E+03  0.00000000000E+00 0.  1.
         23    2    1    2    0    0  0.96331029788E+02  0.34597070208E+03 -0.60326005500E+03  0.70795363184E+03  0.91105745634E+02 0.  0.
        254    2    1    2    0    0 -0.96331029788E+02 -0.34597070208E+03  0.41807950827E+03  0.10510756835E+04  0.89498280606E+03 0.  0.
        -24    2    4    4    0    0 -0.64413331191E+02 -0.21985405505E+03 -0.26016525517E+03  0.35590614925E+03  0.80612308730E+02 0.  0.
         24    2    4    4    0    0 -0.31917698597E+02 -0.12611664703E+03  0.67824476344E+03  0.69516953422E+03  0.79502037893E+02 0.  0.
         11    1    3    3    0    0  0.85073892493E+02  0.30126693138E+03 -0.45197372702E+03  0.54979958262E+03  0.00000000000E+00 0.  1.
        -11    1    3    3    0    0  0.11257137295E+02  0.44703770701E+02 -0.15128632797E+03  0.15815404923E+03  0.00000000000E+00 0. -1.
          2    1    6    6  502    0  0.18634293203E+02 -0.45869799562E+02  0.35044606313E+03  0.35392614846E+03  0.00000000000E+00 0. -1.
          3    1    5    5  503    0 -0.29641962492E+02 -0.16635894504E+03 -0.22981598846E+03  0.28525310356E+03  0.00000000000E+00 0. -1.
         -4    1    5    5    0  503 -0.34771368700E+02 -0.53495110008E+02 -0.30349266709E+02  0.70653045694E+02  0.00000000000E+00 0.  1.
         -1    1    6    6    0  502 -0.50551991801E+02 -0.80246847472E+02  0.32779870031E+03  0.34124338577E+03  0.00000000000E+00 0.  1.
<mgrwt>
<rscale>  0 0.17492548E+04</rscale>
<asrwt>0</asrwt>
<pdfrwt beam="1">  1        1 0.14955461E+00 0.17492548E+04</pdfrwt>
<pdfrwt beam="2">  1       -1 0.12106529E+00 0.17492548E+04</pdfrwt>
<totfact> 0.91388824E+00</totfact>
</mgrwt>
</event>
<event>
12    1  0.1599266E-007  0.1488096E+04  0.7818608E-02  0.8892407E-01
         -1   -1    0    0    0  501 -0.00000000000E+00  0.00000000000E+00  0.17455302501E+03  0.17455302501E+03  0.00000000000E+00 0.  1.
          1   -1    0    0  501    0  0.00000000000E+00 -0.00000000000E+00 -0.31715735655E+04  0.31715735655E+04  0.00000000000E+00 0. -1.
         23    2    1    2    0    0 -0.32880917980E+03  0.11483578257E+03 -0.26115045385E+03  0.44476381525E+03  0.91173231430E+02 0.  0.
        254    2    1    2    0    0  0.32880917980E+03 -0.11483578257E+03 -0.27358700867E+04  0.29013627753E+04  0.90089848984E+03 0.  0.
        -24    2    4    4    0    0  0.23948858634E+03 -0.16090232036E+03 -0.27547058580E+04  0.27709380318E+04  0.80304870141E+02 0.  0.
         24    2    4    4    0    0  0.89320593457E+02  0.46066537791E+02  0.18835771316E+02  0.13042474352E+03  0.80966246805E+02 0.  0.
         11    1    3    3    0    0 -0.12690421882E+03  0.25260708954E+01 -0.70330747997E+02  0.14511194266E+03  0.00000000000E+00 0. -1.
        -11    1    3    3    0    0 -0.20190496098E+03  0.11230971167E+03 -0.19081970586E+03  0.29965187259E+03  0.00000000000E+00 0.  1.
          4    1    6    6  502    0  0.94526303012E+02  0.29938096747E+02 -0.71382794496E+01  0.99410596173E+02  0.00000000000E+00 0. -1.
          3    1    5    5  503    0  0.18141746961E+03 -0.14491296000E+03 -0.23944848276E+04  0.24057160377E+04  0.00000000000E+00 0. -1.
         -4    1    5    5    0  503  0.58071116735E+02 -0.15989360356E+02 -0.36022103033E+03  0.36522199405E+03  0.00000000000E+00 0.  1.
         -1    1    6    6    0  502 -0.52057095550E+01  0.16128441044E+02  0.25974050766E+02  0.31014147347E+02  0.00000000000E+00 0.  1.
<mgrwt>
<rscale>  0 0.14880964E+04</rscale>
<asrwt>0</asrwt>
<pdfrwt beam="1">  1        1 0.48793439E+00 0.14880964E+04</pdfrwt>
<pdfrwt beam="2">  1       -1 0.26854312E-01 0.14880964E+04</pdfrwt>
<totfact> 0.53954067E+00</totfact>
</mgrwt>
</event>
<event>
12    1  0.1599266E-007  0.1313465E+04  0.7818608E-02  0.9018955E-01
         -2   -1    0    0    0  501 -0.00000000000E+00  0.00000000000E+00  0.12290535276E+03  0.12290535276E+03  0.00000000000E+00 0.  1.
          2   -1    0    0  501    0  0.00000000000E+00 -0.00000000000E+00 -0.35091855651E+04  0.35091855651E+04  0.00000000000E+00 0. -1.
         23    2    1    2    0    0 -0.93861820492E+01 -0.33576049106E+03 -0.13791193051E+04  0.14227289809E+04  0.96770282400E+02 0.  0.
        254    2    1    2    0    0  0.93861820492E+01  0.33576049106E+03 -0.20071609073E+04  0.22093619370E+04  0.86009421187E+03 0.  0.
        -24    2    4    4    0    0  0.19548643787E+03 -0.17777114712E+03 -0.12018250722E+04  0.12330813305E+04  0.79300286040E+02 0.  0.
         24    2    4    4    0    0 -0.18610025582E+03  0.51353163818E+03 -0.80533583505E+03  0.97628060648E+03  0.78803342218E+02 0.  0.
         11    1    3    3    0    0  0.10339502261E+02 -0.32447254766E+03 -0.12413402519E+04  0.12830880564E+04  0.00000000000E+00 0. -1.
        -11    1    3    3    0    0 -0.19725684310E+02 -0.11287943401E+02 -0.13777905319E+03  0.13964092447E+03  0.00000000000E+00 0.  1.
          2    1    6    6  502    0 -0.10427768101E+03  0.29300636195E+03 -0.38843464762E+03  0.49760228936E+03  0.00000000000E+00 0. -1.
          3    1    5    5  503    0  0.11521449373E+03 -0.88900887216E+02 -0.82334624515E+03  0.83610811903E+03  0.00000000000E+00 0. -1.
         -4    1    5    5    0  503  0.80271944139E+02 -0.88870259900E+02 -0.37847882707E+03  0.39697321150E+03  0.00000000000E+00 0.  1.
         -1    1    6    6    0  502 -0.81822574809E+02  0.22052527623E+03 -0.41690118743E+03  0.47867831712E+03  0.00000000000E+00 0.  1.
<mgrwt>
<rscale>  0 0.13134652E+04</rscale>
<asrwt>0</asrwt>
<pdfrwt beam="1">  1        2 0.53987468E+00 0.13134652E+04</pdfrwt>
<pdfrwt beam="2">  1       -2 0.18908517E-01 0.13134652E+04</pdfrwt>
<totfact> 0.18883651E+01</totfact>
</mgrwt>
</event>
<event>
12    1  0.1599266E-007  0.1404558E+04  0.7818608E-02  0.8950526E-01
          2   -1    0    0  501    0  0.00000000000E+00  0.00000000000E+00  0.13614555690E+04  0.13614555690E+04  0.00000000000E+00 0. -1.
         -2   -1    0    0    0  501 -0.00000000000E+00 -0.00000000000E+00 -0.36225646105E+03  0.36225646105E+03  0.00000000000E+00 0.  1.
         23    2    1    2    0    0 -0.10017858244E+03  0.21991951377E+03 -0.10577587481E+03  0.28175488661E+03  0.98979490406E+02 0.  0.
        254    2    1    2    0    0  0.10017858244E+03 -0.21991951377E+03  0.11049749827E+04  0.14419571434E+04  0.89435471153E+03 0.  0.
        -24    2    4    4    0    0 -0.32015311104E+03  0.14693375177E+03  0.48781158005E+03  0.60618731186E+03  0.73589248675E+02 0.  0.
         24    2    4    4    0    0  0.42033169348E+03 -0.36685326554E+03  0.61716340267E+03  0.83576983153E+03  0.79752709807E+02 0.  0.
         13    1    3    3    0    0 -0.20763439409E+02 -0.20747698280E+01  0.46908592240E+01  0.21387595615E+02  0.00000000000E+00 0. -1.
        -13    1    3    3    0    0 -0.79415143032E+02  0.22199428360E+03 -0.11046673403E+03  0.26036729100E+03  0.00000000000E+00 0.  1.
          4    1    6    6  502    0  0.23263291416E+03 -0.22315800281E+03  0.40919647884E+03  0.52092161144E+03  0.00000000000E+00 0. -1.
          3    1    5    5  503    0 -0.31968806841E+03  0.13868449801E+03  0.48548588700E+03  0.59760388013E+03  0.00000000000E+00 0. -1.
         -4    1    5    5    0  503 -0.46504262254E+00  0.82492537512E+01  0.23256930489E+01  0.85834317292E+01  0.00000000000E+00 0.  1.
         -3    1    6    6    0  502  0.18769877931E+03 -0.14369526273E+03  0.20796692384E+03  0.31484822009E+03  0.00000000000E+00 0.  1.
<mgrwt>
<rscale>  0 0.14045584E+04</rscale>
<asrwt>0</asrwt>
<pdfrwt beam="1">  1        2 0.20945470E+00 0.14045584E+04</pdfrwt>
<pdfrwt beam="2">  1       -2 0.55731764E-01 0.14045584E+04</pdfrwt>
<totfact> 0.44806817E+01</totfact>
</mgrwt>
</event>
<event>
12    1  0.1599266E-007  0.1270874E+04  0.7818608E-02  0.9052987E-01
         -2   -1    0    0    0  501 -0.00000000000E+00  0.00000000000E+00  0.56280936995E+03  0.56280936995E+03  0.00000000000E+00 0.  1.
          2   -1    0    0  501    0  0.00000000000E+00 -0.00000000000E+00 -0.71743637535E+03  0.71743637535E+03  0.00000000000E+00 0. -1.
         23    2    1    2    0    0  0.47226946468E+02 -0.16258379979E+03 -0.29184954975E+03  0.34941333483E+03  0.90827542310E+02 0.  0.
        254    2    1    2    0    0 -0.47226946468E+02  0.16258379979E+03  0.13722254434E+03  0.93083241047E+03  0.90496136563E+03 0.  0.
        -24    2    4    4    0    0  0.69207222302E+02  0.17408767881E+03  0.50075313408E+03  0.54077121311E+03  0.81139658041E+02 0.  0.
         24    2    4    4    0    0 -0.11643416877E+03 -0.11503879024E+02 -0.36353058974E+03  0.39006119736E+03  0.79397689626E+02 0.  0.
         13    1    3    3    0    0  0.40064755858E+02 -0.28398698180E+02 -0.37644980333E+02  0.61877421282E+02  0.00000000000E+00 0.  1.
        -13    1    3    3    0    0  0.71621906107E+01 -0.13418510161E+03 -0.25420456942E+03  0.28753591355E+03  0.00000000000E+00 0. -1.
          4    1    6    6  502    0 -0.10282139647E+03 -0.33173050216E+02 -0.33372178987E+03  0.35077474805E+03  0.00000000000E+00 0. -1.
          1    1    5    5  503    0  0.36780863984E+02  0.16131437041E+03  0.36735500270E+03  0.40289558954E+03  0.00000000000E+00 0. -1.
         -2    1    5    5    0  503  0.32426358318E+02  0.12773308396E+02  0.13339813138E+03  0.13787562358E+03  0.00000000000E+00 0.  1.
         -3    1    6    6    0  502 -0.13612772301E+02  0.21669171192E+02 -0.29808799868E+02  0.39286449310E+02  0.00000000000E+00 0.  1.
<mgrwt>
<rscale>  0 0.12708736E+04</rscale>
<asrwt>0</asrwt>
<pdfrwt beam="1">  1        2 0.11037483E+00 0.12708736E+04</pdfrwt>
<pdfrwt beam="2">  1       -2 0.86586057E-01 0.12708736E+04</pdfrwt>
<totfact> 0.45066103E+01</totfact>
</mgrwt>
</event>
<event>
12    1  0.1599266E-007  0.1787468E+04  0.7818608E-02  0.8712992E-01
          2   -1    0    0  501    0  0.00000000000E+00  0.00000000000E+00  0.10316512656E+04  0.10316512656E+04  0.00000000000E+00 0. -1.
         -2   -1    0    0    0  501 -0.00000000000E+00 -0.00000000000E+00 -0.77425456848E+03  0.77425456848E+03  0.00000000000E+00 0.  1.
         23    2    1    2    0    0  0.21802790696E+02  0.62468813758E+03  0.32539449883E+03  0.70981936817E+03  0.85154710070E+02 0.  0.
        254    2    1    2    0    0 -0.21802790696E+02 -0.62468813758E+03 -0.67997801731E+02  0.10960864659E+04  0.89781468509E+03 0.  0.
        -24    2    4    4    0    0  0.26257967366E+03 -0.22114811646E+02 -0.27987320782E+03  0.39234582819E+03  0.78543532702E+02 0.  0.
         24    2    4    4    0    0 -0.28438246436E+03 -0.60257332593E+03  0.21187540609E+03  0.70374063770E+03  0.79948097417E+02 0.  0.
         11    1    3    3    0    0 -0.60057776849E+01  0.43999033166E+03  0.19090497472E+03  0.47965849382E+03  0.00000000000E+00 0.  1.
        -11    1    3    3    0    0  0.27808568381E+02  0.18469780591E+03  0.13448952411E+03  0.23016087434E+03  0.00000000000E+00 0. -1.
          2    1    6    6  502    0 -0.25792849238E+03 -0.58415190145E+03  0.19716888016E+03  0.66830840070E+03  0.00000000000E+00 0. -1.
          3    1    5    5  503    0  0.13369742417E+03 -0.43735449845E+01 -0.19689884089E+03  0.23804050636E+03  0.00000000000E+00 0. -1.
         -4    1    5    5    0  503  0.12888224950E+03 -0.17741266662E+02 -0.82974366929E+02  0.15430532183E+03  0.00000000000E+00 0.  1.
         -1    1    6    6    0  502 -0.26453971976E+02 -0.18421424483E+02  0.14706525931E+02  0.35432236992E+02  0.00000000000E+00 0.  1.
<mgrwt>
<rscale>  0 0.17874683E+04</rscale>
<asrwt>0</asrwt>
<pdfrwt beam="1">  1        2 0.15871558E+00 0.17874683E+04</pdfrwt>
<pdfrwt beam="2">  1       -2 0.11911609E+00 0.17874683E+04</pdfrwt>
<totfact> 0.12289245E+01</totfact>
</mgrwt>
</event>
<event>
12    1  0.1599266E-007  0.2100640E+04  0.7818608E-02  0.8560961E-01
          1   -1    0    0  501    0  0.00000000000E+00  0.00000000000E+00  0.15924501853E+04  0.15924501853E+04  0.00000000000E+00 0. -1.
         -1   -1    0    0    0  501 -0.00000000000E+00 -0.00000000000E+00 -0.69275170284E+03  0.69275170284E+03  0.00000000000E+00 0.  1.
         23    2    1    2    0    0 -0.30374629304E+01  0.10005529716E+03  0.12972669020E+04  0.13045277441E+04  0.94185622220E+02 0.  0.
        254    2    1    2    0    0  0.30374629304E+01 -0.10005529716E+03 -0.39756841958E+03  0.98067414400E+03  0.89086521977E+03 0.  0.
        -24    2    4    4    0    0 -0.54951113078E+01 -0.38364326234E+03 -0.52934247179E+03  0.65851962877E+03  0.78944917816E+02 0.  0.
         24    2    4    4    0    0  0.85325742383E+01  0.28358796518E+03  0.13177405221E+03  0.32215451523E+03  0.76968773106E+02 0.  0.
         13    1    3    3    0    0  0.71447328550E+01  0.56206469815E+01  0.67433065136E+03  0.67439192332E+03  0.00000000000E+00 0. -1.
        -13    1    3    3    0    0 -0.10182195785E+02  0.94434650181E+02  0.62293625066E+03  0.63013582079E+03  0.00000000000E+00 0.  1.
          2    1    6    6  502    0  0.36239036544E+02  0.89721897227E+02  0.58417143088E+02  0.11303030221E+03  0.00000000000E+00 0. -1.
          1    1    5    5  503    0 -0.30110907682E+02 -0.64820808518E+02 -0.10965544078E+03  0.13089201531E+03  0.00000000000E+00 0. -1.
         -2    1    5    5    0  503  0.24615796374E+02 -0.31882245382E+03 -0.41968703101E+03  0.52762761346E+03  0.00000000000E+00 0.  1.
         -1    1    6    6    0  502 -0.27706462305E+02  0.19386606795E+03  0.73356909118E+02  0.20912421302E+03  0.00000000000E+00 0.  1.
<mgrwt>
<rscale>  0 0.21006405E+04</rscale>
<asrwt>0</asrwt>
<pdfrwt beam="1">  1        1 0.24499234E+00 0.21006405E+04</pdfrwt>
<pdfrwt beam="2">  1       -1 0.10657719E+00 0.21006405E+04</pdfrwt>
<totfact> 0.42696405E+00</totfact>
</mgrwt>
</event>
<event>
12    1  0.1599266E-007  0.2008166E+04  0.7818608E-02  0.8602812E-01
         -1   -1    0    0    0  501 -0.00000000000E+00  0.00000000000E+00  0.52345436840E+03  0.52345436840E+03  0.00000000000E+00 0.  1.
          1   -1    0    0  501    0  0.00000000000E+00 -0.00000000000E+00 -0.19260174850E+04  0.19260174850E+04  0.00000000000E+00 0. -1.
         23    2    1    2    0    0 -0.12411919656E+03  0.36236879466E+03  0.29248875032E+03  0.49054992619E+03  0.91503238894E+02 0.  0.
        254    2    1    2    0    0  0.12411919656E+03 -0.36236879466E+03 -0.16950518669E+04  0.19589219272E+04  0.90413360021E+03 0.  0.
        -24    2    4    4    0    0 -0.15861115921E+03  0.19726849220E+03 -0.18961105576E+03  0.32616781815E+03  0.79754217988E+02 0.  0.
         24    2    4    4    0    0  0.28273035577E+03 -0.55963728686E+03 -0.15054408111E+04  0.16327541090E+04  0.80022483183E+02 0.  0.
         13    1    3    3    0    0 -0.13240017979E+03  0.33137655442E+03  0.24356407863E+03  0.43204593370E+03  0.00000000000E+00 0.  1.
        -13    1    3    3    0    0  0.82809832254E+01  0.30992240240E+02  0.48924671684E+02  0.58503992493E+02  0.00000000000E+00 0. -1.
          2    1    6    6  502    0  0.63879253740E+02 -0.17991208773E+03 -0.38769535961E+03  0.43215345681E+03  0.00000000000E+00 0. -1.
          1    1    5    5  503    0 -0.76316668379E+02  0.36743731893E+02 -0.67902003724E+02  0.10855882192E+03  0.00000000000E+00 0. -1.
         -2    1    5    5    0  503 -0.82294490828E+02  0.16052476031E+03 -0.12170905203E+03  0.21760899623E+03  0.00000000000E+00 0.  1.
         -1    1    6    6    0  502  0.21885110203E+03 -0.37972519913E+03 -0.11177454515E+04  0.12006006522E+04  0.00000000000E+00 0.  1.
<mgrwt>
<rscale>  0 0.20081656E+04</rscale>
<asrwt>0</asrwt>
<pdfrwt beam="1">  1        1 0.29631039E+00 0.20081656E+04</pdfrwt>
<pdfrwt beam="2">  1       -1 0.80531440E-01 0.20081656E+04</pdfrwt>
<totfact> 0.47689644E+00</totfact>
</mgrwt>
</event>
<event>
12    1  0.1599266E-007  0.1776272E+04  0.7818608E-02  0.8719020E-01
          2   -1    0    0  501    0  0.00000000000E+00  0.00000000000E+00  0.18926057469E+04  0.18926057469E+04  0.00000000000E+00 0. -1.
         -2   -1    0    0    0  501 -0.00000000000E+00 -0.00000000000E+00 -0.41677228839E+03  0.41677228839E+03  0.00000000000E+00 0.  1.
         23    2    1    2    0    0 -0.77810308053E+02 -0.31394685842E+03 -0.19198422094E+03  0.38718102488E+03  0.91837524932E+02 0.  0.
        254    2    1    2    0    0  0.77810308053E+02  0.31394685842E+03  0.16678176794E+04  0.19221970104E+04  0.89922659045E+03 0.  0.
        -24    2    4    4    0    0 -0.28161795633E+03  0.41948789673E+03  0.12695808440E+04  0.13687529876E+04  0.79815116151E+02 0.  0.
         24    2    4    4    0    0  0.35942826438E+03 -0.10554103831E+03  0.39823683540E+03  0.55344402276E+03  0.85907632152E+02 0.  0.
         13    1    3    3    0    0 -0.96070898095E+02 -0.22064215803E+03 -0.12792280763E+03  0.27253774798E+03  0.00000000000E+00 0.  1.
        -13    1    3    3    0    0  0.18260590042E+02 -0.93304700386E+02 -0.64061413302E+02  0.11464327689E+03  0.00000000000E+00 0. -1.
          2    1    6    6  502    0  0.31952241830E+03 -0.10385604315E+03  0.31242425084E+03  0.45879141885E+03  0.00000000000E+00 0. -1.
          3    1    5    5  503    0 -0.15961400131E+03  0.19640573778E+03  0.72051611335E+03  0.76367225486E+03  0.00000000000E+00 0. -1.
         -4    1    5    5    0  503 -0.12200395502E+03  0.22308215896E+03  0.54906473070E+03  0.60508073278E+03  0.00000000000E+00 0.  1.
         -1    1    6    6    0  502  0.39905846085E+02 -0.16849951643E+01  0.85812584556E+02  0.94652603919E+02  0.00000000000E+00 0.  1.
<mgrwt>
<rscale>  0 0.17762721E+04</rscale>
<asrwt>0</asrwt>
<pdfrwt beam="1">  1        2 0.29117011E+00 0.17762721E+04</pdfrwt>
<pdfrwt beam="2">  1       -2 0.64118815E-01 0.17762721E+04</pdfrwt>
<totfact> 0.16299066E+01</totfact>
</mgrwt>
</event>
<event>
12    1  0.1599266E-007  0.2187826E+04  0.7818608E-02  0.8523512E-01
          1   -1    0    0  501    0  0.00000000000E+00  0.00000000000E+00  0.21437343346E+04  0.21437343346E+04  0.00000000000E+00 0. -1.
         -1   -1    0    0    0  501 -0.00000000000E+00 -0.00000000000E+00 -0.55820594480E+03  0.55820594480E+03  0.00000000000E+00 0.  1.
         23    2    1    2    0    0 -0.11087003882E+03  0.39874240071E+03 -0.33315809230E+03  0.53928959720E+03  0.92473172022E+02 0.  0.
        254    2    1    2    0    0  0.11087003882E+03 -0.39874240071E+03  0.19186864821E+04  0.21626506822E+04  0.90797163447E+03 0.  0.
        -24    2    4    4    0    0 -0.22123530529E+03  0.19808213986E+03  0.66768461024E+03  0.73508766448E+03  0.79809405947E+02 0.  0.
         24    2    4    4    0    0  0.33210534411E+03 -0.59682454058E+03  0.12510018718E+04  0.14275630177E+04  0.80230881501E+02 0.  0.
         11    1    3    3    0    0 -0.72668404571E+02  0.14284653627E+03 -0.87911761415E+02  0.18279580887E+03  0.00000000000E+00 0. -1.
        -11    1    3    3    0    0 -0.38201634244E+02  0.25589586445E+03 -0.24524633088E+03  0.35649378832E+03  0.00000000000E+00 0.  1.
          4    1    6    6  502    0  0.28057486778E+03 -0.49934029563E+03  0.11047468309E+04  0.12443988700E+04  0.00000000000E+00 0. -1.
          3    1    5    5  503    0 -0.12588628327E+03  0.74259090590E+02  0.25669984797E+03  0.29539224905E+03  0.00000000000E+00 0. -1.
         -4    1    5    5    0  503 -0.95349022024E+02  0.12382304927E+03  0.41098476227E+03  0.43969541543E+03  0.00000000000E+00 0.  1.
         -3    1    6    6    0  502  0.51530476331E+02 -0.97484244953E+02  0.14625504093E+03  0.18316414770E+03  0.00000000000E+00 0.  1.
<mgrwt>
<rscale>  0 0.21878256E+04</rscale>
<asrwt>0</asrwt>
<pdfrwt beam="1">  1        1 0.32980528E+00 0.21878256E+04</pdfrwt>
<pdfrwt beam="2">  1       -1 0.85877839E-01 0.21878256E+04</pdfrwt>
<totfact> 0.29073463E+00</totfact>
</mgrwt>
</event>
<event>
12    1  0.1599266E-007  0.1616085E+04  0.7818608E-02  0.8810727E-01
         -2   -1    0    0    0  501 -0.00000000000E+00  0.00000000000E+00  0.63589104650E+03  0.63589104650E+03  0.00000000000E+00 0.  1.
          2   -1    0    0  501    0  0.00000000000E+00 -0.00000000000E+00 -0.10267994780E+04  0.10267994780E+04  0.00000000000E+00 0. -1.
         23    2    1    2    0    0 -0.36665041804E+03  0.18037078767E+03  0.24927304430E+03  0.48720977050E+03  0.90940418730E+02 0.  0.
        254    2    1    2    0    0  0.36665041804E+03 -0.18037078767E+03 -0.64018147577E+03  0.11754807540E+04  0.89719369757E+03 0.  0.
        -24    2    4    4    0    0  0.55162452555E+03 -0.27843595988E+03 -0.15698010112E+03  0.64245889731E+03  0.79337769337E+02 0.  0.
         24    2    4    4    0    0 -0.18497410751E+03  0.98065172209E+02 -0.48320137465E+03  0.53302185667E+03  0.82441086669E+02 0.  0.
         13    1    3    3    0    0 -0.20656385805E+03  0.12630339157E+03  0.10075268445E+03  0.26224469031E+03  0.00000000000E+00 0.  1.
        -13    1    3    3    0    0 -0.16008655999E+03  0.54067396103E+02  0.14852035986E+03  0.22496508019E+03  0.00000000000E+00 0. -1.
          4    1    6    6  502    0 -0.28627381597E+02 -0.13921098189E+02 -0.53624464159E+02  0.62361102526E+02  0.00000000000E+00 0. -1.
          3    1    5    5  503    0  0.32207433486E+03 -0.13948541966E+03 -0.12337204324E+03  0.37203322503E+03  0.00000000000E+00 0. -1.
         -4    1    5    5    0  503  0.22955019069E+03 -0.13895054022E+03 -0.33608057876E+02  0.27042567228E+03  0.00000000000E+00 0.  1.
         -1    1    6    6    0  502 -0.15634672591E+03  0.11198627040E+03 -0.42957691050E+03  0.47066075414E+03  0.00000000000E+00 0.  1.
<mgrwt>
<rscale>  0 0.16160849E+04</rscale>
<asrwt>0</asrwt>
<pdfrwt beam="1">  1        2 0.15796915E+00 0.16160849E+04</pdfrwt>
<pdfrwt beam="2">  1       -2 0.97829392E-01 0.16160849E+04</pdfrwt>
<totfact> 0.20178789E+01</totfact>
</mgrwt>
</event>
<event>
12    1  0.1599266E-007  0.1539463E+04  0.7818608E-02  0.8858626E-01
         -2   -1    0    0    0  501 -0.00000000000E+00  0.00000000000E+00  0.45019708045E+03  0.45019708045E+03  0.00000000000E+00 0. -1.
          2   -1    0    0  501    0  0.00000000000E+00 -0.00000000000E+00 -0.13160608153E+04  0.13160608153E+04  0.00000000000E+00 0.  1.
         23    2    1    2    0    0 -0.20723608292E+03  0.22756024186E+03  0.17034926258E+03  0.36391000604E+03  0.93172761525E+02 0.  0.
        254    2    1    2    0    0  0.20723608292E+03 -0.22756024186E+03 -0.10362129975E+04  0.14023478897E+04  0.89337101475E+03 0.  0.
        -24    2    4    4    0    0  0.55418983038E+03 -0.16308218119E+03 -0.63012588519E+03  0.85847479410E+03  0.78728489150E+02 0.  0.
         24    2    4    4    0    0 -0.34695374746E+03 -0.64478060671E+02 -0.40608711228E+03  0.54387309564E+03  0.79730033358E+02 0.  0.
         11    1    3    3    0    0 -0.17999631598E+03  0.13722834949E+03  0.13234665608E+03  0.26219445273E+03  0.00000000000E+00 0. -1.
        -11    1    3    3    0    0 -0.27239766947E+02  0.90331892375E+02  0.38002606508E+02  0.10171555331E+03  0.00000000000E+00 0.  1.
          4    1    6    6  502    0 -0.31151795337E+03 -0.68736749415E+02 -0.39224270160E+03  0.50559125087E+03  0.00000000000E+00 0. -1.
          1    1    5    5  503    0  0.41548096800E+03 -0.10992044362E+03 -0.51347716619E+03  0.66960117898E+03  0.00000000000E+00 0. -1.
         -2    1    5    5    0  503  0.13870886238E+03 -0.53161737574E+02 -0.11664871900E+03  0.18887361512E+03  0.00000000000E+00 0.  1.
         -3    1    6    6    0  502 -0.35435794085E+02  0.42586887445E+01 -0.13844410679E+02  0.38281844774E+02  0.00000000000E+00 0.  1.
<mgrwt>
<rscale>  0 0.15394632E+04</rscale>
<asrwt>0</asrwt>
<pdfrwt beam="1">  1        2 0.20247089E+00 0.15394632E+04</pdfrwt>
<pdfrwt beam="2">  1       -2 0.69261090E-01 0.15394632E+04</pdfrwt>
<totfact> 0.29652160E+01</totfact>
</mgrwt>
</event>
<event>
12    1  0.1599266E-007  0.2408598E+04  0.7818608E-02  0.8436291E-01
          2   -1    0    0  501    0  0.00000000000E+00  0.00000000000E+00  0.27533662770E+04  0.27533662770E+04  0.00000000000E+00 0. -1.
         -2   -1    0    0    0  501 -0.00000000000E+00 -0.00000000000E+00 -0.52675035894E+03  0.52675035894E+03  0.00000000000E+00 0.  1.
         23    2    1    2    0    0 -0.75387526223E+03  0.35176222255E+03  0.12242343592E+03  0.84568510086E+03  0.90173277327E+02 0.  0.
        254    2    1    2    0    0  0.75387526223E+03 -0.35176222255E+03  0.21041924822E+04  0.24344315351E+04  0.89820171722E+03 0.  0.
        -24    2    4    4    0    0  0.36670882722E+03  0.23535472393E+03  0.43147451209E+03  0.61813732079E+03  0.77822122434E+02 0.  0.
         24    2    4    4    0    0  0.38716643501E+03 -0.58711694648E+03  0.16727179701E+04  0.18162942143E+04  0.79593393055E+02 0.  0.
         11    1    3    3    0    0 -0.18010722228E+03  0.91526594668E+02 -0.84676823639E+01  0.20220640616E+03  0.00000000000E+00 0. -1.
        -11    1    3    3    0    0 -0.57376803995E+03  0.26023562789E+03  0.13089111828E+03  0.64347869470E+03  0.00000000000E+00 0.  1.
          2    1    6    6  502    0  0.20472292291E+03 -0.27035285341E+03  0.72037667349E+03  0.79620643819E+03  0.00000000000E+00 0. -1.
          1    1    5    5  503    0  0.61558783562E+02  0.68771061667E+02  0.11974263196E+03  0.15118611267E+03  0.00000000000E+00 0. -1.
         -2    1    5    5    0  503  0.30515004366E+03  0.16658366226E+03  0.31173188012E+03  0.46695120812E+03  0.00000000000E+00 0.  1.
         -1    1    6    6    0  502  0.18244351210E+03 -0.31676409307E+03  0.95234129660E+03  0.10200877761E+04  0.00000000000E+00 0.  1.
<mgrwt>
<rscale>  0 0.24085985E+04</rscale>
<asrwt>0</asrwt>
<pdfrwt beam="1">  1        2 0.42359480E+00 0.24085985E+04</pdfrwt>
<pdfrwt beam="2">  1       -2 0.81038518E-01 0.24085985E+04</pdfrwt>
<totfact> 0.29769404E+00</totfact>
</mgrwt>
</event>
<event>
12    1  0.1599266E-007  0.1865296E+04  0.7818608E-02  0.8672326E-01
          2   -1    0    0  501    0  0.00000000000E+00  0.00000000000E+00  0.11786914415E+04  0.11786914415E+04  0.00000000000E+00 0. -1.
         -2   -1    0    0    0  501 -0.00000000000E+00 -0.00000000000E+00 -0.73796441930E+03  0.73796441930E+03  0.00000000000E+00 0.  1.
         23    2    1    2    0    0 -0.23301675149E+02  0.22725934336E+03 -0.51516893257E+03  0.57066763629E+03  0.89848454721E+02 0.  0.
        254    2    1    2    0    0  0.23301675149E+02 -0.22725934336E+03  0.95589595481E+03  0.13459882245E+04  0.91965072010E+03 0.  0.
        -24    2    4    4    0    0  0.15057072749E+03 -0.38437007900E+03  0.60037078931E+02  0.42411601132E+03  0.76537824685E+02 0.  0.
         24    2    4    4    0    0 -0.12726905234E+03  0.15711073564E+03  0.89585887587E+03  0.92187221322E+03  0.80025352761E+02 0.  0.
         11    1    3    3    0    0 -0.36034096033E+02  0.20029059864E+03 -0.36814028881E+03  0.42064480530E+03  0.00000000000E+00 0.  1.
        -11    1    3    3    0    0  0.12732420884E+02  0.26968744724E+02 -0.14702864375E+03  0.15002283099E+03  0.00000000000E+00 0. -1.
          4    1    6    6  502    0 -0.29493340927E+02  0.41874153415E+02  0.10649453506E+03  0.11817101117E+03  0.00000000000E+00 0. -1.
          3    1    5    5  503    0  0.81352617454E+02 -0.13492159754E+03 -0.33840059682E+01  0.15758660269E+03  0.00000000000E+00 0. -1.
         -4    1    5    5    0  503  0.69218110035E+02 -0.24944848146E+03  0.63421084899E+02  0.26652940864E+03  0.00000000000E+00 0.  1.
         -3    1    6    6    0  502 -0.97775711413E+02  0.11523658222E+03  0.78936434081E+03  0.80370120205E+03  0.00000000000E+00 0.  1.
<mgrwt>
<rscale>  0 0.18652961E+04</rscale>
<asrwt>0</asrwt>
<pdfrwt beam="1">  1        2 0.18133714E+00 0.18652961E+04</pdfrwt>
<pdfrwt beam="2">  1       -2 0.11353299E+00 0.18652961E+04</pdfrwt>
<totfact> 0.11148328E+01</totfact>
</mgrwt>
</event>
<event>
12    1  0.1599266E-007  0.3189728E+04  0.7818608E-02  0.8191535E-01
          1   -1    0    0  501    0  0.00000000000E+00  0.00000000000E+00  0.90914834315E+03  0.90914834315E+03  0.00000000000E+00 0. -1.
         -1   -1    0    0    0  501 -0.00000000000E+00 -0.00000000000E+00 -0.27977730923E+04  0.27977730923E+04  0.00000000000E+00 0.  1.
         23    2    1    2    0    0 -0.55988569531E+03  0.13592884865E+04 -0.11164144284E+04  0.18480773814E+04  0.88722321000E+02 0.  0.
        254    2    1    2    0    0  0.55988569531E+03 -0.13592884865E+04 -0.77221032072E+03  0.18588440541E+04  0.83537731395E+03 0.  0.
        -24    2    4    4    0    0  0.26425505175E+03 -0.95167926008E+02  0.81144379448E+02  0.30369771553E+03  0.82220591033E+02 0.  0.
         24    2    4    4    0    0  0.29563064356E+03 -0.12641205605E+04 -0.85335470016E+03  0.15551463385E+04  0.69768339268E+02 0.  0.
         13    1    3    3    0    0 -0.15042665998E+03  0.47195015623E+03 -0.36279196970E+03  0.61398953027E+03  0.00000000000E+00 0. -1.
        -13    1    3    3    0    0 -0.40945903533E+03  0.88733833026E+03 -0.75362245873E+03  0.12340878511E+04  0.00000000000E+00 0.  1.
          4    1    6    6  502    0  0.49917136718E+02 -0.14700430164E+03 -0.82358435752E+02  0.17574099459E+03  0.00000000000E+00 0. -1.
          3    1    5    5  503    0  0.65910660518E+02  0.38828406244E+01 -0.41487552450E+01  0.66155149394E+02  0.00000000000E+00 0. -1.
         -4    1    5    5    0  503  0.19834439123E+03 -0.99050766633E+02  0.85293134693E+02  0.23754256614E+03  0.00000000000E+00 0.  1.
         -3    1    6    6    0  502  0.24571350685E+03 -0.11171162588E+04 -0.77099626441E+03  0.13794053440E+04  0.00000000000E+00 0.  1.
<mgrwt>
<rscale>  0 0.31897277E+04</rscale>
<asrwt>0</asrwt>
<pdfrwt beam="1">  1        1 0.13986897E+00 0.31897277E+04</pdfrwt>
<pdfrwt beam="2">  1       -1 0.43042664E+00 0.31897277E+04</pdfrwt>
<totfact> 0.66095584E-02</totfact>
</mgrwt>
</event>
<event>
12    1  0.1599266E-007  0.1209686E+04  0.7818608E-02  0.9104421E-01
          4   -1    0    0  501    0  0.00000000000E+00  0.00000000000E+00  0.50374856752E+03  0.50374856752E+03  0.00000000000E+00 0. -1.
         -4   -1    0    0    0  501 -0.00000000000E+00 -0.00000000000E+00 -0.72622501335E+03  0.72622501335E+03  0.00000000000E+00 0.  1.
         23    2    1    2    0    0  0.12719995404E+03 -0.17166762115E+03 -0.18650219760E+03  0.29881882607E+03  0.94127682680E+02 0.  0.
        254    2    1    2    0    0 -0.12719995404E+03  0.17166762115E+03 -0.35974248225E+02  0.93115475480E+03  0.90559672614E+03 0.  0.
        -24    2    4    4    0    0  0.11651297203E+03 -0.13833140020E+03  0.33150264556E+03  0.38594319543E+03  0.79669926272E+02 0.  0.
         24    2    4    4    0    0 -0.24371292608E+03  0.30999902134E+03 -0.36747689378E+03  0.54521155938E+03  0.81981665286E+02 0.  0.
         11    1    3    3    0    0 -0.10950006427E+01  0.10385591257E+02 -0.11798334541E+02  0.15756275896E+02  0.00000000000E+00 0. -1.
        -11    1    3    3    0    0  0.12829495468E+03 -0.18205321240E+03 -0.17470386306E+03  0.28306255018E+03  0.00000000000E+00 0.  1.
          2    1    6    6  502    0 -0.20515225832E+03  0.20158781481E+03 -0.26724030312E+03  0.39260982640E+03  0.00000000000E+00 0. -1.
          1    1    5    5  503    0  0.84068693271E+02 -0.39036000822E+02  0.14248127544E+03  0.16997725848E+03  0.00000000000E+00 0. -1.
         -2    1    5    5    0  503  0.32444278763E+02 -0.99295399373E+02  0.18902137012E+03  0.21596593695E+03  0.00000000000E+00 0.  1.
         -1    1    6    6    0  502 -0.38560667751E+02  0.10841120653E+03 -0.10023659066E+03  0.15260173297E+03  0.00000000000E+00 0.  1.
<mgrwt>
<rscale>  0 0.12096856E+04</rscale>
<asrwt>0</asrwt>
<pdfrwt beam="1">  1        4 0.77499780E-01 0.12096856E+04</pdfrwt>
<pdfrwt beam="2">  1       -4 0.11172692E+00 0.12096856E+04</pdfrwt>
<totfact> 0.18514081E+00</totfact>
</mgrwt>
</event>
<event>
12    1  0.1599266E-007  0.1720445E+04  0.7818608E-02  0.8749789E-01
         -2   -1    0    0    0  501 -0.00000000000E+00  0.00000000000E+00  0.42563812476E+03  0.42563812476E+03  0.00000000000E+00 0.  1.
          2   -1    0    0  501    0  0.00000000000E+00 -0.00000000000E+00 -0.17385265380E+04  0.17385265380E+04  0.00000000000E+00 0. -1.
         23    2    1    2    0    0  0.12275097438E+03  0.45036624283E+03 -0.98200609080E+03  0.10911149721E+04  0.91095365651E+02 0.  0.
        254    2    1    2    0    0 -0.12275097438E+03 -0.45036624283E+03 -0.33088232244E+03  0.10730496906E+04  0.90777473685E+03 0.  0.
        -24    2    4    4    0    0 -0.30169308999E+03 -0.63466339748E+03 -0.93423593240E+02  0.71439153327E+03  0.88379558721E+02 0.  0.
         24    2    4    4    0    0  0.17894211561E+03  0.18429715464E+03 -0.23745872920E+03  0.35865815736E+03  0.79141037508E+02 0.  0.
         13    1    3    3    0    0  0.12707287925E+03  0.43298092480E+03 -0.89541753024E+03  0.10026926505E+04  0.00000000000E+00 0.  1.
        -13    1    3    3    0    0 -0.43219048658E+01  0.17385318034E+02 -0.86588560565E+02  0.88422321648E+02  0.00000000000E+00 0. -1.
          4    1    6    6  502    0  0.21943794966E+02  0.51690463690E+01 -0.52340531425E+02  0.56989300818E+02  0.00000000000E+00 0. -1.
          3    1    5    5  503    0 -0.47615320430E+01 -0.70680914837E+02 -0.11689594479E+02  0.71799098383E+02  0.00000000000E+00 0. -1.
         -4    1    5    5    0  503 -0.29693155794E+03 -0.56398248264E+03 -0.81733998761E+02  0.64259243489E+03  0.00000000000E+00 0.  1.
         -3    1    6    6    0  502  0.15699832064E+03  0.17912810827E+03 -0.18511819778E+03  0.30166885654E+03  0.00000000000E+00 0.  1.
<mgrwt>
<rscale>  0 0.17204455E+04</rscale>
<asrwt>0</asrwt>
<pdfrwt beam="1">  1        2 0.26746561E+00 0.17204455E+04</pdfrwt>
<pdfrwt beam="2">  1       -2 0.65482790E-01 0.17204455E+04</pdfrwt>
<totfact> 0.19052405E+01</totfact>
</mgrwt>
</event>
<event>
12    1  0.1599266E-007  0.1335019E+04  0.7818608E-02  0.9002247E-01
          2   -1    0    0  501    0  0.00000000000E+00  0.00000000000E+00  0.20600227986E+04  0.20600227986E+04  0.00000000000E+00 0. -1.
         -2   -1    0    0    0  501 -0.00000000000E+00 -0.00000000000E+00 -0.21629313495E+03  0.21629313495E+03  0.00000000000E+00 0.  1.
         23    2    1    2    0    0  0.22183703847E+03 -0.28618462561E+03  0.40941486126E+03  0.55349960070E+03  0.87338237800E+02 0.  0.
        254    2    1    2    0    0 -0.22183703847E+03  0.28618462561E+03  0.14343148024E+04  0.17228163328E+04  0.88301973523E+03 0.  0.
        -24    2    4    4    0    0  0.33678302499E+03  0.11367735955E+03  0.56112863888E+03  0.66897098366E+03  0.79444821190E+02 0.  0.
         24    2    4    4    0    0 -0.55862006346E+03  0.17250726606E+03  0.87318616349E+03  0.10538453492E+04  0.79503532759E+02 0.  0.
         11    1    3    3    0    0  0.18496215270E+03 -0.23639975224E+03  0.38182212582E+03  0.48567888213E+03  0.00000000000E+00 0. -1.
        -11    1    3    3    0    0  0.36874885775E+02 -0.49784873373E+02  0.27592735444E+02  0.67820718568E+02  0.00000000000E+00 0.  1.
          4    1    6    6  502    0 -0.41850731520E+03  0.10157783996E+03  0.59681577568E+03  0.73597248627E+03  0.00000000000E+00 0. -1.
          3    1    5    5  503    0  0.30435831885E+03  0.12613974085E+03  0.50543908846E+03  0.60333563844E+03  0.00000000000E+00 0. -1.
         -4    1    5    5    0  503  0.32424706140E+02 -0.12462381294E+02  0.55689550422E+02  0.65635345219E+02  0.00000000000E+00 0.  1.
         -3    1    6    6    0  502 -0.14011274826E+03  0.70929426093E+02  0.27637038781E+03  0.31787286290E+03  0.00000000000E+00 0.  1.
<mgrwt>
<rscale>  0 0.13350188E+04</rscale>
<asrwt>0</asrwt>
<pdfrwt beam="1">  1        2 0.31692657E+00 0.13350188E+04</pdfrwt>
<pdfrwt beam="2">  1       -2 0.33275868E-01 0.13350188E+04</pdfrwt>
<totfact> 0.51079750E+01</totfact>
</mgrwt>
</event>
<event>
12    1  0.1599266E-007  0.1375693E+04  0.7818608E-02  0.8971604E-01
          2   -1    0    0  501    0  0.00000000000E+00  0.00000000000E+00  0.43709427198E+03  0.43709427198E+03  0.00000000000E+00 0. -1.
         -2   -1    0    0    0  501 -0.00000000000E+00 -0.00000000000E+00 -0.10824500076E+04  0.10824500076E+04  0.00000000000E+00 0.  1.
         23    2    1    2    0    0  0.20416288184E+03  0.18501247508E+03 -0.49168341206E+03  0.57126131570E+03  0.93138686182E+02 0.  0.
        254    2    1    2    0    0 -0.20416288184E+03 -0.18501247508E+03 -0.15367232359E+03  0.94828296390E+03  0.89426690554E+03 0.  0.
        -24    2    4    4    0    0  0.22542908423E+03  0.17650181347E+03  0.11735240053E+03  0.31962419419E+03  0.80105414450E+02 0.  0.
         24    2    4    4    0    0 -0.42959196607E+03 -0.36151428855E+03 -0.27102472411E+03  0.62865876972E+03  0.80719325622E+02 0.  0.
         11    1    3    3    0    0  0.10236398616E+03  0.11109248244E+03 -0.35329419647E+03  0.38423523338E+03  0.00000000000E+00 0.  1.
        -11    1    3    3    0    0  0.10179889568E+03  0.73919992632E+02 -0.13838921559E+03  0.18702608231E+03  0.00000000000E+00 0. -1.
          2    1    6    6  502    0 -0.14466157947E+03 -0.86118344884E+02 -0.53713448295E+02  0.17671580695E+03  0.00000000000E+00 0. -1.
          1    1    5    5  503    0  0.16720771655E+03  0.81898691637E+02  0.75711361670E+02  0.20099260298E+03  0.00000000000E+00 0. -1.
         -2    1    5    5    0  503  0.58221367676E+02  0.94603121834E+02  0.41641038857E+02  0.11863159121E+03  0.00000000000E+00 0.  1.
         -1    1    6    6    0  502 -0.28493038660E+03 -0.27539594366E+03 -0.21731127582E+03  0.45194296277E+03  0.00000000000E+00 0.  1.
<mgrwt>
<rscale>  0 0.13756928E+04</rscale>
<asrwt>0</asrwt>
<pdfrwt beam="1">  1        2 0.67245274E-01 0.13756928E+04</pdfrwt>
<pdfrwt beam="2">  1       -2 0.16653077E+00 0.13756928E+04</pdfrwt>
<totfact> 0.15803697E+01</totfact>
</mgrwt>
</event>
<event>
12    1  0.1599266E-007  0.1878951E+04  0.7818608E-02  0.8665405E-01
          3   -1    0    0  501    0  0.00000000000E+00  0.00000000000E+00  0.11384458402E+04  0.11384458402E+04  0.00000000000E+00 0. -1.
         -3   -1    0    0    0  501 -0.00000000000E+00 -0.00000000000E+00 -0.77528002632E+03  0.77528002632E+03  0.00000000000E+00 0.  1.
         23    2    1    2    0    0 -0.25182041536E+03 -0.54670318435E+03  0.54885961160E+03  0.81963330469E+03  0.90851458655E+02 0.  0.
        254    2    1    2    0    0  0.25182041536E+03  0.54670318435E+03 -0.18569379772E+03  0.10940925618E+04  0.89457165948E+03 0.  0.
        -24    2    4    4    0    0 -0.27872837569E+03  0.15406161153E+03 -0.26894027671E+03  0.42433770089E+03  0.79429996824E+02 0.  0.
         24    2    4    4    0    0  0.53054879106E+03  0.39264157282E+03  0.83246478987E+02  0.66975486093E+03  0.77409127882E+02 0.  0.
         13    1    3    3    0    0 -0.22917641463E+03 -0.40971419637E+03  0.41047914768E+03  0.62360298460E+03  0.00000000000E+00 0. -1.
        -13    1    3    3    0    0 -0.22644000729E+02 -0.13698898798E+03  0.13838046392E+03  0.19603032008E+03  0.00000000000E+00 0.  1.
          4    1    6    6  502    0  0.46543750522E+03  0.32069191600E+03  0.90611514211E+02  0.57243848820E+03  0.00000000000E+00 0. -1.
          3    1    5    5  503    0 -0.18277331438E+03  0.12407114220E+03 -0.22270315148E+03  0.31368204675E+03  0.00000000000E+00 0. -1.
         -4    1    5    5    0  503 -0.95955061317E+02  0.29990469335E+02 -0.46237125223E+02  0.11065565414E+03  0.00000000000E+00 0.  1.
         -3    1    6    6    0  502  0.65111285833E+02  0.71949656817E+02 -0.73650352234E+01  0.97316372738E+02  0.00000000000E+00 0.  1.
<mgrwt>
<rscale>  0 0.18789511E+04</rscale>
<asrwt>0</asrwt>
<pdfrwt beam="1">  1        3 0.17514551E+00 0.18789511E+04</pdfrwt>
<pdfrwt beam="2">  1       -3 0.11927385E+00 0.18789511E+04</pdfrwt>
<totfact> 0.30146051E-01</totfact>
</mgrwt>
</event>
<event>
12    1  0.1599266E-007  0.1741661E+04  0.7818608E-02  0.8737954E-01
          2   -1    0    0  501    0  0.00000000000E+00  0.00000000000E+00  0.39735851419E+04  0.39735851419E+04  0.00000000000E+00 0. -1.
         -2   -1    0    0    0  501 -0.00000000000E+00 -0.00000000000E+00 -0.19084663824E+03  0.19084663824E+03  0.00000000000E+00 0.  1.
         23    2    1    2    0    0  0.78055401430E+01  0.73647980413E+02 -0.10471938942E+03  0.15709568461E+03  0.90708059883E+02 0.  0.
        254    2    1    2    0    0 -0.78055401430E+01 -0.73647980413E+02  0.38874578930E+04  0.40073360955E+04  0.97001482498E+03 0.  0.
        -24    2    4    4    0    0 -0.37648196149E+03  0.42666673501E+02  0.31200052740E+04  0.31439541643E+04  0.80347772548E+02 0.  0.
         24    2    4    4    0    0  0.36867642135E+03 -0.11631465391E+03  0.76745261901E+03  0.86338193125E+03  0.83626756586E+02 0.  0.
         13    1    3    3    0    0  0.16918766987E+02  0.27944973298E+01 -0.79514344052E+02  0.81342392402E+02  0.00000000000E+00 0.  1.
        -13    1    3    3    0    0 -0.91132268445E+01  0.70853483083E+02 -0.25205045363E+02  0.75753292208E+02  0.00000000000E+00 0. -1.
          2    1    6    6  502    0  0.19488922753E+03 -0.10412385309E+03  0.41084755214E+03  0.46649683695E+03  0.00000000000E+00 0. -1.
          1    1    5    5  503    0 -0.33087552379E+03  0.63055929438E+02  0.27691260197E+04  0.27895364446E+04  0.00000000000E+00 0. -1.
         -2    1    5    5    0  503 -0.45606437699E+02 -0.20389255937E+02  0.35087925434E+03  0.35441771970E+03  0.00000000000E+00 0.  1.
         -1    1    6    6    0  502  0.17378719382E+03 -0.12190800828E+02  0.35660506687E+03  0.39688509430E+03  0.00000000000E+00 0.  1.
<mgrwt>
<rscale>  0 0.17416605E+04</rscale>
<asrwt>0</asrwt>
<pdfrwt beam="1">  1        2 0.61132073E+00 0.17416605E+04</pdfrwt>
<pdfrwt beam="2">  1       -2 0.29361024E-01 0.17416605E+04</pdfrwt>
<totfact> 0.36956082E+00</totfact>
</mgrwt>
</event>
<event>
12    1  0.1599266E-007  0.1511282E+04  0.7818608E-02  0.8876985E-01
         -1   -1    0    0    0  501 -0.00000000000E+00  0.00000000000E+00  0.90655076223E+03  0.90655076223E+03  0.00000000000E+00 0.  1.
          1   -1    0    0  501    0  0.00000000000E+00 -0.00000000000E+00 -0.62985284810E+03  0.62985284810E+03  0.00000000000E+00 0. -1.
         23    2    1    2    0    0 -0.33077260781E+02 -0.48301679114E+03  0.44213494613E+01  0.49282173292E+03  0.91947737347E+02 0.  0.
        254    2    1    2    0    0  0.33077260781E+02  0.48301679114E+03  0.27227656467E+03  0.10435818774E+04  0.88347568245E+03 0.  0.
        -24    2    4    4    0    0 -0.17021698772E+03  0.38568420240E+03 -0.22977778701E+03  0.48744734780E+03  0.84148431842E+02 0.  0.
         24    2    4    4    0    0  0.20329424850E+03  0.97332588741E+02  0.50205435169E+03  0.55613452961E+03  0.80155216155E+02 0.  0.
         13    1    3    3    0    0 -0.18469638070E+02 -0.42739866060E+03 -0.24411986154E+02  0.42849350950E+03  0.00000000000E+00 0. -1.
        -13    1    3    3    0    0 -0.14607622710E+02 -0.55618130539E+02  0.28833335616E+02  0.64328223422E+02  0.00000000000E+00 0.  1.
          4    1    6    6  502    0  0.87551300243E+02  0.63950441847E+02  0.15816831960E+03  0.19176054472E+03  0.00000000000E+00 0. -1.
          1    1    5    5  503    0 -0.17203557299E+02  0.12684107649E+03 -0.85548074285E+02  0.15395809197E+03  0.00000000000E+00 0. -1.
         -2    1    5    5    0  503 -0.15301343042E+03  0.25884312591E+03 -0.14422971273E+03  0.33348925583E+03  0.00000000000E+00 0.  1.
         -3    1    6    6    0  502  0.11574294826E+03  0.33382146894E+02  0.34388603208E+03  0.36437398489E+03  0.00000000000E+00 0.  1.
<mgrwt>
<rscale>  0 0.15112823E+04</rscale>
<asrwt>0</asrwt>
<pdfrwt beam="1">  1        1 0.96900438E-01 0.15112823E+04</pdfrwt>
<pdfrwt beam="2">  1       -1 0.13946935E+00 0.15112823E+04</pdfrwt>
<totfact> 0.13056689E+01</totfact>
</mgrwt>
</event>
<event>
12    1  0.1599266E-007  0.1761283E+04  0.7818608E-02  0.8727164E-01
         -2   -1    0    0    0  501 -0.00000000000E+00  0.00000000000E+00  0.60588072682E+03  0.60588072682E+03  0.00000000000E+00 0.  1.
          2   -1    0    0  501    0  0.00000000000E+00 -0.00000000000E+00 -0.12800034481E+04  0.12800034481E+04  0.00000000000E+00 0. -1.
         23    2    1    2    0    0  0.14880908443E+03 -0.62899664233E+03 -0.31140556624E+03  0.72385513098E+03  0.95978665832E+02 0.  0.
        254    2    1    2    0    0 -0.14880908443E+03  0.62899664233E+03 -0.36271715506E+03  0.11620290440E+04  0.89496751045E+03 0.  0.
        -24    2    4    4    0    0  0.31337032776E+03  0.53166592955E+03 -0.16735091049E+03  0.64502842061E+03  0.84768586074E+02 0.  0.
         24    2    4    4    0    0 -0.46217941219E+03  0.97330712777E+02 -0.19536624457E+03  0.51700062335E+03  0.77708418633E+02 0.  0.
         11    1    3    3    0    0  0.21620660012E+02 -0.19556273777E+03 -0.54340820573E+02  0.20412045983E+03  0.00000000000E+00 0. -1.
        -11    1    3    3    0    0  0.12718842442E+03 -0.43343390456E+03 -0.25706474566E+03  0.51973467115E+03  0.00000000000E+00 0.  1.
          2    1    6    6  502    0 -0.27337693059E+03  0.19057581688E+02 -0.12001511639E+03  0.29916845716E+03  0.00000000000E+00 0. -1.
          3    1    5    5  503    0  0.12031910529E+03  0.28700197129E+03 -0.78348712388E+02  0.32091328946E+03  0.00000000000E+00 0. -1.
         -4    1    5    5    0  503  0.19305122247E+03  0.24466395826E+03 -0.89002198104E+02  0.32411513115E+03  0.00000000000E+00 0.  1.
         -3    1    6    6    0  502 -0.18880248160E+03  0.78273131088E+02 -0.75351128176E+02  0.21783216619E+03  0.00000000000E+00 0.  1.
<mgrwt>
<rscale>  0 0.17612830E+04</rscale>
<asrwt>0</asrwt>
<pdfrwt beam="1">  1        2 0.19692361E+00 0.17612830E+04</pdfrwt>
<pdfrwt beam="2">  1       -2 0.93212420E-01 0.17612830E+04</pdfrwt>
<totfact> 0.15670619E+01</totfact>
</mgrwt>
</event>
<event>
12    1  0.1599266E-007  0.1243532E+04  0.7818608E-02  0.9075584E-01
         -2   -1    0    0    0  501 -0.00000000000E+00  0.00000000000E+00  0.17806689464E+03  0.17806689464E+03  0.00000000000E+00 0.  1.
          2   -1    0    0  501    0  0.00000000000E+00 -0.00000000000E+00 -0.21710533995E+04  0.21710533995E+04  0.00000000000E+00 0. -1.
         23    2    1    2    0    0 -0.13665868084E+03  0.16444883563E+03 -0.12402686637E+03  0.26307508572E+03  0.90037895109E+02 0.  0.
        254    2    1    2    0    0  0.13665868084E+03 -0.16444883563E+03 -0.18689596385E+04  0.20860452084E+04  0.90158497475E+03 0.  0.
        -24    2    4    4    0    0  0.25509069944E+03  0.31612078775E+03 -0.10076600263E+04  0.10893297490E+04  0.79100923198E+02 0.  0.
         24    2    4    4    0    0 -0.11843201860E+03 -0.48056962339E+03 -0.86129961222E+03  0.99671545945E+03  0.81433280427E+02 0.  0.
         11    1    3    3    0    0 -0.12688981696E+03  0.96628346842E+02 -0.10825756695E+03  0.19276349204E+03  0.00000000000E+00 0.  1.
        -11    1    3    3    0    0 -0.97688638704E+01  0.67820488793E+02 -0.15769299426E+02  0.70311593680E+02  0.00000000000E+00 0. -1.
          4    1    6    6  502    0 -0.18740150072E+02 -0.23299129596E+03 -0.43302948219E+03  0.49208807104E+03  0.00000000000E+00 0. -1.
          1    1    5    5  503    0  0.20028333155E+03  0.27457609882E+03 -0.76467396618E+03  0.83679849516E+03  0.00000000000E+00 0. -1.
         -2    1    5    5    0  503  0.54807367893E+02  0.41544688929E+02 -0.24298606008E+03  0.25253125380E+03  0.00000000000E+00 0.  1.
         -3    1    6    6    0  502 -0.99691868531E+02 -0.24757832743E+03 -0.42827013003E+03  0.50462738841E+03  0.00000000000E+00 0.  1.
<mgrwt>
<rscale>  0 0.12435316E+04</rscale>
<asrwt>0</asrwt>
<pdfrwt beam="1">  1        2 0.33400822E+00 0.12435316E+04</pdfrwt>
<pdfrwt beam="2">  1       -2 0.27394907E-01 0.12435316E+04</pdfrwt>
<totfact> 0.64166779E+01</totfact>
</mgrwt>
</event>
<event>
12    1  0.1599266E-007  0.1922525E+04  0.7818608E-02  0.8643725E-01
          2   -1    0    0  501    0  0.00000000000E+00  0.00000000000E+00  0.12357719660E+04  0.12357719660E+04  0.00000000000E+00 0. -1.
         -2   -1    0    0    0  501 -0.00000000000E+00 -0.00000000000E+00 -0.74773122609E+03  0.74773122609E+03  0.00000000000E+00 0.  1.
         23    2    1    2    0    0  0.41105564700E+03  0.18871908680E+03  0.80984536366E+03  0.93213672318E+03  0.91911473747E+02 0.  0.
        254    2    1    2    0    0 -0.41105564700E+03 -0.18871908680E+03 -0.32180462372E+03  0.10513664689E+04  0.89287826578E+03 0.  0.
        -24    2    4    4    0    0 -0.25951276282E+03 -0.55620583562E+02 -0.62213798154E+03  0.68100775721E+03  0.79217257729E+02 0.  0.
         24    2    4    4    0    0 -0.15154288418E+03 -0.13309850324E+03  0.30033335782E+03  0.37035871173E+03  0.79277942886E+02 0.  0.
         13    1    3    3    0    0  0.39174742299E+03  0.16531589066E+03  0.78564529315E+03  0.89332743928E+03  0.00000000000E+00 0. -1.
        -13    1    3    3    0    0  0.19308224010E+02  0.23403196143E+02  0.24200070512E+02  0.38809283902E+02  0.00000000000E+00 0.  1.
          2    1    6    6  502    0 -0.14632088944E+03 -0.13866251314E+03  0.30145489856E+03  0.36264604107E+03  0.00000000000E+00 0. -1.
          1    1    5    5  503    0 -0.26463623793E+03 -0.50072501936E+02 -0.60209500065E+03  0.65958925376E+03  0.00000000000E+00 0. -1.
         -2    1    5    5    0  503  0.51234751047E+01 -0.55480816263E+01 -0.20042980888E+02  0.21418503444E+02  0.00000000000E+00 0.  1.
         -1    1    6    6    0  502 -0.52219947403E+01  0.55640098937E+01 -0.11215407435E+01  0.77126706661E+01  0.00000000000E+00 0.  1.
<mgrwt>
<rscale>  0 0.19225247E+04</rscale>
<asrwt>0</asrwt>
<pdfrwt beam="1">  1        2 0.19011876E+00 0.19225247E+04</pdfrwt>
<pdfrwt beam="2">  1       -2 0.11503557E+00 0.19225247E+04</pdfrwt>
<totfact> 0.99354106E+00</totfact>
</mgrwt>
</event>
<event>
12    1  0.1599266E-007  0.1879915E+04  0.7818608E-02  0.8664919E-01
          2   -1    0    0  501    0  0.00000000000E+00  0.00000000000E+00  0.21685751763E+04  0.21685751763E+04  0.00000000000E+00 0. -1.
         -2   -1    0    0    0  501 -0.00000000000E+00 -0.00000000000E+00 -0.40741954324E+03  0.40741954324E+03  0.00000000000E+00 0.  1.
         23    2    1    2    0    0  0.62810775068E+02  0.53101232615E+03  0.22746131145E+02  0.54303676443E+03  0.91936157468E+02 0.  0.
        254    2    1    2    0    0 -0.62810775068E+02 -0.53101232615E+03  0.17384095019E+04  0.20329579551E+04  0.90825721410E+03 0.  0.
        -24    2    4    4    0    0  0.85126585004E+02 -0.70078829754E+02 -0.74152228550E+02  0.15511831971E+03  0.80034756544E+02 0.  0.
         24    2    4    4    0    0 -0.14793736007E+03 -0.46093349639E+03  0.18125617305E+04  0.18778396354E+04  0.80972334737E+02 0.  0.
         11    1    3    3    0    0 -0.14117197560E+02  0.16339234796E+02  0.58518159576E+01  0.22372072114E+02  0.00000000000E+00 0. -1.
        -11    1    3    3    0    0  0.76927972627E+02  0.51467309135E+03  0.16894315187E+02  0.52066469231E+03  0.00000000000E+00 0.  1.
          4    1    6    6  502    0 -0.13410387546E+03 -0.45349666132E+03  0.17790204409E+04  0.18408033030E+04  0.00000000000E+00 0. -1.
          1    1    5    5  503    0  0.52699043406E+02 -0.57755090216E+02 -0.88045689456E+02  0.11774923802E+03  0.00000000000E+00 0. -1.
         -2    1    5    5    0  503  0.32427541598E+02 -0.12323739537E+02  0.13893460906E+02  0.37369081688E+02  0.00000000000E+00 0.  1.
         -3    1    6    6    0  502 -0.13833484614E+02 -0.74368350705E+01  0.33541289611E+02  0.37036332448E+02  0.00000000000E+00 0.  1.
<mgrwt>
<rscale>  0 0.18799148E+04</rscale>
<asrwt>0</asrwt>
<pdfrwt beam="1">  1        2 0.33362694E+00 0.18799148E+04</pdfrwt>
<pdfrwt beam="2">  1       -2 0.62679931E-01 0.18799148E+04</pdfrwt>
<totfact> 0.11908501E+01</totfact>
</mgrwt>
</event>
<event>
12    1  0.1599266E-007  0.2537108E+04  0.7818608E-02  0.8389884E-01
         -2   -1    0    0    0  501 -0.00000000000E+00  0.00000000000E+00  0.10648670705E+04  0.10648670705E+04  0.00000000000E+00 0.  1.
          2   -1    0    0  501    0  0.00000000000E+00 -0.00000000000E+00 -0.15112018922E+04  0.15112018922E+04  0.00000000000E+00 0. -1.
         23    2    1    2    0    0  0.84426178351E+03  0.69495040216E+03 -0.93340737198E+02  0.11012677785E+04  0.91346626997E+02 0.  0.
        254    2    1    2    0    0 -0.84426178351E+03 -0.69495040216E+03 -0.35299408447E+03  0.14748011842E+04  0.92449969636E+03 0.  0.
        -24    2    4    4    0    0 -0.55102044361E+03  0.59161576411E+02  0.60089074084E+02  0.56278655926E+03  0.77423465874E+02 0.  0.
         24    2    4    4    0    0 -0.29324133990E+03 -0.75411197857E+03 -0.41308315855E+03  0.91201462489E+03  0.80359321143E+02 0.  0.
         11    1    3    3    0    0  0.26422453509E+02  0.34274813572E+02 -0.19062147509E+02  0.47289262655E+02  0.00000000000E+00 0. -1.
        -11    1    3    3    0    0  0.81783933000E+03  0.66067558858E+03 -0.74278589689E+02  0.10539785159E+04  0.00000000000E+00 0.  1.
          2    1    6    6  502    0 -0.13612990384E+03 -0.41579232630E+03 -0.25899097059E+03  0.50842003518E+03  0.00000000000E+00 0. -1.
          3    1    5    5  503    0 -0.49763100358E+03  0.66478822533E+02  0.34792489613E+02  0.50325596559E+03  0.00000000000E+00 0. -1.
         -4    1    5    5    0  503 -0.53389440027E+02 -0.73172461224E+01  0.25296584471E+02  0.59530593674E+02  0.00000000000E+00 0.  1.
         -1    1    6    6    0  502 -0.15711143606E+03 -0.33831965227E+03 -0.15409218796E+03  0.40359458971E+03  0.00000000000E+00 0.  1.
<mgrwt>
<rscale>  0 0.25371079E+04</rscale>
<asrwt>0</asrwt>
<pdfrwt beam="1">  1        2 0.23249260E+00 0.25371079E+04</pdfrwt>
<pdfrwt beam="2">  1       -2 0.16382570E+00 0.25371079E+04</pdfrwt>
<totfact> 0.26268540E+00</totfact>
</mgrwt>
</event>
<event>
12    1  0.1599266E-007  0.2001611E+04  0.7818608E-02  0.8605868E-01
          2   -1    0    0  501    0  0.00000000000E+00  0.00000000000E+00  0.75091505164E+03  0.75091505164E+03  0.00000000000E+00 0.  1.
         -2   -1    0    0    0  501 -0.00000000000E+00 -0.00000000000E+00 -0.13338549631E+04  0.13338549631E+04  0.00000000000E+00 0. -1.
         23    2    1    2    0    0 -0.48043695399E+03  0.13100515972E+03 -0.87480812182E+03  0.10107087131E+04  0.90889131368E+02 0.  0.
        254    2    1    2    0    0  0.48043695399E+03 -0.13100515972E+03  0.29186821035E+03  0.10740613016E+04  0.90578066261E+03 0.  0.
        -24    2    4    4    0    0  0.49259920805E+03  0.29179292730E+03  0.49769054615E+02  0.58017599135E+03  0.79562113800E+02 0.  0.
         24    2    4    4    0    0 -0.12162254059E+02 -0.42279808702E+03  0.24209915573E+03  0.49388531025E+03  0.80028467804E+02 0.  0.
         13    1    3    3    0    0 -0.27198738799E+03  0.96932576973E+02 -0.58176719624E+03  0.64948143493E+03  0.00000000000E+00 0. -1.
        -13    1    3    3    0    0 -0.20844956600E+03  0.34072582746E+02 -0.29304092558E+03  0.36122727821E+03  0.00000000000E+00 0.  1.
          2    1    6    6  502    0  0.21174693310E+02 -0.21469297153E+03  0.88918260565E+02  0.23334073096E+03  0.00000000000E+00 0. -1.
          1    1    5    5  503    0  0.34683059067E+03  0.16343557909E+03  0.22811888755E+02  0.38408726795E+03  0.00000000000E+00 0. -1.
         -2    1    5    5    0  503  0.14576861738E+03  0.12835734821E+03  0.26957165860E+02  0.19608872340E+03  0.00000000000E+00 0.  1.
         -1    1    6    6    0  502 -0.33336947370E+02 -0.20810511549E+03  0.15318089517E+03  0.26054457929E+03  0.00000000000E+00 0.  1.
<mgrwt>
<rscale>  0 0.20016111E+04</rscale>
<asrwt>0</asrwt>
<pdfrwt beam="1">  1        2 0.11552539E+00 0.20016111E+04</pdfrwt>
<pdfrwt beam="2">  1       -2 0.20520845E+00 0.20016111E+04</pdfrwt>
<totfact> 0.42746806E+00</totfact>
</mgrwt>
</event>
<event>
12    1  0.1599266E-007  0.1374710E+04  0.7818608E-02  0.8972331E-01
         -1   -1    0    0    0  501 -0.00000000000E+00  0.00000000000E+00  0.46076513319E+03  0.46076513319E+03  0.00000000000E+00 0.  1.
          1   -1    0    0  501    0  0.00000000000E+00 -0.00000000000E+00 -0.10253750211E+04  0.10253750211E+04  0.00000000000E+00 0. -1.
         23    2    1    2    0    0  0.23774747672E+03  0.29082445342E+03 -0.26174203341E+03  0.46686801935E+03  0.91400930190E+02 0.  0.
        254    2    1    2    0    0 -0.23774747672E+03 -0.29082445342E+03 -0.30286785448E+03  0.10192721349E+04  0.89782182106E+03 0.  0.
        -24    2    4    4    0    0  0.31355306653E+03 -0.22003269997E+03 -0.26647313906E+02  0.39345361389E+03  0.85823961479E+02 0.  0.
         24    2    4    4    0    0 -0.55130054325E+03 -0.70791753457E+02 -0.27622054057E+03  0.62581852103E+03  0.80045442661E+02 0.  0.
         11    1    3    3    0    0  0.17681686438E+03  0.25887643582E+03 -0.23966442076E+03  0.39461404832E+03  0.00000000000E+00 0. -1.
        -11    1    3    3    0    0  0.60930612345E+02  0.31948017598E+02 -0.22077612656E+02  0.72253971031E+02  0.00000000000E+00 0.  1.
          2    1    6    6  502    0 -0.28765335479E+02 -0.20899408664E+02 -0.84181501956E+01  0.36538952646E+02  0.00000000000E+00 0. -1.
          1    1    5    5  503    0  0.13169321965E+03 -0.71523303112E+02 -0.48824151512E+02  0.15761498901E+03  0.00000000000E+00 0. -1.
         -2    1    5    5    0  503  0.18185984687E+03 -0.14850939685E+03  0.22176837606E+02  0.23583862488E+03  0.00000000000E+00 0.  1.
         -1    1    6    6    0  502 -0.52253520777E+03 -0.49892344792E+02 -0.26780239038E+03  0.58927956839E+03  0.00000000000E+00 0.  1.
<mgrwt>
<rscale>  0 0.13747102E+04</rscale>
<asrwt>0</asrwt>
<pdfrwt beam="1">  1        1 0.15775000E+00 0.13747102E+04</pdfrwt>
<pdfrwt beam="2">  1       -1 0.70886945E-01 0.13747102E+04</pdfrwt>
<totfact> 0.28401118E+01</totfact>
</mgrwt>
</event>
<event>
12    1  0.1599266E-007  0.1742693E+04  0.7818608E-02  0.8737383E-01
          1   -1    0    0  501    0  0.00000000000E+00  0.00000000000E+00  0.10140070620E+04  0.10140070620E+04  0.00000000000E+00 0. -1.
         -1   -1    0    0    0  501 -0.00000000000E+00 -0.00000000000E+00 -0.74875659716E+03  0.74875659716E+03  0.00000000000E+00 0.  1.
         23    2    1    2    0    0 -0.42981154547E+03 -0.14141832735E+03 -0.36052793418E+03  0.58512136616E+03  0.87461499460E+02 0.  0.
        254    2    1    2    0    0  0.42981154547E+03  0.14141832735E+03  0.62577839901E+03  0.11776422930E+04  0.88910385089E+03 0.  0.
        -24    2    4    4    0    0 -0.18572043927E+03 -0.19560433393E+03  0.10004440257E+03  0.29686969400E+03  0.73277525301E+02 0.  0.
         24    2    4    4    0    0  0.61553198474E+03  0.33702266128E+03  0.52573399645E+03  0.88077259901E+03  0.83067669286E+02 0.  0.
         11    1    3    3    0    0 -0.38930896939E+03 -0.13393786532E+03 -0.29048978966E+03  0.50387016513E+03  0.00000000000E+00 0.  1.
        -11    1    3    3    0    0 -0.40502576079E+02 -0.74804620340E+01 -0.70038144520E+02  0.81251201032E+02  0.00000000000E+00 0. -1.
          4    1    6    6  502    0  0.46923382403E+03  0.25719744787E+03  0.44314489272E+03  0.69477212433E+03  0.00000000000E+00 0. -1.
          1    1    5    5  503    0 -0.11868917015E+03 -0.16449685052E+03  0.54406244675E+02  0.21001517183E+03  0.00000000000E+00 0. -1.
         -2    1    5    5    0  503 -0.67031269130E+02 -0.31107483412E+02  0.45638157892E+02  0.86854522169E+02  0.00000000000E+00 0.  1.
         -3    1    6    6    0  502  0.14629816072E+03  0.79825213410E+02  0.82589103724E+02  0.18600047467E+03  0.00000000000E+00 0.  1.
<mgrwt>
<rscale>  0 0.17426927E+04</rscale>
<asrwt>0</asrwt>
<pdfrwt beam="1">  1        1 0.15600109E+00 0.17426927E+04</pdfrwt>
<pdfrwt beam="2">  1       -1 0.11519332E+00 0.17426927E+04</pdfrwt>
<totfact> 0.95662617E+00</totfact>
</mgrwt>
</event>
<event>
12    1  0.1599266E-007  0.2099641E+04  0.7818608E-02  0.8561401E-01
         -2   -1    0    0    0  501 -0.00000000000E+00  0.00000000000E+00  0.90813455400E+03  0.90813455400E+03  0.00000000000E+00 0.  1.
          2   -1    0    0  501    0  0.00000000000E+00 -0.00000000000E+00 -0.12136121959E+04  0.12136121959E+04  0.00000000000E+00 0. -1.
         23    2    1    2    0    0 -0.22169958911E+03 -0.12135875927E+03 -0.95399381370E+03  0.99131814240E+03  0.93428082527E+02 0.  0.
        254    2    1    2    0    0  0.22169958911E+03  0.12135875927E+03  0.64851617176E+03  0.11304286075E+04  0.89073955533E+03 0.  0.
        -24    2    4    4    0    0  0.18973410257E+03  0.30956718103E+03  0.79238774053E+03  0.87532601059E+03  0.80538340112E+02 0.  0.
         24    2    4    4    0    0  0.31965486545E+02 -0.18820842176E+03 -0.14387156877E+03  0.25510259694E+03  0.89073589321E+02 0.  0.
         11    1    3    3    0    0 -0.19367681276E+03 -0.74379464821E+02 -0.83442682198E+03  0.85983203815E+03  0.00000000000E+00 0. -1.
        -11    1    3    3    0    0 -0.28022776351E+02 -0.46979294452E+02 -0.11956699173E+03  0.13148610426E+03  0.00000000000E+00 0.  1.
          2    1    6    6  502    0  0.46754687443E+02 -0.59331116022E+02 -0.81634969757E+02  0.11122252656E+03  0.00000000000E+00 0. -1.
          1    1    5    5  503    0  0.83860345352E+02  0.21043737172E+03  0.50121550206E+03  0.55003038502E+03  0.00000000000E+00 0. -1.
         -2    1    5    5    0  503  0.10587375722E+03  0.99129809309E+02  0.29117223847E+03  0.32529562557E+03  0.00000000000E+00 0.  1.
         -1    1    6    6    0  502 -0.14789200898E+02 -0.12887730574E+03 -0.62236599014E+02  0.14388007039E+03  0.00000000000E+00 0.  1.
<mgrwt>
<rscale>  0 0.20996411E+04</rscale>
<asrwt>0</asrwt>
<pdfrwt beam="1">  1        2 0.18670957E+00 0.20996411E+04</pdfrwt>
<pdfrwt beam="2">  1       -2 0.13971301E+00 0.20996411E+04</pdfrwt>
<totfact> 0.61866503E+00</totfact>
</mgrwt>
</event>
<event>
12    1  0.1599266E-007  0.1994929E+04  0.7818608E-02  0.8608995E-01
         -2   -1    0    0    0  501 -0.00000000000E+00  0.00000000000E+00  0.52019276867E+03  0.52019276867E+03  0.00000000000E+00 0.  1.
          2   -1    0    0  501    0  0.00000000000E+00 -0.00000000000E+00 -0.19126284411E+04  0.19126284411E+04  0.00000000000E+00 0. -1.
         23    2    1    2    0    0 -0.70113677358E+02  0.60469270072E+03  0.66866141404E+02  0.61835675678E+03  0.85585090569E+02 0.  0.
        254    2    1    2    0    0  0.70113677358E+02 -0.60469270072E+03 -0.14593018139E+04  0.18144644530E+04  0.89002824523E+03 0.  0.
        -24    2    4    4    0    0  0.15980272724E+03 -0.34526697318E+03 -0.70050234679E+02  0.39616769793E+03  0.85414372939E+02 0.  0.
         24    2    4    4    0    0 -0.89689049881E+02 -0.25942572754E+03 -0.13892515792E+04  0.14182967551E+04  0.78739453097E+02 0.  0.
         11    1    3    3    0    0 -0.52098080887E+02  0.14455649738E+03  0.28437268343E+02  0.15626730048E+03  0.00000000000E+00 0. -1.
        -11    1    3    3    0    0 -0.18015596472E+02  0.46013620334E+03  0.38428873061E+02  0.46208945630E+03  0.00000000000E+00 0.  1.
          4    1    6    6  502    0 -0.43128699274E+02 -0.38534457997E+02 -0.22157167622E+03  0.22899562628E+03  0.00000000000E+00 0. -1.
          3    1    5    5  503    0  0.61352561151E+02 -0.17647474419E+03 -0.73393234659E+02  0.20073375149E+03  0.00000000000E+00 0. -1.
         -4    1    5    5    0  503  0.98450166089E+02 -0.16879222899E+03  0.33429999794E+01  0.19543394644E+03  0.00000000000E+00 0.  1.
         -3    1    6    6    0  502 -0.46560350607E+02 -0.22089126955E+03 -0.11676799030E+04  0.11893011288E+04  0.00000000000E+00 0.  1.
<mgrwt>
<rscale>  0 0.19949291E+04</rscale>
<asrwt>0</asrwt>
<pdfrwt beam="1">  1        2 0.29425054E+00 0.19949291E+04</pdfrwt>
<pdfrwt beam="2">  1       -2 0.80029655E-01 0.19949291E+04</pdfrwt>
<totfact> 0.95907105E+00</totfact>
</mgrwt>
</event>
<event>
12    1  0.1599266E-007  0.1159439E+04  0.7818608E-02  0.9149120E-01
         -2   -1    0    0    0  501 -0.00000000000E+00  0.00000000000E+00  0.78901793179E+02  0.78901793179E+02  0.00000000000E+00 0.  1.
          2   -1    0    0  501    0  0.00000000000E+00 -0.00000000000E+00 -0.42594051482E+04  0.42594051482E+04  0.00000000000E+00 0. -1.
         23    2    1    2    0    0  0.83501128086E+02 -0.15204061698E+01 -0.15859418513E+04  0.15908703923E+04  0.93178856689E+02 0.  0.
        254    2    1    2    0    0 -0.83501128086E+02  0.15204061698E+01 -0.25945615037E+04  0.27474365490E+04  0.89982411872E+03 0.  0.
        -24    2    4    4    0    0  0.12165759764E+03 -0.38802498383E+02 -0.25000672352E+04  0.25045996688E+04  0.79856844127E+02 0.  0.
         24    2    4    4    0    0 -0.20515872573E+03  0.40322904553E+02 -0.94494268462E+02  0.24283688022E+03  0.79527003263E+02 0.  0.
         11    1    3    3    0    0  0.62423929418E+02  0.78155658765E+00 -0.40895466451E+03  0.41369224723E+03  0.00000000000E+00 0.  1.
        -11    1    3    3    0    0  0.21077198668E+02 -0.23019627574E+01 -0.11769871868E+04  0.11771781451E+04  0.00000000000E+00 0. -1.
          4    1    6    6  502    0 -0.51227974634E+02  0.27382167509E+02  0.62385248123E+01  0.58420952358E+02  0.00000000000E+00 0. -1.
          1    1    5    5  503    0  0.83663916145E+02 -0.53860809407E+02 -0.21216401607E+04  0.21239721300E+04  0.00000000000E+00 0. -1.
         -2    1    5    5    0  503  0.37993681497E+02  0.15058311024E+02 -0.37842707452E+03  0.38062753880E+03  0.00000000000E+00 0.  1.
         -3    1    6    6    0  502 -0.15393075109E+03  0.12940737044E+02 -0.10073279327E+03  0.18441592786E+03  0.00000000000E+00 0.  1.
<mgrwt>
<rscale>  0 0.11594390E+04</rscale>
<asrwt>0</asrwt>
<pdfrwt beam="1">  1        2 0.65529326E+00 0.11594390E+04</pdfrwt>
<pdfrwt beam="2">  1       -2 0.12138735E-01 0.11594390E+04</pdfrwt>
<totfact> 0.10759744E+01</totfact>
</mgrwt>
</event>
<event>
12    1  0.1599266E-007  0.1129200E+04  0.7818608E-02  0.9177189E-01
         -2   -1    0    0    0  501 -0.00000000000E+00  0.00000000000E+00  0.20655053316E+03  0.20655053316E+03  0.00000000000E+00 0.  1.
          2   -1    0    0  501    0  0.00000000000E+00 -0.00000000000E+00 -0.15433189996E+04  0.15433189996E+04  0.00000000000E+00 0. -1.
         23    2    1    2    0    0  0.17688265202E+03  0.59847868090E+02 -0.20159860511E+03  0.29034658357E+03  0.93754472470E+02 0.  0.
        254    2    1    2    0    0 -0.17688265202E+03 -0.59847868090E+02 -0.11351698614E+04  0.14595229492E+04  0.89818004054E+03 0.  0.
        -24    2    4    4    0    0 -0.18148466859E+03  0.20101035227E+03  0.12176569515E+02  0.28051537556E+03  0.72102430120E+02 0.  0.
         24    2    4    4    0    0  0.46020165634E+01 -0.26085822036E+03 -0.11473464309E+04  0.11790075736E+04  0.74745144289E+02 0.  0.
         13    1    3    3    0    0  0.18594959490E+03  0.49642759942E+02 -0.19821917003E+03  0.27628335966E+03  0.00000000000E+00 0.  1.
        -13    1    3    3    0    0 -0.90669428725E+01  0.10205108148E+02 -0.33794350767E+01  0.14063223912E+02  0.00000000000E+00 0. -1.
          2    1    6    6  502    0  0.74039448720E+01 -0.11226755778E+03 -0.65941679917E+03  0.66894643878E+03  0.00000000000E+00 0. -1.
          3    1    5    5  503    0 -0.84212691160E+01 -0.60652265106E+01  0.37968061082E+00  0.10385032668E+02  0.00000000000E+00 0. -1.
         -4    1    5    5    0  503 -0.17306339947E+03  0.20707557878E+03  0.11796888905E+02  0.27013034290E+03  0.00000000000E+00 0.  1.
         -1    1    6    6    0  502 -0.28019283086E+01 -0.14859066258E+03 -0.48792963170E+03  0.51006113487E+03  0.00000000000E+00 0.  1.
<mgrwt>
<rscale>  0 0.11292004E+04</rscale>
<asrwt>0</asrwt>
<pdfrwt beam="1">  1        2 0.23743369E+00 0.11292004E+04</pdfrwt>
<pdfrwt beam="2">  1       -2 0.31777005E-01 0.11292004E+04</pdfrwt>
<totfact> 0.10940428E+02</totfact>
</mgrwt>
</event>
<event>
12    1  0.1599266E-007  0.1987079E+04  0.7818608E-02  0.8612685E-01
         -1   -1    0    0    0  501 -0.00000000000E+00  0.00000000000E+00  0.82110644043E+03  0.82110644043E+03  0.00000000000E+00 0.  1.
          1   -1    0    0  501    0  0.00000000000E+00 -0.00000000000E+00 -0.12021839895E+04  0.12021839895E+04  0.00000000000E+00 0. -1.
         23    2    1    2    0    0  0.11630325714E+03  0.41186301574E+03 -0.81864128307E+03  0.92897319583E+03  0.98285588223E+02 0.  0.
        254    2    1    2    0    0 -0.11630325714E+03 -0.41186301574E+03  0.43756373403E+03  0.10943172341E+04  0.90714419808E+03 0.  0.
        -24    2    4    4    0    0 -0.24386435585E+03 -0.50892866869E+02  0.61279841808E+03  0.66578924083E+03  0.75455311654E+02 0.  0.
         24    2    4    4    0    0  0.12756109871E+03 -0.36097014887E+03 -0.17523468405E+03  0.42852799325E+03  0.79735589413E+02 0.  0.
         13    1    3    3    0    0  0.71072813191E+02  0.14359109345E+03 -0.22775279475E+03  0.27846199455E+03  0.00000000000E+00 0.  1.
        -13    1    3    3    0    0  0.45230443947E+02  0.26827192229E+03 -0.59088848832E+03  0.65051120127E+03  0.00000000000E+00 0. -1.
          2    1    6    6  502    0  0.12384201999E+02 -0.86308615180E+02 -0.95574703636E+01  0.87714826302E+02  0.00000000000E+00 0. -1.
          1    1    5    5  503    0 -0.24513038771E+02  0.10947990488E+02  0.11818776129E+03  0.12119857460E+03  0.00000000000E+00 0. -1.
         -4    1    5    5    0  503 -0.21935131708E+03 -0.61840857357E+02  0.49461065679E+03  0.54459066624E+03  0.00000000000E+00 0.  1.
         -1    1    6    6    0  502  0.11517689671E+03 -0.27466153369E+03 -0.16567721369E+03  0.34081316695E+03  0.00000000000E+00 0.  1.
<mgrwt>
<rscale>  0 0.19870793E+04</rscale>
<asrwt>0</asrwt>
<pdfrwt beam="1">  1        1 0.18495138E+00 0.19870793E+04</pdfrwt>
<pdfrwt beam="2">  1       -1 0.12632407E+00 0.19870793E+04</pdfrwt>
<totfact> 0.53899070E+00</totfact>
</mgrwt>
</event>
<event>
12    1  0.1599266E-007  0.1578499E+04  0.7818608E-02  0.8833867E-01
          3   -1    0    0  501    0  0.00000000000E+00  0.00000000000E+00  0.10585634725E+04  0.10585634725E+04  0.00000000000E+00 0. -1.
         -3   -1    0    0    0  501 -0.00000000000E+00 -0.00000000000E+00 -0.58845319167E+03  0.58845319167E+03  0.00000000000E+00 0.  1.
         23    2    1    2    0    0 -0.14670330495E+03  0.38757164088E+03  0.49536632035E+03  0.65240943026E+03  0.92285626502E+02 0.  0.
        254    2    1    2    0    0  0.14670330495E+03 -0.38757164088E+03 -0.25256039549E+02  0.99460723389E+03  0.90380973976E+03 0.  0.
        -24    2    4    4    0    0 -0.30118619658E+02  0.21132499650E+03 -0.23893185082E+03  0.33004739533E+03  0.79230476673E+02 0.  0.
         24    2    4    4    0    0  0.17682192461E+03 -0.59889663737E+03  0.21367581127E+03  0.66455983856E+03  0.77712620757E+02 0.  0.
         13    1    3    3    0    0 -0.62620529482E+02  0.27223304855E+03  0.29355950665E+03  0.40522752545E+03  0.00000000000E+00 0.  1.
        -13    1    3    3    0    0 -0.84082775466E+02  0.11533859232E+03  0.20180681371E+03  0.24718190481E+03  0.00000000000E+00 0. -1.
          4    1    6    6  502    0  0.74445271278E+02 -0.38481717222E+03  0.13052711598E+03  0.41311461177E+03  0.00000000000E+00 0. -1.
          1    1    5    5  503    0 -0.25990384692E+02  0.21646563898E+03 -0.21886486902E+03  0.30892507804E+03  0.00000000000E+00 0. -1.
         -2    1    5    5    0  503 -0.41282349666E+01 -0.51406424779E+01 -0.20066981798E+02  0.21122317286E+02  0.00000000000E+00 0.  1.
         -3    1    6    6    0  502  0.10237665333E+03 -0.21407946516E+03  0.83148695286E+02  0.25144522679E+03  0.00000000000E+00 0.  1.
<mgrwt>
<rscale>  0 0.15784994E+04</rscale>
<asrwt>0</asrwt>
<pdfrwt beam="1">  1        3 0.16285592E+00 0.15784994E+04</pdfrwt>
<pdfrwt beam="2">  1       -3 0.90531260E-01 0.15784994E+04</pdfrwt>
<totfact> 0.72100419E-01</totfact>
</mgrwt>
</event>
<event>
12    1  0.1599266E-007  0.4140309E+04  0.7818608E-02  0.7976825E-01
         -2   -1    0    0    0  501 -0.00000000000E+00  0.00000000000E+00  0.13963428115E+04  0.13963428115E+04  0.00000000000E+00 0. -1.
          2   -1    0    0  501    0  0.00000000000E+00 -0.00000000000E+00 -0.30691169555E+04  0.30691169555E+04  0.00000000000E+00 0.  1.
         23    2    1    2    0    0 -0.15971526261E+04  0.71607059341E+03 -0.17766024486E+04  0.24956291995E+04  0.90527538055E+02 0.  0.
        254    2    1    2    0    0  0.15971526261E+04 -0.71607059341E+03  0.10382830466E+03  0.19698305675E+04  0.89766282213E+03 0.  0.
        -24    2    4    4    0    0  0.12950419212E+04 -0.37426993040E+03 -0.26668141956E+03  0.13765148801E+04  0.80390778471E+02 0.  0.
         24    2    4    4    0    0  0.30211070492E+03 -0.34180066301E+03  0.37050972422E+03  0.59331568743E+03  0.81532066972E+02 0.  0.
         13    1    3    3    0    0 -0.15590647706E+03  0.80415919070E+02 -0.21597350111E+03  0.27824108757E+03  0.00000000000E+00 0. -1.
        -13    1    3    3    0    0 -0.14412461490E+04  0.63565467434E+03 -0.15606289475E+04  0.22173881119E+04  0.00000000000E+00 0.  1.
          2    1    6    6  502    0  0.26674537590E+03 -0.30332788653E+03  0.28968924257E+03  0.49707218749E+03  0.00000000000E+00 0. -1.
          3    1    5    5  503    0  0.30503872112E+03 -0.58398491742E+02 -0.79865127431E+02  0.32068277753E+03  0.00000000000E+00 0. -1.
         -4    1    5    5    0  503  0.99000320003E+03 -0.31587143866E+03 -0.18681629213E+03  0.10558321026E+04  0.00000000000E+00 0.  1.
         -3    1    6    6    0  502  0.35365329017E+02 -0.38472776477E+02  0.80820481650E+02  0.96243499939E+02  0.00000000000E+00 0.  1.
<mgrwt>
<rscale>  0 0.41403089E+04</rscale>
<asrwt>0</asrwt>
<pdfrwt beam="1">  1        2 0.47217183E+00 0.41403089E+04</pdfrwt>
<pdfrwt beam="2">  1       -2 0.21482197E+00 0.41403089E+04</pdfrwt>
<totfact> 0.13087596E-01</totfact>
</mgrwt>
</event>
<event>
12    1  0.1599266E-007  0.1445929E+04  0.7818608E-02  0.8921228E-01
         -2   -1    0    0    0  501 -0.00000000000E+00  0.00000000000E+00  0.22887016793E+03  0.22887016793E+03  0.00000000000E+00 0.  1.
          2   -1    0    0  501    0  0.00000000000E+00 -0.00000000000E+00 -0.22837308279E+04  0.22837308279E+04  0.00000000000E+00 0. -1.
         23    2    1    2    0    0 -0.52944807424E+02 -0.15272954067E+03 -0.13767315632E+04  0.13891266592E+04  0.90297358987E+02 0.  0.
        254    2    1    2    0    0  0.52944807424E+02  0.15272954067E+03 -0.67812909683E+03  0.11234743367E+04  0.88102556600E+03 0.  0.
        -24    2    4    4    0    0  0.22005908518E+03 -0.28363270131E+03 -0.49214589360E+03  0.61435946021E+03  0.79727382600E+02 0.  0.
         24    2    4    4    0    0 -0.16711427776E+03  0.43636224199E+03 -0.18598320323E+03  0.50911487645E+03  0.79177127250E+02 0.  0.
         11    1    3    3    0    0  0.17744490719E+02 -0.83177390303E+02 -0.70579191345E+03  0.71089772140E+03  0.00000000000E+00 0.  1.
        -11    1    3    3    0    0 -0.70689298142E+02 -0.69552150369E+02 -0.67093964971E+03  0.67822893778E+03  0.00000000000E+00 0. -1.
          4    1    6    6  502    0 -0.61943841636E+01  0.10727661898E+03 -0.47581060862E+02  0.11751851227E+03  0.00000000000E+00 0. -1.
          1    1    5    5  503    0  0.20980040396E+02 -0.18496597019E+02 -0.83887682646E+02  0.88427538109E+02  0.00000000000E+00 0. -1.
         -2    1    5    5    0  503  0.19907904479E+03 -0.26513610429E+03 -0.40825821096E+03  0.52593192210E+03  0.00000000000E+00 0.  1.
         -3    1    6    6    0  502 -0.16091989359E+03  0.32908562301E+03 -0.13840214237E+03  0.39159636418E+03  0.00000000000E+00 0.  1.
<mgrwt>
<rscale>  0 0.14459293E+04</rscale>
<asrwt>0</asrwt>
<pdfrwt beam="1">  1        2 0.35134320E+00 0.14459293E+04</pdfrwt>
<pdfrwt beam="2">  1       -2 0.35210795E-01 0.14459293E+04</pdfrwt>
<totfact> 0.34081897E+01</totfact>
</mgrwt>
</event>
<event>
12    1  0.1599266E-007  0.1920893E+04  0.7818608E-02  0.8644526E-01
          2   -1    0    0  501    0  0.00000000000E+00  0.00000000000E+00  0.12316278483E+04  0.12316278483E+04  0.00000000000E+00 0. -1.
         -2   -1    0    0    0  501 -0.00000000000E+00 -0.00000000000E+00 -0.74897441031E+03  0.74897441031E+03  0.00000000000E+00 0.  1.
         23    2    1    2    0    0 -0.18447984905E+03  0.72421004098E+03  0.13908870918E+03  0.76575796370E+03  0.92339546151E+02 0.  0.
        254    2    1    2    0    0  0.18447984905E+03 -0.72421004098E+03  0.34356472881E+03  0.12148442949E+04  0.89403408202E+03 0.  0.
        -24    2    4    4    0    0  0.23623511054E+03 -0.14248055492E+03 -0.24709393758E+03  0.38081414260E+03  0.88635552876E+02 0.  0.
         24    2    4    4    0    0 -0.51755261486E+02 -0.58172948606E+03  0.59065866638E+03  0.83403015231E+03  0.75105477372E+02 0.  0.
         13    1    3    3    0    0 -0.24722782202E+02  0.32451648547E+02  0.21516451660E+02  0.46122479826E+02  0.00000000000E+00 0.  1.
        -13    1    3    3    0    0 -0.15975706685E+03  0.69175839243E+03  0.11757225752E+03  0.71963548387E+03  0.00000000000E+00 0. -1.
          4    1    6    6  502    0  0.98639330536E+01 -0.91462346390E+02  0.12381726028E+03  0.15425100300E+03  0.00000000000E+00 0. -1.
          1    1    5    5  503    0  0.16941537010E+01 -0.29190141612E+02 -0.27253199555E+02  0.39970882027E+02  0.00000000000E+00 0. -1.
         -2    1    5    5    0  503  0.23454095684E+03 -0.11329041331E+03 -0.21984073802E+03  0.34084326057E+03  0.00000000000E+00 0.  1.
         -3    1    6    6    0  502 -0.61619194540E+02 -0.49026713967E+03  0.46684140610E+03  0.67977914931E+03  0.00000000000E+00 0.  1.
<mgrwt>
<rscale>  0 0.19208933E+04</rscale>
<asrwt>0</asrwt>
<pdfrwt beam="1">  1        2 0.18948121E+00 0.19208933E+04</pdfrwt>
<pdfrwt beam="2">  1       -2 0.11522683E+00 0.19208933E+04</pdfrwt>
<totfact> 0.99526089E+00</totfact>
</mgrwt>
</event>
<event>
12    1  0.1599266E-007  0.1556413E+04  0.7818608E-02  0.8847782E-01
         -2   -1    0    0    0  501 -0.00000000000E+00  0.00000000000E+00  0.44034340051E+03  0.44034340051E+03  0.00000000000E+00 0.  1.
          2   -1    0    0  501    0  0.00000000000E+00 -0.00000000000E+00 -0.13753030826E+04  0.13753030826E+04  0.00000000000E+00 0. -1.
         23    2    1    2    0    0  0.18977177836E+03 -0.59715170796E+02  0.24018448020E+03  0.32504652229E+03  0.91582900361E+02 0.  0.
        254    2    1    2    0    0 -0.18977177836E+03  0.59715170796E+02 -0.11751441623E+04  0.14905999608E+04  0.89517887124E+03 0.  0.
        -24    2    4    4    0    0  0.33797911446E+03 -0.90484531397E+02 -0.52687564312E+03  0.63745747591E+03  0.79603756443E+02 0.  0.
         24    2    4    4    0    0 -0.52775089282E+03  0.15019970219E+03 -0.64826851913E+03  0.85314248488E+03  0.80740765332E+02 0.  0.
         13    1    3    3    0    0  0.12949238109E+03 -0.28771248806E+01  0.10611099945E+03  0.16743983639E+03  0.00000000000E+00 0. -1.
        -13    1    3    3    0    0  0.60279397275E+02 -0.56838045915E+02  0.13407348075E+03  0.15760668590E+03  0.00000000000E+00 0.  1.
          4    1    6    6  502    0 -0.32746677571E+03  0.98834097628E+02 -0.34273275324E+03  0.48421938023E+03  0.00000000000E+00 0. -1.
          1    1    5    5  503    0  0.31010187773E+03 -0.10263441064E+03 -0.49768717590E+03  0.59530624210E+03  0.00000000000E+00 0. -1.
         -2    1    5    5    0  503  0.27877236727E+02  0.12149879240E+02 -0.29188467217E+02  0.42151233808E+02  0.00000000000E+00 0.  1.
         -3    1    6    6    0  502 -0.20028411711E+03  0.51365604566E+02 -0.30553576590E+03  0.36892310465E+03  0.00000000000E+00 0.  1.
<mgrwt>
<rscale>  0 0.15564134E+04</rscale>
<asrwt>0</asrwt>
<pdfrwt beam="1">  1        2 0.21158508E+00 0.15564134E+04</pdfrwt>
<pdfrwt beam="2">  1       -2 0.67745140E-01 0.15564134E+04</pdfrwt>
<totfact> 0.28716059E+01</totfact>
</mgrwt>
</event>
<event>
12    1  0.1599266E-007  0.1556989E+04  0.7818608E-02  0.8847416E-01
         -2   -1    0    0    0  501 -0.00000000000E+00  0.00000000000E+00  0.10134998396E+04  0.10134998396E+04  0.00000000000E+00 0. -1.
          2   -1    0    0  501    0  0.00000000000E+00 -0.00000000000E+00 -0.59798131229E+03  0.59798131229E+03  0.00000000000E+00 0.  1.
         23    2    1    2    0    0  0.86424364540E+01 -0.19804546465E+03  0.65484997757E+03  0.69195129173E+03  0.10330246474E+03 0.  0.
        254    2    1    2    0    0 -0.86424364540E+01  0.19804546465E+03 -0.23933145028E+03  0.91952986014E+03  0.86542412887E+03 0.  0.
        -24    2    4    4    0    0  0.39383999623E+03  0.22035527566E+03 -0.30355203593E+02  0.45817090099E+03  0.73025652933E+02 0.  0.
         24    2    4    4    0    0 -0.40248243269E+03 -0.22309811004E+02 -0.20897624668E+03  0.46135895915E+03  0.81799640731E+02 0.  0.
         11    1    3    3    0    0 -0.93597977965E+01  0.10119311886E+02  0.56946030015E+02  0.58590584758E+02  0.00000000000E+00 0.  1.
        -11    1    3    3    0    0  0.18002234250E+02 -0.20816477654E+03  0.59790394756E+03  0.63336070697E+03  0.00000000000E+00 0. -1.
          4    1    6    6  502    0 -0.23144617975E+03  0.15241916999E+02 -0.15156845725E+03  0.27707877470E+03  0.00000000000E+00 0. -1.
          3    1    5    5  503    0  0.38049747406E+03  0.19753058186E+03 -0.38670568074E+02  0.43045565552E+03  0.00000000000E+00 0. -1.
         -4    1    5    5    0  503  0.13342522170E+02  0.22824693795E+02  0.83153644807E+01  0.27715245465E+02  0.00000000000E+00 0.  1.
         -3    1    6    6    0  502 -0.17103625294E+03 -0.37551728003E+02 -0.57407789430E+02  0.18428018446E+03  0.00000000000E+00 0.  1.
<mgrwt>
<rscale>  0 0.15569894E+04</rscale>
<asrwt>0</asrwt>
<pdfrwt beam="1">  1        2 0.91997125E-01 0.15569894E+04</pdfrwt>
<pdfrwt beam="2">  1       -2 0.15592305E+00 0.15569894E+04</pdfrwt>
<totfact> 0.12933303E+01</totfact>
</mgrwt>
</event>
<event>
12    1  0.1599266E-007  0.2138030E+04  0.7818608E-02  0.8544674E-01
          2   -1    0    0  501    0  0.00000000000E+00  0.00000000000E+00  0.11358292140E+04  0.11358292140E+04  0.00000000000E+00 0. -1.
         -2   -1    0    0    0  501 -0.00000000000E+00 -0.00000000000E+00 -0.10061308368E+04  0.10061308368E+04  0.00000000000E+00 0.  1.
         23    2    1    2    0    0 -0.35529049561E+03  0.72261597613E+03 -0.28562414207E+03  0.85941842875E+03  0.92810020561E+02 0.  0.
        254    2    1    2    0    0  0.35529049561E+03 -0.72261597613E+03  0.41532251932E+03  0.12825416221E+04  0.90775273729E+03 0.  0.
        -24    2    4    4    0    0  0.34101947248E+03 -0.21133119072E+03  0.60633797297E+03  0.73134254216E+03  0.79126630977E+02 0.  0.
         24    2    4    4    0    0  0.14271023122E+02 -0.51128478541E+03 -0.19101545364E+03  0.55119907991E+03  0.75615661532E+02 0.  0.
         11    1    3    3    0    0 -0.26828643667E+03  0.60665457460E+03 -0.20920648678E+03  0.69553917151E+03  0.00000000000E+00 0.  1.
        -11    1    3    3    0    0 -0.87004058937E+02  0.11596140153E+03 -0.76417655287E+02  0.16387925725E+03  0.00000000000E+00 0. -1.
          4    1    6    6  502    0 -0.69181410811E+01 -0.47121231048E+03 -0.16759850633E+03  0.50017812982E+03  0.00000000000E+00 0. -1.
          3    1    5    5  503    0  0.23564568411E+03 -0.12451813871E+03  0.33962419044E+03  0.43171546884E+03  0.00000000000E+00 0. -1.
         -4    1    5    5    0  503  0.10537378838E+03 -0.86813052016E+02  0.26671378253E+03  0.29962707332E+03  0.00000000000E+00 0.  1.
         -3    1    6    6    0  502  0.21189164204E+02 -0.40072474928E+02 -0.23416947314E+02  0.51020950089E+02  0.00000000000E+00 0.  1.
<mgrwt>
<rscale>  0 0.21380297E+04</rscale>
<asrwt>0</asrwt>
<pdfrwt beam="1">  1        2 0.17474296E+00 0.21380297E+04</pdfrwt>
<pdfrwt beam="2">  1       -2 0.15478936E+00 0.21380297E+04</pdfrwt>
<totfact> 0.52422627E+00</totfact>
</mgrwt>
</event>
<event>
12    1  0.1599266E-007  0.1339647E+04  0.7818608E-02  0.8998702E-01
         -1   -1    0    0    0  501 -0.00000000000E+00  0.00000000000E+00  0.21674645673E+04  0.21674645673E+04  0.00000000000E+00 0.  1.
          1   -1    0    0  501    0  0.00000000000E+00 -0.00000000000E+00 -0.20699935648E+03  0.20699935648E+03  0.00000000000E+00 0. -1.
         23    2    1    2    0    0 -0.45390192750E+01  0.16814544321E+02 -0.92905469592E+02  0.13097174875E+03  0.90657824232E+02 0.  0.
        254    2    1    2    0    0  0.45390192750E+01 -0.16814544321E+02  0.20533706804E+04  0.22434921751E+04  0.90367176377E+03 0.  0.
        -24    2    4    4    0    0 -0.32396625312E+03  0.26289557588E+03  0.13404610850E+04  0.14061712919E+04  0.80084734720E+02 0.  0.
         24    2    4    4    0    0  0.32850527240E+03 -0.27971012020E+03  0.71290959548E+03  0.83732088320E+03  0.81931097828E+02 0.  0.
         11    1    3    3    0    0  0.32851423215E+02  0.84174930786E+01 -0.85447283402E+02  0.91930998242E+02  0.00000000000E+00 0. -1.
        -11    1    3    3    0    0 -0.37390442490E+02  0.83970512427E+01 -0.74581861899E+01  0.39040750510E+02  0.00000000000E+00 0.  1.
          4    1    6    6  502    0  0.54076247588E+02 -0.11486994250E+02  0.97072363160E+02  0.11171049763E+03  0.00000000000E+00 0. -1.
          1    1    5    5  503    0 -0.24788070101E+02  0.43695645248E+02  0.10796843807E+03  0.11908375814E+03  0.00000000000E+00 0. -1.
         -2    1    5    5    0  503 -0.29917818302E+03  0.21919993064E+03  0.12324926469E+04  0.12870875337E+04  0.00000000000E+00 0.  1.
         -3    1    6    6    0  502  0.27442902481E+03 -0.26822312596E+03  0.61583723232E+03  0.72561038558E+03  0.00000000000E+00 0.  1.
<mgrwt>
<rscale>  0 0.13396474E+04</rscale>
<asrwt>0</asrwt>
<pdfrwt beam="1">  1        1 0.31846056E-01 0.13396474E+04</pdfrwt>
<pdfrwt beam="2">  1       -1 0.33345607E+00 0.13396474E+04</pdfrwt>
<totfact> 0.28024519E+00</totfact>
</mgrwt>
</event>
<event>
12    1  0.1599266E-007  0.1514521E+04  0.7818608E-02  0.8874854E-01
          1   -1    0    0  501    0  0.00000000000E+00  0.00000000000E+00  0.41713979942E+03  0.41713979942E+03  0.00000000000E+00 0. -1.
         -1   -1    0    0    0  501 -0.00000000000E+00 -0.00000000000E+00 -0.13747029549E+04  0.13747029549E+04  0.00000000000E+00 0.  1.
         23    2    1    2    0    0 -0.22554069582E+03  0.41819756138E+03 -0.21914779737E+03  0.53098281700E+03  0.90328229513E+02 0.  0.
        254    2    1    2    0    0  0.22554069582E+03 -0.41819756138E+03 -0.73841535816E+03  0.12608599374E+04  0.90484956466E+03 0.  0.
        -24    2    4    4    0    0 -0.84809464882E+02 -0.50110067962E+03 -0.77231341514E+03  0.92792538759E+03  0.79265233770E+02 0.  0.
         24    2    4    4    0    0  0.31035016070E+03  0.82903118237E+02  0.33898056980E+02  0.33293454977E+03  0.80660937911E+02 0.  0.
         11    1    3    3    0    0 -0.68138708531E+02  0.86173976940E+02 -0.88267639787E+02  0.14092556239E+03  0.00000000000E+00 0. -1.
        -11    1    3    3    0    0 -0.15740198729E+03  0.33202358444E+03 -0.13088015758E+03  0.39005725461E+03  0.00000000000E+00 0.  1.
          2    1    6    6  502    0  0.22036525760E+03  0.68033091996E+02  0.59546752524E+02  0.23819144422E+03  0.00000000000E+00 0. -1.
          1    1    5    5  503    0 -0.34772042426E+01 -0.32903013353E+02 -0.94495233516E+02  0.10012016977E+03  0.00000000000E+00 0. -1.
         -2    1    5    5    0  503 -0.81332260639E+02 -0.46819766626E+03 -0.67781818162E+03  0.82780521782E+03  0.00000000000E+00 0.  1.
         -1    1    6    6    0  502  0.89984903099E+02  0.14870026242E+02 -0.25648695545E+02  0.94743105551E+02  0.00000000000E+00 0.  1.
<mgrwt>
<rscale>  0 0.15145208E+04</rscale>
<asrwt>0</asrwt>
<pdfrwt beam="1">  1        1 0.64175353E-01 0.15145208E+04</pdfrwt>
<pdfrwt beam="2">  1       -1 0.21149277E+00 0.15145208E+04</pdfrwt>
<totfact> 0.68823539E+00</totfact>
</mgrwt>
</event>
<event>
12    1  0.1599266E-007  0.1467174E+04  0.7818608E-02  0.8906580E-01
         -2   -1    0    0    0  501 -0.00000000000E+00  0.00000000000E+00  0.20629682898E+03  0.20629682898E+03  0.00000000000E+00 0.  1.
          2   -1    0    0  501    0  0.00000000000E+00 -0.00000000000E+00 -0.26086197091E+04  0.26086197091E+04  0.00000000000E+00 0. -1.
         23    2    1    2    0    0  0.27938692711E+02 -0.35692668629E+03 -0.22589098197E+03  0.43283182982E+03  0.90218774251E+02 0.  0.
        254    2    1    2    0    0 -0.27938692711E+02  0.35692668629E+03 -0.21764318982E+04  0.23820847083E+04  0.89960798136E+03 0.  0.
        -24    2    4    4    0    0  0.31219607873E+03 -0.12119402963E+03 -0.52518565967E+03  0.62791358992E+03  0.79379562229E+02 0.  0.
         24    2    4    4    0    0 -0.34013477144E+03  0.47812071593E+03 -0.16512462385E+04  0.17541711184E+04  0.78810472539E+02 0.  0.
         13    1    3    3    0    0  0.37329592678E+02 -0.94989229242E+02 -0.32527713053E+02  0.10711911257E+03  0.00000000000E+00 0.  1.
        -13    1    3    3    0    0 -0.93908999677E+01 -0.26193745705E+03 -0.19336326891E+03  0.32571271724E+03  0.00000000000E+00 0. -1.
          4    1    6    6  502    0 -0.35389654929E+02  0.64506587428E+02 -0.14288949359E+03  0.16072005126E+03  0.00000000000E+00 0. -1.
          1    1    5    5  503    0  0.41450250590E+02 -0.40437078138E+02 -0.12800930084E+03  0.14049790627E+03  0.00000000000E+00 0. -1.
         -2    1    5    5    0  503  0.27074582814E+03 -0.80756951495E+02 -0.39717635882E+03  0.48741568366E+03  0.00000000000E+00 0.  1.
         -3    1    6    6    0  502 -0.30474511651E+03  0.41361412850E+03 -0.15083567449E+04  0.15934510671E+04  0.00000000000E+00 0.  1.
<mgrwt>
<rscale>  0 0.14671741E+04</rscale>
<asrwt>0</asrwt>
<pdfrwt beam="1">  1        2 0.40132613E+00 0.14671741E+04</pdfrwt>
<pdfrwt beam="2">  1       -2 0.31737972E-01 0.14671741E+04</pdfrwt>
<totfact> 0.26984174E+01</totfact>
</mgrwt>
</event>
<event>
12    1  0.1599266E-007  0.1515162E+04  0.7818608E-02  0.8874432E-01
         -1   -1    0    0    0  501 -0.00000000000E+00  0.00000000000E+00  0.29263618803E+03  0.29263618803E+03  0.00000000000E+00 0.  1.
          1   -1    0    0  501    0  0.00000000000E+00 -0.00000000000E+00 -0.19612372661E+04  0.19612372661E+04  0.00000000000E+00 0. -1.
         23    2    1    2    0    0 -0.35960503008E+03 -0.32180997358E+03 -0.46670257236E+03  0.67765625611E+03  0.92354066764E+02 0.  0.
        254    2    1    2    0    0  0.35960503008E+03  0.32180997358E+03 -0.12018985057E+04  0.15762171980E+04  0.89834470030E+03 0.  0.
        -24    2    4    4    0    0  0.14752932726E+03 -0.22336922383E+03 -0.83759716383E+03  0.88242212336E+03  0.73763692873E+02 0.  0.
         24    2    4    4    0    0  0.21207570282E+03  0.54517919741E+03 -0.36430134188E+03  0.69379507465E+03  0.80247597502E+02 0.  0.
         11    1    3    3    0    0 -0.10758460589E+03 -0.11786528064E+03 -0.10063355360E+03  0.18866314933E+03  0.00000000000E+00 0.  1.
        -11    1    3    3    0    0 -0.25202042419E+03 -0.20394469294E+03 -0.36606901876E+03  0.48899310678E+03  0.00000000000E+00 0. -1.
          4    1    6    6  502    0  0.16509101551E+03  0.45152980951E+03 -0.26273484953E+03  0.54787207762E+03  0.00000000000E+00 0. -1.
          3    1    5    5  503    0  0.11309322072E+03 -0.12453355113E+03 -0.59238970808E+03  0.61581186102E+03  0.00000000000E+00 0. -1.
         -4    1    5    5    0  503  0.34436106543E+02 -0.98835672708E+02 -0.24520745575E+03  0.26661026235E+03  0.00000000000E+00 0.  1.
         -3    1    6    6    0  502  0.46984687307E+02  0.93649387904E+02 -0.10156649235E+03  0.14592299704E+03  0.00000000000E+00 0.  1.
<mgrwt>
<rscale>  0 0.15151620E+04</rscale>
<asrwt>0</asrwt>
<pdfrwt beam="1">  1        1 0.30172883E+00 0.15151620E+04</pdfrwt>
<pdfrwt beam="2">  1       -1 0.45020949E-01 0.15151620E+04</pdfrwt>
<totfact> 0.14975540E+01</totfact>
</mgrwt>
</event>
<event>
12    1  0.1599266E-007  0.1670242E+04  0.7818608E-02  0.8778521E-01
          1   -1    0    0  501    0  0.00000000000E+00  0.00000000000E+00  0.19406890592E+04  0.19406890592E+04  0.00000000000E+00 0. -1.
         -1   -1    0    0    0  501 -0.00000000000E+00 -0.00000000000E+00 -0.35937099067E+03  0.35937099067E+03  0.00000000000E+00 0.  1.
         23    2    1    2    0    0 -0.37579816651E+03  0.15828872116E+03 -0.20290136538E+02  0.41802003578E+03  0.89718891371E+02 0.  0.
        254    2    1    2    0    0  0.37579816651E+03 -0.15828872116E+03  0.16016082050E+04  0.18820400141E+04  0.90035892335E+03 0.  0.
        -24    2    4    4    0    0  0.40412703334E+03  0.28159975389E+03  0.56946825054E+03  0.75719599695E+03  0.80216014294E+02 0.  0.
         24    2    4    4    0    0 -0.28328866824E+02 -0.43988847505E+03  0.10321399545E+04  0.11248440171E+04  0.75211581427E+02 0.  0.
         13    1    3    3    0    0 -0.35921513633E+03  0.12613154555E+03 -0.24987657177E+02  0.38153514119E+03  0.00000000000E+00 0.  1.
        -13    1    3    3    0    0 -0.16583030186E+02  0.32157175603E+02  0.46975206382E+01  0.36484894588E+02  0.00000000000E+00 0. -1.
          2    1    6    6  502    0 -0.30290501674E+02 -0.43534984093E+03  0.98375042908E+03  0.10762025391E+04  0.00000000000E+00 0. -1.
          3    1    5    5  503    0  0.27824239722E+03  0.23330959091E+03  0.43710669069E+03  0.56825562546E+03  0.00000000000E+00 0. -1.
         -4    1    5    5    0  503  0.12588463611E+03  0.48290162986E+02  0.13236155986E+03  0.18894037149E+03  0.00000000000E+00 0.  1.
         -1    1    6    6    0  502  0.19616348503E+01 -0.45386341172E+01  0.48389525423E+02  0.48641477996E+02  0.00000000000E+00 0.  1.
<mgrwt>
<rscale>  0 0.16702423E+04</rscale>
<asrwt>0</asrwt>
<pdfrwt beam="1">  1        1 0.29856754E+00 0.16702423E+04</pdfrwt>
<pdfrwt beam="2">  1       -1 0.55287846E-01 0.16702423E+04</pdfrwt>
<totfact> 0.10317808E+01</totfact>
</mgrwt>
</event>
<event>
12    1  0.1599266E-007  0.1107637E+04  0.7818608E-02  0.9197780E-01
          1   -1    0    0  501    0  0.00000000000E+00  0.00000000000E+00  0.19738922815E+04  0.19738922815E+04  0.00000000000E+00 0. -1.
         -1   -1    0    0    0  501 -0.00000000000E+00 -0.00000000000E+00 -0.15538583175E+03  0.15538583175E+03  0.00000000000E+00 0.  1.
         23    2    1    2    0    0 -0.98256933801E+02 -0.11515046293E+03  0.24912692914E+03  0.30525859400E+03  0.90578850948E+02 0.  0.
        254    2    1    2    0    0  0.98256933801E+02  0.11515046293E+03  0.15693795206E+04  0.18240195193E+04  0.91715924064E+03 0.  0.
        -24    2    4    4    0    0 -0.34637608691E+03  0.91100631962E+02  0.29240489227E+03  0.46930916064E+03  0.80465822006E+02 0.  0.
         24    2    4    4    0    0  0.44463302072E+03  0.24049830969E+02  0.12769746284E+04  0.13547103586E+04  0.79366471305E+02 0.  0.
         11    1    3    3    0    0 -0.50337358250E+02 -0.66185116374E+02  0.21113197056E+03  0.22691634639E+03  0.00000000000E+00 0. -1.
        -11    1    3    3    0    0 -0.47919575551E+02 -0.48965346556E+02  0.37994958576E+02  0.78342247616E+02  0.00000000000E+00 0.  1.
          2    1    6    6  502    0  0.41197279901E+03  0.16035162349E+02  0.11034286263E+04  0.11779360963E+04  0.00000000000E+00 0. -1.
          1    1    5    5  503    0 -0.31898572187E+03  0.60886902591E+02  0.24513403887E+03  0.40687811772E+03  0.00000000000E+00 0. -1.
         -2    1    5    5    0  503 -0.27390365039E+02  0.30213729370E+02  0.47270853392E+02  0.62431042918E+02  0.00000000000E+00 0.  1.
         -1    1    6    6    0  502  0.32660221709E+02  0.80146686196E+01  0.17354600207E+03  0.17677426235E+03  0.00000000000E+00 0.  1.
<mgrwt>
<rscale>  0 0.11076369E+04</rscale>
<asrwt>0</asrwt>
<pdfrwt beam="1">  1        1 0.30367572E+00 0.11076369E+04</pdfrwt>
<pdfrwt beam="2">  1       -1 0.23905514E-01 0.11076369E+04</pdfrwt>
<totfact> 0.46880118E+01</totfact>
</mgrwt>
</event>
<event>
12    1  0.1599266E-007  0.1753119E+04  0.7818608E-02  0.8731636E-01
         -1   -1    0    0    0  501 -0.00000000000E+00  0.00000000000E+00  0.50233640898E+03  0.50233640898E+03  0.00000000000E+00 0.  1.
          1   -1    0    0  501    0  0.00000000000E+00 -0.00000000000E+00 -0.15295651716E+04  0.15295651716E+04  0.00000000000E+00 0. -1.
         23    2    1    2    0    0 -0.48879689977E+02  0.35894468856E+03 -0.99014142804E+03  0.10585109446E+04  0.93993929606E+02 0.  0.
        254    2    1    2    0    0  0.48879689977E+02 -0.35894468856E+03 -0.37087334608E+02  0.97339063599E+03  0.90270889345E+03 0.  0.
        -24    2    4    4    0    0 -0.17027889886E+03  0.20468810062E+02 -0.37124282248E+03  0.41635369079E+03  0.78200300578E+02 0.  0.
         24    2    4    4    0    0  0.21915858883E+03 -0.37941349862E+03  0.33415548787E+03  0.55703694520E+03  0.81517962764E+02 0.  0.
         13    1    3    3    0    0  0.63331128448E+01 -0.37562924093E+01 -0.18408919952E+02  0.19826910621E+02  0.00000000000E+00 0.  1.
        -13    1    3    3    0    0 -0.55212802821E+02  0.36270098096E+03 -0.97173250808E+03  0.10386840340E+04  0.00000000000E+00 0. -1.
          2    1    6    6  502    0  0.23362989944E+02 -0.95677406259E+01  0.80366952882E+01  0.26494516998E+02  0.00000000000E+00 0. -1.
          3    1    5    5  503    0 -0.37653154368E+02  0.22346449887E+02 -0.39085584561E+02  0.58692476322E+02  0.00000000000E+00 0. -1.
         -4    1    5    5    0  503 -0.13262574449E+03 -0.18776398248E+01 -0.33215723792E+03  0.35766121447E+03  0.00000000000E+00 0.  1.
         -1    1    6    6    0  502  0.19579559889E+03 -0.36984575799E+03  0.32611879258E+03  0.53054242820E+03  0.00000000000E+00 0.  1.
<mgrwt>
<rscale>  0 0.17531187E+04</rscale>
<asrwt>0</asrwt>
<pdfrwt beam="1">  1        1 0.23531772E+00 0.17531187E+04</pdfrwt>
<pdfrwt beam="2">  1       -1 0.77282525E-01 0.17531187E+04</pdfrwt>
<totfact> 0.99233112E+00</totfact>
</mgrwt>
</event>
<event>
12    1  0.1599266E-007  0.1564676E+04  0.7818608E-02  0.8842548E-01
         -1   -1    0    0    0  501 -0.00000000000E+00  0.00000000000E+00  0.51963497940E+03  0.51963497940E+03  0.00000000000E+00 0.  1.
          1   -1    0    0  501    0  0.00000000000E+00 -0.00000000000E+00 -0.11778515374E+04  0.11778515374E+04  0.00000000000E+00 0. -1.
         23    2    1    2    0    0 -0.38006136240E+03  0.94632125144E+02  0.14613306299E+03  0.42769449380E+03  0.90364980083E+02 0.  0.
        254    2    1    2    0    0  0.38006136240E+03 -0.94632125144E+02 -0.80434962098E+03  0.12697920230E+04  0.90110575995E+03 0.  0.
        -24    2    4    4    0    0 -0.20127424017E+03 -0.77108755389E+01 -0.60684908856E+03  0.64454594546E+03  0.81258120611E+02 0.  0.
         24    2    4    4    0    0  0.58133560258E+03 -0.86921249605E+02 -0.19750053243E+03  0.62524607755E+03  0.80123721357E+02 0.  0.
         11    1    3    3    0    0 -0.30767936567E+01 -0.10161229398E+02  0.27008371015E+01  0.10954988048E+02  0.00000000000E+00 0. -1.
        -11    1    3    3    0    0 -0.37698456875E+03  0.10479335454E+03  0.14343222588E+03  0.41673950575E+03  0.00000000000E+00 0.  1.
          4    1    6    6  502    0  0.36383425917E+02 -0.16810193032E+02 -0.32387488592E+02  0.51529464276E+02  0.00000000000E+00 0. -1.
          1    1    5    5  503    0 -0.12567988588E+03  0.21336221077E+02 -0.27739357398E+03  0.30528325032E+03  0.00000000000E+00 0. -1.
         -4    1    5    5    0  503 -0.75594354297E+02 -0.29047096616E+02 -0.32945551458E+03  0.33926269514E+03  0.00000000000E+00 0.  1.
         -3    1    6    6    0  502  0.54495217666E+03 -0.70111056573E+02 -0.16511304383E+03  0.57371661327E+03  0.00000000000E+00 0.  1.
<mgrwt>
<rscale>  0 0.15646761E+04</rscale>
<asrwt>0</asrwt>
<pdfrwt beam="1">  1        1 0.18120793E+00 0.15646761E+04</pdfrwt>
<pdfrwt beam="2">  1       -1 0.79943844E-01 0.15646761E+04</pdfrwt>
<totfact> 0.16679070E+01</totfact>
</mgrwt>
</event>
<event>
12    1  0.1599266E-007  0.1248238E+04  0.7818608E-02  0.9071651E-01
          1   -1    0    0  501    0  0.00000000000E+00  0.00000000000E+00  0.19975964301E+03  0.19975964301E+03  0.00000000000E+00 0. -1.
         -1   -1    0    0    0  501 -0.00000000000E+00 -0.00000000000E+00 -0.19499645513E+04  0.19499645513E+04  0.00000000000E+00 0.  1.
         23    2    1    2    0    0 -0.17561434106E+03  0.20360822460E+03 -0.64609068079E+03  0.70584105096E+03  0.92096229559E+02 0.  0.
        254    2    1    2    0    0  0.17561434106E+03 -0.20360822460E+03 -0.11041142275E+04  0.14438831434E+04  0.89074889750E+03 0.  0.
        -24    2    4    4    0    0  0.43739009778E+03 -0.62233292928E+01 -0.21597603918E+03  0.49407248984E+03  0.78186624522E+02 0.  0.
         24    2    4    4    0    0 -0.26177575671E+03 -0.19738489530E+03 -0.88813818833E+03  0.94981065353E+03  0.76573443795E+02 0.  0.
         11    1    3    3    0    0 -0.18087083056E+03  0.18170234738E+03 -0.62246782354E+03  0.67319847871E+03  0.00000000000E+00 0.  1.
        -11    1    3    3    0    0  0.52564894966E+01  0.21905877214E+02 -0.23622857255E+02  0.32642572252E+02  0.00000000000E+00 0. -1.
          2    1    6    6  502    0 -0.23448677187E+03 -0.14756565382E+03 -0.77851470279E+03  0.82634424475E+03  0.00000000000E+00 0. -1.
          1    1    5    5  503    0  0.18957252723E+03  0.17170211875E+01 -0.51213856118E+02  0.19637604309E+03  0.00000000000E+00 0. -1.
         -2    1    5    5    0  503  0.24781757054E+03 -0.79403504804E+01 -0.16476218306E+03  0.29769644674E+03  0.00000000000E+00 0.  1.
         -1    1    6    6    0  502 -0.27288984837E+02 -0.49819241481E+02 -0.10962348554E+03  0.12346640878E+03  0.00000000000E+00 0.  1.
<mgrwt>
<rscale>  0 0.12482375E+04</rscale>
<asrwt>0</asrwt>
<pdfrwt beam="1">  1        1 0.30732252E-01 0.12482375E+04</pdfrwt>
<pdfrwt beam="2">  1       -1 0.29999455E+00 0.12482375E+04</pdfrwt>
<totfact> 0.48811199E+00</totfact>
</mgrwt>
</event>
<event>
12    1  0.1599266E-007  0.1899344E+04  0.7818608E-02  0.8655183E-01
          2   -1    0    0  501    0  0.00000000000E+00  0.00000000000E+00  0.81147043312E+03  0.81147043312E+03  0.00000000000E+00 0. -1.
         -2   -1    0    0    0  501 -0.00000000000E+00 -0.00000000000E+00 -0.11114104161E+04  0.11114104161E+04  0.00000000000E+00 0.  1.
         23    2    1    2    0    0  0.24441092640E+03  0.64556324739E+03  0.13105970906E+03  0.70859184865E+03  0.91853978154E+02 0.  0.
        254    2    1    2    0    0 -0.24441092640E+03 -0.64556324739E+03 -0.43099969202E+03  0.12142890006E+04  0.90124826492E+03 0.  0.
        -24    2    4    4    0    0  0.31635630215E+03 -0.40085210627E+03 -0.17564765293E+03  0.54647660382E+03  0.83790569499E+02 0.  0.
         24    2    4    4    0    0 -0.56076722855E+03 -0.24471114112E+03 -0.25535203909E+03  0.66781239674E+03  0.80158007471E+02 0.  0.
         13    1    3    3    0    0  0.14471249180E+03  0.42311766882E+03  0.12671590919E+03  0.46478725090E+03  0.00000000000E+00 0. -1.
        -13    1    3    3    0    0  0.99698434605E+02  0.22244557857E+03  0.43437998653E+01  0.24380459775E+03  0.00000000000E+00 0.  1.
          2    1    6    6  502    0 -0.33882148922E+03 -0.16083403775E+03 -0.11569601062E+03  0.39249605874E+03  0.00000000000E+00 0. -1.
          1    1    5    5  503    0  0.36672557954E+01  0.14162042541E+01  0.45800250252E+01  0.60358121897E+01  0.00000000000E+00 0. -1.
         -2    1    5    5    0  503  0.31268904635E+03 -0.40226831052E+03 -0.18022767795E+03  0.54044079163E+03  0.00000000000E+00 0.  1.
         -1    1    6    6    0  502 -0.22194573933E+03 -0.83877103373E+02 -0.13965602848E+03  0.27531633800E+03  0.00000000000E+00 0.  1.
<mgrwt>
<rscale>  0 0.18993438E+04</rscale>
<asrwt>0</asrwt>
<pdfrwt beam="1">  1        2 0.12484160E+00 0.18993438E+04</pdfrwt>
<pdfrwt beam="2">  1       -2 0.17098622E+00 0.18993438E+04</pdfrwt>
<totfact> 0.66353812E+00</totfact>
</mgrwt>
</event>
<event>
12    1  0.1599266E-007  0.1581711E+04  0.7818608E-02  0.8831863E-01
          1   -1    0    0  501    0  0.00000000000E+00  0.00000000000E+00  0.53506340582E+03  0.53506340582E+03  0.00000000000E+00 0. -1.
         -1   -1    0    0    0  501 -0.00000000000E+00 -0.00000000000E+00 -0.11689308532E+04  0.11689308532E+04  0.00000000000E+00 0.  1.
         23    2    1    2    0    0 -0.67907381288E+02  0.24230440295E+03 -0.71269298211E+03  0.76118997396E+03  0.90310871894E+02 0.  0.
        254    2    1    2    0    0  0.67907381288E+02 -0.24230440295E+03  0.78825534704E+02  0.94280428509E+03  0.90517601545E+03 0.  0.
        -24    2    4    4    0    0 -0.24526565223E+03 -0.25418663719E+03  0.36247257119E+03  0.51251890945E+03  0.80766211898E+02 0.  0.
         24    2    4    4    0    0  0.31317303352E+03  0.11882234239E+02 -0.28364703649E+03  0.43028537564E+03  0.80444557094E+02 0.  0.
         11    1    3    3    0    0 -0.36660406092E+02  0.18190613381E+02 -0.10029250762E+03  0.10832114695E+03  0.00000000000E+00 0. -1.
        -11    1    3    3    0    0 -0.31246975196E+02  0.22411378957E+03 -0.61240047448E+03  0.65286882701E+03  0.00000000000E+00 0.  1.
          4    1    6    6  502    0  0.23201982412E+03 -0.22919536490E+02 -0.18297426475E+03  0.29637490700E+03  0.00000000000E+00 0. -1.
          3    1    5    5  503    0 -0.64352376502E+02 -0.40774352942E+02  0.41589327206E+02  0.86795439723E+02  0.00000000000E+00 0. -1.
         -4    1    5    5    0  503 -0.18091327573E+03 -0.21341228425E+03  0.32088324399E+03  0.42572346973E+03  0.00000000000E+00 0.  1.
         -3    1    6    6    0  502  0.81153209396E+02  0.34801770729E+02 -0.10067277174E+03  0.13391046864E+03  0.00000000000E+00 0.  1.
<mgrwt>
<rscale>  0 0.15817106E+04</rscale>
<asrwt>0</asrwt>
<pdfrwt beam="1">  1        1 0.82317447E-01 0.15817106E+04</pdfrwt>
<pdfrwt beam="2">  1       -1 0.17983551E+00 0.15817106E+04</pdfrwt>
<totfact> 0.80856669E+00</totfact>
</mgrwt>
</event>
<event>
12    1  0.1599266E-007  0.1167745E+04  0.7818608E-02  0.9141567E-01
          2   -1    0    0  501    0  0.00000000000E+00  0.00000000000E+00  0.17741960871E+04  0.17741960871E+04  0.00000000000E+00 0. -1.
         -2   -1    0    0    0  501 -0.00000000000E+00 -0.00000000000E+00 -0.19214738027E+03  0.19214738027E+03  0.00000000000E+00 0.  1.
         23    2    1    2    0    0 -0.19091071730E+03  0.10984176654E+02  0.13130143546E+03  0.24973784409E+03  0.92527669905E+02 0.  0.
        254    2    1    2    0    0  0.19091071730E+03 -0.10984176654E+02  0.14507472714E+04  0.17166056233E+04  0.89749633226E+03 0.  0.
        -24    2    4    4    0    0  0.22517842990E+03  0.32448367995E+03  0.12562534744E+04  0.13193462015E+04  0.80663645754E+02 0.  0.
         24    2    4    4    0    0 -0.34267712593E+02 -0.33546785661E+03  0.19449379698E+03  0.39725942176E+03  0.79210177166E+02 0.  0.
         11    1    3    3    0    0 -0.17896803263E+03  0.27066918906E+02  0.86392677642E+02  0.20056387898E+03  0.00000000000E+00 0.  1.
        -11    1    3    3    0    0 -0.11942684676E+02 -0.16082742251E+02  0.44908757821E+02  0.49173965109E+02  0.00000000000E+00 0. -1.
          2    1    6    6  502    0 -0.33865624192E+02 -0.34003564696E+03  0.19290045553E+03  0.39240502985E+03  0.00000000000E+00 0. -1.
          1    1    5    5  503    0  0.20795538438E+03  0.26630628163E+03  0.11270126620E+04  0.11765721473E+04  0.00000000000E+00 0. -1.
         -2    1    5    5    0  503  0.17223045514E+02  0.58177398321E+02  0.12924081243E+03  0.14277405426E+03  0.00000000000E+00 0.  1.
         -1    1    6    6    0  502 -0.40208840101E+00  0.45677903546E+01  0.15933414479E+01  0.48543919058E+01  0.00000000000E+00 0.  1.
<mgrwt>
<rscale>  0 0.11677451E+04</rscale>
<asrwt>0</asrwt>
<pdfrwt beam="1">  1        2 0.27295323E+00 0.11677451E+04</pdfrwt>
<pdfrwt beam="2">  1       -2 0.29561137E-01 0.11677451E+04</pdfrwt>
<totfact> 0.92963712E+01</totfact>
</mgrwt>
</event>
<event>
12    1  0.1599266E-007  0.2031924E+04  0.7818608E-02  0.8591839E-01
          2   -1    0    0  501    0  0.00000000000E+00  0.00000000000E+00  0.36568691628E+04  0.36568691628E+04  0.00000000000E+00 0. -1.
         -2   -1    0    0    0  501 -0.00000000000E+00 -0.00000000000E+00 -0.28225762199E+03  0.28225762199E+03  0.00000000000E+00 0.  1.
         23    2    1    2    0    0 -0.24178317995E+03 -0.48571893379E+02  0.28656883011E+04  0.28777331433E+04  0.91434510731E+02 0.  0.
        254    2    1    2    0    0  0.24178317995E+03  0.48571893379E+02  0.50892323972E+03  0.10613936416E+04  0.89818442620E+03 0.  0.
        -24    2    4    4    0    0  0.40131849526E+03  0.37729732189E+03  0.28941475859E+03  0.62778134431E+03  0.83298919758E+02 0.  0.
         24    2    4    4    0    0 -0.15953531531E+03 -0.32872542851E+03  0.21950848114E+03  0.43361229724E+03  0.79521863970E+02 0.  0.
         13    1    3    3    0    0 -0.12112403666E+03 -0.17967559467E+01  0.18275385813E+04  0.18315489419E+04  0.00000000000E+00 0. -1.
        -13    1    3    3    0    0 -0.12065914329E+03 -0.46775137432E+02  0.10381497198E+04  0.10461842013E+04  0.00000000000E+00 0.  1.
          2    1    6    6  502    0 -0.11178810177E+03 -0.17585741429E+03  0.16015783501E+03  0.26281731673E+03  0.00000000000E+00 0. -1.
          3    1    5    5  503    0  0.10994255629E+02  0.24317012549E+02  0.32816680680E+02  0.42298052993E+02  0.00000000000E+00 0. -1.
         -4    1    5    5    0  503  0.39032423963E+03  0.35298030934E+03  0.25659807791E+03  0.58548329132E+03  0.00000000000E+00 0.  1.
         -1    1    6    6    0  502 -0.47747213538E+02 -0.15286801422E+03  0.59350646127E+02  0.17079498051E+03  0.00000000000E+00 0.  1.
<mgrwt>
<rscale>  0 0.20319244E+04</rscale>
<asrwt>0</asrwt>
<pdfrwt beam="1">  1        2 0.56259523E+00 0.20319244E+04</pdfrwt>
<pdfrwt beam="2">  1       -2 0.43424252E-01 0.20319244E+04</pdfrwt>
<totfact> 0.29451194E+00</totfact>
</mgrwt>
</event>
<event>
12    1  0.1599266E-007  0.1292467E+04  0.7818608E-02  0.9035561E-01
         -1   -1    0    0    0  501 -0.00000000000E+00  0.00000000000E+00  0.19900752507E+03  0.19900752507E+03  0.00000000000E+00 0.  1.
          1   -1    0    0  501    0  0.00000000000E+00 -0.00000000000E+00 -0.20985012521E+04  0.20985012521E+04  0.00000000000E+00 0. -1.
         23    2    1    2    0    0  0.24244409714E+02 -0.29334011939E+03 -0.31026223910E+03  0.43754872058E+03  0.92466257771E+02 0.  0.
        254    2    1    2    0    0 -0.24244409714E+02  0.29334011939E+03 -0.15892314879E+04  0.18599600566E+04  0.92041212117E+03 0.  0.
        -24    2    4    4    0    0  0.37687338555E+03  0.52284647587E+02 -0.31593537182E+03  0.50105239380E+03  0.80443203877E+02 0.  0.
         24    2    4    4    0    0 -0.40111779527E+03  0.24105547180E+03 -0.12732961161E+04  0.13589076628E+04  0.79648041441E+02 0.  0.
         11    1    3    3    0    0 -0.27921013001E+02 -0.92221027610E+02 -0.13421119138E+03  0.16521787068E+03  0.00000000000E+00 0. -1.
        -11    1    3    3    0    0  0.52165422715E+02 -0.20111909178E+03 -0.17605104772E+03  0.27233084990E+03  0.00000000000E+00 0.  1.
          4    1    6    6  502    0  0.23320584756E+01  0.89600651918E+01 -0.24213147664E+02  0.25922920066E+02  0.00000000000E+00 0. -1.
          1    1    5    5  503    0  0.46915086372E+01  0.13666235512E+02 -0.84347764407E+01  0.16730860706E+02  0.00000000000E+00 0. -1.
         -2    1    5    5    0  503  0.37218187692E+03  0.38618412076E+02 -0.30750059538E+03  0.48432153309E+03  0.00000000000E+00 0.  1.
         -3    1    6    6    0  502 -0.40344985374E+03  0.23209540661E+03 -0.12490829684E+04  0.13329847427E+04  0.00000000000E+00 0.  1.
<mgrwt>
<rscale>  0 0.12924667E+04</rscale>
<asrwt>0</asrwt>
<pdfrwt beam="1">  1        1 0.32284633E+00 0.12924667E+04</pdfrwt>
<pdfrwt beam="2">  1       -1 0.30616543E-01 0.12924667E+04</pdfrwt>
<totfact> 0.24768290E+01</totfact>
</mgrwt>
</event>
<event>
12    1  0.1599266E-007  0.2116594E+04  0.7818608E-02  0.8553969E-01
          2   -1    0    0  501    0  0.00000000000E+00  0.00000000000E+00  0.84081562649E+03  0.84081562649E+03  0.00000000000E+00 0. -1.
         -2   -1    0    0    0  501 -0.00000000000E+00 -0.00000000000E+00 -0.13320311340E+04  0.13320311340E+04  0.00000000000E+00 0.  1.
         23    2    1    2    0    0 -0.75969663147E+03  0.13498594753E+03  0.19661720263E+03  0.80150849179E+03  0.91637111166E+02 0.  0.
        254    2    1    2    0    0  0.75969663147E+03 -0.13498594753E+03 -0.68783271011E+03  0.13713382687E+04  0.90116293316E+03 0.  0.
        -24    2    4    4    0    0  0.50829968237E+03 -0.11012909880E+03 -0.89296567980E+03  0.10364924510E+04  0.80199190264E+02 0.  0.
         24    2    4    4    0    0  0.25139694911E+03 -0.24856848738E+02  0.20513296969E+03  0.33484581770E+03  0.78891681609E+02 0.  0.
         13    1    3    3    0    0 -0.63600392736E+03  0.93919993454E+02  0.19253816658E+03  0.67111318448E+03  0.00000000000E+00 0. -1.
        -13    1    3    3    0    0 -0.12369270411E+03  0.41065954079E+02  0.40790360522E+01  0.13039530731E+03  0.00000000000E+00 0.  1.
          2    1    6    6  502    0  0.14446620114E+03  0.22380398748E+02  0.95778053056E+02  0.17477070969E+03  0.00000000000E+00 0. -1.
          1    1    5    5  503    0  0.57254441146E+02 -0.17260940475E+01 -0.15038584713E+03  0.16092530394E+03  0.00000000000E+00 0. -1.
         -2    1    5    5    0  503  0.45104524122E+03 -0.10840300475E+03 -0.74257983267E+03  0.87556714703E+03  0.00000000000E+00 0.  1.
         -1    1    6    6    0  502  0.10693074797E+03 -0.47237247486E+02  0.10935491663E+03  0.16007510801E+03  0.00000000000E+00 0.  1.
<mgrwt>
<rscale>  0 0.21165940E+04</rscale>
<asrwt>0</asrwt>
<pdfrwt beam="1">  1        2 0.12935625E+00 0.21165940E+04</pdfrwt>
<pdfrwt beam="2">  1       -2 0.20492787E+00 0.21165940E+04</pdfrwt>
<totfact> 0.36594485E+00</totfact>
</mgrwt>
</event>
<event>
12    1  0.1599266E-007  0.1890829E+04  0.7818608E-02  0.8659435E-01
          1   -1    0    0  501    0  0.00000000000E+00  0.00000000000E+00  0.60005871985E+03  0.60005871985E+03  0.00000000000E+00 0. -1.
         -1   -1    0    0    0  501 -0.00000000000E+00 -0.00000000000E+00 -0.14895348887E+04  0.14895348887E+04  0.00000000000E+00 0.  1.
         23    2    1    2    0    0 -0.46568738668E+03  0.49682329188E+03 -0.57988349229E+03  0.89917854968E+03  0.92515264176E+02 0.  0.
        254    2    1    2    0    0  0.46568738668E+03 -0.49682329188E+03 -0.30959267658E+03  0.11904150589E+04  0.92603577769E+03 0.  0.
        -24    2    4    4    0    0  0.40916596635E+03  0.17244769939E+03 -0.23890691494E+03  0.51037539530E+03  0.79066636931E+02 0.  0.
         24    2    4    4    0    0  0.56521420330E+02 -0.66927099127E+03 -0.70685761635E+02  0.68003966359E+03  0.79618694048E+02 0.  0.
         11    1    3    3    0    0 -0.99805996953E+02  0.96866177530E+02 -0.16967763995E+03  0.21939643315E+03  0.00000000000E+00 0. -1.
        -11    1    3    3    0    0 -0.36588138972E+03  0.39995711435E+03 -0.41020585234E+03  0.67978211653E+03  0.00000000000E+00 0.  1.
          2    1    6    6  502    0  0.64979741525E+02 -0.57215484197E+03 -0.37463470493E+02  0.57705029384E+03  0.00000000000E+00 0. -1.
          3    1    5    5  503    0  0.21999025429E+03  0.10482097876E+03 -0.17333370868E+03  0.29904468584E+03  0.00000000000E+00 0. -1.
         -4    1    5    5    0  503  0.18917571206E+03  0.67626720634E+02 -0.65573206263E+02  0.21133070945E+03  0.00000000000E+00 0.  1.
         -1    1    6    6    0  502 -0.84583211952E+01 -0.97116149295E+02 -0.33222291142E+02  0.10298936974E+03  0.00000000000E+00 0.  1.
<mgrwt>
<rscale>  0 0.18908288E+04</rscale>
<asrwt>0</asrwt>
<pdfrwt beam="1">  1        1 0.92316726E-01 0.18908288E+04</pdfrwt>
<pdfrwt beam="2">  1       -1 0.22915921E+00 0.18908288E+04</pdfrwt>
<totfact> 0.30653698E+00</totfact>
</mgrwt>
</event>
<event>
12    1  0.1599266E-007  0.1369533E+04  0.7818608E-02  0.8976172E-01
         -2   -1    0    0    0  501 -0.00000000000E+00  0.00000000000E+00  0.17859027175E+04  0.17859027175E+04  0.00000000000E+00 0.  1.
          2   -1    0    0  501    0  0.00000000000E+00 -0.00000000000E+00 -0.26255917610E+03  0.26255917610E+03  0.00000000000E+00 0. -1.
         23    2    1    2    0    0 -0.33392177949E+03  0.16170790682E+02  0.11860672184E+03  0.36606987029E+03  0.90412090924E+02 0.  0.
        254    2    1    2    0    0  0.33392177949E+03 -0.16170790682E+02  0.14047368196E+04  0.16823920233E+04  0.86336095499E+03 0.  0.
        -24    2    4    4    0    0  0.40314018038E+03 -0.95050756595E+02  0.14719903516E+04  0.15312578863E+04  0.80240062337E+02 0.  0.
         24    2    4    4    0    0 -0.69218400892E+02  0.78879965912E+02 -0.67253532035E+02  0.15113413708E+03  0.85470777314E+02 0.  0.
         13    1    3    3    0    0 -0.27070879329E+03 -0.77839618336E+01  0.12478905957E+03  0.29818811213E+03  0.00000000000E+00 0. -1.
        -13    1    3    3    0    0 -0.63212986194E+02  0.23954752516E+02 -0.61823377293E+01  0.67881758164E+02  0.00000000000E+00 0.  1.
          4    1    6    6  502    0  0.65638585896E+01 -0.12731943540E+02  0.41886522003E+00  0.14330459656E+02  0.00000000000E+00 0. -1.
          1    1    5    5  503    0  0.15898413635E+03 -0.16757795440E+02  0.44850183348E+03  0.47614144323E+03  0.00000000000E+00 0. -1.
         -2    1    5    5    0  503  0.24415604403E+03 -0.78292961155E+02  0.10234885181E+04  0.10551164430E+04  0.00000000000E+00 0.  1.
         -3    1    6    6    0  502 -0.75782259482E+02  0.91611909452E+02 -0.67672397255E+02  0.13680367742E+03  0.00000000000E+00 0.  1.
<mgrwt>
<rscale>  0 0.13695330E+04</rscale>
<asrwt>0</asrwt>
<pdfrwt beam="1">  1        2 0.40393720E-01 0.13695330E+04</pdfrwt>
<pdfrwt beam="2">  1       -2 0.27475426E+00 0.13695330E+04</pdfrwt>
<totfact> 0.56515516E+00</totfact>
</mgrwt>
</event>
<event>
12    1  0.1599266E-007  0.1395489E+04  0.7818608E-02  0.8957091E-01
          1   -1    0    0  501    0  0.00000000000E+00  0.00000000000E+00  0.86171271963E+03  0.86171271963E+03  0.00000000000E+00 0. -1.
         -1   -1    0    0    0  501 -0.00000000000E+00 -0.00000000000E+00 -0.56497622768E+03  0.56497622768E+03  0.00000000000E+00 0.  1.
         23    2    1    2    0    0  0.10985165660E+03  0.74655624238E+02 -0.30201250224E+03  0.34360815655E+03  0.95990442491E+02 0.  0.
        254    2    1    2    0    0 -0.10985165660E+03 -0.74655624238E+02  0.59874899419E+03  0.10830807908E+04  0.89270532236E+03 0.  0.
        -24    2    4    4    0    0  0.31192365488E+03  0.20637867624E+03  0.32095900021E+03  0.49923555261E+03  0.79579725392E+02 0.  0.
         24    2    4    4    0    0 -0.42177531149E+03 -0.28103430048E+03  0.27778999398E+03  0.58384523814E+03  0.82663715906E+02 0.  0.
         11    1    3    3    0    0 -0.11191045722E+02 -0.94897660353E+01 -0.15189689180E+02  0.21119228706E+02  0.00000000000E+00 0. -1.
        -11    1    3    3    0    0  0.12104270232E+03  0.84145390273E+02 -0.28682281306E+03  0.32248892784E+03  0.00000000000E+00 0.  1.
          4    1    6    6  502    0 -0.28880293390E+03 -0.20384670688E+03  0.15034482678E+03  0.38414083546E+03  0.00000000000E+00 0. -1.
          1    1    5    5  503    0  0.10597041714E+03  0.10963092316E+03  0.15637051289E+03  0.21840422597E+03  0.00000000000E+00 0. -1.
         -2    1    5    5    0  503  0.20595323774E+03  0.96747753080E+02  0.16458848732E+03  0.28083132664E+03  0.00000000000E+00 0.  1.
         -3    1    6    6    0  502 -0.13297237759E+03 -0.77187593598E+02  0.12744516720E+03  0.19970440268E+03  0.00000000000E+00 0.  1.
<mgrwt>
<rscale>  0 0.13954887E+04</rscale>
<asrwt>0</asrwt>
<pdfrwt beam="1">  1        1 0.13257119E+00 0.13954887E+04</pdfrwt>
<pdfrwt beam="2">  1       -1 0.86919420E-01 0.13954887E+04</pdfrwt>
<totfact> 0.24912181E+01</totfact>
</mgrwt>
</event>
<event>
12    1  0.1599266E-007  0.2121852E+04  0.7818608E-02  0.8551678E-01
          2   -1    0    0  501    0  0.00000000000E+00  0.00000000000E+00  0.17931626117E+04  0.17931626117E+04  0.00000000000E+00 0.  1.
         -2   -1    0    0    0  501 -0.00000000000E+00 -0.00000000000E+00 -0.62769776519E+03  0.62769776519E+03  0.00000000000E+00 0. -1.
         23    2    1    2    0    0  0.71371431759E+03  0.36724805231E+03  0.84126055561E+03  0.11684414072E+04  0.11522473975E+03 0.  0.
        254    2    1    2    0    0 -0.71371431759E+03 -0.36724805231E+03  0.32420429085E+03  0.12524189696E+04  0.90508872172E+03 0.  0.
        -24    2    4    4    0    0 -0.37338681802E+03 -0.64890755144E+03  0.27287241632E+03  0.80090717647E+03  0.80586745406E+02 0.  0.
         24    2    4    4    0    0 -0.34032749957E+03  0.28165949913E+03  0.51331874536E+02  0.45151179315E+03  0.77929824822E+02 0.  0.
         13    1    3    3    0    0  0.24829495716E+03  0.88402612265E+02  0.21738087277E+03  0.34164287122E+03  0.00000000000E+00 0.  1.
        -13    1    3    3    0    0  0.46541936043E+03  0.27884544005E+03  0.62387968285E+03  0.82679853602E+03  0.00000000000E+00 0. -1.
          4    1    6    6  502    0 -0.19178719932E+03  0.13601043282E+03  0.62157792957E+02  0.24319695492E+03  0.00000000000E+00 0. -1.
          3    1    5    5  503    0 -0.13886485972E+03 -0.18775903422E+03  0.11283970715E+03  0.25936403703E+03  0.00000000000E+00 0. -1.
         -4    1    5    5    0  503 -0.23452195831E+03 -0.46114851723E+03  0.16003270916E+03  0.54154313944E+03  0.00000000000E+00 0.  1.
         -3    1    6    6    0  502 -0.14854030024E+03  0.14564906632E+03 -0.10825918421E+02  0.20831483823E+03  0.00000000000E+00 0.  1.
<mgrwt>
<rscale>  0 0.21218522E+04</rscale>
<asrwt>0</asrwt>
<pdfrwt beam="1">  1        2 0.27587117E+00 0.21218522E+04</pdfrwt>
<pdfrwt beam="2">  1       -2 0.96568888E-01 0.21218522E+04</pdfrwt>
<totfact> 0.71818457E+00</totfact>
</mgrwt>
</event>
<event>
12    1  0.1599266E-007  0.1352692E+04  0.7818608E-02  0.8988793E-01
         -2   -1    0    0    0  501 -0.00000000000E+00  0.00000000000E+00  0.32112318198E+03  0.32112318198E+03  0.00000000000E+00 0.  1.
          2   -1    0    0  501    0  0.00000000000E+00 -0.00000000000E+00 -0.14245125175E+04  0.14245125175E+04  0.00000000000E+00 0. -1.
         23    2    1    2    0    0 -0.24962024696E+03 -0.84155072133E+02  0.16604935124E+02  0.27919960177E+03  0.91018404174E+02 0.  0.
        254    2    1    2    0    0  0.24962024696E+03  0.84155072133E+02 -0.11199942706E+04  0.14664360977E+04  0.90920587248E+03 0.  0.
        -24    2    4    4    0    0 -0.17452544558E+03  0.32709672551E+03 -0.77373614808E+03  0.86149227859E+03  0.77781233170E+02 0.  0.
         24    2    4    4    0    0  0.42414569254E+03 -0.24294165337E+03 -0.34625812257E+03  0.60494381913E+03  0.84511072701E+02 0.  0.
         13    1    3    3    0    0 -0.16480839308E+03 -0.84584166052E+01  0.95570186610E+01  0.16530180836E+03  0.00000000000E+00 0.  1.
        -13    1    3    3    0    0 -0.84811853878E+02 -0.75696655528E+02  0.70479164628E+01  0.11389779341E+03  0.00000000000E+00 0. -1.
          4    1    6    6  502    0  0.38250936300E+03 -0.19295711558E+03 -0.32022673805E+03  0.53487477506E+03  0.00000000000E+00 0. -1.
          1    1    5    5  503    0 -0.17582900821E+03  0.31834967866E+03 -0.77060315386E+03  0.85211007433E+03  0.00000000000E+00 0. -1.
         -2    1    5    5    0  503  0.13035626298E+01  0.87470468453E+01 -0.31329942197E+01  0.93822042625E+01  0.00000000000E+00 0.  1.
         -3    1    6    6    0  502  0.41636329545E+02 -0.49984537795E+02 -0.26031384519E+02  0.70069044067E+02  0.00000000000E+00 0.  1.
<mgrwt>
<rscale>  0 0.13526921E+04</rscale>
<asrwt>0</asrwt>
<pdfrwt beam="1">  1        2 0.21915577E+00 0.13526921E+04</pdfrwt>
<pdfrwt beam="2">  1       -2 0.49403566E-01 0.13526921E+04</pdfrwt>
<totfact> 0.53049381E+01</totfact>
</mgrwt>
</event>
<event>
12    1  0.1599266E-007  0.2889134E+04  0.7818608E-02  0.8276118E-01
          1   -1    0    0  501    0  0.00000000000E+00  0.00000000000E+00  0.98721910217E+03  0.98721910217E+03  0.00000000000E+00 0. -1.
         -1   -1    0    0    0  501 -0.00000000000E+00 -0.00000000000E+00 -0.21137904099E+04  0.21137904099E+04  0.00000000000E+00 0.  1.
         23    2    1    2    0    0  0.68270285998E+03 -0.10638433401E+04 -0.17695428520E+03  0.12797627968E+04  0.92920125952E+02 0.  0.
        254    2    1    2    0    0 -0.68270285998E+03  0.10638433401E+04 -0.94961702249E+03  0.18212467152E+04  0.90405821763E+03 0.  0.
        -24    2    4    4    0    0 -0.26324433771E+03 -0.10375425868E+03 -0.85401188056E+02  0.30703291120E+03  0.83146365579E+02 0.  0.
         24    2    4    4    0    0 -0.41945852227E+03  0.11675975988E+04 -0.86421583443E+03  0.15142138040E+04  0.82126920708E+02 0.  0.
         13    1    3    3    0    0  0.12255469270E+01 -0.74785520328E-01 -0.45568510744E+01  0.47193696464E+01  0.00000000000E+00 0. -1.
        -13    1    3    3    0    0  0.68147731305E+03 -0.10637685546E+04 -0.17239743413E+03  0.12750434272E+04  0.00000000000E+00 0.  1.
          4    1    6    6  502    0 -0.19935326194E+03  0.43967707874E+03 -0.32446338617E+03  0.58166497710E+03  0.00000000000E+00 0. -1.
          3    1    5    5  503    0 -0.32419577362E+02  0.21019829641E+01  0.12590203239E+02  0.34841936604E+02  0.00000000000E+00 0. -1.
         -4    1    5    5    0  503 -0.23082476035E+03 -0.10585624164E+03 -0.97991391295E+02  0.27219097459E+03  0.00000000000E+00 0.  1.
         -3    1    6    6    0  502 -0.22010526032E+03  0.72792052005E+03 -0.53975244826E+03  0.93254882689E+03  0.00000000000E+00 0.  1.
<mgrwt>
<rscale>  0 0.28891343E+04</rscale>
<asrwt>0</asrwt>
<pdfrwt beam="1">  1        1 0.15187986E+00 0.28891343E+04</pdfrwt>
<pdfrwt beam="2">  1       -1 0.32519852E+00 0.28891343E+04</pdfrwt>
<totfact> 0.30106334E-01</totfact>
</mgrwt>
</event>
<event>
12    1  0.1599266E-007  0.1512397E+04  0.7818608E-02  0.8876251E-01
         -2   -1    0    0    0  501 -0.00000000000E+00  0.00000000000E+00  0.49360844027E+03  0.49360844027E+03  0.00000000000E+00 0.  1.
          2   -1    0    0  501    0  0.00000000000E+00 -0.00000000000E+00 -0.11584815709E+04  0.11584815709E+04  0.00000000000E+00 0. -1.
         23    2    1    2    0    0  0.33704511160E+03 -0.27202357927E+03  0.36324873576E+02  0.44300876189E+03  0.85679821104E+02 0.  0.
        254    2    1    2    0    0 -0.33704511160E+03  0.27202357927E+03 -0.70119800420E+03  0.12090812493E+04  0.88464828678E+03 0.  0.
        -24    2    4    4    0    0  0.23405033884E+03  0.31399109269E+03 -0.21721526875E+03  0.45493575480E+03  0.80088080376E+02 0.  0.
         24    2    4    4    0    0 -0.57109545044E+03 -0.41967513425E+02 -0.48398273545E+03  0.75414549446E+03  0.81147106619E+02 0.  0.
         11    1    3    3    0    0  0.15440339419E+03 -0.17082446180E+03 -0.42293902911E+01  0.23030261099E+03  0.00000000000E+00 0.  1.
        -11    1    3    3    0    0  0.18264171740E+03 -0.10119911746E+03  0.40554263867E+02  0.21270615090E+03  0.00000000000E+00 0. -1.
          4    1    6    6  502    0 -0.45869292489E+03 -0.16412204702E+01 -0.37503752675E+03  0.59249897841E+03  0.00000000000E+00 0. -1.
          1    1    5    5  503    0  0.21940937254E+03  0.29671220584E+03 -0.22350429822E+03  0.43143108044E+03  0.00000000000E+00 0. -1.
         -2    1    5    5    0  503  0.14640966301E+02  0.17278886856E+02  0.62890294648E+01  0.23504674361E+02  0.00000000000E+00 0.  1.
         -3    1    6    6    0  502 -0.11240252555E+03 -0.40326292954E+02 -0.10894520870E+03  0.16164651605E+03  0.00000000000E+00 0.  1.
<mgrwt>
<rscale>  0 0.15123971E+04</rscale>
<asrwt>0</asrwt>
<pdfrwt beam="1">  1        2 0.17822793E+00 0.15123971E+04</pdfrwt>
<pdfrwt beam="2">  1       -2 0.75939760E-01 0.15123971E+04</pdfrwt>
<totfact> 0.30085534E+01</totfact>
</mgrwt>
</event>
<event>
12    1  0.1599266E-007  0.1549797E+04  0.7818608E-02  0.8851997E-01
          2   -1    0    0  501    0  0.00000000000E+00  0.00000000000E+00  0.14494502635E+04  0.14494502635E+04  0.00000000000E+00 0. -1.
         -2   -1    0    0    0  501 -0.00000000000E+00 -0.00000000000E+00 -0.41427290064E+03  0.41427290064E+03  0.00000000000E+00 0.  1.
         23    2    1    2    0    0 -0.39404394202E+03 -0.31586387572E+03  0.43240028593E+03  0.67118701473E+03  0.92094436523E+02 0.  0.
        254    2    1    2    0    0  0.39404394202E+03  0.31586387572E+03  0.60277707696E+03  0.11925361494E+04  0.89652754948E+03 0.  0.
        -24    2    4    4    0    0 -0.46675870970E+02  0.71037620256E+01 -0.20204799626E+03  0.22126849543E+03  0.76858661931E+02 0.  0.
         24    2    4    4    0    0  0.44071981299E+03  0.30876011370E+03  0.80482507322E+03  0.97126765400E+03  0.77786218954E+02 0.  0.
         11    1    3    3    0    0 -0.18771915793E+03 -0.15812535274E+03  0.26995979388E+03  0.36485668384E+03  0.00000000000E+00 0.  1.
        -11    1    3    3    0    0 -0.20632478409E+03 -0.15773852298E+03  0.16244049205E+03  0.30633033088E+03  0.00000000000E+00 0. -1.
          4    1    6    6  502    0  0.12147035819E+03  0.49931000904E+02  0.16625027856E+03  0.21186625001E+03  0.00000000000E+00 0. -1.
          3    1    5    5  503    0 -0.16866464409E+01  0.33524293203E+02 -0.47590733420E+02  0.58237452884E+02  0.00000000000E+00 0. -1.
         -4    1    5    5    0  503 -0.44989224529E+02 -0.26420531177E+02 -0.15445726284E+03  0.16303104255E+03  0.00000000000E+00 0.  1.
         -3    1    6    6    0  502  0.31924945479E+03  0.25882911279E+03  0.63857479466E+03  0.75940140400E+03  0.00000000000E+00 0.  1.
<mgrwt>
<rscale>  0 0.15497974E+04</rscale>
<asrwt>0</asrwt>
<pdfrwt beam="1">  1        2 0.22299235E+00 0.15497974E+04</pdfrwt>
<pdfrwt beam="2">  1       -2 0.63734293E-01 0.15497974E+04</pdfrwt>
<totfact> 0.29722457E+01</totfact>
</mgrwt>
</event>
<event>
12    1  0.1599266E-007  0.1414679E+04  0.7818608E-02  0.8943261E-01
          1   -1    0    0  501    0  0.00000000000E+00  0.00000000000E+00  0.68194436340E+03  0.68194436340E+03  0.00000000000E+00 0. -1.
         -1   -1    0    0    0  501 -0.00000000000E+00 -0.00000000000E+00 -0.73368068958E+03  0.73368068958E+03  0.00000000000E+00 0.  1.
         23    2    1    2    0    0  0.19002785113E+03 -0.11147911491E+03  0.34146728917E+03  0.41666437134E+03  0.92038641374E+02 0.  0.
        254    2    1    2    0    0 -0.19002785113E+03  0.11147911491E+03 -0.39320361535E+03  0.99896068164E+03  0.89150164503E+03 0.  0.
        -24    2    4    4    0    0 -0.31892265545E+02 -0.18396389036E+03  0.21770302005E+03  0.29779185632E+03  0.80159560853E+02 0.  0.
         24    2    4    4    0    0 -0.15813558558E+03  0.29544300527E+03 -0.61090663540E+03  0.70116882532E+03  0.78341378852E+02 0.  0.
         13    1    3    3    0    0 -0.63822915453E+01  0.22176736239E+01  0.11756537131E+00  0.67576285254E+01  0.00000000000E+00 0.  1.
        -13    1    3    3    0    0  0.19641014267E+03 -0.11369678853E+03  0.34134972380E+03  0.40990674281E+03  0.00000000000E+00 0. -1.
          4    1    6    6  502    0 -0.90357754466E+02  0.23865755387E+03 -0.43630149388E+03  0.50545122947E+03  0.00000000000E+00 0. -1.
          3    1    5    5  503    0 -0.55041451320E+02 -0.15191823217E+03  0.15660409278E+03  0.22501900476E+03  0.00000000000E+00 0. -1.
         -4    1    5    5    0  503  0.23149185775E+02 -0.32045658194E+02  0.61098927274E+02  0.72772851567E+02  0.00000000000E+00 0.  1.
         -3    1    6    6    0  502 -0.67777831118E+02  0.56785451399E+02 -0.17460514151E+03  0.19571759585E+03  0.00000000000E+00 0.  1.
<mgrwt>
<rscale>  0 0.14146793E+04</rscale>
<asrwt>0</asrwt>
<pdfrwt beam="1">  1        1 0.10491452E+00 0.14146793E+04</pdfrwt>
<pdfrwt beam="2">  1       -1 0.11287395E+00 0.14146793E+04</pdfrwt>
<totfact> 0.19823547E+01</totfact>
</mgrwt>
</event>
<event>
12    1  0.1599266E-007  0.1676352E+04  0.7818608E-02  0.8774968E-01
          2   -1    0    0  501    0  0.00000000000E+00  0.00000000000E+00  0.57280016800E+03  0.57280016800E+03  0.00000000000E+00 0. -1.
         -2   -1    0    0    0  501 -0.00000000000E+00 -0.00000000000E+00 -0.12264996920E+04  0.12264996920E+04  0.00000000000E+00 0.  1.
         23    2    1    2    0    0  0.21489178393E+03  0.22340682199E+03 -0.77737820319E+03  0.84161151732E+03  0.88904377722E+02 0.  0.
        254    2    1    2    0    0 -0.21489178393E+03 -0.22340682199E+03  0.12367867917E+03  0.95768834270E+03  0.89765330677E+03 0.  0.
        -24    2    4    4    0    0  0.16144143361E+03  0.24191545625E+03  0.18067508874E+03  0.35115345498E+03  0.77966895524E+02 0.  0.
         24    2    4    4    0    0 -0.37633321754E+03 -0.46532227824E+03 -0.56996409574E+02  0.60653488771E+03  0.80526182477E+02 0.  0.
         13    1    3    3    0    0  0.17948451974E+03  0.17410789667E+03 -0.51760849614E+03  0.57484502936E+03  0.00000000000E+00 0.  1.
        -13    1    3    3    0    0  0.35407264191E+02  0.49298925321E+02 -0.25976970705E+03  0.26676648796E+03  0.00000000000E+00 0. -1.
          2    1    6    6  502    0 -0.20291823674E+03 -0.31084880051E+03 -0.45716234269E+02  0.37402240796E+03  0.00000000000E+00 0. -1.
          3    1    5    5  503    0  0.93644151470E+02  0.20103635919E+03  0.13817407558E+03  0.26129852657E+03  0.00000000000E+00 0. -1.
         -4    1    5    5    0  503  0.67797282139E+02  0.40879097054E+02  0.42501013160E+02  0.89854928418E+02  0.00000000000E+00 0.  1.
         -1    1    6    6    0  502 -0.17341498080E+03 -0.15447347772E+03 -0.11280175305E+02  0.23251247975E+03  0.00000000000E+00 0.  1.
<mgrwt>
<rscale>  0 0.16763523E+04</rscale>
<asrwt>0</asrwt>
<pdfrwt beam="1">  1        2 0.88123103E-01 0.16763523E+04</pdfrwt>
<pdfrwt beam="2">  1       -2 0.18869226E+00 0.16763523E+04</pdfrwt>
<totfact> 0.79009889E+00</totfact>
</mgrwt>
</event>
<event>
12    1  0.1599266E-007  0.1138535E+04  0.7818608E-02  0.9168426E-01
          1   -1    0    0  501    0  0.00000000000E+00  0.00000000000E+00  0.46811425978E+03  0.46811425978E+03  0.00000000000E+00 0. -1.
         -1   -1    0    0    0  501 -0.00000000000E+00 -0.00000000000E+00 -0.69227901064E+03  0.69227901064E+03  0.00000000000E+00 0.  1.
         23    2    1    2    0    0 -0.80687590324E+02 -0.10089533432E+03  0.11180107407E+03  0.19317136168E+03  0.90140662796E+02 0.  0.
        254    2    1    2    0    0  0.80687590324E+02  0.10089533432E+03 -0.33596582493E+03  0.96722190875E+03  0.89774987024E+03 0.  0.
        -24    2    4    4    0    0 -0.72627138731E+01 -0.11935113966E+03  0.27301983534E+03  0.30873506400E+03  0.80498867712E+02 0.  0.
         24    2    4    4    0    0  0.87950304198E+02  0.22024647398E+03 -0.60898566027E+03  0.65848684475E+03  0.80607846887E+02 0.  0.
         13    1    3    3    0    0 -0.60668623966E+02 -0.61493096154E+02  0.16256089083E+02  0.87899620255E+02  0.00000000000E+00 0.  1.
        -13    1    3    3    0    0 -0.20018966358E+02 -0.39402238166E+02  0.95544984982E+02  0.10527174142E+03  0.00000000000E+00 0. -1.
          2    1    6    6  502    0 -0.14019290702E+02  0.11698064868E+02 -0.40222659534E+02  0.44172928061E+02  0.00000000000E+00 0. -1.
          3    1    5    5  503    0  0.11685118009E+02 -0.19021082728E+02  0.13619583674E+03  0.13801322225E+03  0.00000000000E+00 0. -1.
         -4    1    5    5    0  503 -0.18947831882E+02 -0.10033005693E+03  0.13682399860E+03  0.17072184175E+03  0.00000000000E+00 0.  1.
         -1    1    6    6    0  502  0.10196959490E+03  0.20854840911E+03 -0.56876300074E+03  0.61431391669E+03  0.00000000000E+00 0.  1.
<mgrwt>
<rscale>  0 0.11385353E+04</rscale>
<asrwt>0</asrwt>
<pdfrwt beam="1">  1        1 0.72017578E-01 0.11385353E+04</pdfrwt>
<pdfrwt beam="2">  1       -1 0.10650446E+00 0.11385353E+04</pdfrwt>
<totfact> 0.39739769E+01</totfact>
</mgrwt>
</event>
<event>
12    1  0.1599266E-007  0.1518651E+04  0.7818608E-02  0.8872144E-01
         -2   -1    0    0    0  501 -0.00000000000E+00  0.00000000000E+00  0.21079627647E+03  0.21079627647E+03  0.00000000000E+00 0.  1.
          2   -1    0    0  501    0  0.00000000000E+00 -0.00000000000E+00 -0.27352257852E+04  0.27352257852E+04  0.00000000000E+00 0. -1.
         23    2    1    2    0    0 -0.42850711314E+03  0.73849758583E+02 -0.13127572242E+04  0.13859747252E+04  0.92316176781E+02 0.  0.
        254    2    1    2    0    0  0.42850711314E+03 -0.73849758583E+02 -0.12116722846E+04  0.15600473365E+04  0.88120703239E+03 0.  0.
        -24    2    4    4    0    0  0.23977540715E+03 -0.15275148150E+03  0.32084689220E+02  0.29706376711E+03  0.79951194317E+02 0.  0.
         24    2    4    4    0    0  0.18873170599E+03  0.78901722920E+02 -0.12437569738E+04  0.12629835694E+04  0.79692834255E+02 0.  0.
         13    1    3    3    0    0 -0.67886575501E+02 -0.12884271048E+01 -0.31888885401E+03  0.32603734202E+03  0.00000000000E+00 0.  1.
        -13    1    3    3    0    0 -0.36062053764E+03  0.75138185688E+02 -0.99386837016E+03  0.10599373832E+04  0.00000000000E+00 0. -1.
          2    1    6    6  502    0  0.13912301220E+03  0.21200689192E+02 -0.70813700714E+03  0.72198525098E+03  0.00000000000E+00 0. -1.
          3    1    5    5  503    0  0.24305494172E+03 -0.14136748637E+03  0.22965013006E+02  0.28211320904E+03  0.00000000000E+00 0. -1.
         -4    1    5    5    0  503 -0.32795345683E+01 -0.11383995135E+02  0.91196762147E+01  0.14950558066E+02  0.00000000000E+00 0.  1.
         -1    1    6    6    0  502  0.49608693799E+02  0.57701033728E+02 -0.53561996669E+03  0.54099831840E+03  0.00000000000E+00 0.  1.
<mgrwt>
<rscale>  0 0.15186513E+04</rscale>
<asrwt>0</asrwt>
<pdfrwt beam="1">  1        2 0.42080392E+00 0.15186513E+04</pdfrwt>
<pdfrwt beam="2">  1       -2 0.32430200E-01 0.15186513E+04</pdfrwt>
<totfact> 0.21717035E+01</totfact>
</mgrwt>
</event>
<event>
12    1  0.1599266E-007  0.1309459E+04  0.7818608E-02  0.9022097E-01
          2   -1    0    0  501    0  0.00000000000E+00  0.00000000000E+00  0.12958612529E+04  0.12958612529E+04  0.00000000000E+00 0.  1.
         -2   -1    0    0    0  501 -0.00000000000E+00 -0.00000000000E+00 -0.33080003809E+03  0.33080003809E+03  0.00000000000E+00 0. -1.
         23    2    1    2    0    0 -0.16090230415E+03  0.21366061889E+03 -0.21235801830E-01  0.28181263498E+03  0.88757812257E+02 0.  0.
        254    2    1    2    0    0  0.16090230415E+03 -0.21366061889E+03  0.96508245057E+03  0.13448486560E+04  0.89760423323E+03 0.  0.
        -24    2    4    4    0    0  0.42823349575E+03 -0.25818065222E+03  0.93381589747E+03  0.10622944470E+04  0.80101097285E+02 0.  0.
         24    2    4    4    0    0 -0.26733119161E+03  0.44520033329E+02  0.31266553100E+02  0.28255420893E+03  0.73561431918E+02 0.  0.
         11    1    3    3    0    0 -0.13726658683E+03  0.21705177910E+03 -0.70847793277E+01  0.25691201756E+03  0.00000000000E+00 0. -1.
        -11    1    3    3    0    0 -0.23635717317E+02 -0.33911602035E+01  0.70635435258E+01  0.24900617417E+02  0.00000000000E+00 0.  1.
          4    1    6    6  502    0 -0.78749857028E+02  0.47930674866E+02  0.87905518847E+01  0.92607577322E+02  0.00000000000E+00 0. -1.
          3    1    5    5  503    0  0.27125961197E+03 -0.11793254519E+03  0.53369745837E+03  0.61018262789E+03  0.00000000000E+00 0. -1.
         -4    1    5    5    0  503  0.15697388378E+03 -0.14024810703E+03  0.40011843909E+03  0.45211181915E+03  0.00000000000E+00 0.  1.
         -3    1    6    6    0  502 -0.18858133458E+03 -0.34106415375E+01  0.22476001215E+02  0.18994663160E+03  0.00000000000E+00 0.  1.
<mgrwt>
<rscale>  0 0.13094594E+04</rscale>
<asrwt>0</asrwt>
<pdfrwt beam="1">  1        2 0.19936327E+00 0.13094594E+04</pdfrwt>
<pdfrwt beam="2">  1       -2 0.50892314E-01 0.13094594E+04</pdfrwt>
<totfact> 0.59415611E+01</totfact>
</mgrwt>
</event>
<event>
12    1  0.1599266E-007  0.1302179E+04  0.7818608E-02  0.9027839E-01
          1   -1    0    0  501    0  0.00000000000E+00  0.00000000000E+00  0.73079718522E+03  0.73079718522E+03  0.00000000000E+00 0. -1.
         -1   -1    0    0    0  501 -0.00000000000E+00 -0.00000000000E+00 -0.58007582449E+03  0.58007582449E+03  0.00000000000E+00 0.  1.
         23    2    1    2    0    0 -0.10407189675E+03 -0.10745341767E+03  0.33154942464E+03  0.37473736644E+03  0.90143641826E+02 0.  0.
        254    2    1    2    0    0  0.10407189675E+03  0.10745341767E+03 -0.18082806391E+03  0.93613564327E+03  0.90624166603E+03 0.  0.
        -24    2    4    4    0    0  0.33286742171E+03 -0.35950322765E+02 -0.43666451636E+03  0.55575371295E+03  0.78058589982E+02 0.  0.
         24    2    4    4    0    0 -0.22879552496E+03  0.14340374043E+03  0.25583645245E+03  0.38038193032E+03  0.79536768237E+02 0.  0.
         11    1    3    3    0    0 -0.15561642015E+02 -0.11319009406E+01  0.12982276009E+00  0.15603293110E+02  0.00000000000E+00 0.  1.
        -11    1    3    3    0    0 -0.88510254739E+02 -0.10632151673E+03  0.33141960188E+03  0.35913407333E+03  0.00000000000E+00 0. -1.
          4    1    6    6  502    0 -0.19065095234E+03  0.80836128720E+02  0.20348138619E+03  0.29032213120E+03  0.00000000000E+00 0. -1.
          1    1    5    5  503    0  0.22167250426E+03 -0.47262114250E+01 -0.23311198390E+03  0.32171762970E+03  0.00000000000E+00 0. -1.
         -2    1    5    5    0  503  0.11119491745E+03 -0.31224111340E+02 -0.20355253246E+03  0.23403608325E+03  0.00000000000E+00 0.  1.
         -3    1    6    6    0  502 -0.38144572611E+02  0.62567611711E+02  0.52355066257E+02  0.90059799121E+02  0.00000000000E+00 0.  1.
<mgrwt>
<rscale>  0 0.13021794E+04</rscale>
<asrwt>0</asrwt>
<pdfrwt beam="1">  1        1 0.11243034E+00 0.13021794E+04</pdfrwt>
<pdfrwt beam="2">  1       -1 0.89242434E-01 0.13021794E+04</pdfrwt>
<totfact> 0.30845626E+01</totfact>
</mgrwt>
</event>
<event>
12    1  0.1599266E-007  0.2319477E+04  0.7818608E-02  0.8470281E-01
          1   -1    0    0  501    0  0.00000000000E+00  0.00000000000E+00  0.21822379941E+04  0.21822379941E+04  0.00000000000E+00 0. -1.
         -1   -1    0    0    0  501 -0.00000000000E+00 -0.00000000000E+00 -0.61633660411E+03  0.61633660411E+03  0.00000000000E+00 0.  1.
         23    2    1    2    0    0 -0.39443831158E+03 -0.25100264238E+03 -0.37266539340E+03  0.60465456267E+03  0.90242653982E+02 0.  0.
        254    2    1    2    0    0  0.39443831158E+03  0.25100264238E+03  0.19385667834E+04  0.21939200356E+04  0.91469122692E+03 0.  0.
        -24    2    4    4    0    0  0.66996882620E+03  0.56081987665E+02  0.13539154823E+04  0.15140020430E+04  0.84330514504E+02 0.  0.
         24    2    4    4    0    0 -0.27553051462E+03  0.19492065472E+03  0.58465130113E+03  0.67991799255E+03  0.80995102084E+02 0.  0.
         13    1    3    3    0    0 -0.38278325367E+02 -0.24508520983E+02 -0.65632100866E+01  0.45923561712E+02  0.00000000000E+00 0. -1.
        -13    1    3    3    0    0 -0.35615998621E+03 -0.22649412140E+03 -0.36610218331E+03  0.55873100096E+03  0.00000000000E+00 0.  1.
          4    1    6    6  502    0 -0.11856580689E+03  0.13043631496E+03  0.32518468164E+03  0.36988722605E+03  0.00000000000E+00 0. -1.
          1    1    5    5  503    0  0.67267760370E+02 -0.14313806010E+02  0.17642238020E+03  0.18935335451E+03  0.00000000000E+00 0. -1.
         -2    1    5    5    0  503  0.60270106583E+03  0.70395793675E+02  0.11774931021E+04  0.13246486885E+04  0.00000000000E+00 0.  1.
         -3    1    6    6    0  502 -0.15696470773E+03  0.64484339758E+02  0.25946661949E+03  0.31003076650E+03  0.00000000000E+00 0.  1.
<mgrwt>
<rscale>  0 0.23194768E+04</rscale>
<asrwt>0</asrwt>
<pdfrwt beam="1">  1        1 0.33572892E+00 0.23194768E+04</pdfrwt>
<pdfrwt beam="2">  1       -1 0.94821017E-01 0.23194768E+04</pdfrwt>
<totfact> 0.21732230E+00</totfact>
</mgrwt>
</event>
<event>
12    1  0.1599266E-007  0.1206131E+04  0.7818608E-02  0.9107507E-01
          1   -1    0    0  501    0  0.00000000000E+00  0.00000000000E+00  0.28436585174E+03  0.28436585174E+03  0.00000000000E+00 0. -1.
         -1   -1    0    0    0  501 -0.00000000000E+00 -0.00000000000E+00 -0.12789430092E+04  0.12789430092E+04  0.00000000000E+00 0.  1.
         23    2    1    2    0    0  0.12961282308E+03  0.12648439689E+03 -0.49273144003E+01  0.21710938096E+03  0.11964287822E+03 0.  0.
        254    2    1    2    0    0 -0.12961282308E+03 -0.12648439689E+03 -0.98964984303E+03  0.13461994800E+04  0.89445427018E+03 0.  0.
        -24    2    4    4    0    0  0.17530163276E+03  0.27027448498E+03 -0.14722678297E+03  0.36292895977E+03  0.79137503991E+02 0.  0.
         24    2    4    4    0    0 -0.30491445584E+03 -0.39675888188E+03 -0.84242306006E+03  0.98327052018E+03  0.82181920151E+02 0.  0.
         13    1    3    3    0    0  0.25572322080E+02 -0.33926999630E+01  0.37368626754E+02  0.45407800377E+02  0.00000000000E+00 0.  1.
        -13    1    3    3    0    0  0.10404050100E+03  0.12987709686E+03 -0.42295941154E+02  0.17170158058E+03  0.00000000000E+00 0. -1.
          4    1    6    6  502    0 -0.28637161948E+02 -0.55151620118E+02 -0.16007494540E+03  0.17171422885E+03  0.00000000000E+00 0. -1.
          3    1    5    5  503    0  0.63403099465E+02  0.10290295808E+03 -0.14384844054E+02  0.12172056335E+03  0.00000000000E+00 0. -1.
         -4    1    5    5    0  503  0.11189853329E+03  0.16737152690E+03 -0.13284193891E+03  0.24120839642E+03  0.00000000000E+00 0.  1.
         -3    1    6    6    0  502 -0.27627729389E+03 -0.34160726176E+03 -0.68234811467E+03  0.81155629133E+03  0.00000000000E+00 0.  1.
<mgrwt>
<rscale>  0 0.12061305E+04</rscale>
<asrwt>0</asrwt>
<pdfrwt beam="1">  1        1 0.43748592E-01 0.12061305E+04</pdfrwt>
<pdfrwt beam="2">  1       -1 0.19676047E+00 0.12061305E+04</pdfrwt>
<totfact> 0.14744778E+01</totfact>
</mgrwt>
</event>
<event>
12    1  0.1599266E-007  0.1933687E+04  0.7818608E-02  0.8638268E-01
         -1   -1    0    0    0  501 -0.00000000000E+00  0.00000000000E+00  0.97360315512E+03  0.97360315512E+03  0.00000000000E+00 0.  1.
          1   -1    0    0  501    0  0.00000000000E+00 -0.00000000000E+00 -0.96013048284E+03  0.96013048284E+03  0.00000000000E+00 0. -1.
         23    2    1    2    0    0 -0.49327888423E+03  0.51049629755E+03 -0.25003307541E+03  0.75792332305E+03  0.89446617483E+02 0.  0.
        254    2    1    2    0    0  0.49327888423E+03 -0.51049629755E+03  0.26350574770E+03  0.11758103149E+04  0.89953548576E+03 0.  0.
        -24    2    4    4    0    0 -0.19802391508E+03 -0.21069374128E+03  0.29059491894E+03  0.41727460824E+03  0.77893313005E+02 0.  0.
         24    2    4    4    0    0  0.69130279931E+03 -0.29980255627E+03 -0.27089171243E+02  0.75853570667E+03  0.82833942397E+02 0.  0.
         13    1    3    3    0    0 -0.11565698445E+03  0.74307893637E+02 -0.64800710865E+02  0.15197806828E+03  0.00000000000E+00 0.  1.
        -13    1    3    3    0    0 -0.37762189978E+03  0.43618840392E+03 -0.18523236455E+03  0.60594525477E+03  0.00000000000E+00 0. -1.
          4    1    6    6  502    0  0.41229156658E+01 -0.11235163200E+02 -0.47935629381E+01  0.12892073974E+02  0.00000000000E+00 0. -1.
          1    1    5    5  503    0 -0.60195420411E+00  0.16103867081E+01  0.21989204798E+02  0.22056310251E+02  0.00000000000E+00 0. -1.
         -2    1    5    5    0  503 -0.19742196088E+03 -0.21230412799E+03  0.26860571415E+03  0.39521829799E+03  0.00000000000E+00 0.  1.
         -3    1    6    6    0  502  0.68717988364E+03 -0.28856739308E+03 -0.22295608305E+02  0.74564363269E+03  0.00000000000E+00 0.  1.
<mgrwt>
<rscale>  0 0.19336867E+04</rscale>
<asrwt>0</asrwt>
<pdfrwt beam="1">  1        1 0.14771238E+00 0.19336867E+04</pdfrwt>
<pdfrwt beam="2">  1       -1 0.14978510E+00 0.19336867E+04</pdfrwt>
<totfact> 0.53164787E+00</totfact>
</mgrwt>
</event>
<event>
12    1  0.1599266E-007  0.1478016E+04  0.7818608E-02  0.8899205E-01
         -1   -1    0    0    0  501 -0.00000000000E+00  0.00000000000E+00  0.25279741865E+04  0.25279741865E+04  0.00000000000E+00 0.  1.
          1   -1    0    0  501    0  0.00000000000E+00 -0.00000000000E+00 -0.21603573794E+03  0.21603573794E+03  0.00000000000E+00 0. -1.
         23    2    1    2    0    0  0.24351283072E+03 -0.16258261565E+03  0.64102916198E+02  0.31407931527E+03  0.93835104196E+02 0.  0.
        254    2    1    2    0    0 -0.24351283072E+03  0.16258261565E+03  0.22478355324E+04  0.24299306092E+04  0.87525229459E+03 0.  0.
        -24    2    4    4    0    0  0.77245493456E+02  0.29548072811E+03  0.25656530582E+03  0.40687883116E+03  0.80305044356E+02 0.  0.
         24    2    4    4    0    0 -0.32075832418E+03 -0.13289811245E+03  0.19912702265E+04  0.20230517780E+04  0.83866385358E+02 0.  0.
         13    1    3    3    0    0  0.23587765248E+03 -0.13170969327E+03  0.75143408601E+02  0.28041441136E+03  0.00000000000E+00 0. -1.
        -13    1    3    3    0    0  0.76351782424E+01 -0.30872922383E+02 -0.11040492403E+02  0.33664903918E+02  0.00000000000E+00 0.  1.
          4    1    6    6  502    0 -0.12543020622E+02 -0.23495671856E+02  0.90062659060E+02  0.93918350280E+02  0.00000000000E+00 0. -1.
          3    1    5    5  503    0 -0.88553600798E+01  0.74940924838E+02  0.89761522205E+02  0.11726760203E+03  0.00000000000E+00 0. -1.
         -4    1    5    5    0  503  0.86100853536E+02  0.22053980327E+03  0.16680378362E+03  0.28961122913E+03  0.00000000000E+00 0.  1.
         -3    1    6    6    0  502 -0.30821530355E+03 -0.10940244060E+03  0.19012075675E+04  0.19291334277E+04  0.00000000000E+00 0.  1.
<mgrwt>
<rscale>  0 0.14780159E+04</rscale>
<asrwt>0</asrwt>
<pdfrwt beam="1">  1        1 0.33236269E-01 0.14780159E+04</pdfrwt>
<pdfrwt beam="2">  1       -1 0.38891908E+00 0.14780159E+04</pdfrwt>
<totfact> 0.11175882E+00</totfact>
</mgrwt>
</event>
<event>
12    1  0.1599266E-007  0.2110128E+04  0.7818608E-02  0.8556795E-01
         -2   -1    0    0    0  501 -0.00000000000E+00  0.00000000000E+00  0.80945797544E+03  0.80945797544E+03  0.00000000000E+00 0.  1.
          2   -1    0    0  501    0  0.00000000000E+00 -0.00000000000E+00 -0.13751918717E+04  0.13751918717E+04  0.00000000000E+00 0. -1.
         23    2    1    2    0    0 -0.58134726392E+03  0.58141356851E+03  0.28528439306E+02  0.82769307323E+03  0.90860182191E+02 0.  0.
        254    2    1    2    0    0  0.58134726392E+03 -0.58141356851E+03 -0.59426233555E+03  0.13569567739E+04  0.90120895681E+03 0.  0.
        -24    2    4    4    0    0 -0.22117485854E+03 -0.24630199590E+03 -0.10641941729E+03  0.35669802096E+03  0.79532349077E+02 0.  0.
         24    2    4    4    0    0  0.80252212246E+03 -0.33511157261E+03 -0.48784291826E+03  0.10002587529E+04  0.78646912038E+02 0.  0.
         13    1    3    3    0    0 -0.38415971537E+02  0.75645072743E+02  0.10271310678E+02  0.85460304952E+02  0.00000000000E+00 0. -1.
        -13    1    3    3    0    0 -0.54293129238E+03  0.50576849577E+03  0.18257128628E+02  0.74223276827E+03  0.00000000000E+00 0.  1.
          4    1    6    6  502    0  0.21353032974E+03 -0.12233036439E+03 -0.11751460184E+03  0.27270790494E+03  0.00000000000E+00 0. -1.
          3    1    5    5  503    0 -0.79528931597E+01 -0.36293027690E+02 -0.30165986041E+02  0.47858323020E+02  0.00000000000E+00 0. -1.
         -2    1    5    5    0  503 -0.21322196538E+03 -0.21000896821E+03 -0.76253431245E+02  0.30883969794E+03  0.00000000000E+00 0.  1.
         -1    1    6    6    0  502  0.58899179272E+03 -0.21278120822E+03 -0.37032831642E+03  0.72755084798E+03  0.00000000000E+00 0.  1.
<mgrwt>
<rscale>  0 0.21101280E+04</rscale>
<asrwt>0</asrwt>
<pdfrwt beam="1">  1        2 0.21156798E+00 0.21101280E+04</pdfrwt>
<pdfrwt beam="2">  1       -2 0.12453200E+00 0.21101280E+04</pdfrwt>
<totfact> 0.66655205E+00</totfact>
</mgrwt>
</event>
<event>
12    1  0.1599266E-007  0.1684505E+04  0.7818608E-02  0.8770251E-01
         -1   -1    0    0    0  501 -0.00000000000E+00  0.00000000000E+00  0.23954392379E+04  0.23954392379E+04  0.00000000000E+00 0.  1.
          1   -1    0    0  501    0  0.00000000000E+00 -0.00000000000E+00 -0.29614161583E+03  0.29614161583E+03  0.00000000000E+00 0. -1.
         23    2    1    2    0    0 -0.32675346650E+03 -0.34930934844E+03  0.20806407875E+03  0.52945690100E+03  0.90824558231E+02 0.  0.
        254    2    1    2    0    0  0.32675346650E+03  0.34930934844E+03  0.18912335433E+04  0.21621239527E+04  0.93232549187E+03 0.  0.
        -24    2    4    4    0    0 -0.16480912156E+03 -0.21783621741E+03  0.40598507755E+03  0.49609355363E+03  0.81671700098E+02 0.  0.
         24    2    4    4    0    0  0.49156258806E+03  0.56714556585E+03  0.14852484658E+04  0.16660303991E+04  0.80040082379E+02 0.  0.
         13    1    3    3    0    0 -0.21932135054E+03 -0.24839739620E+03  0.18721777478E+03  0.38059639572E+03  0.00000000000E+00 0.  1.
        -13    1    3    3    0    0 -0.10743211596E+03 -0.10091195224E+03  0.20846303973E+02  0.14886050528E+03  0.00000000000E+00 0. -1.
          4    1    6    6  502    0  0.34350704564E+03  0.43859886627E+03  0.10494398985E+04  0.11881456798E+04  0.00000000000E+00 0. -1.
          3    1    5    5  503    0 -0.16708973939E+03 -0.21754883791E+03  0.40889603345E+03  0.49238444741E+03  0.00000000000E+00 0. -1.
         -4    1    5    5    0  503  0.22806178285E+01 -0.28737949840E+00 -0.29109559013E+01  0.37091062151E+01  0.00000000000E+00 0.  1.
         -3    1    6    6    0  502  0.14805554242E+03  0.12854669958E+03  0.43580856727E+03  0.47788471928E+03  0.00000000000E+00 0.  1.
<mgrwt>
<rscale>  0 0.16845050E+04</rscale>
<asrwt>0</asrwt>
<pdfrwt beam="1">  1        1 0.45560250E-01 0.16845050E+04</pdfrwt>
<pdfrwt beam="2">  1       -1 0.36852910E+00 0.16845050E+04</pdfrwt>
<totfact> 0.99693661E-01</totfact>
</mgrwt>
</event>
<event>
12    1  0.1599266E-007  0.1533069E+04  0.7818608E-02  0.8862756E-01
          1   -1    0    0  501    0  0.00000000000E+00  0.00000000000E+00  0.41323207895E+03  0.41323207895E+03  0.00000000000E+00 0. -1.
         -1   -1    0    0    0  501 -0.00000000000E+00 -0.00000000000E+00 -0.14219004724E+04  0.14219004724E+04  0.00000000000E+00 0.  1.
         23    2    1    2    0    0  0.34096778757E+03 -0.58556265045E+02  0.91530686628E+02  0.36943386499E+03  0.91736828305E+02 0.  0.
        254    2    1    2    0    0 -0.34096778757E+03  0.58556265045E+02 -0.11001990800E+04  0.14656986863E+04  0.90451465163E+03 0.  0.
        -24    2    4    4    0    0 -0.48587419243E+03 -0.19914292182E+03 -0.10185022403E+04  0.11487246019E+04  0.80559067623E+02 0.  0.
         24    2    4    4    0    0  0.14490640486E+03  0.25769918687E+03 -0.81696839742E+02  0.31697408440E+03  0.79946603901E+02 0.  0.
         13    1    3    3    0    0  0.28106363351E+03 -0.10866179728E+02  0.74987564945E+02  0.29109787845E+03  0.00000000000E+00 0. -1.
        -13    1    3    3    0    0  0.59904154066E+02 -0.47690085317E+02  0.16543121683E+02  0.78335986538E+02  0.00000000000E+00 0.  1.
          4    1    6    6  502    0  0.15405115464E+03  0.22840777197E+03 -0.75617912848E+02  0.28569203224E+03  0.00000000000E+00 0. -1.
          3    1    5    5  503    0 -0.42521562976E+03 -0.18553079232E+03 -0.83845275727E+03  0.95824476668E+03  0.00000000000E+00 0. -1.
         -4    1    5    5    0  503 -0.60658562676E+02 -0.13612129503E+02 -0.18004948302E+03  0.19047983523E+03  0.00000000000E+00 0.  1.
         -3    1    6    6    0  502 -0.91447497776E+01  0.29291414896E+02 -0.60789268946E+01  0.31282052159E+02  0.00000000000E+00 0.  1.
<mgrwt>
<rscale>  0 0.15330687E+04</rscale>
<asrwt>0</asrwt>
<pdfrwt beam="1">  1        1 0.63574167E-01 0.15330687E+04</pdfrwt>
<pdfrwt beam="2">  1       -1 0.21875392E+00 0.15330687E+04</pdfrwt>
<totfact> 0.62169437E+00</totfact>
</mgrwt>
</event>
<event>
12    1  0.1599266E-007  0.1663111E+04  0.7818608E-02  0.8782688E-01
          2   -1    0    0  501    0  0.00000000000E+00  0.00000000000E+00  0.14563165138E+04  0.14563165138E+04  0.00000000000E+00 0. -1.
         -2   -1    0    0    0  501 -0.00000000000E+00 -0.00000000000E+00 -0.47481739489E+03  0.47481739489E+03  0.00000000000E+00 0.  1.
         23    2    1    2    0    0  0.14772154433E+03 -0.31388439332E+03 -0.18303328878E+03  0.40251970469E+03  0.90420466886E+02 0.  0.
        254    2    1    2    0    0 -0.14772154433E+03  0.31388439332E+03  0.11645324077E+04  0.15286142040E+04  0.92745921155E+03 0.  0.
        -24    2    4    4    0    0  0.27443505500E+03  0.44272410213E+03  0.75898973065E+03  0.92396102777E+03  0.79494273984E+02 0.  0.
         24    2    4    4    0    0 -0.42215659933E+03 -0.12883970880E+03  0.40554267704E+03  0.60465317623E+03  0.79528206950E+02 0.  0.
         11    1    3    3    0    0  0.15850702031E+03 -0.26845177490E+03 -0.15694379662E+03  0.34903035145E+03  0.00000000000E+00 0.  1.
        -11    1    3    3    0    0 -0.10785475985E+02 -0.45432618419E+02 -0.26089492160E+02  0.53489353237E+02  0.00000000000E+00 0. -1.
          4    1    6    6  502    0 -0.23072451013E+03 -0.10935911618E+03  0.21401750347E+03  0.33316168396E+03  0.00000000000E+00 0. -1.
          3    1    5    5  503    0  0.25832956936E+03  0.43358288589E+03  0.74824345236E+03  0.90255002595E+03  0.00000000000E+00 0. -1.
         -4    1    5    5    0  503  0.16105485640E+02  0.91412162405E+01  0.10746278286E+02  0.21411001823E+02  0.00000000000E+00 0.  1.
         -3    1    6    6    0  502 -0.19143208920E+03 -0.19480592623E+02  0.19152517356E+03  0.27149149226E+03  0.00000000000E+00 0.  1.
<mgrwt>
<rscale>  0 0.16631108E+04</rscale>
<asrwt>0</asrwt>
<pdfrwt beam="1">  1        2 0.22404869E+00 0.16631108E+04</pdfrwt>
<pdfrwt beam="2">  1       -2 0.73048831E-01 0.16631108E+04</pdfrwt>
<totfact> 0.21707225E+01</totfact>
</mgrwt>
</event>
<event>
12    1  0.1599266E-007  0.2976881E+04  0.7818608E-02  0.8250364E-01
          1   -1    0    0  501    0  0.00000000000E+00  0.00000000000E+00  0.35689667948E+04  0.35689667948E+04  0.00000000000E+00 0. -1.
         -1   -1    0    0    0  501 -0.00000000000E+00 -0.00000000000E+00 -0.62075532119E+03  0.62075532119E+03  0.00000000000E+00 0.  1.
         23    2    1    2    0    0 -0.60774152201E+03  0.11474622804E+04  0.81324786327E+03  0.15348398751E+04  0.91334070643E+02 0.  0.
        254    2    1    2    0    0  0.60774152201E+03 -0.11474622804E+04  0.21349636103E+04  0.26548822409E+04  0.89683368203E+03 0.  0.
        -24    2    4    4    0    0 -0.69119379913E+02 -0.48426263317E+03  0.12921135521E+04  0.13841179980E+04  0.83291142526E+02 0.  0.
         24    2    4    4    0    0  0.67686090192E+03 -0.66319964722E+03  0.84285005824E+03  0.12707642429E+04  0.80443071217E+02 0.  0.
         11    1    3    3    0    0 -0.31814098608E+03  0.64851491128E+03  0.49851610297E+03  0.87766940365E+03  0.00000000000E+00 0.  1.
        -11    1    3    3    0    0 -0.28960053593E+03  0.49894736911E+03  0.31473176030E+03  0.65717047141E+03  0.00000000000E+00 0. -1.
          2    1    6    6  502    0  0.29497481340E+02 -0.29445684535E+02  0.17398104232E+02  0.45164629679E+02  0.00000000000E+00 0. -1.
          3    1    5    5  503    0 -0.11733069591E+02 -0.44915947698E+02  0.68455376046E+02  0.82711823757E+02  0.00000000000E+00 0. -1.
         -4    1    5    5    0  503 -0.57386310322E+02 -0.43934668547E+03  0.12236581760E+04  0.13014061743E+04  0.00000000000E+00 0.  1.
         -1    1    6    6    0  502  0.64736342058E+03 -0.63375396269E+03  0.82545195400E+03  0.12255996132E+04  0.00000000000E+00 0.  1.
<mgrwt>
<rscale>  0 0.29768810E+04</rscale>
<asrwt>0</asrwt>
<pdfrwt beam="1">  1        1 0.54907180E+00 0.29768810E+04</pdfrwt>
<pdfrwt beam="2">  1       -1 0.95500821E-01 0.29768810E+04</pdfrwt>
<totfact> 0.19861339E-01</totfact>
</mgrwt>
</event>
<event>
12    1  0.1599266E-007  0.1737026E+04  0.7818608E-02  0.8740525E-01
         -2   -1    0    0    0  501 -0.00000000000E+00  0.00000000000E+00  0.47064778384E+03  0.47064778384E+03  0.00000000000E+00 0.  1.
          2   -1    0    0  501    0  0.00000000000E+00 -0.00000000000E+00 -0.16027154647E+04  0.16027154647E+04  0.00000000000E+00 0. -1.
         23    2    1    2    0    0 -0.30916450162E+03 -0.23207014471E+03  0.18225213434E+03  0.43678021724E+03  0.90121454591E+02 0.  0.
        254    2    1    2    0    0  0.30916450162E+03  0.23207014471E+03 -0.13143198151E+04  0.16365830312E+04  0.89528107349E+03 0.  0.
        -24    2    4    4    0    0 -0.72731021763E+01  0.34419966289E+03 -0.93450599884E+02  0.36791552125E+03  0.90013944550E+02 0.  0.
         24    2    4    4    0    0  0.31643760380E+03 -0.11212951818E+03 -0.12208692153E+04  0.12686675100E+04  0.79308411844E+02 0.  0.
         11    1    3    3    0    0 -0.15652726223E+03 -0.66873069187E+02  0.99243774041E+02  0.19703329132E+03  0.00000000000E+00 0. -1.
        -11    1    3    3    0    0 -0.15263723939E+03 -0.16519707552E+03  0.83008360300E+02  0.23974692593E+03  0.00000000000E+00 0.  1.
          4    1    6    6  502    0  0.32081468108E+03 -0.10852741556E+03 -0.11887942599E+04  0.12360954865E+04  0.00000000000E+00 0. -1.
          3    1    5    5  503    0 -0.26179196460E+02  0.32630851582E+03 -0.97510763312E+02  0.34157129093E+03  0.00000000000E+00 0. -1.
         -4    1    5    5    0  503  0.18906094284E+02  0.17891147070E+02  0.40601634280E+01  0.26344230329E+02  0.00000000000E+00 0.  1.
         -3    1    6    6    0  502 -0.43770772824E+01 -0.36021026239E+01 -0.32074955415E+02  0.32572023482E+02  0.00000000000E+00 0.  1.
<mgrwt>
<rscale>  0 0.17370256E+04</rscale>
<asrwt>0</asrwt>
<pdfrwt beam="1">  1        2 0.24657161E+00 0.17370256E+04</pdfrwt>
<pdfrwt beam="2">  1       -2 0.72407351E-01 0.17370256E+04</pdfrwt>
<totfact> 0.18196900E+01</totfact>
</mgrwt>
</event>
<event>
12    1  0.1599266E-007  0.2947560E+04  0.7818608E-02  0.8258866E-01
         -2   -1    0    0    0  501 -0.00000000000E+00  0.00000000000E+00  0.15589901726E+04  0.15589901726E+04  0.00000000000E+00 0.  1.
          2   -1    0    0  501    0  0.00000000000E+00 -0.00000000000E+00 -0.13932268302E+04  0.13932268302E+04  0.00000000000E+00 0. -1.
         23    2    1    2    0    0 -0.68990987793E+03  0.10967793752E+04  0.39290851673E+03  0.13571491114E+04  0.92606536333E+02 0.  0.
        254    2    1    2    0    0  0.68990987793E+03 -0.10967793752E+04 -0.22714517432E+03  0.15950678914E+04  0.90207871632E+03 0.  0.
        -24    2    4    4    0    0  0.66508539229E+03 -0.10846158072E+04  0.80406394556E+02  0.12771796032E+04  0.77411383386E+02 0.  0.
         24    2    4    4    0    0  0.24824485643E+02 -0.12163567977E+02 -0.30755156887E+03  0.31788828819E+03  0.75503567977E+02 0.  0.
         13    1    3    3    0    0 -0.25148760350E+03  0.35185749756E+03  0.94240734666E+02  0.44264097118E+03  0.00000000000E+00 0. -1.
        -13    1    3    3    0    0 -0.43842227443E+03  0.74492187763E+03  0.29866778207E+03  0.91450814022E+03  0.00000000000E+00 0.  1.
          2    1    6    6  502    0  0.47852010604E+02 -0.22176070324E+02 -0.24226503531E+03  0.24793938846E+03  0.00000000000E+00 0. -1.
          3    1    5    5  503    0  0.64928399965E+03 -0.10324743181E+04  0.84204043724E+02  0.12225642113E+04  0.00000000000E+00 0. -1.
         -4    1    5    5    0  503  0.15801392639E+02 -0.52141489077E+02 -0.37976491680E+01  0.54615391894E+02  0.00000000000E+00 0.  1.
         -3    1    6    6    0  502 -0.23027524961E+02  0.10012502347E+02 -0.65286533565E+02  0.69948899734E+02  0.00000000000E+00 0.  1.
<mgrwt>
<rscale>  0 0.29475596E+04</rscale>
<asrwt>0</asrwt>
<pdfrwt beam="1">  1        2 0.21434259E+00 0.29475596E+04</pdfrwt>
<pdfrwt beam="2">  1       -2 0.23984464E+00 0.29475596E+04</pdfrwt>
<totfact> 0.93190255E-01</totfact>
</mgrwt>
</event>
<event>
12    1  0.1599266E-007  0.2006203E+04  0.7818608E-02  0.8603726E-01
         -2   -1    0    0    0  501 -0.00000000000E+00  0.00000000000E+00  0.17852753478E+04  0.17852753478E+04  0.00000000000E+00 0.  1.
          2   -1    0    0  501    0  0.00000000000E+00 -0.00000000000E+00 -0.56361774673E+03  0.56361774673E+03  0.00000000000E+00 0. -1.
         23    2    1    2    0    0 -0.73342608103E+03 -0.28501316441E+02  0.87048355776E+03  0.11420169213E+04  0.87948183014E+02 0.  0.
        254    2    1    2    0    0  0.73342608103E+03  0.28501316441E+02  0.35117404329E+03  0.12068761732E+04  0.89134771404E+03 0.  0.
        -24    2    4    4    0    0  0.14062472869E+01 -0.19945387604E+03 -0.17195824610E+03  0.27536154946E+03  0.80439532062E+02 0.  0.
         24    2    4    4    0    0  0.73201983374E+03  0.22795519249E+03  0.52313228940E+03  0.93151462372E+03  0.78965151881E+02 0.  0.
         13    1    3    3    0    0 -0.65766830629E+03 -0.13916718096E+02  0.81305952115E+03  0.10458427516E+04  0.00000000000E+00 0.  1.
        -13    1    3    3    0    0 -0.75757774739E+02 -0.14584598346E+02  0.57424036612E+02  0.96174169729E+02  0.00000000000E+00 0. -1.
          2    1    6    6  502    0  0.54910514042E+03  0.15655711172E+03  0.42635980195E+03  0.71260737099E+03  0.00000000000E+00 0. -1.
          1    1    5    5  503    0  0.32425830698E+02 -0.16541271802E+03 -0.14219022233E+03  0.22052406015E+03  0.00000000000E+00 0. -1.
         -2    1    5    5    0  503 -0.31019583411E+02 -0.34041158029E+02 -0.29768023779E+02  0.54837489317E+02  0.00000000000E+00 0.  1.
         -1    1    6    6    0  502  0.18291469333E+03  0.71398080762E+02  0.96772487446E+02  0.21890725273E+03  0.00000000000E+00 0.  1.
<mgrwt>
<rscale>  0 0.20062032E+04</rscale>
<asrwt>0</asrwt>
<pdfrwt beam="1">  1        2 0.86710423E-01 0.20062032E+04</pdfrwt>
<pdfrwt beam="2">  1       -2 0.27465774E+00 0.20062032E+04</pdfrwt>
<totfact> 0.22547794E+00</totfact>
</mgrwt>
</event>
<event>
12    1  0.1599266E-007  0.2517649E+04  0.7818608E-02  0.8396725E-01
          1   -1    0    0  501    0  0.00000000000E+00  0.00000000000E+00  0.11560875062E+04  0.11560875062E+04  0.00000000000E+00 0. -1.
         -1   -1    0    0    0  501 -0.00000000000E+00 -0.00000000000E+00 -0.13706913291E+04  0.13706913291E+04  0.00000000000E+00 0.  1.
         23    2    1    2    0    0 -0.48921180333E+03  0.98111347864E+03 -0.92136653655E+02  0.11039642209E+04  0.91301652004E+02 0.  0.
        254    2    1    2    0    0  0.48921180333E+03 -0.98111347864E+03 -0.12246716931E+03  0.14228146144E+04  0.89860523753E+03 0.  0.
        -24    2    4    4    0    0  0.26628163124E+03 -0.84239873539E+03  0.28444302595E+03  0.93144618403E+03  0.78374882478E+02 0.  0.
         24    2    4    4    0    0  0.22293017209E+03 -0.13871474325E+03 -0.40691019526E+03  0.49136843038E+03  0.83230918179E+02 0.  0.
         11    1    3    3    0    0 -0.32546502177E+03  0.60320042134E+03 -0.19062514135E+02  0.68566873062E+03  0.00000000000E+00 0.  1.
        -11    1    3    3    0    0 -0.16374678156E+03  0.37791305729E+03 -0.73074139519E+02  0.41829549031E+03  0.00000000000E+00 0. -1.
          2    1    6    6  502    0  0.21148716973E+03 -0.98294428143E+02 -0.35159931723E+03  0.42191313969E+03  0.00000000000E+00 0. -1.
          1    1    5    5  503    0  0.22877264328E+03 -0.63019210928E+03  0.19587923030E+03  0.69846094363E+03  0.00000000000E+00 0. -1.
         -2    1    5    5    0  503  0.37508987955E+02 -0.21220662611E+03  0.88563795653E+02  0.23298524040E+03  0.00000000000E+00 0.  1.
         -1    1    6    6    0  502  0.11443002363E+02 -0.40420315106E+02 -0.55310878030E+02  0.69455290690E+02  0.00000000000E+00 0.  1.
<mgrwt>
<rscale>  0 0.25176490E+04</rscale>
<asrwt>0</asrwt>
<pdfrwt beam="1">  1        1 0.17785962E+00 0.25176490E+04</pdfrwt>
<pdfrwt beam="2">  1       -1 0.21087559E+00 0.25176490E+04</pdfrwt>
<totfact> 0.12949590E+00</totfact>
</mgrwt>
</event>
<event>
12    1  0.1599266E-007  0.2293852E+04  0.7818608E-02  0.8480349E-01
          2   -1    0    0  501    0  0.00000000000E+00  0.00000000000E+00  0.11269143479E+04  0.11269143479E+04  0.00000000000E+00 0. -1.
         -2   -1    0    0    0  501 -0.00000000000E+00 -0.00000000000E+00 -0.11672933422E+04  0.11672933422E+04  0.00000000000E+00 0.  1.
         23    2    1    2    0    0  0.61362459206E+03 -0.34891218834E+03 -0.68586259650E+03  0.98838321705E+03  0.90658851207E+02 0.  0.
        254    2    1    2    0    0 -0.61362459206E+03  0.34891218834E+03  0.64548360219E+03  0.13058244730E+04  0.88896210187E+03 0.  0.
        -24    2    4    4    0    0 -0.20917751084E+03  0.45041350715E+03  0.71644017690E+03  0.87531928465E+03  0.79181844719E+02 0.  0.
         24    2    4    4    0    0 -0.40444708122E+03 -0.10150131881E+03 -0.70956574708E+02  0.43050518840E+03  0.80124418948E+02 0.  0.
         13    1    3    3    0    0  0.41564735915E+03 -0.23390202182E+03 -0.52038693281E+03  0.70588628179E+03  0.00000000000E+00 0.  1.
        -13    1    3    3    0    0  0.19797723291E+03 -0.11501016652E+03 -0.16547566369E+03  0.28249693526E+03  0.00000000000E+00 0. -1.
          4    1    6    6  502    0 -0.25136646315E+02 -0.17366547253E+02 -0.24590238580E+02  0.39218972257E+02  0.00000000000E+00 0. -1.
          1    1    5    5  503    0 -0.86872487723E+02  0.11628181256E+03  0.24349428724E+03  0.28347443796E+03  0.00000000000E+00 0. -1.
         -2    1    5    5    0  503 -0.12230502311E+03  0.33413169459E+03  0.47294588966E+03  0.59184484669E+03  0.00000000000E+00 0.  1.
         -3    1    6    6    0  502 -0.37931043491E+03 -0.84134771560E+02 -0.46366336129E+02  0.39128621614E+03  0.00000000000E+00 0.  1.
<mgrwt>
<rscale>  0 0.22938523E+04</rscale>
<asrwt>0</asrwt>
<pdfrwt beam="1">  1        2 0.17337144E+00 0.22938523E+04</pdfrwt>
<pdfrwt beam="2">  1       -2 0.17958359E+00 0.22938523E+04</pdfrwt>
<totfact> 0.34720456E+00</totfact>
</mgrwt>
</event>
<event>
12    1  0.1599266E-007  0.1223439E+04  0.7818608E-02  0.9092585E-01
          2   -1    0    0  501    0  0.00000000000E+00  0.00000000000E+00  0.85325964432E+03  0.85325964432E+03  0.00000000000E+00 0. -1.
         -2   -1    0    0    0  501 -0.00000000000E+00 -0.00000000000E+00 -0.43855411455E+03  0.43855411455E+03  0.00000000000E+00 0.  1.
         23    2    1    2    0    0  0.20150396707E+03 -0.15118753598E+03  0.20477655648E+03  0.33689295760E+03  0.90010593907E+02 0.  0.
        254    2    1    2    0    0 -0.20150396707E+03  0.15118753598E+03  0.20992897329E+03  0.95492080127E+03  0.89685118224E+03 0.  0.
        -24    2    4    4    0    0  0.93407625377E+02 -0.28593914800E+03  0.27794956139E+03  0.41748666835E+03  0.80950470876E+02 0.  0.
         24    2    4    4    0    0 -0.29491159245E+03  0.43712668398E+03 -0.68020588099E+02  0.53743413292E+03  0.78460573663E+02 0.  0.
         13    1    3    3    0    0  0.20938164408E+03 -0.15168132604E+03  0.19268084721E+03  0.32244969597E+03  0.00000000000E+00 0. -1.
        -13    1    3    3    0    0 -0.78776770145E+01  0.49379006096E+00  0.12095709271E+02  0.14443261631E+02  0.00000000000E+00 0.  1.
          4    1    6    6  502    0 -0.24956680016E+02  0.25926600999E+02  0.14251892876E+02  0.38705826013E+02  0.00000000000E+00 0. -1.
          3    1    5    5  503    0  0.12859886562E+02  0.12587828992E+01  0.80582117464E+01  0.15228131643E+02  0.00000000000E+00 0. -1.
         -4    1    5    5    0  503  0.80547738815E+02 -0.28719793090E+03  0.26989134964E+03  0.40225853671E+03  0.00000000000E+00 0.  1.
         -3    1    6    6    0  502 -0.26995491243E+03  0.41120008298E+03 -0.82272480975E+02  0.49872830691E+03  0.00000000000E+00 0.  1.
<mgrwt>
<rscale>  0 0.12234386E+04</rscale>
<asrwt>0</asrwt>
<pdfrwt beam="1">  1        2 0.13127071E+00 0.12234386E+04</pdfrwt>
<pdfrwt beam="2">  1       -2 0.67469864E-01 0.12234386E+04</pdfrwt>
<totfact> 0.62675434E+01</totfact>
</mgrwt>
</event>
<event>
12    1  0.1599266E-007  0.1223052E+04  0.7818608E-02  0.9092915E-01
          2   -1    0    0  501    0  0.00000000000E+00  0.00000000000E+00  0.14916887318E+04  0.14916887318E+04  0.00000000000E+00 0. -1.
         -2   -1    0    0    0  501 -0.00000000000E+00 -0.00000000000E+00 -0.25069836368E+03  0.25069836368E+03  0.00000000000E+00 0.  1.
         23    2    1    2    0    0 -0.38418673473E+01  0.24805969432E+03  0.13017204354E+03  0.29455747257E+03  0.90944883501E+02 0.  0.
        254    2    1    2    0    0  0.38418673473E+01 -0.24805969432E+03  0.11108183245E+04  0.14478296229E+04  0.89484350297E+03 0.  0.
        -24    2    4    4    0    0  0.35268101461E+03 -0.22095402133E+03  0.20171547576E+03  0.47032343012E+03  0.85500983372E+02 0.  0.
         24    2    4    4    0    0 -0.34883914726E+03 -0.27105672999E+02  0.90910284879E+03  0.97750619275E+03  0.81405767654E+02 0.  0.
         13    1    3    3    0    0  0.13469599491E+02  0.18022848550E+03  0.48774807149E+02  0.18719700561E+03  0.00000000000E+00 0.  1.
        -13    1    3    3    0    0 -0.17311466839E+02  0.67831208826E+02  0.81397236390E+02  0.10736046696E+03  0.00000000000E+00 0. -1.
          2    1    6    6  502    0 -0.79622577505E+01 -0.52203106107E+01  0.44403034446E+01  0.10505497896E+02  0.00000000000E+00 0. -1.
          3    1    5    5  503    0  0.31387856266E+02 -0.19967519137E+02  0.49495776099E+02  0.61917131660E+02  0.00000000000E+00 0. -1.
         -4    1    5    5    0  503  0.32129315834E+03 -0.20098650219E+03  0.15221969966E+03  0.40840629846E+03  0.00000000000E+00 0.  1.
         -1    1    6    6    0  502 -0.34087688951E+03 -0.21885362388E+02  0.90466254535E+03  0.96700069485E+03  0.00000000000E+00 0.  1.
<mgrwt>
<rscale>  0 0.12230518E+04</rscale>
<asrwt>0</asrwt>
<pdfrwt beam="1">  1        2 0.22949057E+00 0.12230518E+04</pdfrwt>
<pdfrwt beam="2">  1       -2 0.38568980E-01 0.12230518E+04</pdfrwt>
<totfact> 0.80247859E+01</totfact>
</mgrwt>
</event>
<event>
12    1  0.1599266E-007  0.2630775E+04  0.7818608E-02  0.8357822E-01
          2   -1    0    0  501    0  0.00000000000E+00  0.00000000000E+00  0.10181133792E+04  0.10181133792E+04  0.00000000000E+00 0.  1.
         -2   -1    0    0    0  501 -0.00000000000E+00 -0.00000000000E+00 -0.16994608321E+04  0.16994608321E+04  0.00000000000E+00 0. -1.
         23    2    1    2    0    0  0.66400416996E+03 -0.43835880590E+03 -0.11908911720E+04  0.14351499737E+04  0.91507830723E+02 0.  0.
        254    2    1    2    0    0 -0.66400416996E+03  0.43835880590E+03  0.50954371913E+03  0.12824242376E+04  0.86713156040E+03 0.  0.
        -24    2    4    4    0    0  0.52211703866E+02 -0.52248874892E+02  0.38694296117E+03  0.40214469333E+03  0.80867126976E+02 0.  0.
         24    2    4    4    0    0 -0.71621587383E+03  0.49060768079E+03  0.12260075795E+03  0.88027954427E+03  0.78740433258E+02 0.  0.
         11    1    3    3    0    0  0.26721329047E+03 -0.13869313035E+03 -0.39407756149E+03  0.49591919854E+03  0.00000000000E+00 0. -1.
        -11    1    3    3    0    0  0.39679087949E+03 -0.29966567555E+03 -0.79681361053E+03  0.93923077520E+03  0.00000000000E+00 0.  1.
          4    1    6    6  502    0 -0.70078061440E+03  0.46401428219E+03  0.11283648971E+03  0.84801815841E+03  0.00000000000E+00 0. -1.
          3    1    5    5  503    0  0.41451746910E+02 -0.65364626450E+02  0.20033316848E+03  0.21476536058E+03  0.00000000000E+00 0. -1.
         -4    1    5    5    0  503  0.10759956956E+02  0.13115751558E+02  0.18660979269E+03  0.18737933275E+03  0.00000000000E+00 0.  1.
         -3    1    6    6    0  502 -0.15435259433E+02  0.26593398603E+02  0.97642682371E+01  0.32261385854E+02  0.00000000000E+00 0.  1.
<mgrwt>
<rscale>  0 0.26307746E+04</rscale>
<asrwt>0</asrwt>
<pdfrwt beam="1">  1        2 0.15663283E+00 0.26307746E+04</pdfrwt>
<pdfrwt beam="2">  1       -2 0.26145551E+00 0.26307746E+04</pdfrwt>
<totfact> 0.11826607E+00</totfact>
</mgrwt>
</event>
<event>
12    1  0.1599266E-007  0.1800499E+04  0.7818608E-02  0.8706034E-01
         -1   -1    0    0    0  501 -0.00000000000E+00  0.00000000000E+00  0.14602911838E+04  0.14602911838E+04  0.00000000000E+00 0.  1.
          1   -1    0    0  501    0  0.00000000000E+00 -0.00000000000E+00 -0.55499131734E+03  0.55499131734E+03  0.00000000000E+00 0. -1.
         23    2    1    2    0    0  0.51933426139E+03 -0.36755451698E+03  0.61963264420E+03  0.89549690315E+03  0.11474184850E+03 0.  0.
        254    2    1    2    0    0 -0.51933426139E+03  0.36755451698E+03  0.28566722225E+03  0.11197855980E+04  0.87607626697E+03 0.  0.
        -24    2    4    4    0    0 -0.69819971026E+03  0.46827351993E+03  0.14156880936E+03  0.85632904015E+03  0.80590150414E+02 0.  0.
         24    2    4    4    0    0  0.17886544887E+03 -0.10071900295E+03  0.14409841289E+03  0.26345655782E+03  0.80671177661E+02 0.  0.
         13    1    3    3    0    0  0.38255065744E+03 -0.32196867867E+03  0.51134791774E+03  0.71518216458E+03  0.00000000000E+00 0.  1.
        -13    1    3    3    0    0  0.13678360395E+03 -0.45585838309E+02  0.10828472645E+03  0.18031473857E+03  0.00000000000E+00 0. -1.
          2    1    6    6  502    0  0.23205410018E+02 -0.48648846439E+02  0.53639791051E+02  0.76042280988E+02  0.00000000000E+00 0. -1.
          1    1    5    5  503    0 -0.23645794552E+03  0.11537889975E+03  0.33815198393E+02  0.26526989680E+03  0.00000000000E+00 0. -1.
         -2    1    5    5    0  503 -0.46174176474E+03  0.35289462018E+03  0.10775361096E+03  0.59105914334E+03  0.00000000000E+00 0.  1.
         -1    1    6    6    0  502  0.15566003885E+03 -0.52070156512E+02  0.90458621838E+02  0.18741427683E+03  0.00000000000E+00 0.  1.
<mgrwt>
<rscale>  0 0.18004987E+04</rscale>
<asrwt>0</asrwt>
<pdfrwt beam="1">  1        1 0.85383280E-01 0.18004987E+04</pdfrwt>
<pdfrwt beam="2">  1       -1 0.22466018E+00 0.18004987E+04</pdfrwt>
<totfact> 0.37010661E+00</totfact>
</mgrwt>
</event>
<event>
12    1  0.1599266E-007  0.1574250E+04  0.7818608E-02  0.8836525E-01
          1   -1    0    0  501    0  0.00000000000E+00  0.00000000000E+00  0.78629662154E+03  0.78629662154E+03  0.00000000000E+00 0. -1.
         -1   -1    0    0    0  501 -0.00000000000E+00 -0.00000000000E+00 -0.78795386022E+03  0.78795386022E+03  0.00000000000E+00 0.  1.
         23    2    1    2    0    0  0.87031532073E+02 -0.49978140852E+03  0.14258844351E+03  0.53453013847E+03  0.89638500833E+02 0.  0.
        254    2    1    2    0    0 -0.87031532073E+02  0.49978140852E+03 -0.14424568218E+03  0.10397203433E+04  0.89602211554E+03 0.  0.
        -24    2    4    4    0    0 -0.34329845389E+03  0.16898365136E+03  0.24634986544E+03  0.46177188289E+03  0.78330790616E+02 0.  0.
         24    2    4    4    0    0  0.25626692182E+03  0.33079775716E+03 -0.39059554762E+03  0.57794846040E+03  0.79747411826E+02 0.  0.
         13    1    3    3    0    0  0.50576091633E+02 -0.44289607187E+03  0.13870039918E+03  0.46685401600E+03  0.00000000000E+00 0. -1.
        -13    1    3    3    0    0  0.36455440440E+02 -0.56885336651E+02  0.38880443234E+01  0.67676122468E+02  0.00000000000E+00 0.  1.
          4    1    6    6  502    0  0.20359686983E+03  0.22107101429E+03 -0.31118886083E+03  0.43262291417E+03  0.00000000000E+00 0. -1.
          3    1    5    5  503    0 -0.11897064563E+03  0.98585216062E+02  0.11353302427E+03  0.19173629533E+03  0.00000000000E+00 0. -1.
         -4    1    5    5    0  503 -0.22432780826E+03  0.70398435298E+02  0.13281684117E+03  0.27003558756E+03  0.00000000000E+00 0.  1.
         -3    1    6    6    0  502  0.52670051988E+02  0.10972674288E+03 -0.79406686793E+02  0.14532554623E+03  0.00000000000E+00 0.  1.
<mgrwt>
<rscale>  0 0.15742496E+04</rscale>
<asrwt>0</asrwt>
<pdfrwt beam="1">  1        1 0.12096871E+00 0.15742496E+04</pdfrwt>
<pdfrwt beam="2">  1       -1 0.12122367E+00 0.15742496E+04</pdfrwt>
<totfact> 0.13201075E+01</totfact>
</mgrwt>
</event>
<event>
12    1  0.1599266E-007  0.2051121E+04  0.7818608E-02  0.8583086E-01
          2   -1    0    0  501    0  0.00000000000E+00  0.00000000000E+00  0.32130367231E+04  0.32130367231E+04  0.00000000000E+00 0. -1.
         -2   -1    0    0    0  501 -0.00000000000E+00 -0.00000000000E+00 -0.32734599850E+03  0.32734599850E+03  0.00000000000E+00 0.  1.
         23    2    1    2    0    0  0.38044509743E+03  0.28993305661E+02 -0.96258569700E+02  0.40365603024E+03  0.89963295705E+02 0.  0.
        254    2    1    2    0    0 -0.38044509743E+03 -0.28993305661E+02  0.29819492943E+04  0.31367266913E+04  0.89523944201E+03 0.  0.
        -24    2    4    4    0    0  0.23080867270E+03  0.15464380343E+03  0.13892656277E+04  0.14189703959E+04  0.78934471752E+02 0.  0.
         24    2    4    4    0    0 -0.61125377013E+03 -0.18363710909E+03  0.15926836666E+04  0.17177562955E+04  0.81802624297E+02 0.  0.
         11    1    3    3    0    0  0.23599218377E+02  0.24002526173E+02 -0.18472968372E+02  0.38396548428E+02  0.00000000000E+00 0. -1.
        -11    1    3    3    0    0  0.35684587906E+03  0.49907794879E+01 -0.77785601328E+02  0.36525948181E+03  0.00000000000E+00 0.  1.
          2    1    6    6  502    0 -0.40565995579E+03 -0.14664277754E+03  0.98979341705E+03  0.10797013996E+04  0.00000000000E+00 0. -1.
          3    1    5    5  503    0  0.21233068586E+03  0.14535590203E+03  0.11321235437E+04  0.11609980089E+04  0.00000000000E+00 0. -1.
         -4    1    5    5    0  503  0.18477986843E+02  0.92879013986E+01  0.25714208391E+03  0.25797238695E+03  0.00000000000E+00 0.  1.
         -1    1    6    6    0  502 -0.20559381434E+03 -0.36994331554E+02  0.60289024956E+03  0.63805489582E+03  0.00000000000E+00 0.  1.
<mgrwt>
<rscale>  0 0.20511214E+04</rscale>
<asrwt>0</asrwt>
<pdfrwt beam="1">  1        2 0.49431332E+00 0.20511214E+04</pdfrwt>
<pdfrwt beam="2">  1       -2 0.50360925E-01 0.20511214E+04</pdfrwt>
<totfact> 0.44010127E+00</totfact>
</mgrwt>
</event>
<event>
12    1  0.1599266E-007  0.2030447E+04  0.7818608E-02  0.8592516E-01
         -2   -1    0    0    0  501 -0.00000000000E+00  0.00000000000E+00  0.54307782638E+03  0.54307782638E+03  0.00000000000E+00 0.  1.
          2   -1    0    0  501    0  0.00000000000E+00 -0.00000000000E+00 -0.18978480762E+04  0.18978480762E+04  0.00000000000E+00 0. -1.
         23    2    1    2    0    0 -0.43178574046E+02  0.49964021175E+03  0.22251627286E+03  0.55572647551E+03  0.88395098541E+02 0.  0.
        254    2    1    2    0    0  0.43178574046E+02 -0.49964021175E+03 -0.15772865226E+04  0.18851994270E+04  0.90257375029E+03 0.  0.
        -24    2    4    4    0    0  0.26178073628E+03 -0.48036202817E+03 -0.15554366014E+04  0.16509062002E+04  0.82652457742E+02 0.  0.
         24    2    4    4    0    0 -0.21860216223E+03 -0.19278183582E+02 -0.21849921193E+02  0.23429322682E+03  0.79103371509E+02 0.  0.
         11    1    3    3    0    0 -0.16420169244E+02  0.45616880244E+03  0.21335134341E+03  0.50386346763E+03  0.00000000000E+00 0.  1.
        -11    1    3    3    0    0 -0.26758404802E+02  0.43471409312E+02  0.91649294481E+01  0.51863007886E+02  0.00000000000E+00 0. -1.
          2    1    6    6  502    0 -0.73652094348E+02  0.30673903102E+02 -0.11754116187E+02  0.80645387846E+02  0.00000000000E+00 0. -1.
          1    1    5    5  503    0  0.14235158982E+02 -0.66817634633E+02 -0.14256234202E+03  0.15808623410E+03  0.00000000000E+00 0. -1.
         -2    1    5    5    0  503  0.24754557730E+03 -0.41354439354E+03 -0.14128742594E+04  0.14928199661E+04  0.00000000000E+00 0.  1.
         -1    1    6    6    0  502 -0.14495006788E+03 -0.49952086684E+02 -0.10095805005E+02  0.15364783898E+03  0.00000000000E+00 0.  1.
<mgrwt>
<rscale>  0 0.20304474E+04</rscale>
<asrwt>0</asrwt>
<pdfrwt beam="1">  1        2 0.29197663E+00 0.20304474E+04</pdfrwt>
<pdfrwt beam="2">  1       -2 0.83550434E-01 0.20304474E+04</pdfrwt>
<totfact> 0.88414627E+00</totfact>
</mgrwt>
</event>
<event>
12    1  0.1599266E-007  0.1187827E+04  0.7818608E-02  0.9123579E-01
          1   -1    0    0  501    0  0.00000000000E+00  0.00000000000E+00  0.20834062896E+04  0.20834062896E+04  0.00000000000E+00 0. -1.
         -1   -1    0    0    0  501 -0.00000000000E+00 -0.00000000000E+00 -0.16930602636E+03  0.16930602636E+03  0.00000000000E+00 0.  1.
         23    2    1    2    0    0 -0.40846210910E+02 -0.10452391187E+03  0.96078671892E+01  0.14573197425E+03  0.92476138056E+02 0.  0.
        254    2    1    2    0    0  0.40846210910E+02  0.10452391187E+03  0.19044923961E+04  0.21069803417E+04  0.89424896569E+03 0.  0.
        -24    2    4    4    0    0  0.37174065888E+03 -0.19311254966E+03  0.69287882288E+03  0.81374599585E+03  0.81350527201E+02 0.  0.
         24    2    4    4    0    0 -0.33089444797E+03  0.29763646153E+03  0.12116135732E+04  0.12932343459E+04  0.79806163083E+02 0.  0.
         13    1    3    3    0    0 -0.66421349384E+02 -0.47608279371E+02  0.15057324595E+02  0.83096732443E+02  0.00000000000E+00 0. -1.
        -13    1    3    3    0    0  0.25575138474E+02 -0.56915632500E+02 -0.54494574056E+01  0.62635241812E+02  0.00000000000E+00 0.  1.
          2    1    6    6  502    0 -0.26996060482E+03  0.22903128657E+03  0.86410338016E+03  0.93381406607E+03  0.00000000000E+00 0. -1.
          1    1    5    5  503    0  0.20208424118E+03 -0.61850483460E+02  0.37012902385E+03  0.42621475471E+03  0.00000000000E+00 0. -1.
         -2    1    5    5    0  503  0.16965641771E+03 -0.13126206619E+03  0.32274979903E+03  0.38753124114E+03  0.00000000000E+00 0.  1.
         -1    1    6    6    0  502 -0.60933843157E+02  0.68605174954E+02  0.34751019303E+03  0.35942027980E+03  0.00000000000E+00 0.  1.
<mgrwt>
<rscale>  0 0.11878270E+04</rscale>
<asrwt>0</asrwt>
<pdfrwt beam="1">  1        1 0.32052403E+00 0.11878270E+04</pdfrwt>
<pdfrwt beam="2">  1       -1 0.26047083E-01 0.11878270E+04</pdfrwt>
<totfact> 0.33903141E+01</totfact>
</mgrwt>
</event>
<event>
12    1  0.1599266E-007  0.1966050E+04  0.7818608E-02  0.8622660E-01
         -2   -1    0    0    0  501 -0.00000000000E+00  0.00000000000E+00  0.14956864380E+04  0.14956864380E+04  0.00000000000E+00 0.  1.
          2   -1    0    0  501    0  0.00000000000E+00 -0.00000000000E+00 -0.64608336452E+03  0.64608336452E+03  0.00000000000E+00 0. -1.
         23    2    1    2    0    0  0.10293047388E+03  0.53403326136E+02 -0.49939953216E+03  0.52079831143E+03  0.91566318975E+02 0.  0.
        254    2    1    2    0    0 -0.10293047388E+03 -0.53403326136E+02  0.13490026057E+04  0.16209714911E+04  0.89123170231E+03 0.  0.
        -24    2    4    4    0    0 -0.35606448310E+03  0.16514089248E+03  0.25484321751E+03  0.47415821110E+03  0.76338150012E+02 0.  0.
         24    2    4    4    0    0  0.25313400922E+03 -0.21854421862E+03  0.10941593882E+04  0.11468132800E+04  0.78469933095E+02 0.  0.
         11    1    3    3    0    0 -0.97426199705E+01  0.88636903880E+01 -0.15781137555E+03  0.15836007674E+03  0.00000000000E+00 0.  1.
        -11    1    3    3    0    0  0.11267309385E+03  0.44539635748E+02 -0.34158815661E+03  0.36243823469E+03  0.00000000000E+00 0. -1.
          4    1    6    6  502    0  0.22022048391E+03 -0.21594715204E+03  0.10205416626E+04  0.10661310985E+04  0.00000000000E+00 0. -1.
          3    1    5    5  503    0 -0.33609529143E+03  0.16423676410E+03  0.21996187555E+03  0.43395505101E+03  0.00000000000E+00 0. -1.
         -4    1    5    5    0  503 -0.19969191669E+02  0.90412838460E+00  0.34881341962E+02  0.40203160089E+02  0.00000000000E+00 0.  1.
         -3    1    6    6    0  502  0.32913525304E+02 -0.25970665755E+01  0.73617725567E+02  0.80682181555E+02  0.00000000000E+00 0.  1.
<mgrwt>
<rscale>  0 0.19660500E+04</rscale>
<asrwt>0</asrwt>
<pdfrwt beam="1">  1        2 0.99397441E-01 0.19660500E+04</pdfrwt>
<pdfrwt beam="2">  1       -2 0.23010561E+00 0.19660500E+04</pdfrwt>
<totfact> 0.36010222E+00</totfact>
</mgrwt>
</event>
<event>
12    1  0.1599266E-007  0.1417660E+04  0.7818608E-02  0.8941134E-01
          2   -1    0    0  501    0  0.00000000000E+00  0.00000000000E+00  0.24354418811E+04  0.24354418811E+04  0.00000000000E+00 0. -1.
         -2   -1    0    0    0  501 -0.00000000000E+00 -0.00000000000E+00 -0.20630331160E+03  0.20630331160E+03  0.00000000000E+00 0.  1.
         23    2    1    2    0    0  0.23428725920E+03  0.31915073774E+03  0.96910479879E+03  0.10512348444E+04  0.95827312451E+02 0.  0.
        254    2    1    2    0    0 -0.23428725920E+03 -0.31915073774E+03  0.12600337707E+04  0.15905103483E+04  0.88616609701E+03 0.  0.
        -24    2    4    4    0    0  0.11013913734E+03 -0.59261463854E+01 -0.88140841345E+02  0.16163891619E+03  0.78692963650E+02 0.  0.
         24    2    4    4    0    0 -0.34442639654E+03 -0.31322459135E+03  0.13481746120E+04  0.14288714321E+04  0.85788097397E+02 0.  0.
         11    1    3    3    0    0  0.23222581713E+03  0.30411934685E+03  0.86268219117E+03  0.94373617618E+03  0.00000000000E+00 0. -1.
        -11    1    3    3    0    0  0.20614420751E+01  0.15031390885E+02  0.10642260762E+03  0.10749866822E+03  0.00000000000E+00 0.  1.
          2    1    6    6  502    0 -0.11165132057E+03 -0.98280328156E+02  0.31786731486E+03  0.35094824425E+03  0.00000000000E+00 0. -1.
          3    1    5    5  503    0  0.50495024328E+02 -0.93150140477E+01  0.43514855998E+01  0.51531081839E+02  0.00000000000E+00 0. -1.
         -4    1    5    5    0  503  0.59644113013E+02  0.33888676623E+01 -0.92492326945E+02  0.11010783435E+03  0.00000000000E+00 0.  1.
         -1    1    6    6    0  502 -0.23277507597E+03 -0.21494426320E+03  0.10303072972E+04  0.10779231878E+04  0.00000000000E+00 0.  1.
<mgrwt>
<rscale>  0 0.14176597E+04</rscale>
<asrwt>0</asrwt>
<pdfrwt beam="1">  1        2 0.37468335E+00 0.14176597E+04</pdfrwt>
<pdfrwt beam="2">  1       -2 0.31738973E-01 0.14176597E+04</pdfrwt>
<totfact> 0.34120240E+01</totfact>
</mgrwt>
</event>
<event>
12    1  0.1599266E-007  0.4611811E+04  0.7818608E-02  0.7891349E-01
         -2   -1    0    0    0  501 -0.00000000000E+00  0.00000000000E+00  0.28477944776E+04  0.28477944776E+04  0.00000000000E+00 0.  1.
          2   -1    0    0  501    0  0.00000000000E+00 -0.00000000000E+00 -0.18671292938E+04  0.18671292938E+04  0.00000000000E+00 0. -1.
         23    2    1    2    0    0 -0.15782717396E+04  0.13755485431E+04  0.12271252038E+04  0.24284362229E+04  0.91601005767E+02 0.  0.
        254    2    1    2    0    0  0.15782717396E+04 -0.13755485431E+04 -0.24646002004E+03  0.22864875486E+04  0.88555479218E+03 0.  0.
        -24    2    4    4    0    0  0.36151463188E+03 -0.50263072145E+03  0.29692814383E+03  0.69139940789E+03  0.80847680363E+02 0.  0.
         24    2    4    4    0    0  0.12167571077E+04 -0.87291782162E+03 -0.54338816387E+03  0.15950881407E+04  0.80945027243E+02 0.  0.
         13    1    3    3    0    0 -0.61979321322E+03  0.53670133896E+03  0.42908366735E+03  0.92536735839E+03  0.00000000000E+00 0. -1.
        -13    1    3    3    0    0 -0.95847852637E+03  0.83884720411E+03  0.79804153649E+03  0.15030688645E+04  0.00000000000E+00 0.  1.
          2    1    6    6  502    0  0.94576370048E+01  0.56490849993E+00 -0.23692991528E+01  0.97662478876E+01  0.00000000000E+00 0. -1.
          1    1    5    5  503    0  0.13430251954E+03 -0.22480937968E+03  0.88801821858E+02  0.27651796960E+03  0.00000000000E+00 0. -1.
         -2    1    5    5    0  503  0.22721211234E+03 -0.27782134177E+03  0.20812632198E+03  0.41488143829E+03  0.00000000000E+00 0.  1.
         -1    1    6    6    0  502  0.12072994707E+04 -0.87348273012E+03 -0.54101886472E+03  0.15853218928E+04  0.00000000000E+00 0.  1.
<mgrwt>
<rscale>  0 0.46118111E+04</rscale>
<asrwt>0</asrwt>
<pdfrwt beam="1">  1        2 0.28725066E+00 0.46118111E+04</pdfrwt>
<pdfrwt beam="2">  1       -2 0.43812223E+00 0.46118111E+04</pdfrwt>
<totfact> 0.24765366E-02</totfact>
</mgrwt>
</event>
<event>
12    1  0.1599266E-007  0.1309484E+04  0.7818608E-02  0.9022078E-01
         -1   -1    0    0    0  501 -0.00000000000E+00  0.00000000000E+00  0.23838426948E+03  0.23838426948E+03  0.00000000000E+00 0.  1.
          1   -1    0    0  501    0  0.00000000000E+00 -0.00000000000E+00 -0.17983039343E+04  0.17983039343E+04  0.00000000000E+00 0. -1.
         23    2    1    2    0    0  0.11826872977E+03 -0.21012882589E+03 -0.47367328355E+02  0.26196633780E+03  0.90780407768E+02 0.  0.
        254    2    1    2    0    0 -0.11826872977E+03  0.21012882589E+03 -0.15125523365E+04  0.17747218660E+04  0.89648285827E+03 0.  0.
        -24    2    4    4    0    0 -0.15602363177E+02 -0.25039462797E+03 -0.11361821053E+04  0.11663049648E+04  0.80103626653E+02 0.  0.
         24    2    4    4    0    0 -0.10266636659E+03  0.46052345386E+03 -0.37637023117E+03  0.60841690122E+03  0.76774607710E+02 0.  0.
         11    1    3    3    0    0 -0.27685221399E+01 -0.48396246252E+02  0.14669961299E+02  0.50646511535E+02  0.00000000000E+00 0.  1.
        -11    1    3    3    0    0  0.12103725191E+03 -0.16173257964E+03 -0.62037289654E+02  0.21131982627E+03  0.00000000000E+00 0. -1.
          2    1    6    6  502    0 -0.37947481126E+02  0.87234796900E+02 -0.10922223896E+03  0.14484273747E+03  0.00000000000E+00 0. -1.
          3    1    5    5  503    0 -0.28777546092E+01  0.30775580607E+01 -0.33239648743E+01  0.53667101369E+01  0.00000000000E+00 0. -1.
         -4    1    5    5    0  503 -0.12724608568E+02 -0.25347218603E+03 -0.11328581404E+04  0.11609382547E+04  0.00000000000E+00 0.  1.
         -1    1    6    6    0  502 -0.64718885462E+02  0.37328865696E+03 -0.26714799221E+03  0.46357416375E+03  0.00000000000E+00 0.  1.
<mgrwt>
<rscale>  0 0.13094844E+04</rscale>
<asrwt>0</asrwt>
<pdfrwt beam="1">  1        1 0.27666216E+00 0.13094844E+04</pdfrwt>
<pdfrwt beam="2">  1       -1 0.36674500E-01 0.13094844E+04</pdfrwt>
<totfact> 0.28622184E+01</totfact>
</mgrwt>
</event>
<event>
12    1  0.1599266E-007  0.1611844E+04  0.7818608E-02  0.8813304E-01
          2   -1    0    0  501    0  0.00000000000E+00  0.00000000000E+00  0.15492489020E+04  0.15492489020E+04  0.00000000000E+00 0.  1.
         -2   -1    0    0    0  501 -0.00000000000E+00 -0.00000000000E+00 -0.41924228831E+03  0.41924228831E+03  0.00000000000E+00 0. -1.
         23    2    1    2    0    0 -0.17352068578E+02 -0.86923052269E+02  0.10227115793E+04  0.10307503454E+04  0.93008542182E+02 0.  0.
        254    2    1    2    0    0  0.17352068578E+02  0.86923052269E+02  0.10729503443E+03  0.93774084489E+03  0.92735589526E+03 0.  0.
        -24    2    4    4    0    0 -0.40412946880E+03 -0.13710324419E+03  0.13087178449E+03  0.45323571524E+03  0.78595562699E+02 0.  0.
         24    2    4    4    0    0  0.42148153738E+03  0.22402629646E+03 -0.23576750057E+02  0.48450512965E+03  0.79717561808E+02 0.  0.
         13    1    3    3    0    0 -0.52808000789E+02 -0.29904301673E+02  0.43408649614E+03  0.43830815454E+03  0.00000000000E+00 0. -1.
        -13    1    3    3    0    0  0.35455932211E+02 -0.57018750597E+02  0.58862508311E+03  0.59244219086E+03  0.00000000000E+00 0.  1.
          4    1    6    6  502    0  0.11419401636E+03  0.10166358931E+03  0.28296158902E+00  0.15289159176E+03  0.00000000000E+00 0. -1.
          1    1    5    5  503    0 -0.95456262107E+02 -0.52900747334E+02  0.63511507372E+02  0.12626994343E+03  0.00000000000E+00 0. -1.
         -2    1    5    5    0  503 -0.30867320669E+03 -0.84202496858E+02  0.67360277116E+02  0.32696577182E+03  0.00000000000E+00 0.  1.
         -3    1    6    6    0  502  0.30728752101E+03  0.12236270715E+03 -0.23859711646E+02  0.33161353789E+03  0.00000000000E+00 0.  1.
<mgrwt>
<rscale>  0 0.16118445E+04</rscale>
<asrwt>0</asrwt>
<pdfrwt beam="1">  1        2 0.23834598E+00 0.16118445E+04</pdfrwt>
<pdfrwt beam="2">  1       -2 0.64498814E-01 0.16118445E+04</pdfrwt>
<totfact> 0.25321440E+01</totfact>
</mgrwt>
</event>
<event>
12    1  0.1599266E-007  0.1575641E+04  0.7818608E-02  0.8835654E-01
          2   -1    0    0  501    0  0.00000000000E+00  0.00000000000E+00  0.28990134903E+04  0.28990134903E+04  0.00000000000E+00 0. -1.
         -2   -1    0    0    0  501 -0.00000000000E+00 -0.00000000000E+00 -0.21409389985E+03  0.21409389985E+03  0.00000000000E+00 0.  1.
         23    2    1    2    0    0 -0.27957445612E+03 -0.33649028443E+03  0.34461242057E+03  0.56396693860E+03  0.88957289633E+02 0.  0.
        254    2    1    2    0    0  0.27957445612E+03  0.33649028443E+03  0.23403071699E+04  0.25491404516E+04  0.91087419790E+03 0.  0.
        -24    2    4    4    0    0  0.55227590838E+03  0.12187031094E+03  0.90085993904E+03  0.10663825625E+04  0.75908419828E+02 0.  0.
         24    2    4    4    0    0 -0.27270145225E+03  0.21461997350E+03  0.14394472309E+04  0.14827578891E+04  0.78325041330E+02 0.  0.
         11    1    3    3    0    0 -0.24015726567E+03 -0.26674207365E+03  0.31804297524E+03  0.47956040309E+03  0.00000000000E+00 0.  1.
        -11    1    3    3    0    0 -0.39417190458E+02 -0.69748210788E+02  0.26569445331E+02  0.84406535510E+02  0.00000000000E+00 0. -1.
          2    1    6    6  502    0 -0.24325501573E+03  0.19677981869E+03  0.13696264086E+04  0.14049098900E+04  0.00000000000E+00 0. -1.
          1    1    5    5  503    0  0.53728849743E+03  0.12120423896E+03  0.89361535818E+03  0.10497227279E+04  0.00000000000E+00 0. -1.
         -2    1    5    5    0  503  0.14987410947E+02  0.66607197516E+00  0.72445808609E+01  0.16659834652E+02  0.00000000000E+00 0.  1.
         -1    1    6    6    0  502 -0.29446436526E+02  0.17840154809E+02  0.69820822224E+02  0.77847999099E+02  0.00000000000E+00 0.  1.
<mgrwt>
<rscale>  0 0.15756410E+04</rscale>
<asrwt>0</asrwt>
<pdfrwt beam="1">  1        2 0.44600205E+00 0.15756410E+04</pdfrwt>
<pdfrwt beam="2">  1       -2 0.32937525E-01 0.15756410E+04</pdfrwt>
<totfact> 0.16712827E+01</totfact>
</mgrwt>
</event>
<event>
12    1  0.1599266E-007  0.1816535E+04  0.7818608E-02  0.8697556E-01
         -2   -1    0    0    0  501 -0.00000000000E+00  0.00000000000E+00  0.31304709412E+03  0.31304709412E+03  0.00000000000E+00 0.  1.
          2   -1    0    0  501    0  0.00000000000E+00 -0.00000000000E+00 -0.26352255187E+04  0.26352255187E+04  0.00000000000E+00 0. -1.
         23    2    1    2    0    0 -0.43437076039E+03  0.52164728131E+03 -0.90132148821E+03  0.11317318042E+04  0.87422011024E+02 0.  0.
        254    2    1    2    0    0  0.43437076039E+03 -0.52164728131E+03 -0.14208569364E+04  0.18165408086E+04  0.90564465003E+03 0.  0.
        -24    2    4    4    0    0 -0.76276584432E+02 -0.45232096688E+03 -0.11245010888E+04  0.12167041026E+04  0.73849849836E+02 0.  0.
         24    2    4    4    0    0  0.51064734482E+03 -0.69326314426E+02 -0.29635584764E+03  0.59983670600E+03  0.80065203374E+02 0.  0.
         11    1    3    3    0    0 -0.35109625614E+02  0.85475119185E+02 -0.14003278585E+03  0.16777324854E+03  0.00000000000E+00 0. -1.
        -11    1    3    3    0    0 -0.39926113478E+03  0.43617216212E+03 -0.76128870235E+03  0.96395855569E+03  0.00000000000E+00 0.  1.
          4    1    6    6  502    0  0.13650674398E+03 -0.56770929657E+01 -0.41874693951E+02  0.14289790247E+03  0.00000000000E+00 0. -1.
          3    1    5    5  503    0 -0.80642098703E+02 -0.42167227990E+03 -0.10825182738E+04  0.11645413144E+04  0.00000000000E+00 0. -1.
         -4    1    5    5    0  503  0.43655142711E+01 -0.30648686988E+02 -0.41982814930E+02  0.52162788254E+02  0.00000000000E+00 0.  1.
         -3    1    6    6    0  502  0.37414060084E+03 -0.63649221461E+02 -0.25448115369E+03  0.45693880353E+03  0.00000000000E+00 0.  1.
<mgrwt>
<rscale>  0 0.18165348E+04</rscale>
<asrwt>0</asrwt>
<pdfrwt beam="1">  1        2 0.40541930E+00 0.18165348E+04</pdfrwt>
<pdfrwt beam="2">  1       -2 0.48161092E-01 0.18165348E+04</pdfrwt>
<totfact> 0.11190443E+01</totfact>
</mgrwt>
</event>
<event>
12    1  0.1599266E-007  0.1342370E+04  0.7818608E-02  0.8996624E-01
          2   -1    0    0  501    0  0.00000000000E+00  0.00000000000E+00  0.13582698424E+04  0.13582698424E+04  0.00000000000E+00 0. -1.
         -2   -1    0    0    0  501 -0.00000000000E+00 -0.00000000000E+00 -0.33166391061E+03  0.33166391061E+03  0.00000000000E+00 0.  1.
         23    2    1    2    0    0  0.19331574533E+02 -0.16140796810E+03 -0.11869018115E+03  0.22065288167E+03  0.90410691563E+02 0.  0.
        254    2    1    2    0    0 -0.19331574533E+02  0.16140796810E+03  0.11452961130E+04  0.14692808714E+04  0.90590112631E+03 0.  0.
        -24    2    4    4    0    0  0.34780693032E+03  0.19569327066E+03  0.20418566109E+03  0.45553701260E+03  0.80973259146E+02 0.  0.
         24    2    4    4    0    0 -0.36713850485E+03 -0.34285302564E+02  0.94111045189E+03  0.10137438588E+04  0.77598742462E+02 0.  0.
         11    1    3    3    0    0  0.36884746185E+02 -0.11153771255E+03 -0.11977670725E+03  0.16777248112E+03  0.00000000000E+00 0.  1.
        -11    1    3    3    0    0 -0.17553171652E+02 -0.49870255544E+02  0.10865260996E+01  0.52880400547E+02  0.00000000000E+00 0. -1.
          2    1    6    6  502    0 -0.19793181571E+02 -0.45054898165E+01  0.18498890980E+02  0.27464130110E+02  0.00000000000E+00 0. -1.
          3    1    5    5  503    0  0.20499975533E+02  0.37560128331E+02  0.12451794986E+02  0.44565226752E+02  0.00000000000E+00 0. -1.
         -4    1    5    5    0  503  0.32730695478E+03  0.15813314233E+03  0.19173386610E+03  0.41097178585E+03  0.00000000000E+00 0.  1.
         -1    1    6    6    0  502 -0.34734532328E+03 -0.29779812748E+02  0.92261156091E+03  0.98627972867E+03  0.00000000000E+00 0.  1.
<mgrwt>
<rscale>  0 0.13423697E+04</rscale>
<asrwt>0</asrwt>
<pdfrwt beam="1">  1        2 0.20896459E+00 0.13423697E+04</pdfrwt>
<pdfrwt beam="2">  1       -2 0.51025218E-01 0.13423697E+04</pdfrwt>
<totfact> 0.54243032E+01</totfact>
</mgrwt>
</event>
<event>
12    1  0.1599266E-007  0.2557116E+04  0.7818608E-02  0.8382916E-01
         -1   -1    0    0    0  501 -0.00000000000E+00  0.00000000000E+00  0.10492265135E+04  0.10492265135E+04  0.00000000000E+00 0.  1.
          1   -1    0    0  501    0  0.00000000000E+00 -0.00000000000E+00 -0.15580144122E+04  0.15580144122E+04  0.00000000000E+00 0. -1.
         23    2    1    2    0    0  0.68541917097E+02 -0.10771486716E+04 -0.50453266206E+03  0.11948954976E+04  0.90965862397E+02 0.  0.
        254    2    1    2    0    0 -0.68541917097E+02  0.10771486716E+04 -0.42552366961E+01  0.14123454281E+04  0.91090847290E+03 0.  0.
        -24    2    4    4    0    0  0.30579712397E+03  0.96068284084E+03  0.22556868926E+02  0.10115397768E+04  0.79249643234E+02 0.  0.
         24    2    4    4    0    0 -0.37433904107E+03  0.11646583074E+03 -0.26812105623E+02  0.40080565128E+03  0.78944750848E+02 0.  0.
         11    1    3    3    0    0  0.87628381823E+02 -0.92837251075E+03 -0.44881219368E+03  0.10348848425E+04  0.00000000000E+00 0. -1.
        -11    1    3    3    0    0 -0.19086464726E+02 -0.14877616083E+03 -0.55720468377E+02  0.16001065516E+03  0.00000000000E+00 0.  1.
          4    1    6    6  502    0 -0.36385036184E+03  0.95120777856E+02 -0.26660547422E+02  0.37702232424E+03  0.00000000000E+00 0. -1.
          1    1    5    5  503    0  0.21369995349E+03  0.55320337464E+03  0.28677501211E+02  0.59373735179E+03  0.00000000000E+00 0. -1.
         -2    1    5    5    0  503  0.92097170480E+02  0.40747946620E+03 -0.61206322850E+01  0.41780242499E+03  0.00000000000E+00 0.  1.
         -3    1    6    6    0  502 -0.10488679233E+02  0.21345052888E+02 -0.15155820091E+00  0.23783327032E+02  0.00000000000E+00 0.  1.
<mgrwt>
<rscale>  0 0.25571156E+04</rscale>
<asrwt>0</asrwt>
<pdfrwt beam="1">  1        1 0.23969452E+00 0.25571156E+04</pdfrwt>
<pdfrwt beam="2">  1       -1 0.16141946E+00 0.25571156E+04</pdfrwt>
<totfact> 0.15032480E+00</totfact>
</mgrwt>
</event>
<event>
12    1  0.1599266E-007  0.1337043E+04  0.7818608E-02  0.9000695E-01
          2   -1    0    0  501    0  0.00000000000E+00  0.00000000000E+00  0.16525877096E+04  0.16525877096E+04  0.00000000000E+00 0. -1.
         -2   -1    0    0    0  501 -0.00000000000E+00 -0.00000000000E+00 -0.27043708867E+03  0.27043708867E+03  0.00000000000E+00 0.  1.
         23    2    1    2    0    0 -0.30661257486E+03 -0.16496998369E+03  0.49429922248E+03  0.61157982422E+03  0.92042346018E+02 0.  0.
        254    2    1    2    0    0  0.30661257486E+03  0.16496998369E+03  0.88785139845E+03  0.13114449741E+04  0.90021189041E+03 0.  0.
        -24    2    4    4    0    0  0.33099275795E+03  0.50770867354E+03  0.53914767733E+03  0.81534908223E+03  0.82399058991E+02 0.  0.
         24    2    4    4    0    0 -0.24380183086E+02 -0.34273868984E+03  0.34870372112E+03  0.49609589182E+03  0.80328363076E+02 0.  0.
         11    1    3    3    0    0 -0.14267112285E+03 -0.49602657861E+02  0.27993318475E+03  0.31808499004E+03  0.00000000000E+00 0.  1.
        -11    1    3    3    0    0 -0.16394145202E+03 -0.11536732583E+03  0.21436603773E+03  0.29349483418E+03  0.00000000000E+00 0. -1.
          4    1    6    6  502    0 -0.49028275000E+02 -0.13414617082E+03  0.14164823569E+03  0.20115464094E+03  0.00000000000E+00 0. -1.
          1    1    5    5  503    0  0.29579334837E+03  0.39653848280E+03  0.42559313256E+03  0.65258408482E+03  0.00000000000E+00 0. -1.
         -2    1    5    5    0  503  0.35199409582E+02  0.11117019073E+03  0.11355454477E+03  0.16276499741E+03  0.00000000000E+00 0.  1.
         -3    1    6    6    0  502  0.24648091914E+02 -0.20859251902E+03  0.20705548543E+03  0.29494125088E+03  0.00000000000E+00 0.  1.
<mgrwt>
<rscale>  0 0.13370430E+04</rscale>
<asrwt>0</asrwt>
<pdfrwt beam="1">  1        2 0.25424426E+00 0.13370430E+04</pdfrwt>
<pdfrwt beam="2">  1       -2 0.41605707E-01 0.13370430E+04</pdfrwt>
<totfact> 0.55760195E+01</totfact>
</mgrwt>
</event>
<event>
12    1  0.1599266E-007  0.1520548E+04  0.7818608E-02  0.8870903E-01
         -1   -1    0    0    0  501 -0.00000000000E+00  0.00000000000E+00  0.17870028348E+03  0.17870028348E+03  0.00000000000E+00 0.  1.
          1   -1    0    0  501    0  0.00000000000E+00 -0.00000000000E+00 -0.32345584136E+04  0.32345584136E+04  0.00000000000E+00 0. -1.
         23    2    1    2    0    0 -0.35566479233E+02  0.64292617129E+02 -0.20708028659E+04  0.20743007981E+04  0.95397989610E+02 0.  0.
        254    2    1    2    0    0  0.35566479233E+02 -0.64292617129E+02 -0.98505526425E+03  0.13389578990E+04  0.90392248932E+03 0.  0.
        -24    2    4    4    0    0 -0.42534667425E+03 -0.50534900824E+02 -0.42157832694E+03  0.60668153388E+03  0.82828909857E+02 0.  0.
         24    2    4    4    0    0  0.46091315349E+03 -0.13757716305E+02 -0.56347693731E+03  0.73227636515E+03  0.78052586497E+02 0.  0.
         13    1    3    3    0    0 -0.35127220223E+02  0.36042444493E+02 -0.19318052959E+04  0.19324607838E+04  0.00000000000E+00 0. -1.
        -13    1    3    3    0    0 -0.43925901054E+00  0.28250172636E+02 -0.13899756995E+03  0.14184001429E+03  0.00000000000E+00 0.  1.
          2    1    6    6  502    0  0.26794161092E+02 -0.19895835234E+02 -0.45019234977E+02  0.56040189562E+02  0.00000000000E+00 0. -1.
          3    1    5    5  503    0 -0.22861356514E+02 -0.22206421734E+02 -0.21301057676E+02  0.38334082042E+02  0.00000000000E+00 0. -1.
         -4    1    5    5    0  503 -0.40248531774E+03 -0.28328479090E+02 -0.40027726926E+03  0.56834745184E+03  0.00000000000E+00 0.  1.
         -1    1    6    6    0  502  0.43411899240E+03  0.61381189292E+01 -0.51845770234E+03  0.67623617559E+03  0.00000000000E+00 0.  1.
<mgrwt>
<rscale>  0 0.15205479E+04</rscale>
<asrwt>0</asrwt>
<pdfrwt beam="1">  1        1 0.49762433E+00 0.15205479E+04</pdfrwt>
<pdfrwt beam="2">  1       -1 0.27492354E-01 0.15205479E+04</pdfrwt>
<totfact> 0.46334308E+00</totfact>
</mgrwt>
</event>
<event>
12    1  0.1599266E-007  0.1390368E+04  0.7818608E-02  0.8960820E-01
         -1   -1    0    0    0  501 -0.00000000000E+00  0.00000000000E+00  0.92205179662E+03  0.92205179662E+03  0.00000000000E+00 0.  1.
          1   -1    0    0  501    0  0.00000000000E+00 -0.00000000000E+00 -0.52413623960E+03  0.52413623960E+03  0.00000000000E+00 0. -1.
         23    2    1    2    0    0  0.34266909873E+03  0.15187188360E+03 -0.47868935682E+02  0.38799692561E+03  0.88107882879E+02 0.  0.
        254    2    1    2    0    0 -0.34266909873E+03 -0.15187188360E+03  0.44578449269E+03  0.10581911106E+04  0.88349161421E+03 0.  0.
        -24    2    4    4    0    0  0.47942683140E+02 -0.12994454893E+03 -0.22594606982E+03  0.27668260898E+03  0.79483035816E+02 0.  0.
         24    2    4    4    0    0 -0.39061178187E+03 -0.21927334671E+02  0.67173056251E+03  0.78150850163E+03  0.80468735323E+02 0.  0.
         13    1    3    3    0    0  0.18529678962E+02 -0.11735388158E+02 -0.20696443941E+01  0.22030700524E+02  0.00000000000E+00 0. -1.
        -13    1    3    3    0    0  0.32413941977E+03  0.16360727176E+03 -0.45799291288E+02  0.36596622509E+03  0.00000000000E+00 0.  1.
          4    1    6    6  502    0 -0.30650264260E+03 -0.47032044550E+02  0.49350383851E+03  0.58283953346E+03  0.00000000000E+00 0. -1.
          1    1    5    5  503    0  0.26713679425E+01  0.10903297246E+02 -0.10793474693E+02  0.15572963541E+02  0.00000000000E+00 0. -1.
         -2    1    5    5    0  503  0.45271315197E+02 -0.14084784618E+03 -0.21515259512E+03  0.26110964544E+03  0.00000000000E+00 0.  1.
         -3    1    6    6    0  502 -0.84109139278E+02  0.25104709878E+02  0.17822672399E+03  0.19866896817E+03  0.00000000000E+00 0.  1.
<mgrwt>
<rscale>  0 0.13903680E+04</rscale>
<asrwt>0</asrwt>
<pdfrwt beam="1">  1        1 0.80636344E-01 0.13903680E+04</pdfrwt>
<pdfrwt beam="2">  1       -1 0.14185412E+00 0.13903680E+04</pdfrwt>
<totfact> 0.16403723E+01</totfact>
</mgrwt>
</event>
<event>
12    1  0.1599266E-007  0.1979439E+04  0.7818608E-02  0.8616294E-01
         -1   -1    0    0    0  501 -0.00000000000E+00  0.00000000000E+00  0.62685097328E+03  0.62685097328E+03  0.00000000000E+00 0.  1.
          1   -1    0    0  501    0  0.00000000000E+00 -0.00000000000E+00 -0.15626438879E+04  0.15626438879E+04  0.00000000000E+00 0. -1.
         23    2    1    2    0    0 -0.50415737348E+03 -0.16484735523E+03 -0.10027239613E+04  0.11387951534E+04  0.10024844661E+03 0.  0.
        254    2    1    2    0    0  0.50415737348E+03  0.16484735523E+03  0.66931046710E+02  0.10506997078E+04  0.90451136154E+03 0.  0.
        -24    2    4    4    0    0  0.26682146611E+03 -0.35609042394E+03 -0.67444397210E+02  0.45726066100E+03  0.80897964051E+02 0.  0.
         24    2    4    4    0    0  0.23733590737E+03  0.52093777917E+03  0.13437544392E+03  0.59343904677E+03  0.80053979409E+02 0.  0.
         11    1    3    3    0    0 -0.17966025541E+03 -0.89346071759E+02 -0.29759386958E+03  0.35891870824E+03  0.00000000000E+00 0.  1.
        -11    1    3    3    0    0 -0.32449711806E+03 -0.75501283469E+02 -0.70513009176E+03  0.77987644518E+03  0.00000000000E+00 0. -1.
          2    1    6    6  502    0  0.23915147510E+03  0.50167413567E+03  0.14031231060E+03  0.57319971297E+03  0.00000000000E+00 0. -1.
          3    1    5    5  503    0  0.23624442910E+03 -0.29070496434E+03 -0.82390009539E+02  0.38354780699E+03  0.00000000000E+00 0. -1.
         -4    1    5    5    0  503  0.30577037011E+02 -0.65385459596E+02  0.14945612330E+02  0.73712854014E+02  0.00000000000E+00 0.  1.
         -1    1    6    6    0  502 -0.18155677317E+01  0.19263643494E+02 -0.59368666783E+01  0.20239333803E+02  0.00000000000E+00 0.  1.
<mgrwt>
<rscale>  0 0.19794392E+04</rscale>
<asrwt>0</asrwt>
<pdfrwt beam="1">  1        1 0.24040675E+00 0.19794392E+04</pdfrwt>
<pdfrwt beam="2">  1       -1 0.96438612E-01 0.19794392E+04</pdfrwt>
<totfact> 0.56945202E+00</totfact>
</mgrwt>
</event>
<event>
12    1  0.1599266E-007  0.1153317E+04  0.7818608E-02  0.9154728E-01
         -2   -1    0    0    0  501 -0.00000000000E+00  0.00000000000E+00  0.20852560123E+03  0.20852560123E+03  0.00000000000E+00 0.  1.
          2   -1    0    0  501    0  0.00000000000E+00 -0.00000000000E+00 -0.15946977795E+04  0.15946977795E+04  0.00000000000E+00 0. -1.
         23    2    1    2    0    0  0.11439931377E+03  0.10602756011E+03 -0.54164484201E+02  0.18834120192E+03  0.90606680199E+02 0.  0.
        254    2    1    2    0    0 -0.11439931377E+03 -0.10602756011E+03 -0.13320076941E+04  0.16148821788E+04  0.89959485765E+03 0.  0.
        -24    2    4    4    0    0 -0.47862940996E+03  0.74230497715E+02 -0.61582058252E+03  0.78764139060E+03  0.80917806824E+02 0.  0.
         24    2    4    4    0    0  0.36423009619E+03 -0.18025805782E+03 -0.71618711159E+03  0.82724078825E+03  0.79036779822E+02 0.  0.
         11    1    3    3    0    0  0.76378131883E+01 -0.13097970238E+02 -0.19434102415E+02  0.24649084189E+02  0.00000000000E+00 0. -1.
        -11    1    3    3    0    0  0.10676150058E+03  0.11912553035E+03 -0.34730381786E+02  0.16369211773E+03  0.00000000000E+00 0.  1.
          2    1    6    6  502    0  0.13918251822E+03 -0.69581014310E+02 -0.20044137886E+03  0.25375192076E+03  0.00000000000E+00 0. -1.
          1    1    5    5  503    0 -0.17840303732E+03  0.18147461192E+02 -0.29073420014E+03  0.34158944539E+03  0.00000000000E+00 0. -1.
         -2    1    5    5    0  503 -0.30022637264E+03  0.56083036524E+02 -0.32508638238E+03  0.44605194521E+03  0.00000000000E+00 0.  1.
         -1    1    6    6    0  502  0.22504757797E+03 -0.11067704351E+03 -0.51574573273E+03  0.57348886749E+03  0.00000000000E+00 0.  1.
<mgrwt>
<rscale>  0 0.11533175E+04</rscale>
<asrwt>0</asrwt>
<pdfrwt beam="1">  1        2 0.24533811E+00 0.11533175E+04</pdfrwt>
<pdfrwt beam="2">  1       -2 0.32080863E-01 0.11533175E+04</pdfrwt>
<totfact> 0.10041880E+02</totfact>
</mgrwt>
</event>
<event>
12    1  0.1599266E-007  0.2379942E+04  0.7818608E-02  0.8447051E-01
          2   -1    0    0  501    0  0.00000000000E+00  0.00000000000E+00  0.15454131724E+04  0.15454131724E+04  0.00000000000E+00 0. -1.
         -2   -1    0    0    0  501 -0.00000000000E+00 -0.00000000000E+00 -0.91627988660E+03  0.91627988660E+03  0.00000000000E+00 0.  1.
         23    2    1    2    0    0  0.51458178636E+03 -0.40842148932E+03  0.10595200707E+04  0.12501258168E+04  0.92893754756E+02 0.  0.
        254    2    1    2    0    0 -0.51458178636E+03  0.40842148932E+03 -0.43038678495E+03  0.12115672422E+04  0.92252906186E+03 0.  0.
        -24    2    4    4    0    0  0.14427809076E+03  0.22023980425E+03 -0.44171946766E+03  0.52124388686E+03  0.85190155732E+02 0.  0.
         24    2    4    4    0    0 -0.65885987711E+03  0.18818168507E+03  0.11332682706E+02  0.69032335536E+03  0.83121723948E+02 0.  0.
         11    1    3    3    0    0  0.49005527853E+03 -0.38141705829E+03  0.10319894647E+04  0.12044232659E+04  0.00000000000E+00 0. -1.
        -11    1    3    3    0    0  0.24526507826E+02 -0.27004431029E+02  0.27530606078E+02  0.45702550830E+02  0.00000000000E+00 0.  1.
          4    1    6    6  502    0 -0.51145362604E+01  0.89241961797E+01  0.69845236644E+01  0.12433154444E+02  0.00000000000E+00 0. -1.
          1    1    5    5  503    0  0.24997926919E+02  0.98212396957E+02 -0.21302190778E+03  0.23590020022E+03  0.00000000000E+00 0. -1.
         -4    1    5    5    0  503  0.11928016384E+03  0.12202740729E+03 -0.22869755988E+03  0.28534368665E+03  0.00000000000E+00 0.  1.
         -3    1    6    6    0  502 -0.65374534085E+03  0.17925748889E+03  0.43481590417E+01  0.67789020092E+03  0.00000000000E+00 0.  1.
<mgrwt>
<rscale>  0 0.23799420E+04</rscale>
<asrwt>0</asrwt>
<pdfrwt beam="1">  1        2 0.23775587E+00 0.23799420E+04</pdfrwt>
<pdfrwt beam="2">  1       -2 0.14096614E+00 0.23799420E+04</pdfrwt>
<totfact> 0.38032664E+00</totfact>
</mgrwt>
</event>
<event>
12    1  0.1599266E-007  0.1101383E+04  0.7818608E-02  0.9203845E-01
         -1   -1    0    0    0  501 -0.00000000000E+00  0.00000000000E+00  0.21282957181E+03  0.21282957181E+03  0.00000000000E+00 0.  1.
          1   -1    0    0  501    0  0.00000000000E+00 -0.00000000000E+00 -0.14249013541E+04  0.14249013541E+04  0.00000000000E+00 0. -1.
         23    2    1    2    0    0  0.36314378925E+01 -0.24467818541E+02 -0.44524153838E+03  0.45623411350E+03  0.96424464436E+02 0.  0.
        254    2    1    2    0    0 -0.36314378925E+01  0.24467818541E+02 -0.76683024390E+03  0.11814968124E+04  0.89849553881E+03 0.  0.
        -24    2    4    4    0    0  0.39639778418E+02 -0.18513906015E+03 -0.89598317732E+03  0.91927372180E+03  0.80190634828E+02 0.  0.
         24    2    4    4    0    0 -0.43271216310E+02  0.20960687869E+03  0.12915293343E+03  0.26222309060E+03  0.79202444868E+02 0.  0.
         13    1    3    3    0    0 -0.16551186022E+02 -0.49034831614E+02 -0.13857108818E+03  0.14791992073E+03  0.00000000000E+00 0.  1.
        -13    1    3    3    0    0  0.20182623915E+02  0.24567013072E+02 -0.30667045020E+03  0.30831419277E+03  0.00000000000E+00 0. -1.
          2    1    6    6  502    0  0.14547339486E+02  0.21753649407E+02  0.36545721296E+02  0.44949261325E+02  0.00000000000E+00 0. -1.
          3    1    5    5  503    0 -0.15602605529E+02 -0.11684750539E+02 -0.45044844199E+02  0.49081693974E+02  0.00000000000E+00 0. -1.
         -4    1    5    5    0  503  0.55242383946E+02 -0.17345430961E+03 -0.85093833312E+03  0.87019202782E+03  0.00000000000E+00 0.  1.
         -1    1    6    6    0  502 -0.57818555796E+02  0.18785322929E+03  0.92607212130E+02  0.21727382927E+03  0.00000000000E+00 0.  1.
<mgrwt>
<rscale>  0 0.11013830E+04</rscale>
<asrwt>0</asrwt>
<pdfrwt beam="1">  1        1 0.21921560E+00 0.11013830E+04</pdfrwt>
<pdfrwt beam="2">  1       -1 0.32743010E-01 0.11013830E+04</pdfrwt>
<totfact> 0.64246969E+01</totfact>
</mgrwt>
</event>
<event>
12    1  0.1599266E-007  0.1008763E+04  0.7818608E-02  0.9298985E-01
          2   -1    0    0  501    0  0.00000000000E+00  0.00000000000E+00  0.21926324298E+04  0.21926324298E+04  0.00000000000E+00 0. -1.
         -2   -1    0    0    0  501 -0.00000000000E+00 -0.00000000000E+00 -0.11602526369E+03  0.11602526369E+03  0.00000000000E+00 0.  1.
         23    2    1    2    0    0  0.26431120444E+02 -0.22004107651E+02  0.12161311058E+03  0.15643055985E+03  0.92184524223E+02 0.  0.
        254    2    1    2    0    0 -0.26431120444E+02  0.22004107651E+02  0.19549940555E+04  0.21522271336E+04  0.89938706505E+03 0.  0.
        -24    2    4    4    0    0  0.37076129665E+03  0.11073121535E+03  0.14263879921E+04  0.14802222524E+04  0.82157599488E+02 0.  0.
         24    2    4    4    0    0 -0.39719241709E+03 -0.88727107702E+02  0.52860606338E+03  0.67200488127E+03  0.80820012175E+02 0.  0.
         13    1    3    3    0    0 -0.50204558500E+01 -0.94929684383E+01  0.12210701418E+03  0.12257831920E+03  0.00000000000E+00 0. -1.
        -13    1    3    3    0    0  0.31451576294E+02 -0.12511139212E+02 -0.49390359515E+00  0.33852240643E+02  0.00000000000E+00 0.  1.
          2    1    6    6  502    0 -0.21658327689E+03 -0.11964180012E+02  0.30837928871E+03  0.37702684671E+03  0.00000000000E+00 0. -1.
          3    1    5    5  503    0  0.10904770679E+03 -0.44259767389E+01  0.36146321734E+03  0.37757999036E+03  0.00000000000E+00 0. -1.
         -4    1    5    5    0  503  0.26171358986E+03  0.11515719209E+03  0.10649247748E+04  0.11026422620E+04  0.00000000000E+00 0.  1.
         -1    1    6    6    0  502 -0.18060914020E+03 -0.76762927690E+02  0.22022677467E+03  0.29497803456E+03  0.00000000000E+00 0.  1.
<mgrwt>
<rscale>  0 0.10087631E+04</rscale>
<asrwt>0</asrwt>
<pdfrwt beam="1">  1        2 0.33732804E+00 0.10087631E+04</pdfrwt>
<pdfrwt beam="2">  1       -2 0.17850042E-01 0.10087631E+04</pdfrwt>
<totfact> 0.13648042E+02</totfact>
</mgrwt>
</event>
<event>
12    1  0.1599266E-007  0.2231547E+04  0.7818608E-02  0.8505411E-01
          1   -1    0    0  501    0  0.00000000000E+00  0.00000000000E+00  0.11312002431E+04  0.11312002431E+04  0.00000000000E+00 0. -1.
         -1   -1    0    0    0  501 -0.00000000000E+00 -0.00000000000E+00 -0.11005572242E+04  0.11005572242E+04  0.00000000000E+00 0.  1.
         23    2    1    2    0    0 -0.20010240083E+03 -0.36557234359E+03  0.84515574944E+03  0.94672667412E+03  0.91208801388E+02 0.  0.
        254    2    1    2    0    0  0.20010240083E+03  0.36557234359E+03 -0.81451273060E+03  0.12850307932E+04  0.90232424439E+03 0.  0.
        -24    2    4    4    0    0 -0.28803698914E+03  0.10768877032E+03 -0.61543150709E+03  0.69271872916E+03  0.80877187376E+02 0.  0.
         24    2    4    4    0    0  0.48813938997E+03  0.25788357328E+03 -0.19908122350E+03  0.59231206407E+03  0.80101474917E+02 0.  0.
         13    1    3    3    0    0 -0.76494336769E+02 -0.13647251162E+03  0.22397255441E+03  0.27320291930E+03  0.00000000000E+00 0.  1.
        -13    1    3    3    0    0 -0.12360806406E+03 -0.22909983198E+03  0.62118319504E+03  0.67352375482E+03  0.00000000000E+00 0. -1.
          4    1    6    6  502    0  0.39530863579E+03  0.23995543276E+03 -0.15264956333E+03  0.48697989325E+03  0.00000000000E+00 0. -1.
          1    1    5    5  503    0 -0.28930948484E+03  0.95724736518E+02 -0.60166157191E+03  0.67443298430E+03  0.00000000000E+00 0. -1.
         -2    1    5    5    0  503  0.12724957012E+01  0.11964033797E+02 -0.13769935185E+02  0.18285744858E+02  0.00000000000E+00 0.  1.
         -3    1    6    6    0  502  0.92830754174E+02  0.17928140518E+02 -0.46431660170E+02  0.10533217082E+03  0.00000000000E+00 0.  1.
<mgrwt>
<rscale>  0 0.22315471E+04</rscale>
<asrwt>0</asrwt>
<pdfrwt beam="1">  1        1 0.17403081E+00 0.22315471E+04</pdfrwt>
<pdfrwt beam="2">  1       -1 0.16931650E+00 0.22315471E+04</pdfrwt>
<totfact> 0.27192283E+00</totfact>
</mgrwt>
</event>
<event>
12    1  0.1599266E-007  0.2112979E+04  0.7818608E-02  0.8555547E-01
         -2   -1    0    0    0  501 -0.00000000000E+00  0.00000000000E+00  0.34636514687E+03  0.34636514687E+03  0.00000000000E+00 0. -1.
          2   -1    0    0  501    0  0.00000000000E+00 -0.00000000000E+00 -0.32225251280E+04  0.32225251280E+04  0.00000000000E+00 0.  1.
         23    2    1    2    0    0  0.73556440903E+03 -0.44336816510E+03 -0.12404883122E+04  0.15116055634E+04  0.92248560493E+02 0.  0.
        254    2    1    2    0    0 -0.73556440903E+03  0.44336816510E+03 -0.16356716689E+04  0.20572847114E+04  0.90518961873E+03 0.  0.
        -24    2    4    4    0    0 -0.90621482687E+03  0.35122776372E+03 -0.15492488681E+04  0.18306200277E+04  0.80071067995E+02 0.  0.
         24    2    4    4    0    0  0.17065041784E+03  0.92140401382E+02 -0.86422800768E+02  0.22666468375E+03  0.79350864460E+02 0.  0.
         13    1    3    3    0    0  0.61418969164E+03 -0.33572837715E+03 -0.10416979785E+04  0.12550207962E+04  0.00000000000E+00 0.  1.
        -13    1    3    3    0    0  0.12137471738E+03 -0.10763978795E+03 -0.19879033375E+03  0.25658476721E+03  0.00000000000E+00 0. -1.
          4    1    6    6  502    0  0.48194995580E+02  0.62974458687E+02 -0.56231899454E+02  0.97214024514E+02  0.00000000000E+00 0. -1.
          3    1    5    5  503    0 -0.70349308094E+03  0.25485549667E+03 -0.11344237802E+04  0.13589595844E+04  0.00000000000E+00 0. -1.
         -4    1    5    5    0  503 -0.20272174593E+03  0.96372267048E+02 -0.41482508798E+03  0.47166044327E+03  0.00000000000E+00 0.  1.
         -3    1    6    6    0  502  0.12245542226E+03  0.29165942695E+02 -0.30190901314E+02  0.12945065924E+03  0.00000000000E+00 0.  1.
<mgrwt>
<rscale>  0 0.21129793E+04</rscale>
<asrwt>0</asrwt>
<pdfrwt beam="1">  1        2 0.49577309E+00 0.21129793E+04</pdfrwt>
<pdfrwt beam="2">  1       -2 0.53286947E-01 0.21129793E+04</pdfrwt>
<totfact> 0.38414650E+00</totfact>
</mgrwt>
</event>
<event>
12    1  0.1599266E-007  0.1975389E+04  0.7818608E-02  0.8618214E-01
         -2   -1    0    0    0  501 -0.00000000000E+00  0.00000000000E+00  0.43112472002E+03  0.43112472002E+03  0.00000000000E+00 0.  1.
          2   -1    0    0  501    0  0.00000000000E+00 -0.00000000000E+00 -0.22627793638E+04  0.22627793638E+04  0.00000000000E+00 0. -1.
         23    2    1    2    0    0  0.26424704298E+03 -0.57550660251E+03 -0.75945205943E+02  0.64391702170E+03  0.88470940227E+02 0.  0.
        254    2    1    2    0    0 -0.26424704298E+03  0.57550660251E+03 -0.17557094378E+04  0.20499870621E+04  0.84787792488E+03 0.  0.
        -24    2    4    4    0    0 -0.17873662753E+03  0.79036511073E+03 -0.13514581671E+04  0.15779434549E+04  0.82719882276E+02 0.  0.
         24    2    4    4    0    0 -0.85510415452E+02 -0.21485850822E+03 -0.40425127065E+03  0.47204360723E+03  0.77005633525E+02 0.  0.
         11    1    3    3    0    0  0.25342872853E+03 -0.57499076822E+03 -0.76866210365E+02  0.63304732705E+03  0.00000000000E+00 0. -1.
        -11    1    3    3    0    0  0.10818314454E+02 -0.51583428948E+00  0.92100442175E+00  0.10869694650E+02  0.00000000000E+00 0.  1.
          2    1    6    6  502    0 -0.50227865071E+02 -0.93080594489E+02 -0.25589365255E+03  0.27689058654E+03  0.00000000000E+00 0. -1.
          1    1    5    5  503    0 -0.37033966984E+02  0.91118042974E+02 -0.20935823803E+03  0.23131122821E+03  0.00000000000E+00 0. -1.
         -2    1    5    5    0  503 -0.14170266055E+03  0.69924706776E+03 -0.11420999291E+04  0.13466322266E+04  0.00000000000E+00 0.  1.
         -1    1    6    6    0  502 -0.35282550381E+02 -0.12177791373E+03 -0.14835761811E+03  0.19515302069E+03  0.00000000000E+00 0.  1.
<mgrwt>
<rscale>  0 0.19753887E+04</rscale>
<asrwt>0</asrwt>
<pdfrwt beam="1">  1        2 0.34811990E+00 0.19753887E+04</pdfrwt>
<pdfrwt beam="2">  1       -2 0.66326881E-01 0.19753887E+04</pdfrwt>
<totfact> 0.92609895E+00</totfact>
</mgrwt>
</event>
<event>
12    1  0.1599266E-007  0.1577903E+04  0.7818608E-02  0.8834239E-01
          1   -1    0    0  501    0  0.00000000000E+00  0.00000000000E+00  0.81991313580E+03  0.81991313580E+03  0.00000000000E+00 0. -1.
         -1   -1    0    0    0  501 -0.00000000000E+00 -0.00000000000E+00 -0.75915950285E+03  0.75915950285E+03  0.00000000000E+00 0.  1.
         23    2    1    2    0    0 -0.43468046134E+02 -0.90528791591E+02  0.54016513443E+03  0.55720061339E+03  0.92785871594E+02 0.  0.
        254    2    1    2    0    0  0.43468046134E+02  0.90528791591E+02 -0.47941150147E+03  0.10218720253E+04  0.89682892188E+03 0.  0.
        -24    2    4    4    0    0 -0.38813128130E+03 -0.12229903614E+03 -0.21401441274E+03  0.46661726693E+03  0.79539670443E+02 0.  0.
         24    2    4    4    0    0  0.43159932743E+03  0.21282782773E+03 -0.26539708873E+03  0.55525475832E+03  0.79363519568E+02 0.  0.
         13    1    3    3    0    0 -0.42848046605E+02 -0.68645308372E+02  0.52342073880E+03  0.52963893670E+03  0.00000000000E+00 0. -1.
        -13    1    3    3    0    0 -0.61999952876E+00 -0.21883483219E+02  0.16744395632E+02  0.27561676695E+02  0.00000000000E+00 0.  1.
          4    1    6    6  502    0  0.17118596317E+03  0.42152696940E+02 -0.10020756441E+03  0.20278816487E+03  0.00000000000E+00 0. -1.
          3    1    5    5  503    0 -0.18400233200E+03 -0.25745656572E+02 -0.68702056098E+02  0.19809005408E+03  0.00000000000E+00 0. -1.
         -4    1    5    5    0  503 -0.20412894930E+03 -0.96553379571E+02 -0.14531235665E+03  0.26852721285E+03  0.00000000000E+00 0.  1.
         -3    1    6    6    0  502  0.26041336427E+03  0.17067513079E+03 -0.16518952432E+03  0.35246659346E+03  0.00000000000E+00 0.  1.
<mgrwt>
<rscale>  0 0.15779035E+04</rscale>
<asrwt>0</asrwt>
<pdfrwt beam="1">  1        1 0.12614048E+00 0.15779035E+04</pdfrwt>
<pdfrwt beam="2">  1       -1 0.11679377E+00 0.15779035E+04</pdfrwt>
<totfact> 0.13510018E+01</totfact>
</mgrwt>
</event>
<event>
12    1  0.1599266E-007  0.1914620E+04  0.7818608E-02  0.8647613E-01
          2   -1    0    0  501    0  0.00000000000E+00  0.00000000000E+00  0.13942098285E+04  0.13942098285E+04  0.00000000000E+00 0. -1.
         -2   -1    0    0    0  501 -0.00000000000E+00 -0.00000000000E+00 -0.65732029819E+03  0.65732029819E+03  0.00000000000E+00 0.  1.
         23    2    1    2    0    0  0.19945521579E+03  0.50368771157E+03  0.83986378197E+03  0.10036604752E+04  0.92084109870E+02 0.  0.
        254    2    1    2    0    0 -0.19945521579E+03 -0.50368771157E+03 -0.10297425167E+03  0.10478696515E+04  0.89103502521E+03 0.  0.
        -24    2    4    4    0    0  0.22927311092E+03 -0.28448248220E+03  0.24569450801E+03  0.44792100625E+03  0.82286052911E+02 0.  0.
         24    2    4    4    0    0 -0.42872832672E+03 -0.21920522936E+03 -0.34866875967E+03  0.59994864525E+03  0.80681858326E+02 0.  0.
         11    1    3    3    0    0  0.14031102120E+03  0.25740931266E+03  0.50302635760E+03  0.58222182487E+03  0.00000000000E+00 0. -1.
        -11    1    3    3    0    0  0.59144194592E+02  0.24627839891E+03  0.33683742438E+03  0.42143865032E+03  0.00000000000E+00 0.  1.
          4    1    6    6  502    0 -0.19581225856E+03 -0.10698043057E+03 -0.11299177229E+03  0.25010876381E+03  0.00000000000E+00 0. -1.
          1    1    5    5  503    0  0.21912598451E+03 -0.22495478098E+03  0.20977693393E+03  0.37766018135E+03  0.00000000000E+00 0. -1.
         -2    1    5    5    0  503  0.10147126414E+02 -0.59527701224E+02  0.35917574080E+02  0.70260824898E+02  0.00000000000E+00 0.  1.
         -3    1    6    6    0  502 -0.23291606815E+03 -0.11222479879E+03 -0.23567698739E+03  0.34983988145E+03  0.00000000000E+00 0.  1.
<mgrwt>
<rscale>  0 0.19146200E+04</rscale>
<asrwt>0</asrwt>
<pdfrwt beam="1">  1        2 0.21449382E+00 0.19146200E+04</pdfrwt>
<pdfrwt beam="2">  1       -2 0.10112620E+00 0.19146200E+04</pdfrwt>
<totfact> 0.10972558E+01</totfact>
</mgrwt>
</event>
<event>
12    1  0.1599266E-007  0.2033711E+04  0.7818608E-02  0.8591020E-01
          2   -1    0    0  501    0  0.00000000000E+00  0.00000000000E+00  0.15067719733E+04  0.15067719733E+04  0.00000000000E+00 0. -1.
         -2   -1    0    0    0  501 -0.00000000000E+00 -0.00000000000E+00 -0.68623167705E+03  0.68623167705E+03  0.00000000000E+00 0.  1.
         23    2    1    2    0    0  0.11853871755E+03  0.78140050993E+03  0.11538118008E+03  0.80345617350E+03  0.87125320901E+02 0.  0.
        254    2    1    2    0    0 -0.11853871755E+03 -0.78140050993E+03  0.70515911618E+03  0.13895474769E+04  0.89941904964E+03 0.  0.
        -24    2    4    4    0    0  0.45105403913E+02 -0.17657358056E+03  0.73127985903E+03  0.75771422951E+03  0.78408510839E+02 0.  0.
         24    2    4    4    0    0 -0.16364412147E+03 -0.60482692937E+03 -0.26120742848E+02  0.63183324735E+03  0.77045092491E+02 0.  0.
         13    1    3    3    0    0 -0.12862208724E+02  0.38782607249E+02  0.29271700390E+01  0.40964562280E+02  0.00000000000E+00 0. -1.
        -13    1    3    3    0    0  0.13140092628E+03  0.74261790268E+03  0.11245401004E+03  0.76249161122E+03  0.00000000000E+00 0.  1.
          2    1    6    6  502    0 -0.94602306947E+02 -0.42455812493E+03 -0.47768111829E+02  0.43758540929E+03  0.00000000000E+00 0. -1.
          3    1    5    5  503    0  0.23144034309E+01 -0.14470060601E+03  0.51468195877E+03  0.53464113247E+03  0.00000000000E+00 0. -1.
         -4    1    5    5    0  503  0.42791000482E+02 -0.31872974548E+02  0.21659790026E+03  0.22307309705E+03  0.00000000000E+00 0.  1.
         -1    1    6    6    0  502 -0.69041814520E+02 -0.18026880444E+03  0.21647368981E+02  0.19424783806E+03  0.00000000000E+00 0.  1.
<mgrwt>
<rscale>  0 0.20337106E+04</rscale>
<asrwt>0</asrwt>
<pdfrwt beam="1">  1        2 0.23181107E+00 0.20337106E+04</pdfrwt>
<pdfrwt beam="2">  1       -2 0.10557410E+00 0.20337106E+04</pdfrwt>
<totfact> 0.84590950E+00</totfact>
</mgrwt>
</event>
<event>
12    1  0.1599266E-007  0.1790694E+04  0.7818608E-02  0.8711264E-01
         -2   -1    0    0    0  501 -0.00000000000E+00  0.00000000000E+00  0.31624587140E+03  0.31624587140E+03  0.00000000000E+00 0.  1.
          2   -1    0    0  501    0  0.00000000000E+00 -0.00000000000E+00 -0.25348830502E+04  0.25348830502E+04  0.00000000000E+00 0. -1.
         23    2    1    2    0    0  0.35091421547E+03 -0.46639454068E+03 -0.32263519039E+03  0.67321216172E+03  0.91959199735E+02 0.  0.
        254    2    1    2    0    0 -0.35091421547E+03  0.46639454068E+03 -0.18960019884E+04  0.21779167599E+04  0.89879542653E+03 0.  0.
        -24    2    4    4    0    0 -0.71417920773E+02  0.21371606133E+03  0.48442344533E+01  0.23842018086E+03  0.77753725012E+02 0.  0.
         24    2    4    4    0    0 -0.27949629469E+03  0.25267847934E+03 -0.19008462229E+04  0.19394965790E+04  0.80411593780E+02 0.  0.
         13    1    3    3    0    0  0.11386075102E+03 -0.11007942562E+03 -0.12528221931E+03  0.20193411065E+03  0.00000000000E+00 0. -1.
        -13    1    3    3    0    0  0.23705346444E+03 -0.35631511506E+03 -0.19735297107E+03  0.47127805107E+03  0.00000000000E+00 0.  1.
          4    1    6    6  502    0 -0.23480227680E+02 -0.16944865536E+00 -0.77279376348E+02  0.80767888504E+02  0.00000000000E+00 0. -1.
          3    1    5    5  503    0 -0.63410632167E+02  0.12274116607E+03 -0.28746034679E+02  0.14111214204E+03  0.00000000000E+00 0. -1.
         -4    1    5    5    0  503 -0.80072886062E+01  0.90974895262E+02  0.33590269133E+02  0.97308038820E+02  0.00000000000E+00 0.  1.
         -3    1    6    6    0  502 -0.25601606701E+03  0.25284792800E+03 -0.18235668465E+04  0.18587286905E+04  0.00000000000E+00 0.  1.
<mgrwt>
<rscale>  0 0.17906941E+04</rscale>
<asrwt>0</asrwt>
<pdfrwt beam="1">  1        2 0.38998200E+00 0.17906941E+04</pdfrwt>
<pdfrwt beam="2">  1       -2 0.48653212E-01 0.17906941E+04</pdfrwt>
<totfact> 0.12574775E+01</totfact>
</mgrwt>
</event>
<event>
12    1  0.1599266E-007  0.2533279E+04  0.7818608E-02  0.8391225E-01
          2   -1    0    0  501    0  0.00000000000E+00  0.00000000000E+00  0.28980704922E+04  0.28980704922E+04  0.00000000000E+00 0. -1.
         -2   -1    0    0    0  501 -0.00000000000E+00 -0.00000000000E+00 -0.55360135534E+03  0.55360135534E+03  0.00000000000E+00 0.  1.
         23    2    1    2    0    0  0.15461797607E+03  0.21406676911E+03 -0.43614220641E+03  0.51600839264E+03  0.79456509542E+02 0.  0.
        254    2    1    2    0    0 -0.15461797607E+03 -0.21406676911E+03  0.27806113432E+04  0.29356634549E+04  0.90365323986E+03 0.  0.
        -24    2    4    4    0    0 -0.21200873845E+03 -0.51216065213E+03  0.11961194948E+04  0.13204352113E+04  0.74773409531E+02 0.  0.
         24    2    4    4    0    0  0.57390762384E+02  0.29809388301E+03  0.15844918485E+04  0.16152282436E+04  0.78703228381E+02 0.  0.
         11    1    3    3    0    0  0.11167019987E+03  0.10023568187E+03 -0.19642717049E+03  0.24718628353E+03  0.00000000000E+00 0.  1.
        -11    1    3    3    0    0  0.42947776194E+02  0.11383108724E+03 -0.23971503592E+03  0.26882210911E+03  0.00000000000E+00 0. -1.
          2    1    6    6  502    0  0.71130330498E+02  0.23753313604E+03  0.11588435495E+04  0.11850737896E+04  0.00000000000E+00 0. -1.
          1    1    5    5  503    0 -0.21464511768E+03 -0.48585508069E+03  0.11584400902E+04  0.12744061867E+04  0.00000000000E+00 0. -1.
         -2    1    5    5    0  503  0.26363792315E+01 -0.26305571436E+02  0.37679404544E+02  0.46029024657E+02  0.00000000000E+00 0.  1.
         -1    1    6    6    0  502 -0.13739568114E+02  0.60560746970E+02  0.42564829904E+03  0.43015445398E+03  0.00000000000E+00 0.  1.
<mgrwt>
<rscale>  0 0.25332791E+04</rscale>
<asrwt>0</asrwt>
<pdfrwt beam="1">  1        2 0.44585699E+00 0.25332791E+04</pdfrwt>
<pdfrwt beam="2">  1       -2 0.85169441E-01 0.25332791E+04</pdfrwt>
<totfact> 0.21491626E+00</totfact>
</mgrwt>
</event>
<event>
12    1  0.1599266E-007  0.1714237E+04  0.7818608E-02  0.8753286E-01
          2   -1    0    0  501    0  0.00000000000E+00  0.00000000000E+00  0.82732912340E+03  0.82732912340E+03  0.00000000000E+00 0. -1.
         -2   -1    0    0    0  501 -0.00000000000E+00 -0.00000000000E+00 -0.88797997679E+03  0.88797997679E+03  0.00000000000E+00 0.  1.
         23    2    1    2    0    0 -0.34875512293E+02  0.52130788558E+03 -0.44533576311E+03  0.69275667886E+03  0.92788260464E+02 0.  0.
        254    2    1    2    0    0  0.34875512293E+02 -0.52130788558E+03  0.38468490971E+03  0.10225524213E+04  0.79034977173E+03 0.  0.
        -24    2    4    4    0    0 -0.56609722240E+02  0.47131439327E+02 -0.18099376182E+03  0.21151821656E+03  0.80964071607E+02 0.  0.
         24    2    4    4    0    0  0.91485234533E+02 -0.56843932491E+03  0.56567867154E+03  0.81103420477E+03  0.79317763730E+02 0.  0.
         11    1    3    3    0    0  0.22662100108E+02  0.12535348913E+03 -0.14123378167E+03  0.19019476624E+03  0.00000000000E+00 0.  1.
        -11    1    3    3    0    0 -0.57537612401E+02  0.39595439645E+03 -0.30410198143E+03  0.50256191262E+03  0.00000000000E+00 0. -1.
          4    1    6    6  502    0  0.55353169610E+02 -0.48965955790E+03  0.50233154412E+03  0.70368134567E+03  0.00000000000E+00 0. -1.
          3    1    5    5  503    0  0.26700268100E+01  0.76354036378E+01 -0.11219573519E+03  0.11248693891E+03  0.00000000000E+00 0. -1.
         -4    1    5    5    0  503 -0.59279749050E+02  0.39496035689E+02 -0.68798026635E+02  0.99031277642E+02  0.00000000000E+00 0.  1.
         -3    1    6    6    0  502  0.36132064923E+02 -0.78779767009E+02  0.63347127413E+02  0.10735285910E+03  0.00000000000E+00 0.  1.
<mgrwt>
<rscale>  0 0.17142365E+04</rscale>
<asrwt>0</asrwt>
<pdfrwt beam="1">  1        2 0.12728140E+00 0.17142365E+04</pdfrwt>
<pdfrwt beam="2">  1       -2 0.13661230E+00 0.17142365E+04</pdfrwt>
<totfact> 0.11974454E+01</totfact>
</mgrwt>
</event>
<event>
12    1  0.1599266E-007  0.1922503E+04  0.7818608E-02  0.8643735E-01
          1   -1    0    0  501    0  0.00000000000E+00  0.00000000000E+00  0.20033366625E+04  0.20033366625E+04  0.00000000000E+00 0. -1.
         -1   -1    0    0    0  501 -0.00000000000E+00 -0.00000000000E+00 -0.46123291942E+03  0.46123291942E+03  0.00000000000E+00 0.  1.
         23    2    1    2    0    0 -0.73709061880E+03  0.13367686252E+03  0.54054972750E+03  0.92826478955E+03  0.91156062420E+02 0.  0.
        254    2    1    2    0    0  0.73709061880E+03 -0.13367686252E+03  0.10015540156E+04  0.15363047924E+04  0.89216023510E+03 0.  0.
        -24    2    4    4    0    0 -0.15671570690E+03 -0.19547498744E+03  0.26637667229E+03  0.37389294175E+03  0.77904536715E+02 0.  0.
         24    2    4    4    0    0  0.89380632570E+03  0.61798124920E+02  0.73517734332E+03  0.11624118507E+04  0.89480882387E+02 0.  0.
         11    1    3    3    0    0 -0.65895862610E+02 -0.13919727349E+02  0.51575974189E+02  0.84829856961E+02  0.00000000000E+00 0.  1.
        -11    1    3    3    0    0 -0.67119475619E+03  0.14759658987E+03  0.48897375331E+03  0.84343493259E+03  0.00000000000E+00 0. -1.
          2    1    6    6  502    0  0.52902991680E+03  0.26364227656E+02  0.48915914733E+03  0.72100235561E+03  0.00000000000E+00 0. -1.
          3    1    5    5  503    0 -0.13744473589E+02 -0.65911118290E+02  0.49211882567E+02  0.83396615364E+02  0.00000000000E+00 0. -1.
         -4    1    5    5    0  503 -0.14297123331E+03 -0.12956386915E+03  0.21716478972E+03  0.29049632638E+03  0.00000000000E+00 0.  1.
         -1    1    6    6    0  502  0.36477640890E+03  0.35433897264E+02  0.24601819599E+03  0.44140949506E+03  0.00000000000E+00 0.  1.
<mgrwt>
<rscale>  0 0.19225034E+04</rscale>
<asrwt>0</asrwt>
<pdfrwt beam="1">  1        1 0.30820564E+00 0.19225034E+04</pdfrwt>
<pdfrwt beam="2">  1       -1 0.70958912E-01 0.19225034E+04</pdfrwt>
<totfact> 0.55536831E+00</totfact>
</mgrwt>
</event>
<event>
12    1  0.1599266E-007  0.1141892E+04  0.7818608E-02  0.9165297E-01
         -2   -1    0    0    0  501 -0.00000000000E+00  0.00000000000E+00  0.53537322745E+03  0.53537322745E+03  0.00000000000E+00 0.  1.
          2   -1    0    0  501    0  0.00000000000E+00 -0.00000000000E+00 -0.60888205604E+03  0.60888205604E+03  0.00000000000E+00 0. -1.
         23    2    1    2    0    0  0.13474796907E+03  0.12778860610E+03 -0.11006042433E+02  0.21880606674E+03  0.11518688665E+03 0.  0.
        254    2    1    2    0    0 -0.13474796907E+03 -0.12778860610E+03 -0.62502786159E+02  0.92544921674E+03  0.90446819263E+03 0.  0.
        -24    2    4    4    0    0 -0.27068434119E+03 -0.24640755238E+03  0.32097543920E+03  0.49334747688E+03  0.79873687416E+02 0.  0.
         24    2    4    4    0    0  0.13593637212E+03  0.11861894628E+03 -0.38347822536E+03  0.43210173986E+03  0.84304285713E+02 0.  0.
         11    1    3    3    0    0  0.59405675165E+01 -0.20754585275E+02 -0.46936449473E+01  0.22092384554E+02  0.00000000000E+00 0.  1.
        -11    1    3    3    0    0  0.12880740155E+03  0.14854319137E+03 -0.63123974855E+01  0.19671368219E+03  0.00000000000E+00 0. -1.
          2    1    6    6  502    0  0.12736889157E+03  0.76429130981E+02 -0.33943115100E+03  0.37051012520E+03  0.00000000000E+00 0. -1.
          1    1    5    5  503    0 -0.26659980126E+03 -0.23629909225E+03  0.32450470845E+03  0.48188797541E+03  0.00000000000E+00 0. -1.
         -2    1    5    5    0  503 -0.40845399279E+01 -0.10108460128E+02 -0.35292692561E+01  0.11459501475E+02  0.00000000000E+00 0.  1.
         -1    1    6    6    0  502  0.85674805451E+01  0.42189815302E+02 -0.44047074353E+02  0.61591614666E+02  0.00000000000E+00 0.  1.
<mgrwt>
<rscale>  0 0.11418917E+04</rscale>
<asrwt>0</asrwt>
<pdfrwt beam="1">  1        2 0.93674162E-01 0.11418917E+04</pdfrwt>
<pdfrwt beam="2">  1       -2 0.82365112E-01 0.11418917E+04</pdfrwt>
<totfact> 0.62483170E+01</totfact>
</mgrwt>
</event>
<event>
12    1  0.1599266E-007  0.1530928E+04  0.7818608E-02  0.8864143E-01
          1   -1    0    0  501    0  0.00000000000E+00  0.00000000000E+00  0.92311719905E+03  0.92311719905E+03  0.00000000000E+00 0. -1.
         -1   -1    0    0    0  501 -0.00000000000E+00 -0.00000000000E+00 -0.63473497129E+03  0.63473497129E+03  0.00000000000E+00 0.  1.
         23    2    1    2    0    0  0.92134885425E+02 -0.31820845619E+02 -0.40118604092E+03  0.42280394618E+03  0.91167615677E+02 0.  0.
        254    2    1    2    0    0 -0.92134885425E+02  0.31820845619E+02  0.68956826868E+03  0.11350482242E+04  0.89628604287E+03 0.  0.
        -24    2    4    4    0    0 -0.37392595354E+03  0.26060881380E+03  0.59115629690E+03  0.75062102894E+03  0.78921411334E+02 0.  0.
         24    2    4    4    0    0  0.28179106811E+03 -0.22878796818E+03  0.98411971783E+02  0.38442719521E+03  0.79681941324E+02 0.  0.
         13    1    3    3    0    0  0.64906495159E+01 -0.17161614996E+02 -0.23092801781E+03  0.23165577690E+03  0.00000000000E+00 0.  1.
        -13    1    3    3    0    0  0.85644235909E+02 -0.14659230622E+02 -0.17025802312E+03  0.19114816929E+03  0.00000000000E+00 0. -1.
          2    1    6    6  502    0  0.12928562944E+03 -0.10629209835E+03  0.44723066205E+01  0.16742994260E+03  0.00000000000E+00 0. -1.
          3    1    5    5  503    0 -0.18095462472E+03  0.12756135565E+03  0.35137603681E+03  0.41530903542E+03  0.00000000000E+00 0. -1.
         -4    1    5    5    0  503 -0.19297132882E+03  0.13304745815E+03  0.23978026009E+03  0.33531199352E+03  0.00000000000E+00 0.  1.
         -1    1    6    6    0  502  0.15250543867E+03 -0.12249586983E+03  0.93939665163E+02  0.21699725262E+03  0.00000000000E+00 0.  1.
<mgrwt>
<rscale>  0 0.15309275E+04</rscale>
<asrwt>0</asrwt>
<pdfrwt beam="1">  1        1 0.14201803E+00 0.15309275E+04</pdfrwt>
<pdfrwt beam="2">  1       -1 0.97651534E-01 0.15309275E+04</pdfrwt>
<totfact> 0.16920729E+01</totfact>
</mgrwt>
</event>
<event>
12    1  0.1599266E-007  0.1727674E+04  0.7818608E-02  0.8745736E-01
         -2   -1    0    0    0  501 -0.00000000000E+00  0.00000000000E+00  0.97433623896E+03  0.97433623896E+03  0.00000000000E+00 0.  1.
          2   -1    0    0  501    0  0.00000000000E+00 -0.00000000000E+00 -0.76586973673E+03  0.76586973673E+03  0.00000000000E+00 0. -1.
         23    2    1    2    0    0  0.56236995670E+02 -0.33453826684E+03 -0.45129456195E+03  0.57271167945E+03  0.96194773589E+02 0.  0.
        254    2    1    2    0    0 -0.56236995670E+02  0.33453826684E+03  0.65976106418E+03  0.11674942962E+04  0.90148755859E+03 0.  0.
        -24    2    4    4    0    0  0.28316006329E+03  0.37846833463E+03  0.66059164168E+03  0.81622745437E+03  0.80175048816E+02 0.  0.
         24    2    4    4    0    0 -0.33939705896E+03 -0.43930067787E+02 -0.83057749674E+00  0.35126684188E+03  0.79167479787E+02 0.  0.
         11    1    3    3    0    0 -0.96448417761E+00 -0.24999612286E+03 -0.33446456415E+03  0.41757099557E+03  0.00000000000E+00 0. -1.
        -11    1    3    3    0    0  0.57201479848E+02 -0.84542143976E+02 -0.11682999781E+03  0.15514068387E+03  0.00000000000E+00 0.  1.
          2    1    6    6  502    0 -0.13146648259E+03  0.10385260349E+02 -0.27493746008E+02  0.13471152789E+03  0.00000000000E+00 0. -1.
          3    1    5    5  503    0  0.26031443415E+03  0.30173485640E+03  0.56749429301E+03  0.69343875057E+03  0.00000000000E+00 0. -1.
         -4    1    5    5    0  503  0.22845629140E+02  0.76733478224E+02  0.93097348670E+02  0.12278870380E+03  0.00000000000E+00 0.  1.
         -1    1    6    6    0  502 -0.20793057637E+03 -0.54315328136E+02  0.26663168511E+02  0.21655531399E+03  0.00000000000E+00 0.  1.
<mgrwt>
<rscale>  0 0.17276743E+04</rscale>
<asrwt>0</asrwt>
<pdfrwt beam="1">  1        2 0.11782611E+00 0.17276743E+04</pdfrwt>
<pdfrwt beam="2">  1       -2 0.14989788E+00 0.17276743E+04</pdfrwt>
<totfact> 0.10394765E+01</totfact>
</mgrwt>
</event>
<event>
12    1  0.1599266E-007  0.2062086E+04  0.7818608E-02  0.8578131E-01
          2   -1    0    0  501    0  0.00000000000E+00  0.00000000000E+00  0.14155808367E+04  0.14155808367E+04  0.00000000000E+00 0. -1.
         -2   -1    0    0    0  501 -0.00000000000E+00 -0.00000000000E+00 -0.75096358233E+03  0.75096358233E+03  0.00000000000E+00 0.  1.
         23    2    1    2    0    0  0.54377057563E+03 -0.61562347400E+03  0.39506859197E+03  0.91609789325E+03  0.92073106888E+02 0.  0.
        254    2    1    2    0    0 -0.54377057563E+03  0.61562347400E+03  0.26954866244E+03  0.12504465258E+04  0.90348288961E+03 0.  0.
        -24    2    4    4    0    0 -0.73794984135E+03  0.67282368879E+03  0.19810457250E+03  0.10215011910E+04  0.83412091038E+02 0.  0.
         24    2    4    4    0    0  0.19417926572E+03 -0.57200214789E+02  0.71444089945E+02  0.22894533486E+03  0.79588042793E+02 0.  0.
         13    1    3    3    0    0  0.48587612354E+03 -0.51558951576E+03  0.31400111633E+03  0.77492248467E+03  0.00000000000E+00 0. -1.
        -13    1    3    3    0    0  0.57894452085E+02 -0.10003395824E+03  0.81067475638E+02  0.14117540859E+03  0.00000000000E+00 0.  1.
          2    1    6    6  502    0  0.35548058301E+02 -0.15645101367E+02 -0.17267174839E+02  0.42503987727E+02  0.00000000000E+00 0. -1.
          3    1    5    5  503    0 -0.47831242512E+03  0.48496913745E+03  0.14940943158E+03  0.69735286516E+03  0.00000000000E+00 0. -1.
         -4    1    5    5    0  503 -0.25963741623E+03  0.18785455134E+03  0.48695140915E+02  0.32414832579E+03  0.00000000000E+00 0.  1.
         -1    1    6    6    0  502  0.15863120742E+03 -0.41555113423E+02  0.88711264785E+02  0.18644134713E+03  0.00000000000E+00 0.  1.
<mgrwt>
<rscale>  0 0.20620860E+04</rscale>
<asrwt>0</asrwt>
<pdfrwt beam="1">  1        2 0.21778167E+00 0.20620860E+04</pdfrwt>
<pdfrwt beam="2">  1       -2 0.11553286E+00 0.20620860E+04</pdfrwt>
<totfact> 0.76416613E+00</totfact>
</mgrwt>
</event>
<event>
12    1  0.1599266E-007  0.2276661E+04  0.7818608E-02  0.8487181E-01
          2   -1    0    0  501    0  0.00000000000E+00  0.00000000000E+00  0.36015976555E+04  0.36015976555E+04  0.00000000000E+00 0. -1.
         -2   -1    0    0    0  501 -0.00000000000E+00 -0.00000000000E+00 -0.35978376819E+03  0.35978376819E+03  0.00000000000E+00 0.  1.
         23    2    1    2    0    0  0.52675463867E+03  0.68541655967E+03  0.66683719992E+03  0.10956691015E+04  0.92480372262E+02 0.  0.
        254    2    1    2    0    0 -0.52675463867E+03 -0.68541655967E+03  0.25749766874E+04  0.28657123222E+04  0.91352934440E+03 0.  0.
        -24    2    4    4    0    0  0.46532391849E+02 -0.20654854906E+03  0.49494725787E+02  0.23089738566E+03  0.77693681951E+02 0.  0.
         24    2    4    4    0    0 -0.57328703052E+03 -0.47886801062E+03  0.25254819616E+04  0.26348149365E+04  0.78854424098E+02 0.  0.
         11    1    3    3    0    0  0.46036162557E+03  0.54209718012E+03  0.55525807517E+03  0.90228249957E+03  0.00000000000E+00 0.  1.
        -11    1    3    3    0    0  0.66393013107E+02  0.14331937956E+03  0.11157912475E+03  0.19338660198E+03  0.00000000000E+00 0. -1.
          2    1    6    6  502    0 -0.37102401692E+03 -0.28922118737E+03  0.17074737134E+04  0.17710940682E+04  0.00000000000E+00 0. -1.
          1    1    5    5  503    0  0.44708519836E+02 -0.20832314930E+03  0.34685873328E+02  0.21587148049E+03  0.00000000000E+00 0. -1.
         -2    1    5    5    0  503  0.18238720131E+01  0.17746002401E+01  0.14808852459E+02  0.15025905173E+02  0.00000000000E+00 0.  1.
         -1    1    6    6    0  502 -0.20226301360E+03 -0.18964682324E+03  0.81800824818E+03  0.86372086829E+03  0.00000000000E+00 0.  1.
<mgrwt>
<rscale>  0 0.22766610E+04</rscale>
<asrwt>0</asrwt>
<pdfrwt beam="1">  1        2 0.55409192E+00 0.22766610E+04</pdfrwt>
<pdfrwt beam="2">  1       -2 0.55351352E-01 0.22766610E+04</pdfrwt>
<totfact> 0.19254854E+00</totfact>
</mgrwt>
</event>
<event>
12    1  0.1599266E-007  0.2098111E+04  0.7818608E-02  0.8562076E-01
          2   -1    0    0  501    0  0.00000000000E+00  0.00000000000E+00  0.40517642150E+04  0.40517642150E+04  0.00000000000E+00 0. -1.
         -2   -1    0    0    0  501 -0.00000000000E+00 -0.00000000000E+00 -0.27161434362E+03  0.27161434362E+03  0.00000000000E+00 0.  1.
         23    2    1    2    0    0  0.18399627937E+03 -0.56726430705E+02  0.34622747479E+04  0.34688029454E+04  0.90415292651E+02 0.  0.
        254    2    1    2    0    0 -0.18399627937E+03  0.56726430705E+02  0.31787512348E+03  0.85457561324E+03  0.76953386271E+03 0.  0.
        -24    2    4    4    0    0 -0.24891551325E+03 -0.12007402463E+03 -0.16405004448E+03  0.33100747078E+03  0.79226412834E+02 0.  0.
         24    2    4    4    0    0  0.64919233873E+02  0.17680045533E+03  0.48192516796E+03  0.52356814246E+03  0.79992651889E+02 0.  0.
         11    1    3    3    0    0  0.92616215316E+01  0.18969515340E+02  0.25045245953E+03  0.25134051529E+03  0.00000000000E+00 0.  1.
        -11    1    3    3    0    0  0.17473465784E+03 -0.75695946045E+02  0.32118222884E+04  0.32174624301E+04  0.00000000000E+00 0. -1.
          4    1    6    6  502    0  0.26726692199E+02  0.14870889511E+03  0.30460214374E+03  0.34001634892E+03  0.00000000000E+00 0. -1.
          3    1    5    5  503    0 -0.14425221943E+03 -0.11154445569E+03 -0.10899627431E+03  0.21244071224E+03  0.00000000000E+00 0. -1.
         -4    1    5    5    0  503 -0.10466329382E+03 -0.85295689384E+01 -0.55053770172E+02  0.11856675853E+03  0.00000000000E+00 0.  1.
         -3    1    6    6    0  502  0.38192541674E+02  0.28091560225E+02  0.17732302422E+03  0.18355179354E+03  0.00000000000E+00 0.  1.
<mgrwt>
<rscale>  0 0.20981108E+04</rscale>
<asrwt>0</asrwt>
<pdfrwt beam="1">  1        2 0.62334830E+00 0.20981108E+04</pdfrwt>
<pdfrwt beam="2">  1       -2 0.41786825E-01 0.20981108E+04</pdfrwt>
<totfact> 0.15669772E+00</totfact>
</mgrwt>
</event>
<event>
12    1  0.1599266E-007  0.1763591E+04  0.7818608E-02  0.8725904E-01
         -1   -1    0    0    0  501 -0.00000000000E+00  0.00000000000E+00  0.64016585021E+03  0.64016585021E+03  0.00000000000E+00 0.  1.
          1   -1    0    0  501    0  0.00000000000E+00 -0.00000000000E+00 -0.12146282876E+04  0.12146282876E+04  0.00000000000E+00 0. -1.
         23    2    1    2    0    0  0.25139606820E+03  0.27736604015E+03  0.35231705963E+03  0.52288336197E+03  0.95644113215E+02 0.  0.
        254    2    1    2    0    0 -0.25139606820E+03 -0.27736604015E+03 -0.92677949707E+03  0.13319107759E+04  0.88030345643E+03 0.  0.
        -24    2    4    4    0    0 -0.94303847078E+02 -0.57845014762E+03 -0.69282068683E+03  0.91106571608E+03  0.80885388383E+02 0.  0.
         24    2    4    4    0    0 -0.15709222112E+03  0.30108410748E+03 -0.23395881024E+03  0.42084505981E+03  0.83929933667E+02 0.  0.
         11    1    3    3    0    0  0.21745480994E+03  0.19723008369E+03  0.23090065751E+03  0.37349888074E+03  0.00000000000E+00 0.  1.
        -11    1    3    3    0    0  0.33941258260E+02  0.80135956454E+02  0.12141640212E+03  0.14938448123E+03  0.00000000000E+00 0. -1.
          2    1    6    6  502    0 -0.13413856199E+01  0.76450221318E+02 -0.49794849105E+02  0.91246713104E+02  0.00000000000E+00 0. -1.
          3    1    5    5  503    0 -0.10850502499E+02 -0.70010234921E+02 -0.12975875190E+03  0.14783944025E+03  0.00000000000E+00 0. -1.
         -4    1    5    5    0  503 -0.83453344578E+02 -0.50843991270E+03 -0.56306193493E+03  0.76322627583E+03  0.00000000000E+00 0.  1.
         -1    1    6    6    0  502 -0.15575083550E+03  0.22463388616E+03 -0.18416396113E+03  0.32959834670E+03  0.00000000000E+00 0.  1.
<mgrwt>
<rscale>  0 0.17635913E+04</rscale>
<asrwt>0</asrwt>
<pdfrwt beam="1">  1        1 0.18686589E+00 0.17635913E+04</pdfrwt>
<pdfrwt beam="2">  1       -1 0.98487055E-01 0.17635913E+04</pdfrwt>
<totfact> 0.97398547E+00</totfact>
</mgrwt>
</event>
<event>
12    1  0.1599266E-007  0.4564174E+04  0.7818608E-02  0.7899497E-01
         -3   -1    0    0    0  501 -0.00000000000E+00  0.00000000000E+00  0.22310274354E+04  0.22310274354E+04  0.00000000000E+00 0.  1.
          3   -1    0    0  501    0  0.00000000000E+00 -0.00000000000E+00 -0.23343155258E+04  0.23343155258E+04  0.00000000000E+00 0. -1.
         23    2    1    2    0    0  0.68397065251E+02  0.84389452308E+03  0.19757299031E+04  0.21514245254E+04  0.91009417306E+02 0.  0.
        254    2    1    2    0    0 -0.68397065251E+02 -0.84389452308E+03 -0.20790179934E+04  0.24139184358E+04  0.88760930190E+03 0.  0.
        -24    2    4    4    0    0  0.83007582152E+00 -0.30325564088E+02 -0.12313009639E+04  0.12342203932E+04  0.79231221277E+02 0.  0.
         24    2    4    4    0    0 -0.69227141072E+02 -0.81356895900E+03 -0.84771702956E+03  0.11796980426E+04  0.79852747952E+02 0.  0.
         13    1    3    3    0    0 -0.21078664387E+02  0.18839980959E+03  0.46766610255E+03  0.50462895460E+03  0.00000000000E+00 0. -1.
        -13    1    3    3    0    0  0.89475729638E+02  0.65549471350E+03  0.15080638006E+04  0.16467955708E+04  0.00000000000E+00 0.  1.
          2    1    6    6  502    0  0.37248629208E+01 -0.27155609254E+02 -0.50756277869E+02  0.57684499312E+02  0.00000000000E+00 0. -1.
          1    1    5    5  503    0  0.26165923631E+02 -0.66010080949E+01 -0.15304570238E+03  0.15540661467E+03  0.00000000000E+00 0. -1.
         -2    1    5    5    0  503 -0.25335847810E+02 -0.23724555993E+02 -0.10782552615E+04  0.10788137785E+04  0.00000000000E+00 0.  1.
         -1    1    6    6    0  502 -0.72952003993E+02 -0.78641334974E+03 -0.79696075169E+03  0.11220135433E+04  0.00000000000E+00 0.  1.
<mgrwt>
<rscale>  0 0.45641744E+04</rscale>
<asrwt>0</asrwt>
<pdfrwt beam="1">  1        3 0.35912546E+00 0.45641744E+04</pdfrwt>
<pdfrwt beam="2">  1       -3 0.34323499E+00 0.45641744E+04</pdfrwt>
<totfact> 0.77655981E-04</totfact>
</mgrwt>
</event>
<event>
12    1  0.1599266E-007  0.1120848E+04  0.7818608E-02  0.9185107E-01
         -2   -1    0    0    0  501 -0.00000000000E+00  0.00000000000E+00  0.31698035728E+03  0.31698035728E+03  0.00000000000E+00 0.  1.
          2   -1    0    0  501    0  0.00000000000E+00 -0.00000000000E+00 -0.99083399139E+03  0.99083399139E+03  0.00000000000E+00 0. -1.
         23    2    1    2    0    0  0.12732559184E+02 -0.17366875795E+02  0.89564686588E+02  0.12829596827E+03  0.89298913497E+02 0.  0.
        254    2    1    2    0    0 -0.12732559184E+02  0.17366875795E+02 -0.76341832069E+03  0.11795183804E+04  0.89888394740E+03 0.  0.
        -24    2    4    4    0    0 -0.16935691832E+03 -0.84776734309E+02  0.14280406662E+03  0.25069867703E+03  0.81166278460E+02 0.  0.
         24    2    4    4    0    0  0.15662435914E+03  0.10214361010E+03 -0.90622238731E+03  0.92881970337E+03  0.80638199025E+02 0.  0.
         11    1    3    3    0    0  0.12855498446E+02 -0.53780316025E+02  0.57554067167E+02  0.79812636089E+02  0.00000000000E+00 0. -1.
        -11    1    3    3    0    0 -0.12293926208E+00  0.36413440229E+02  0.32010619421E+02  0.48483332178E+02  0.00000000000E+00 0.  1.
          4    1    6    6  502    0  0.98181692421E+02  0.20990189579E+02 -0.37162185954E+03  0.38494550169E+03  0.00000000000E+00 0. -1.
          1    1    5    5  503    0 -0.14462028396E+03 -0.71055695429E+02  0.15143344804E+03  0.22112446172E+03  0.00000000000E+00 0. -1.
         -2    1    5    5    0  503 -0.24736634362E+02 -0.13721038880E+02 -0.86293814229E+01  0.29574215311E+02  0.00000000000E+00 0.  1.
         -3    1    6    6    0  502  0.58442666715E+02  0.81153420526E+02 -0.53460052777E+03  0.54387420168E+03  0.00000000000E+00 0.  1.
<mgrwt>
<rscale>  0 0.11208477E+04</rscale>
<asrwt>0</asrwt>
<pdfrwt beam="1">  1        2 0.15243600E+00 0.11208477E+04</pdfrwt>
<pdfrwt beam="2">  1       -2 0.48766209E-01 0.11208477E+04</pdfrwt>
<totfact> 0.10079868E+02</totfact>
</mgrwt>
</event>
<event>
12    1  0.1599266E-007  0.2256174E+04  0.7818608E-02  0.8495404E-01
         -2   -1    0    0    0  501 -0.00000000000E+00  0.00000000000E+00  0.11416862500E+04  0.11416862500E+04  0.00000000000E+00 0.  1.
          2   -1    0    0  501    0  0.00000000000E+00 -0.00000000000E+00 -0.11146501191E+04  0.11146501191E+04  0.00000000000E+00 0. -1.
         23    2    1    2    0    0 -0.44671708416E+02  0.41781056335E+03  0.85788661449E+03  0.96300504573E+03  0.12185256012E+03 0.  0.
        254    2    1    2    0    0  0.44671708416E+02 -0.41781056335E+03 -0.83085048367E+03  0.12933313234E+04  0.89768154568E+03 0.  0.
        -24    2    4    4    0    0 -0.17319814461E+03 -0.64100711912E+03 -0.57815864451E+03  0.88397024376E+03  0.79045869999E+02 0.  0.
         24    2    4    4    0    0  0.21786985302E+03  0.22319655578E+03 -0.25269183916E+03  0.40936107963E+03  0.80245576635E+02 0.  0.
         13    1    3    3    0    0 -0.77671365347E+01  0.29388140650E+03  0.47237597844E+03  0.55638626377E+03  0.00000000000E+00 0. -1.
        -13    1    3    3    0    0 -0.36904571881E+02  0.12392915684E+03  0.38551063604E+03  0.40661878196E+03  0.00000000000E+00 0.  1.
          4    1    6    6  502    0  0.11227637228E+03  0.14927936139E+03 -0.18847879722E+03  0.26535743538E+03  0.00000000000E+00 0. -1.
          3    1    5    5  503    0 -0.61295903803E+02 -0.33678444834E+03 -0.26097724395E+03  0.43045333583E+03  0.00000000000E+00 0. -1.
         -4    1    5    5    0  503 -0.11190224080E+03 -0.30422267079E+03 -0.31718140056E+03  0.45351690793E+03  0.00000000000E+00 0.  1.
         -3    1    6    6    0  502  0.10559348075E+03  0.73917194390E+02 -0.64213041937E+02  0.14400364425E+03  0.00000000000E+00 0.  1.
<mgrwt>
<rscale>  0 0.22561744E+04</rscale>
<asrwt>0</asrwt>
<pdfrwt beam="1">  1        2 0.17148463E+00 0.22561744E+04</pdfrwt>
<pdfrwt beam="2">  1       -2 0.17564404E+00 0.22561744E+04</pdfrwt>
<totfact> 0.37747808E+00</totfact>
</mgrwt>
</event>
<event>
12    1  0.1599266E-007  0.1821328E+04  0.7818608E-02  0.8695039E-01
         -4   -1    0    0    0  501 -0.00000000000E+00  0.00000000000E+00  0.12994577997E+04  0.12994577997E+04  0.00000000000E+00 0.  1.
          4   -1    0    0  501    0  0.00000000000E+00 -0.00000000000E+00 -0.63819582481E+03  0.63819582481E+03  0.00000000000E+00 0. -1.
         23    2    1    2    0    0 -0.19932307364E+03  0.69506122996E+02 -0.44616176223E+03  0.50195307878E+03  0.91300527908E+02 0.  0.
        254    2    1    2    0    0  0.19932307364E+03 -0.69506122996E+02  0.11074237371E+04  0.14357005457E+04  0.88898140287E+03 0.  0.
        -24    2    4    4    0    0 -0.28071821137E+03  0.15205719198E+03  0.20859616916E+03  0.38982625496E+03  0.80796308372E+02 0.  0.
         24    2    4    4    0    0  0.48004128500E+03 -0.22156331497E+03  0.89882756795E+03  0.10458742908E+04  0.80200357254E+02 0.  0.
         13    1    3    3    0    0  0.14836730705E+01  0.23461510067E+02 -0.36696784377E+02  0.43580933032E+02  0.00000000000E+00 0.  1.
        -13    1    3    3    0    0 -0.20080674671E+03  0.46044612930E+02 -0.40946497786E+03  0.45837214575E+03  0.00000000000E+00 0. -1.
          2    1    6    6  502    0  0.30444789996E+03 -0.17705107432E+03  0.55669353479E+03  0.65874372739E+03  0.00000000000E+00 0. -1.
          1    1    5    5  503    0 -0.12059463472E+03  0.10914493474E+03  0.88954800118E+02  0.18538780749E+03  0.00000000000E+00 0. -1.
         -2    1    5    5    0  503 -0.16012357665E+03  0.42912257241E+02  0.11964136904E+03  0.20443844747E+03  0.00000000000E+00 0.  1.
         -1    1    6    6    0  502  0.17559338504E+03 -0.44512240656E+02  0.34213403316E+03  0.38713056336E+03  0.00000000000E+00 0.  1.
<mgrwt>
<rscale>  0 0.18213276E+04</rscale>
<asrwt>0</asrwt>
<pdfrwt beam="1">  1        4 0.98183973E-01 0.18213276E+04</pdfrwt>
<pdfrwt beam="2">  1       -4 0.19991658E+00 0.18213276E+04</pdfrwt>
<totfact> 0.21426941E-01</totfact>
</mgrwt>
</event>
<event>
12    1  0.1599266E-007  0.3576388E+04  0.7818608E-02  0.8095922E-01
          2   -1    0    0  501    0  0.00000000000E+00  0.00000000000E+00  0.22334529889E+04  0.22334529889E+04  0.00000000000E+00 0. -1.
         -2   -1    0    0    0  501 -0.00000000000E+00 -0.00000000000E+00 -0.14317016232E+04  0.14317016232E+04  0.00000000000E+00 0.  1.
         23    2    1    2    0    0  0.16178326431E+04 -0.18038255582E+03 -0.22706917993E+02  0.16302909615E+04  0.86096965013E+02 0.  0.
        254    2    1    2    0    0 -0.16178326431E+04  0.18038255582E+03  0.82445828367E+03  0.20348636506E+04  0.90056553766E+03 0.  0.
        -24    2    4    4    0    0 -0.14713441535E+04  0.58228074439E+02  0.98479125959E+03  0.17732740356E+04  0.80267389400E+02 0.  0.
         24    2    4    4    0    0 -0.14648848961E+03  0.12215448138E+03 -0.16033297593E+03  0.26158961500E+03  0.79635849943E+02 0.  0.
         13    1    3    3    0    0  0.80846862425E+03 -0.74433078127E+02  0.28798713897E+02  0.81239840315E+03  0.00000000000E+00 0. -1.
        -13    1    3    3    0    0  0.80936401886E+03 -0.10594947770E+03 -0.51505631890E+02  0.81789255833E+03  0.00000000000E+00 0.  1.
          2    1    6    6  502    0 -0.10457259797E+03  0.97321965257E+02 -0.70286135105E+02  0.15920783258E+03  0.00000000000E+00 0. -1.
          1    1    5    5  503    0 -0.39790335224E+03 -0.17028913961E+02  0.24925004184E+03  0.46983257123E+03  0.00000000000E+00 0. -1.
         -2    1    5    5    0  503 -0.10734408013E+04  0.75256988401E+02  0.73554121775E+03  0.13034414644E+04  0.00000000000E+00 0.  1.
         -1    1    6    6    0  502 -0.41915891642E+02  0.24832516128E+02 -0.90046840821E+02  0.10238178242E+03  0.00000000000E+00 0.  1.
<mgrwt>
<rscale>  0 0.35763883E+04</rscale>
<asrwt>0</asrwt>
<pdfrwt beam="1">  1        2 0.34360815E+00 0.35763883E+04</pdfrwt>
<pdfrwt beam="2">  1       -2 0.22026179E+00 0.35763883E+04</pdfrwt>
<totfact> 0.39755048E-01</totfact>
</mgrwt>
</event>
<event>
12    1  0.1599266E-007  0.1523645E+04  0.7818608E-02  0.8868880E-01
          2   -1    0    0  501    0  0.00000000000E+00  0.00000000000E+00  0.82472824047E+03  0.82472824047E+03  0.00000000000E+00 0. -1.
         -2   -1    0    0    0  501 -0.00000000000E+00 -0.00000000000E+00 -0.70371506556E+03  0.70371506556E+03  0.00000000000E+00 0.  1.
         23    2    1    2    0    0  0.16107039660E+03  0.42638975804E+03 -0.12139829885E+03  0.48031693907E+03  0.90636176970E+02 0.  0.
        254    2    1    2    0    0 -0.16107039660E+03 -0.42638975804E+03  0.24241147377E+03  0.10481263670E+04  0.91216975398E+03 0.  0.
        -24    2    4    4    0    0 -0.25606349666E+03 -0.27674379888E+03 -0.28981661894E+03  0.48205768670E+03  0.78932225013E+02 0.  0.
         24    2    4    4    0    0  0.94993100064E+02 -0.14964595915E+03  0.53222809271E+03  0.56606868026E+03  0.75824837264E+02 0.  0.
         11    1    3    3    0    0  0.28504329244E+02  0.15766872260E+03 -0.96452426272E+01  0.16051465222E+03  0.00000000000E+00 0. -1.
        -11    1    3    3    0    0  0.13256606736E+03  0.26872103544E+03 -0.11175305622E+03  0.31980228685E+03  0.00000000000E+00 0.  1.
          4    1    6    6  502    0  0.10488727394E+02 -0.85096018009E+02  0.21365915341E+03  0.23022071913E+03  0.00000000000E+00 0. -1.
          1    1    5    5  503    0 -0.10650387755E+03 -0.13729593322E+03 -0.17903462299E+03  0.24949277633E+03  0.00000000000E+00 0. -1.
         -2    1    5    5    0  503 -0.14955961911E+03 -0.13944786566E+03 -0.11078199596E+03  0.23256491037E+03  0.00000000000E+00 0.  1.
         -3    1    6    6    0  502  0.84504372669E+02 -0.64549941144E+02  0.31856893931E+03  0.33584796113E+03  0.00000000000E+00 0.  1.
<mgrwt>
<rscale>  0 0.15236452E+04</rscale>
<asrwt>0</asrwt>
<pdfrwt beam="1">  1        2 0.12688127E+00 0.15236452E+04</pdfrwt>
<pdfrwt beam="2">  1       -2 0.10826386E+00 0.15236452E+04</pdfrwt>
<totfact> 0.21779626E+01</totfact>
</mgrwt>
</event>
<event>
12    1  0.1599266E-007  0.1054429E+04  0.7818608E-02  0.9250784E-01
         -1   -1    0    0    0  501 -0.00000000000E+00  0.00000000000E+00  0.42046940848E+03  0.42046940848E+03  0.00000000000E+00 0.  1.
          1   -1    0    0  501    0  0.00000000000E+00 -0.00000000000E+00 -0.66105865388E+03  0.66105865388E+03  0.00000000000E+00 0. -1.
         23    2    1    2    0    0 -0.61804770415E+01 -0.86962685893E+02 -0.10684499197E+03  0.16577564886E+03  0.92005469471E+02 0.  0.
        254    2    1    2    0    0  0.61804770415E+01  0.86962685893E+02 -0.13374425342E+03  0.91575241350E+03  0.90172847935E+03 0.  0.
        -24    2    4    4    0    0  0.11414178187E+03 -0.24183368475E+03 -0.38901891962E+03  0.47820381945E+03  0.76362920752E+02 0.  0.
         24    2    4    4    0    0 -0.10796130483E+03  0.32879637065E+03  0.25527466619E+03  0.43754859405E+03  0.80752215252E+02 0.  0.
         13    1    3    3    0    0 -0.23982061388E+02 -0.74963198487E+00 -0.63030834405E+02  0.67443215391E+02  0.00000000000E+00 0. -1.
        -13    1    3    3    0    0  0.17801584347E+02 -0.86213053908E+02 -0.43814157569E+02  0.98332433474E+02  0.00000000000E+00 0.  1.
          4    1    6    6  502    0 -0.25796004276E+02  0.15530647995E+03  0.15517634866E+03  0.22105482518E+03  0.00000000000E+00 0. -1.
          1    1    5    5  503    0  0.27664313566E+02 -0.13874317704E+03 -0.22844446522E+03  0.26870403255E+03  0.00000000000E+00 0. -1.
         -2    1    5    5    0  503  0.86477468305E+02 -0.10309050771E+03 -0.16057445440E+03  0.20949978690E+03  0.00000000000E+00 0.  1.
         -1    1    6    6    0  502 -0.82165300554E+02  0.17348989070E+03  0.10009831753E+03  0.21649376887E+03  0.00000000000E+00 0.  1.
<mgrwt>
<rscale>  0 0.10544286E+04</rscale>
<asrwt>0</asrwt>
<pdfrwt beam="1">  1        1 0.10170133E+00 0.10544286E+04</pdfrwt>
<pdfrwt beam="2">  1       -1 0.64687601E-01 0.10544286E+04</pdfrwt>
<totfact> 0.71943550E+01</totfact>
</mgrwt>
</event>
<event>
12    1  0.1599266E-007  0.1502854E+04  0.7818608E-02  0.8882557E-01
         -1   -1    0    0    0  501 -0.00000000000E+00  0.00000000000E+00  0.30231224241E+04  0.30231224241E+04  0.00000000000E+00 0.  1.
          1   -1    0    0  501    0  0.00000000000E+00 -0.00000000000E+00 -0.18677466729E+03  0.18677466729E+03  0.00000000000E+00 0. -1.
         23    2    1    2    0    0 -0.33881232949E+03  0.22364034579E+03  0.39576588251E+03  0.57402559972E+03  0.89810670292E+02 0.  0.
        254    2    1    2    0    0  0.33881232949E+03 -0.22364034579E+03  0.24405818743E+04  0.26358714917E+04  0.90915886215E+03 0.  0.
        -24    2    4    4    0    0  0.29417170742E+03  0.19576989569E+03  0.35762547151E+03  0.50910361110E+03  0.80172710158E+02 0.  0.
         24    2    4    4    0    0  0.44640622061E+02 -0.41941024148E+03  0.20829564028E+04  0.21267678806E+04  0.80848662074E+02 0.  0.
         13    1    3    3    0    0 -0.33652168886E+03  0.22886040164E+03  0.37824861491E+03  0.55560412633E+03  0.00000000000E+00 0. -1.
        -13    1    3    3    0    0 -0.22906406215E+01 -0.52200558554E+01  0.17517267597E+02  0.18421473385E+02  0.00000000000E+00 0.  1.
          4    1    6    6  502    0  0.34293663482E+02 -0.40337616343E+03  0.20397405191E+04  0.20795263330E+04  0.00000000000E+00 0. -1.
          3    1    5    5  503    0  0.28176239337E+03  0.17010215368E+03  0.30241799051E+03  0.44696915999E+03  0.00000000000E+00 0. -1.
         -2    1    5    5    0  503  0.12409314054E+02  0.25667742010E+02  0.55207481009E+02  0.62134451108E+02  0.00000000000E+00 0.  1.
         -3    1    6    6    0  502  0.10346958578E+02 -0.16034078046E+02  0.43215883726E+02  0.47241547570E+02  0.00000000000E+00 0.  1.
<mgrwt>
<rscale>  0 0.15028542E+04</rscale>
<asrwt>0</asrwt>
<pdfrwt beam="1">  1        1 0.28734566E-01 0.15028542E+04</pdfrwt>
<pdfrwt beam="2">  1       -1 0.46509572E+00 0.15028542E+04</pdfrwt>
<totfact> 0.40313015E-01</totfact>
</mgrwt>
</event>
<event>
12    1  0.1599266E-007  0.1444519E+04  0.7818608E-02  0.8922209E-01
         -2   -1    0    0    0  501 -0.00000000000E+00  0.00000000000E+00  0.31100160443E+03  0.31100160443E+03  0.00000000000E+00 0.  1.
          2   -1    0    0  501    0  0.00000000000E+00 -0.00000000000E+00 -0.16773512759E+04  0.16773512759E+04  0.00000000000E+00 0. -1.
         23    2    1    2    0    0 -0.18871230776E+03  0.19193395994E+02  0.14056774505E+03  0.25396419600E+03  0.93583120025E+02 0.  0.
        254    2    1    2    0    0  0.18871230776E+03 -0.19193395994E+02 -0.15069174165E+04  0.17343886843E+04  0.83745046812E+03 0.  0.
        -24    2    4    4    0    0  0.50203578005E+02 -0.12118574039E+03  0.53461361786E+02  0.16251401257E+03  0.79663694110E+02 0.  0.
         24    2    4    4    0    0  0.13850872976E+03  0.10199234440E+03 -0.15603787783E+04  0.15718746718E+04  0.80130801647E+02 0.  0.
         13    1    3    3    0    0 -0.92715690718E+02  0.26741843834E+02  0.18107277635E+02  0.98179422591E+02  0.00000000000E+00 0. -1.
        -13    1    3    3    0    0 -0.95996617045E+02 -0.75484478397E+01  0.12246046741E+03  0.15578477341E+03  0.00000000000E+00 0.  1.
          2    1    6    6  502    0 -0.69302760633E+01 -0.20526761195E+01 -0.15444750696E+03  0.15461654055E+03  0.00000000000E+00 0. -1.
          3    1    5    5  503    0  0.66768396844E+02 -0.70322210267E+02  0.18807787971E+02  0.98777350452E+02  0.00000000000E+00 0. -1.
         -4    1    5    5    0  503 -0.16564818839E+02 -0.50863530125E+02  0.34653573815E+02  0.63736662119E+02  0.00000000000E+00 0.  1.
         -1    1    6    6    0  502  0.14543900582E+03  0.10404502052E+03 -0.14059312714E+04  0.14172581312E+04  0.00000000000E+00 0.  1.
<mgrwt>
<rscale>  0 0.14445192E+04</rscale>
<asrwt>0</asrwt>
<pdfrwt beam="1">  1        2 0.25805404E+00 0.14445192E+04</pdfrwt>
<pdfrwt beam="2">  1       -2 0.47846401E-01 0.14445192E+04</pdfrwt>
<totfact> 0.40533608E+01</totfact>
</mgrwt>
</event>
<event>
12    1  0.1599266E-007  0.2034808E+04  0.7818608E-02  0.8590517E-01
          2   -1    0    0  501    0  0.00000000000E+00  0.00000000000E+00  0.12384309487E+04  0.12384309487E+04  0.00000000000E+00 0. -1.
         -2   -1    0    0    0  501 -0.00000000000E+00 -0.00000000000E+00 -0.83582460658E+03  0.83582460658E+03  0.00000000000E+00 0.  1.
         23    2    1    2    0    0 -0.48671372985E+03 -0.34718294724E+03 -0.40514601928E+03  0.72781734263E+03  0.90269228505E+02 0.  0.
        254    2    1    2    0    0  0.48671372985E+03  0.34718294724E+03  0.80775236140E+03  0.13464382127E+04  0.89610586957E+03 0.  0.
        -24    2    4    4    0    0 -0.72368708808E+02 -0.13661963755E+03 -0.77227951955E+02  0.18988640003E+03  0.78679940100E+02 0.  0.
         24    2    4    4    0    0  0.55908243865E+03  0.48380258479E+03  0.88498031336E+03  0.11565518126E+04  0.88225993943E+02 0.  0.
         11    1    3    3    0    0 -0.13370653528E+03 -0.79332246123E+02 -0.62051061057E+02  0.16739586921E+03  0.00000000000E+00 0. -1.
        -11    1    3    3    0    0 -0.35300719457E+03 -0.26785070112E+03 -0.34309495822E+03  0.56042147341E+03  0.00000000000E+00 0.  1.
          4    1    6    6  502    0  0.14709246068E+03  0.17879524980E+03  0.29445012945E+03  0.37457283947E+03  0.00000000000E+00 0. -1.
          1    1    5    5  503    0 -0.45909856780E+02 -0.12930474165E+03 -0.84935265394E+02  0.16137357426E+03  0.00000000000E+00 0. -1.
         -2    1    5    5    0  503 -0.26458852027E+02 -0.73148958959E+01  0.77073134392E+01  0.28512825764E+02  0.00000000000E+00 0.  1.
         -3    1    6    6    0  502  0.41198997798E+03  0.30500733499E+03  0.59053018391E+03  0.78197897315E+03  0.00000000000E+00 0.  1.
<mgrwt>
<rscale>  0 0.20348082E+04</rscale>
<asrwt>0</asrwt>
<pdfrwt beam="1">  1        2 0.19052784E+00 0.20348082E+04</pdfrwt>
<pdfrwt beam="2">  1       -2 0.12858840E+00 0.20348082E+04</pdfrwt>
<totfact> 0.74335708E+00</totfact>
</mgrwt>
</event>
<event>
12    1  0.1599266E-007  0.3941157E+04  0.7818608E-02  0.8016523E-01
         -2   -1    0    0    0  501 -0.00000000000E+00  0.00000000000E+00  0.85637471970E+03  0.85637471970E+03  0.00000000000E+00 0.  1.
          2   -1    0    0  501    0  0.00000000000E+00 -0.00000000000E+00 -0.45344389454E+04  0.45344389454E+04  0.00000000000E+00 0. -1.
         23    2    1    2    0    0  0.65396681023E+03  0.14379741615E+04 -0.30862041846E+04  0.34681854319E+04  0.90618115842E+02 0.  0.
        254    2    1    2    0    0 -0.65396681023E+03 -0.14379741615E+04 -0.59186004109E+03  0.19226282332E+04  0.92236583673E+03 0.  0.
        -24    2    4    4    0    0 -0.52901285553E+03 -0.14622063731E+04 -0.72837349609E+03  0.17191411612E+04  0.83763378415E+02 0.  0.
         24    2    4    4    0    0 -0.12495395470E+03  0.24232211555E+02  0.13651345500E+03  0.20348707199E+03  0.81057844769E+02 0.  0.
         11    1    3    3    0    0  0.48645464039E+03  0.11532845669E+04 -0.24141212456E+04  0.27193169727E+04  0.00000000000E+00 0. -1.
        -11    1    3    3    0    0  0.16751216984E+03  0.28468959460E+03 -0.67208293903E+03  0.74886845925E+03  0.00000000000E+00 0.  1.
          4    1    6    6  502    0 -0.40604441561E+02 -0.84861265658E+01  0.95563539619E+02  0.10417833327E+03  0.00000000000E+00 0. -1.
          3    1    5    5  503    0 -0.40131129231E+03 -0.10132803002E+04 -0.53212824771E+03  0.12128265301E+04  0.00000000000E+00 0. -1.
         -4    1    5    5    0  503 -0.12770156321E+03 -0.44892607288E+03 -0.19624524838E+03  0.50631463110E+03  0.00000000000E+00 0.  1.
         -3    1    6    6    0  502 -0.84349513143E+02  0.32718338120E+02  0.40949915386E+02  0.99308738723E+02  0.00000000000E+00 0.  1.
<mgrwt>
<rscale>  0 0.39411566E+04</rscale>
<asrwt>0</asrwt>
<pdfrwt beam="1">  1        2 0.69760598E+00 0.39411566E+04</pdfrwt>
<pdfrwt beam="2">  1       -2 0.13174996E+00 0.39411566E+04</pdfrwt>
<totfact> 0.37597968E-02</totfact>
</mgrwt>
</event>
<event>
12    1  0.1599266E-007  0.1546474E+04  0.7818608E-02  0.8854123E-01
         -1   -1    0    0    0  501 -0.00000000000E+00  0.00000000000E+00  0.70711444769E+03  0.70711444769E+03  0.00000000000E+00 0.  1.
          1   -1    0    0  501    0  0.00000000000E+00 -0.00000000000E+00 -0.84554309732E+03  0.84554309732E+03  0.00000000000E+00 0. -1.
         23    2    1    2    0    0  0.31482206823E+03 -0.30793355811E+03 -0.28926236455E+03  0.53460454237E+03  0.90516795824E+02 0.  0.
        254    2    1    2    0    0 -0.31482206823E+03  0.30793355811E+03  0.15083371492E+03  0.10180530026E+04  0.90539775556E+03 0.  0.
        -24    2    4    4    0    0  0.60256755042E+02  0.46581573601E+03 -0.15680287602E+03  0.50152575185E+03  0.79534655317E+02 0.  0.
         24    2    4    4    0    0 -0.37507882327E+03 -0.15788217790E+03  0.30763659094E+03  0.51652725079E+03  0.80927269520E+02 0.  0.
         13    1    3    3    0    0  0.11750874184E+03 -0.16040854097E+03 -0.16649363208E+03  0.25934404553E+03  0.00000000000E+00 0. -1.
        -13    1    3    3    0    0  0.19731332639E+03 -0.14752501713E+03 -0.12276873247E+03  0.27526049685E+03  0.00000000000E+00 0.  1.
          2    1    6    6  502    0 -0.36227347261E+03 -0.14244397981E+03  0.30812913624E+03  0.49646341350E+03  0.00000000000E+00 0. -1.
          1    1    5    5  503    0  0.61856887271E+02  0.38454708453E+03 -0.15778181891E+03  0.42023545436E+03  0.00000000000E+00 0. -1.
         -2    1    5    5    0  503 -0.16001322287E+01  0.81268651485E+02  0.97894288705E+00  0.81290297493E+02  0.00000000000E+00 0.  1.
         -1    1    6    6    0  502 -0.12805350666E+02 -0.15438198095E+02 -0.49254529552E+00  0.20063837294E+02  0.00000000000E+00 0.  1.
<mgrwt>
<rscale>  0 0.15464744E+04</rscale>
<asrwt>0</asrwt>
<pdfrwt beam="1">  1        1 0.13008355E+00 0.15464744E+04</pdfrwt>
<pdfrwt beam="2">  1       -1 0.10878684E+00 0.15464744E+04</pdfrwt>
<totfact> 0.15258320E+01</totfact>
</mgrwt>
</event>
<event>
12    1  0.1599266E-007  0.4016745E+04  0.7818608E-02  0.8001177E-01
          2   -1    0    0  501    0  0.00000000000E+00  0.00000000000E+00  0.30025377040E+04  0.30025377040E+04  0.00000000000E+00 0.  1.
         -2   -1    0    0    0  501 -0.00000000000E+00 -0.00000000000E+00 -0.13433838140E+04  0.13433838140E+04  0.00000000000E+00 0. -1.
         23    2    1    2    0    0  0.42722220884E+02 -0.11905950455E+04  0.23950126323E+04  0.26765306507E+04  0.91591838842E+02 0.  0.
        254    2    1    2    0    0 -0.42722220884E+02  0.11905950455E+04 -0.73585874221E+03  0.16693908672E+04  0.90886524226E+03 0.  0.
        -24    2    4    4    0    0 -0.40467453400E+03  0.56317610359E+03 -0.61577521113E+03  0.93075775371E+03  0.78753306778E+02 0.  0.
         24    2    4    4    0    0  0.36195231312E+03  0.62741894193E+03 -0.12008353107E+03  0.73863311353E+03  0.80590423152E+02 0.  0.
         11    1    3    3    0    0  0.43274122434E+02 -0.11918194063E+04  0.23863597559E+04  0.26677741717E+04  0.00000000000E+00 0.  1.
        -11    1    3    3    0    0 -0.55190154970E+00  0.12243607538E+01  0.86528763893E+01  0.87564789947E+01  0.00000000000E+00 0. -1.
          4    1    6    6  502    0  0.15397066691E+03  0.19083264517E+03 -0.38618814434E+02  0.24822465140E+03  0.00000000000E+00 0. -1.
          3    1    5    5  503    0 -0.12101377273E+01  0.96279603335E+01 -0.22755757224E+02  0.24738361715E+02  0.00000000000E+00 0. -1.
         -4    1    5    5    0  503 -0.40346439627E+03  0.55354814325E+03 -0.59301945391E+03  0.90601939200E+03  0.00000000000E+00 0.  1.
         -3    1    6    6    0  502  0.20798164621E+03  0.43658629676E+03 -0.81464716641E+02  0.49040846214E+03  0.00000000000E+00 0.  1.
<mgrwt>
<rscale>  0 0.40167452E+04</rscale>
<asrwt>0</asrwt>
<pdfrwt beam="1">  1        2 0.46192888E+00 0.40167452E+04</pdfrwt>
<pdfrwt beam="2">  1       -2 0.20667443E+00 0.40167452E+04</pdfrwt>
<totfact> 0.16433097E-01</totfact>
</mgrwt>
</event>
<event>
12    1  0.1599266E-007  0.1638355E+04  0.7818608E-02  0.8797325E-01
          2   -1    0    0  501    0  0.00000000000E+00  0.00000000000E+00  0.83049898136E+03  0.83049898136E+03  0.00000000000E+00 0. -1.
         -2   -1    0    0    0  501 -0.00000000000E+00 -0.00000000000E+00 -0.80801071345E+03  0.80801071345E+03  0.00000000000E+00 0.  1.
         23    2    1    2    0    0 -0.31019814733E+03  0.43984275602E+03  0.17365814877E+03  0.57287560343E+03  0.91349678378E+02 0.  0.
        254    2    1    2    0    0  0.31019814733E+03 -0.43984275602E+03 -0.15116988086E+03  0.10656340914E+04  0.90721504795E+03 0.  0.
        -24    2    4    4    0    0  0.60948056673E+03 -0.29727846330E+03  0.22462034699E+02  0.68312057637E+03  0.79423755263E+02 0.  0.
         24    2    4    4    0    0 -0.29928241940E+03 -0.14256429272E+03 -0.17363191556E+03  0.38251351502E+03  0.79208604004E+02 0.  0.
         13    1    3    3    0    0 -0.21972647690E+03  0.31739757859E+03  0.16666011221E+03  0.42047180708E+03  0.00000000000E+00 0.  1.
        -13    1    3    3    0    0 -0.90471670432E+02  0.12244517743E+03  0.69980365582E+01  0.15240379635E+03  0.00000000000E+00 0. -1.
          2    1    6    6  502    0 -0.15671369563E+03 -0.88937902595E+02 -0.51876185011E+02  0.18751072366E+03  0.00000000000E+00 0. -1.
          1    1    5    5  503    0  0.23903783984E+03 -0.15297316892E+03 -0.12180413872E+02  0.28405675800E+03  0.00000000000E+00 0. -1.
         -2    1    5    5    0  503  0.37044272688E+03 -0.14430529439E+03  0.34642448571E+02  0.39906381837E+03  0.00000000000E+00 0.  1.
         -3    1    6    6    0  502 -0.14256872376E+03 -0.53626390126E+02 -0.12175573055E+03  0.19500279135E+03  0.00000000000E+00 0.  1.
<mgrwt>
<rscale>  0 0.16383554E+04</rscale>
<asrwt>0</asrwt>
<pdfrwt beam="1">  1        2 0.12776907E+00 0.16383554E+04</pdfrwt>
<pdfrwt beam="2">  1       -2 0.12430934E+00 0.16383554E+04</pdfrwt>
<totfact> 0.15226202E+01</totfact>
</mgrwt>
</event>
<event>
12    1  0.1599266E-007  0.1608085E+04  0.7818608E-02  0.8815596E-01
         -1   -1    0    0    0  501 -0.00000000000E+00  0.00000000000E+00  0.65928939312E+03  0.65928939312E+03  0.00000000000E+00 0.  1.
          1   -1    0    0  501    0  0.00000000000E+00 -0.00000000000E+00 -0.98057739905E+03  0.98057739905E+03  0.00000000000E+00 0. -1.
         23    2    1    2    0    0  0.27368744163E+03 -0.43085283908E+03  0.13680621306E+03  0.53631006302E+03  0.91507153379E+02 0.  0.
        254    2    1    2    0    0 -0.27368744163E+03  0.43085283908E+03 -0.45809421899E+03  0.11035567292E+04  0.86455084081E+03 0.  0.
        -24    2    4    4    0    0 -0.17922752864E+03  0.37323197049E+03  0.17420893592E+03  0.45629590304E+03  0.80203409919E+02 0.  0.
         24    2    4    4    0    0 -0.94459912991E+02  0.57620868586E+02 -0.63230315491E+03  0.64726082611E+03  0.83044913470E+02 0.  0.
         11    1    3    3    0    0  0.41452804309E+02 -0.35244886794E+02  0.39842302548E+02  0.67438461596E+02  0.00000000000E+00 0. -1.
        -11    1    3    3    0    0  0.23223463732E+03 -0.39560795228E+03  0.96963910516E+02  0.46887160142E+03  0.00000000000E+00 0.  1.
          2    1    6    6  502    0 -0.15355874501E+02 -0.12738658065E+02 -0.32121430583E+02  0.37813523952E+02  0.00000000000E+00 0. -1.
          3    1    5    5  503    0 -0.74081595885E+02  0.19324232978E+03  0.47438120138E+02  0.21232299949E+03  0.00000000000E+00 0. -1.
         -4    1    5    5    0  503 -0.10514593275E+03  0.17998964071E+03  0.12677081578E+03  0.24397290356E+03  0.00000000000E+00 0.  1.
         -3    1    6    6    0  502 -0.79104038489E+02  0.70359526651E+02 -0.60018172432E+03  0.60944730216E+03  0.00000000000E+00 0.  1.
<mgrwt>
<rscale>  0 0.16080849E+04</rscale>
<asrwt>0</asrwt>
<pdfrwt beam="1">  1        1 0.15085806E+00 0.16080849E+04</pdfrwt>
<pdfrwt beam="2">  1       -1 0.10142914E+00 0.16080849E+04</pdfrwt>
<totfact> 0.13867082E+01</totfact>
</mgrwt>
</event>
<event>
12    1  0.2649018E-007  0.1575137E+04  0.7818608E-02  0.8835969E-01
          2   -1    0    0  501    0  0.00000000000E+00  0.00000000000E+00  0.12382756372E+04  0.12382756372E+04  0.00000000000E+00 0. -1.
         -2   -1    0    0    0  501 -0.00000000000E+00 -0.00000000000E+00 -0.50090973157E+03  0.50090973157E+03  0.00000000000E+00 0.  1.
         23    2    1    2    0    0  0.37277425113E+03 -0.29270898704E+03  0.52824818380E+03  0.71545015265E+03  0.90463162918E+02 0.  0.
        254    2    1    2    0    0 -0.37277425113E+03  0.29270898704E+03  0.20911772186E+03  0.10237352162E+04  0.88298605753E+03 0.  0.
        -24    2    4    4    0    0  0.90518479292E+02  0.32374972272E+02  0.42617496061E+03  0.44380579283E+03  0.78081692993E+02 0.  0.
         24    2    4    4    0    0 -0.46329273042E+03  0.26033401477E+03 -0.21705723875E+03  0.57992942332E+03  0.82403506152E+02 0.  0.
         13    1    3    3    0    0  0.37030977618E+03 -0.26940873055E+03  0.49069401415E+03  0.67118627068E+03  0.00000000000E+00 0. -1.
        -13    1    3    3    0    0  0.24644749561E+01 -0.23300256488E+02  0.37554169652E+02  0.44263881974E+02  0.00000000000E+00 0.  1.
          2    1    6    6  502    0 -0.46491740868E+03  0.26242511834E+03 -0.21857219596E+03  0.57687862196E+03  0.00000000000E+00 0. -1.
          1    1    5    5  503    0  0.86267754491E+02  0.39863591905E+02  0.42453307892E+03  0.43503972982E+03  0.00000000000E+00 0. -1.
         -2    1    5    5    0  503  0.42507248002E+01 -0.74886196329E+01  0.16418816915E+01  0.87660630172E+01  0.00000000000E+00 0.  1.
         -1    1    6    6    0  502  0.16246782532E+01 -0.20911035731E+01  0.15149572089E+01  0.30508013578E+01  0.00000000000E+00 0.  1.
<mgrwt>
<rscale>  0 0.15751372E+04</rscale>
<asrwt>0</asrwt>
<pdfrwt beam="1">  1        2 0.19050394E+00 0.15751372E+04</pdfrwt>
<pdfrwt beam="2">  1       -2 0.77063036E-01 0.15751372E+04</pdfrwt>
<totfact> 0.25958417E+01</totfact>
</mgrwt>
</event>
<event>
12    1  0.1599266E-007  0.2072526E+04  0.7818608E-02  0.8573444E-01
          2   -1    0    0  501    0  0.00000000000E+00  0.00000000000E+00  0.10417790091E+04  0.10417790091E+04  0.00000000000E+00 0. -1.
         -2   -1    0    0    0  501 -0.00000000000E+00 -0.00000000000E+00 -0.10307757660E+04  0.10307757660E+04  0.00000000000E+00 0.  1.
         23    2    1    2    0    0 -0.46275749025E+03  0.28430607482E+03  0.63870208384E+03  0.84330396787E+03  0.90811845941E+02 0.  0.
        254    2    1    2    0    0  0.46275749025E+03 -0.28430607482E+03 -0.62769884077E+03  0.12292508072E+04  0.90668477068E+03 0.  0.
        -24    2    4    4    0    0  0.50569874000E+03 -0.59399866029E+02  0.42138727886E+02  0.51702018551E+03  0.79212626021E+02 0.  0.
         24    2    4    4    0    0 -0.42941249750E+02 -0.22490620879E+03 -0.66983756866E+03  0.71223062171E+03  0.78506919642E+02 0.  0.
         13    1    3    3    0    0 -0.41056461690E+03  0.27401455174E+03  0.54309650283E+03  0.73389446829E+03  0.00000000000E+00 0. -1.
        -13    1    3    3    0    0 -0.52192873349E+02  0.10291523080E+02  0.95605581018E+02  0.10940949958E+03  0.00000000000E+00 0.  1.
          4    1    6    6  502    0 -0.81076418885E+01  0.37719600240E+01 -0.46614444578E+02  0.47464386468E+02  0.00000000000E+00 0. -1.
          1    1    5    5  503    0  0.19187690401E+03 -0.17381421055E+02  0.54287377863E+02  0.20016488075E+03  0.00000000000E+00 0. -1.
         -2    1    5    5    0  503  0.31382183598E+03 -0.42018444973E+02 -0.12148649978E+02  0.31685530476E+03  0.00000000000E+00 0.  1.
         -3    1    6    6    0  502 -0.34833607862E+02 -0.22867816882E+03 -0.62322312408E+03  0.66476623524E+03  0.00000000000E+00 0.  1.
<mgrwt>
<rscale>  0 0.20725256E+04</rscale>
<asrwt>0</asrwt>
<pdfrwt beam="1">  1        2 0.16027369E+00 0.20725256E+04</pdfrwt>
<pdfrwt beam="2">  1       -2 0.15858089E+00 0.20725256E+04</pdfrwt>
<totfact> 0.56461321E+00</totfact>
</mgrwt>
</event>
<event>
12    1  0.1599266E-007  0.1582775E+04  0.7818608E-02  0.8831201E-01
         -2   -1    0    0    0  501 -0.00000000000E+00  0.00000000000E+00  0.47029362898E+03  0.47029362898E+03  0.00000000000E+00 0.  1.
          2   -1    0    0  501    0  0.00000000000E+00 -0.00000000000E+00 -0.13317081551E+04  0.13317081551E+04  0.00000000000E+00 0. -1.
         23    2    1    2    0    0 -0.70158197225E+02 -0.44565174577E+01  0.25576682093E+03  0.27857768417E+03  0.85128292867E+02 0.  0.
        254    2    1    2    0    0  0.70158197225E+02  0.44565174577E+01 -0.11171813471E+04  0.15234241000E+04  0.10333367277E+04 0.  0.
        -24    2    4    4    0    0  0.43725941513E+03 -0.30751516010E+03 -0.67441851198E+03  0.86413990685E+03  0.78333131530E+02 0.  0.
         24    2    4    4    0    0 -0.36710121791E+03  0.31197167755E+03 -0.44276283512E+03  0.65928419310E+03  0.80790391312E+02 0.  0.
         13    1    3    3    0    0  0.84421095607E+01  0.24896946140E+02  0.53927500811E+02  0.59994187091E+02  0.00000000000E+00 0. -1.
        -13    1    3    3    0    0 -0.78600306785E+02 -0.29353463598E+02  0.20183932012E+03  0.21858349708E+03  0.00000000000E+00 0.  1.
          2    1    6    6  502    0 -0.14886140042E+03  0.17688999865E+03 -0.22655908259E+03  0.32369554532E+03  0.00000000000E+00 0. -1.
          3    1    5    5  503    0  0.43517524521E+03 -0.31068873681E+03 -0.66098453860E+03  0.85017971365E+03  0.00000000000E+00 0. -1.
         -4    1    5    5    0  503  0.20841699176E+01  0.31735767171E+01 -0.13433973377E+02  0.13960193198E+02  0.00000000000E+00 0.  1.
         -1    1    6    6    0  502 -0.21823981748E+03  0.13508167890E+03 -0.21620375253E+03  0.33558864778E+03  0.00000000000E+00 0.  1.
<mgrwt>
<rscale>  0 0.15827746E+04</rscale>
<asrwt>0</asrwt>
<pdfrwt beam="1">  1        2 0.20487818E+00 0.15827746E+04</pdfrwt>
<pdfrwt beam="2">  1       -2 0.72352866E-01 0.15827746E+04</pdfrwt>
<totfact> 0.26301263E+01</totfact>
</mgrwt>
</event>
<event>
12    1  0.1599266E-007  0.1959630E+04  0.7818608E-02  0.8625731E-01
         -2   -1    0    0    0  501 -0.00000000000E+00  0.00000000000E+00  0.33255752548E+03  0.33255752548E+03  0.00000000000E+00 0.  1.
          2   -1    0    0  501    0  0.00000000000E+00 -0.00000000000E+00 -0.28868314672E+04  0.28868314672E+04  0.00000000000E+00 0. -1.
         23    2    1    2    0    0 -0.17874084083E+03 -0.19738146809E+03  0.17690743869E+03  0.33166471528E+03  0.88303507152E+02 0.  0.
        254    2    1    2    0    0  0.17874084083E+03  0.19738146809E+03 -0.27311813804E+04  0.28877242774E+04  0.89927306055E+03 0.  0.
        -24    2    4    4    0    0 -0.21877210375E+02 -0.20704631034E+03 -0.20768286522E+04  0.20887025688E+04  0.78194523844E+02 0.  0.
         24    2    4    4    0    0  0.20061805121E+03  0.40442777842E+03 -0.65435272823E+03  0.79902170856E+03  0.80304217728E+02 0.  0.
         11    1    3    3    0    0 -0.25012862413E+01 -0.46582162741E+02  0.15797701054E+02  0.49251615984E+02  0.00000000000E+00 0. -1.
        -11    1    3    3    0    0 -0.17623955459E+03 -0.15079930535E+03  0.16110973763E+03  0.28241309930E+03  0.00000000000E+00 0.  1.
          4    1    6    6  502    0  0.17108963734E+03  0.31230764494E+03 -0.45814346641E+03  0.58026129020E+03  0.00000000000E+00 0. -1.
          1    1    5    5  503    0  0.21495008236E+01 -0.17668718251E+03 -0.18660712046E+04  0.18744185022E+04  0.00000000000E+00 0. -1.
         -2    1    5    5    0  503 -0.24026711199E+02 -0.30359127831E+02 -0.21075744764E+03  0.21428406667E+03  0.00000000000E+00 0.  1.
         -3    1    6    6    0  502  0.29528413871E+02  0.92120133482E+02 -0.19620926182E+03  0.21876041836E+03  0.00000000000E+00 0.  1.
<mgrwt>
<rscale>  0 0.19596301E+04</rscale>
<asrwt>0</asrwt>
<pdfrwt beam="1">  1        2 0.44412792E+00 0.19596301E+04</pdfrwt>
<pdfrwt beam="2">  1       -2 0.51162695E-01 0.19596301E+04</pdfrwt>
<totfact> 0.69023749E+00</totfact>
</mgrwt>
</event>
<event>
12    1  0.1599266E-007  0.2185315E+04  0.7818608E-02  0.8524565E-01
          2   -1    0    0  501    0  0.00000000000E+00  0.00000000000E+00  0.20497165574E+04  0.20497165574E+04  0.00000000000E+00 0. -1.
         -2   -1    0    0    0  501 -0.00000000000E+00 -0.00000000000E+00 -0.58247109899E+03  0.58247109899E+03  0.00000000000E+00 0.  1.
         23    2    1    2    0    0 -0.90919392805E+02  0.13979225127E+03  0.16735160540E+04  0.16842590654E+04  0.90908785086E+02 0.  0.
        254    2    1    2    0    0  0.90919392805E+02 -0.13979225127E+03 -0.20627059552E+03  0.94792859096E+03  0.91006200090E+03 0.  0.
        -24    2    4    4    0    0  0.42876940581E+03 -0.81060983252E+02  0.12953451632E+03  0.46153355659E+03  0.76288574363E+02 0.  0.
         24    2    4    4    0    0 -0.33785001300E+03 -0.58731268021E+02 -0.33580511185E+03  0.48639503437E+03  0.78886394139E+02 0.  0.
         13    1    3    3    0    0 -0.19526888496E+02 -0.84867060698E+01  0.33279877182E+03  0.33347915389E+03  0.00000000000E+00 0.  1.
        -13    1    3    3    0    0 -0.71392504310E+02  0.14827895734E+03  0.13407172821E+04  0.13507799116E+04  0.00000000000E+00 0. -1.
          4    1    6    6  502    0 -0.15085281961E+03 -0.49868180299E+02 -0.19838319930E+03  0.25416392812E+03  0.00000000000E+00 0. -1.
          3    1    5    5  503    0  0.22166252086E+03 -0.56603921307E+01  0.79191032090E+02  0.23545176312E+03  0.00000000000E+00 0. -1.
         -4    1    5    5    0  503  0.20710688495E+03 -0.75400591122E+02  0.50343484234E+02  0.22608179347E+03  0.00000000000E+00 0.  1.
         -3    1    6    6    0  502 -0.18699719339E+03 -0.88630877223E+01 -0.13742191255E+03  0.23223110625E+03  0.00000000000E+00 0.  1.
<mgrwt>
<rscale>  0 0.21853152E+04</rscale>
<asrwt>0</asrwt>
<pdfrwt beam="1">  1        2 0.31534101E+00 0.21853152E+04</pdfrwt>
<pdfrwt beam="2">  1       -2 0.89610939E-01 0.21853152E+04</pdfrwt>
<totfact> 0.61226437E+00</totfact>
</mgrwt>
</event>
<event>
12    1  0.1599266E-007  0.3234020E+04  0.7818608E-02  0.8179890E-01
          2   -1    0    0  501    0  0.00000000000E+00  0.00000000000E+00  0.19240536025E+04  0.19240536025E+04  0.00000000000E+00 0. -1.
         -2   -1    0    0    0  501 -0.00000000000E+00 -0.00000000000E+00 -0.13589650333E+04  0.13589650333E+04  0.00000000000E+00 0.  1.
         23    2    1    2    0    0  0.92112807275E+02 -0.94584577845E+03  0.14265342098E+04  0.17165557016E+04  0.91949002514E+02 0.  0.
        254    2    1    2    0    0 -0.92112807275E+02  0.94584577845E+03 -0.86144564063E+03  0.15664629342E+04  0.89922662697E+03 0.  0.
        -24    2    4    4    0    0  0.60875142273E+02  0.59804866579E+01 -0.55353857473E+03  0.56249286645E+03  0.79067831182E+02 0.  0.
         24    2    4    4    0    0 -0.15298794955E+03  0.93986529180E+03 -0.30790706590E+03  0.10039700678E+04  0.79981599949E+02 0.  0.
         13    1    3    3    0    0  0.32957477873E+02 -0.69649623671E+03  0.10039579980E+04  0.12223440043E+04  0.00000000000E+00 0. -1.
        -13    1    3    3    0    0  0.59155329401E+02 -0.24934954175E+03  0.42257621178E+03  0.49421169728E+03  0.00000000000E+00 0.  1.
          2    1    6    6  502    0 -0.56839239818E+02  0.17877397419E+03 -0.77553540155E+02  0.20299109494E+03  0.00000000000E+00 0. -1.
          3    1    5    5  503    0 -0.26767727795E+01  0.49705886760E+01 -0.34091433129E+00  0.56558011705E+01  0.00000000000E+00 0. -1.
         -4    1    5    5    0  503  0.63551915053E+02  0.10098979819E+01 -0.55319766039E+03  0.55683706528E+03  0.00000000000E+00 0.  1.
         -1    1    6    6    0  502 -0.96148709730E+02  0.76109131760E+03 -0.23035352575E+03  0.80097897284E+03  0.00000000000E+00 0.  1.
<mgrwt>
<rscale>  0 0.32340201E+04</rscale>
<asrwt>0</asrwt>
<pdfrwt beam="1">  1        2 0.29600825E+00 0.32340201E+04</pdfrwt>
<pdfrwt beam="2">  1       -2 0.20907154E+00 0.32340201E+04</pdfrwt>
<totfact> 0.71790382E-01</totfact>
</mgrwt>
</event>
<event>
12    1  0.1599266E-007  0.1101407E+04  0.7818608E-02  0.9203822E-01
         -1   -1    0    0    0  501 -0.00000000000E+00  0.00000000000E+00  0.30780979012E+03  0.30780979012E+03  0.00000000000E+00 0.  1.
          1   -1    0    0  501    0  0.00000000000E+00 -0.00000000000E+00 -0.98526501557E+03  0.98526501557E+03  0.00000000000E+00 0. -1.
         23    2    1    2    0    0  0.14504905712E+03 -0.60426376507E+02 -0.83918169844E+02  0.20575976221E+03  0.10297691277E+03 0.  0.
        254    2    1    2    0    0 -0.14504905712E+03  0.60426376507E+02 -0.59353705560E+03  0.10873150435E+04  0.89737238172E+03 0.  0.
        -24    2    4    4    0    0  0.74429267509E+02  0.44704361090E+03 -0.28613839739E+03  0.54088112445E+03  0.72728965461E+02 0.  0.
         24    2    4    4    0    0 -0.21947832463E+03 -0.38661723440E+03 -0.30739865821E+03  0.54643391903E+03  0.80327279834E+02 0.  0.
         13    1    3    3    0    0  0.87340010805E+02 -0.58660106921E+02 -0.10069838617E+03  0.14563464770E+03  0.00000000000E+00 0. -1.
        -13    1    3    3    0    0  0.57709046315E+02 -0.17662695861E+01  0.16780216330E+02  0.60125114511E+02  0.00000000000E+00 0.  1.
          2    1    6    6  502    0 -0.52541119866E+02 -0.72057010308E+02 -0.26989617993E+02  0.93173072777E+02  0.00000000000E+00 0. -1.
          3    1    5    5  503    0  0.18758157123E+02  0.78792262689E+02 -0.85766318669E+02  0.11796588717E+03  0.00000000000E+00 0. -1.
         -4    1    5    5    0  503  0.55671110385E+02  0.36825134821E+03 -0.20037207872E+03  0.42291523728E+03  0.00000000000E+00 0.  1.
         -1    1    6    6    0  502 -0.16693720476E+03 -0.31456022409E+03 -0.28040904022E+03  0.45326084626E+03  0.00000000000E+00 0.  1.
<mgrwt>
<rscale>  0 0.11014068E+04</rscale>
<asrwt>0</asrwt>
<pdfrwt beam="1">  1        1 0.15157923E+00 0.11014068E+04</pdfrwt>
<pdfrwt beam="2">  1       -1 0.47355353E-01 0.11014068E+04</pdfrwt>
<totfact> 0.68866403E+01</totfact>
</mgrwt>
</event>
<event>
12    1  0.1879022E-007  0.1384341E+04  0.7818608E-02  0.8965232E-01
          1   -1    0    0  501    0  0.00000000000E+00  0.00000000000E+00  0.96368365876E+03  0.96368365876E+03  0.00000000000E+00 0. -1.
         -1   -1    0    0    0  501 -0.00000000000E+00 -0.00000000000E+00 -0.49715473771E+03  0.49715473771E+03  0.00000000000E+00 0.  1.
         23    2    1    2    0    0  0.31835681420E+03 -0.86568827625E+01 -0.14103339082E+03  0.35947164610E+03  0.88901317515E+02 0.  0.
        254    2    1    2    0    0 -0.31835681420E+03  0.86568827625E+01  0.60756231186E+03  0.11013667504E+04  0.86165582066E+03 0.  0.
        -24    2    4    4    0    0 -0.18383022905E+03  0.42165488853E+03  0.23381226971E+03  0.52228941380E+03  0.80818662255E+02 0.  0.
         24    2    4    4    0    0 -0.13452658515E+03 -0.41299800577E+03  0.37375004216E+03  0.57907733658E+03  0.83526719345E+02 0.  0.
         13    1    3    3    0    0  0.29403141776E+03  0.84577902022E+01 -0.10405308561E+03  0.31201450843E+03  0.00000000000E+00 0.  1.
        -13    1    3    3    0    0  0.24325396439E+02 -0.17114672965E+02 -0.36980305202E+02  0.47457137666E+02  0.00000000000E+00 0. -1.
          4    1    6    6  502    0 -0.66398179015E+01 -0.38219581676E+01 -0.31262767460E+01  0.82745484646E+01  0.00000000000E+00 0. -1.
          3    1    5    5  503    0 -0.92374007306E+00 -0.35581639450E+01 -0.64292191671E-01  0.36766778303E+01  0.00000000000E+00 0. -1.
         -4    1    5    5    0  503 -0.18290648898E+03  0.42521305248E+03  0.23387656190E+03  0.51861273597E+03  0.00000000000E+00 0.  1.
         -3    1    6    6    0  502 -0.12788676724E+03 -0.40917604760E+03  0.37687631890E+03  0.57080278811E+03  0.00000000000E+00 0.  1.
<mgrwt>
<rscale>  0 0.13843408E+04</rscale>
<asrwt>0</asrwt>
<pdfrwt beam="1">  1        1 0.14825902E+00 0.13843408E+04</pdfrwt>
<pdfrwt beam="2">  1       -1 0.76485344E-01 0.13843408E+04</pdfrwt>
<totfact> 0.27079800E+01</totfact>
</mgrwt>
</event>
<event>
12    1  0.1599266E-007  0.1376767E+04  0.7818608E-02  0.8970809E-01
         -2   -1    0    0    0  501 -0.00000000000E+00  0.00000000000E+00  0.26743689109E+03  0.26743689109E+03  0.00000000000E+00 0.  1.
          2   -1    0    0  501    0  0.00000000000E+00 -0.00000000000E+00 -0.17719021493E+04  0.17719021493E+04  0.00000000000E+00 0. -1.
         23    2    1    2    0    0 -0.19191865818E+03 -0.32660454792E+03 -0.32056129204E+03  0.50371965554E+03  0.86432906573E+02 0.  0.
        254    2    1    2    0    0  0.19191865818E+03  0.32660454792E+03 -0.11839039662E+04  0.15356193849E+04  0.90166234921E+03 0.  0.
        -24    2    4    4    0    0  0.49324677718E+03  0.40711816965E+03 -0.67371538553E+03  0.93239223907E+03  0.80157841202E+02 0.  0.
         24    2    4    4    0    0 -0.30132811900E+03 -0.80513621729E+02 -0.51018858065E+03  0.60322714581E+03  0.79432506135E+02 0.  0.
         13    1    3    3    0    0 -0.12758156552E+03 -0.16989802269E+03 -0.22397823347E+03  0.30872097928E+03  0.00000000000E+00 0. -1.
        -13    1    3    3    0    0 -0.64337092659E+02 -0.15670652523E+03 -0.96583058568E+02  0.19499867626E+03  0.00000000000E+00 0.  1.
          4    1    6    6  502    0 -0.20539846754E+03 -0.15543670548E+02 -0.32436510288E+03  0.38424322522E+03  0.00000000000E+00 0. -1.
          3    1    5    5  503    0  0.34130773995E+03  0.24301821449E+03 -0.47308372092E+03  0.63194701749E+03  0.00000000000E+00 0. -1.
         -4    1    5    5    0  503  0.15193903724E+03  0.16409995516E+03 -0.20063166462E+03  0.30044522157E+03  0.00000000000E+00 0.  1.
         -3    1    6    6    0  502 -0.95929651466E+02 -0.64969951181E+02 -0.18582347777E+03  0.21898392059E+03  0.00000000000E+00 0.  1.
<mgrwt>
<rscale>  0 0.13767672E+04</rscale>
<asrwt>0</asrwt>
<pdfrwt beam="1">  1        2 0.27260033E+00 0.13767672E+04</pdfrwt>
<pdfrwt beam="2">  1       -2 0.41144137E-01 0.13767672E+04</pdfrwt>
<totfact> 0.48791975E+01</totfact>
</mgrwt>
</event>
<event>
12    1  0.1599266E-007  0.2268196E+04  0.7818608E-02  0.8490568E-01
          1   -1    0    0  501    0  0.00000000000E+00  0.00000000000E+00  0.87830090551E+03  0.87830090551E+03  0.00000000000E+00 0. -1.
         -1   -1    0    0    0  501 -0.00000000000E+00 -0.00000000000E+00 -0.14643930881E+04  0.14643930881E+04  0.00000000000E+00 0.  1.
         23    2    1    2    0    0 -0.81638126642E+03 -0.46117954828E+03 -0.41677826226E+03  0.10301303314E+04  0.91101217571E+02 0.  0.
        254    2    1    2    0    0  0.81638126642E+03  0.46117954828E+03 -0.16931392034E+03  0.13125636622E+04  0.90276863916E+03 0.  0.
        -24    2    4    4    0    0  0.37247144275E+03  0.62180092998E+03  0.13964995408E+03  0.74257268082E+03  0.80874621663E+02 0.  0.
         24    2    4    4    0    0  0.44390982367E+03 -0.16062138170E+03 -0.30896387441E+03  0.56999098140E+03  0.81091820655E+02 0.  0.
         13    1    3    3    0    0 -0.40188462176E+03 -0.23331738458E+03 -0.25600828648E+03  0.53055489245E+03  0.00000000000E+00 0.  1.
        -13    1    3    3    0    0 -0.41449664466E+03 -0.22786216370E+03 -0.16076997578E+03  0.49957543894E+03  0.00000000000E+00 0. -1.
          4    1    6    6  502    0  0.12437685193E+03 -0.84948200068E+02 -0.96916278426E+02  0.17910489389E+03  0.00000000000E+00 0. -1.
          1    1    5    5  503    0  0.38093952049E+02  0.27684569020E+02  0.15753993878E+02  0.49656549091E+02  0.00000000000E+00 0. -1.
         -2    1    5    5    0  503  0.33437749070E+03  0.59411636096E+03  0.12389596020E+03  0.69291613173E+03  0.00000000000E+00 0.  1.
         -3    1    6    6    0  502  0.31953297175E+03 -0.75673181633E+02 -0.21204759599E+03  0.39088608752E+03  0.00000000000E+00 0.  1.
<mgrwt>
<rscale>  0 0.22681956E+04</rscale>
<asrwt>0</asrwt>
<pdfrwt beam="1">  1        1 0.13512322E+00 0.22681956E+04</pdfrwt>
<pdfrwt beam="2">  1       -1 0.22529124E+00 0.22681956E+04</pdfrwt>
<totfact> 0.17434984E+00</totfact>
</mgrwt>
</event>
<event>
12    1  0.1599266E-007  0.1511721E+04  0.7818608E-02  0.8876696E-01
         -2   -1    0    0    0  501 -0.00000000000E+00  0.00000000000E+00  0.24518160808E+03  0.24518160808E+03  0.00000000000E+00 0.  1.
          2   -1    0    0  501    0  0.00000000000E+00 -0.00000000000E+00 -0.23302110133E+04  0.23302110133E+04  0.00000000000E+00 0. -1.
         23    2    1    2    0    0 -0.30209373563E+02  0.38945562188E+03 -0.11520354263E+04  0.12199401911E+04  0.92087777090E+02 0.  0.
        254    2    1    2    0    0  0.30209373563E+02 -0.38945562188E+03 -0.93299397883E+03  0.13554524302E+04  0.90232213671E+03 0.  0.
        -24    2    4    4    0    0 -0.34887829537E+03  0.68881883750E+02 -0.48385094620E+03  0.60582743467E+03  0.80339053793E+02 0.  0.
         24    2    4    4    0    0  0.37908766893E+03 -0.45833750563E+03 -0.44914303262E+03  0.74962499555E+03  0.80171319076E+02 0.  0.
         13    1    3    3    0    0  0.23101736939E+02  0.99723867575E+02 -0.38195110877E+03  0.39543038515E+03  0.00000000000E+00 0. -1.
        -13    1    3    3    0    0 -0.53311110502E+02  0.28973175430E+03 -0.77008431758E+03  0.82450980597E+03  0.00000000000E+00 0.  1.
          4    1    6    6  502    0  0.13072836374E+03 -0.16490613602E+03 -0.11243843875E+03  0.23859241667E+03  0.00000000000E+00 0. -1.
          1    1    5    5  503    0 -0.17741047793E+03  0.49176534391E+02 -0.31199746388E+03  0.36226402897E+03  0.00000000000E+00 0. -1.
         -4    1    5    5    0  503 -0.17146781744E+03  0.19705349359E+02 -0.17185348232E+03  0.24356340570E+03  0.00000000000E+00 0.  1.
         -3    1    6    6    0  502  0.24835930519E+03 -0.29343136960E+03 -0.33670459387E+03  0.51103257888E+03  0.00000000000E+00 0.  1.
<mgrwt>
<rscale>  0 0.15117207E+04</rscale>
<asrwt>0</asrwt>
<pdfrwt beam="1">  1        2 0.35849400E+00 0.15117207E+04</pdfrwt>
<pdfrwt beam="2">  1       -2 0.37720247E-01 0.15117207E+04</pdfrwt>
<totfact> 0.27943405E+01</totfact>
</mgrwt>
</event>
<event>
12    1  0.1599266E-007  0.2301526E+04  0.7818608E-02  0.8477320E-01
          2   -1    0    0  501    0  0.00000000000E+00  0.00000000000E+00  0.19677670503E+04  0.19677670503E+04  0.00000000000E+00 0. -1.
         -2   -1    0    0    0  501 -0.00000000000E+00 -0.00000000000E+00 -0.67297372195E+03  0.67297372195E+03  0.00000000000E+00 0.  1.
         23    2    1    2    0    0 -0.61536884617E+03  0.38859620952E+03 -0.20867036834E+03  0.76270195645E+03  0.92114715770E+02 0.  0.
        254    2    1    2    0    0  0.61536884617E+03 -0.38859620952E+03  0.15034636967E+04  0.18780388158E+04  0.85845260527E+03 0.  0.
        -24    2    4    4    0    0  0.17897851669E+03 -0.49571020687E+02  0.12475055976E+04  0.12638522228E+04  0.81003884483E+02 0.  0.
         24    2    4    4    0    0  0.43639032948E+03 -0.33902518883E+03  0.25595809902E+03  0.61418659302E+03  0.79599147366E+02 0.  0.
         13    1    3    3    0    0 -0.54980018813E+03  0.37517206716E+03 -0.20122583979E+03  0.69536045720E+03  0.00000000000E+00 0.  1.
        -13    1    3    3    0    0 -0.65568658042E+02  0.13424142356E+02 -0.74445285544E+01  0.67341499247E+02  0.00000000000E+00 0. -1.
          2    1    6    6  502    0  0.30001826917E+03 -0.25527057792E+03  0.21591877740E+03  0.44921592605E+03  0.00000000000E+00 0. -1.
          1    1    5    5  503    0  0.92789299373E+02 -0.51320657222E+02  0.48305227494E+03  0.49455349990E+03  0.00000000000E+00 0. -1.
         -2    1    5    5    0  503  0.86189217317E+02  0.17496365354E+01  0.76445332271E+03  0.76929872287E+03  0.00000000000E+00 0.  1.
         -1    1    6    6    0  502  0.13637206031E+03 -0.83754610916E+02  0.40039321622E+02  0.16497066697E+03  0.00000000000E+00 0.  1.
<mgrwt>
<rscale>  0 0.23015260E+04</rscale>
<asrwt>0</asrwt>
<pdfrwt beam="1">  1        2 0.30273339E+00 0.23015260E+04</pdfrwt>
<pdfrwt beam="2">  1       -2 0.10353442E+00 0.23015260E+04</pdfrwt>
<totfact> 0.47986543E+00</totfact>
</mgrwt>
</event>
<event>
12    1  0.1599266E-007  0.2434171E+04  0.7818608E-02  0.8426820E-01
         -2   -1    0    0    0  501 -0.00000000000E+00  0.00000000000E+00  0.41418248298E+03  0.41418248298E+03  0.00000000000E+00 0.  1.
          2   -1    0    0  501    0  0.00000000000E+00 -0.00000000000E+00 -0.35764348795E+04  0.35764348795E+04  0.00000000000E+00 0. -1.
         23    2    1    2    0    0 -0.72698514943E+03 -0.48144425061E+02 -0.26143023816E+04  0.27155233021E+04  0.93083665553E+02 0.  0.
        254    2    1    2    0    0  0.72698514943E+03  0.48144425061E+02 -0.54795001492E+03  0.12750940604E+04  0.89151015179E+03 0.  0.
        -24    2    4    4    0    0  0.75423806165E+03  0.16371392893E+03 -0.71529806722E+03  0.10552749173E+04  0.79224504088E+02 0.  0.
         24    2    4    4    0    0 -0.27252912218E+02 -0.11556950387E+03  0.16734805230E+03  0.21981914301E+03  0.78841953154E+02 0.  0.
         11    1    3    3    0    0 -0.62813363341E+03 -0.23985945645E+02 -0.23398299440E+04  0.24227941213E+04  0.00000000000E+00 0. -1.
        -11    1    3    3    0    0 -0.98851516023E+02 -0.24158479415E+02 -0.27447243755E+03  0.29272918085E+03  0.00000000000E+00 0.  1.
          4    1    6    6  502    0 -0.36128211857E+02 -0.11313612811E+03  0.11046355603E+03  0.16219503194E+03  0.00000000000E+00 0. -1.
          1    1    5    5  503    0  0.40215014939E+03  0.98680180335E+02 -0.33179540729E+03  0.53061352503E+03  0.00000000000E+00 0. -1.
         -2    1    5    5    0  503  0.35208791226E+03  0.65033748593E+02 -0.38350265993E+03  0.52466139232E+03  0.00000000000E+00 0.  1.
         -3    1    6    6    0  502  0.88752996385E+01 -0.24333757616E+01  0.56884496263E+02  0.57624111068E+02  0.00000000000E+00 0.  1.
<mgrwt>
<rscale>  0 0.24341706E+04</rscale>
<asrwt>0</asrwt>
<pdfrwt beam="1">  1        2 0.55022074E+00 0.24341706E+04</pdfrwt>
<pdfrwt beam="2">  1       -2 0.63720383E-01 0.24341706E+04</pdfrwt>
<totfact> 0.14694747E+00</totfact>
</mgrwt>
</event>
<event>
12    1  0.1599266E-007  0.1527682E+04  0.7818608E-02  0.8866251E-01
          2   -1    0    0  501    0  0.00000000000E+00  0.00000000000E+00  0.15273697404E+04  0.15273697404E+04  0.00000000000E+00 0. -1.
         -2   -1    0    0    0  501 -0.00000000000E+00 -0.00000000000E+00 -0.38199855624E+03  0.38199855624E+03  0.00000000000E+00 0.  1.
         23    2    1    2    0    0  0.46508921326E+03  0.87954331450E+02  0.18788853511E+03  0.51749474634E+03  0.91949824097E+02 0.  0.
        254    2    1    2    0    0 -0.46508921326E+03 -0.87954331450E+02  0.95748264909E+03  0.13918735503E+04  0.89246569465E+03 0.  0.
        -24    2    4    4    0    0 -0.43304737339E+03 -0.45274844671E+03  0.65688421565E+03  0.91124416478E+03  0.79736261982E+02 0.  0.
         24    2    4    4    0    0 -0.32041839872E+02  0.36479411526E+03  0.30059843344E+03  0.48062938556E+03  0.80893522956E+02 0.  0.
         11    1    3    3    0    0  0.26066376821E+03  0.31664952179E+02  0.14904796021E+03  0.30193304505E+03  0.00000000000E+00 0.  1.
        -11    1    3    3    0    0  0.20442544505E+03  0.56289379272E+02  0.38840574908E+02  0.21556170128E+03  0.00000000000E+00 0. -1.
          4    1    6    6  502    0 -0.51246132768E+02  0.33670674623E+03  0.26649069835E+03  0.43245218393E+03  0.00000000000E+00 0. -1.
          1    1    5    5  503    0 -0.33061110978E+03 -0.37258183601E+03  0.55700286911E+03  0.74724368624E+03  0.00000000000E+00 0. -1.
         -2    1    5    5    0  503 -0.10243626361E+03 -0.80166610697E+02  0.99881346546E+02  0.16400047854E+03  0.00000000000E+00 0.  1.
         -3    1    6    6    0  502  0.19204292896E+02  0.28087369026E+02  0.34107735087E+02  0.48177201633E+02  0.00000000000E+00 0.  1.
<mgrwt>
<rscale>  0 0.15276820E+04</rscale>
<asrwt>0</asrwt>
<pdfrwt beam="1">  1        2 0.23497996E+00 0.15276820E+04</pdfrwt>
<pdfrwt beam="2">  1       -2 0.58769009E-01 0.15276820E+04</pdfrwt>
<totfact> 0.31956113E+01</totfact>
</mgrwt>
</event>
<event>
12    1  0.1599266E-007  0.1810153E+04  0.7818608E-02  0.8700919E-01
         -2   -1    0    0    0  501 -0.00000000000E+00  0.00000000000E+00  0.81281200333E+03  0.81281200333E+03  0.00000000000E+00 0.  1.
          2   -1    0    0  501    0  0.00000000000E+00 -0.00000000000E+00 -0.10078145624E+04  0.10078145624E+04  0.00000000000E+00 0. -1.
         23    2    1    2    0    0 -0.74433131473E+02 -0.46516431765E+03  0.43640090875E+03  0.64854129943E+03  0.90785078306E+02 0.  0.
        254    2    1    2    0    0  0.74433131473E+02  0.46516431765E+03 -0.63140346782E+03  0.11720852663E+04  0.86786830731E+03 0.  0.
        -24    2    4    4    0    0 -0.11125313034E+03  0.53492980396E+03 -0.52588565286E+02  0.55498471679E+03  0.81947083531E+02 0.  0.
         24    2    4    4    0    0  0.18568626181E+03 -0.69765486311E+02 -0.57881490254E+03  0.61710054951E+03  0.80248276629E+02 0.  0.
         13    1    3    3    0    0 -0.45619882508E+01 -0.29457200232E+02  0.65990909987E+02  0.72410900997E+02  0.00000000000E+00 0. -1.
        -13    1    3    3    0    0 -0.69871143222E+02 -0.43570711741E+03  0.37040999876E+03  0.57613039844E+03  0.00000000000E+00 0.  1.
          2    1    6    6  502    0  0.15101508753E+02 -0.64207312407E+01 -0.15509052123E+03  0.15595624749E+03  0.00000000000E+00 0. -1.
          1    1    5    5  503    0 -0.34663852893E+02  0.35491844649E+03 -0.41986877410E+02  0.35907044467E+03  0.00000000000E+00 0. -1.
         -2    1    5    5    0  503 -0.76589277444E+02  0.18001135746E+03 -0.10601687875E+02  0.19591427212E+03  0.00000000000E+00 0.  1.
         -1    1    6    6    0  502  0.17058475306E+03 -0.63344755070E+02 -0.42372438131E+03  0.46114430202E+03  0.00000000000E+00 0.  1.
<mgrwt>
<rscale>  0 0.18101533E+04</rscale>
<asrwt>0</asrwt>
<pdfrwt beam="1">  1        2 0.15504839E+00 0.18101533E+04</pdfrwt>
<pdfrwt beam="2">  1       -2 0.12504800E+00 0.18101533E+04</pdfrwt>
<totfact> 0.11251331E+01</totfact>
</mgrwt>
</event>
<event>
12    1  0.1599266E-007  0.1581165E+04  0.7818608E-02  0.8832204E-01
          2   -1    0    0  501    0  0.00000000000E+00  0.00000000000E+00  0.11293073462E+04  0.11293073462E+04  0.00000000000E+00 0. -1.
         -2   -1    0    0    0  501 -0.00000000000E+00 -0.00000000000E+00 -0.55345458641E+03  0.55345458641E+03  0.00000000000E+00 0.  1.
         23    2    1    2    0    0 -0.30862892001E+03  0.38221867506E+03 -0.13726042576E+02  0.49925393305E+03  0.87881508823E+02 0.  0.
        254    2    1    2    0    0  0.30862892001E+03 -0.38221867506E+03  0.58957880242E+03  0.11835079996E+04  0.90096897562E+03 0.  0.
        -24    2    4    4    0    0  0.57278849545E+03 -0.33304664968E+02  0.36934024934E+03  0.68760006172E+03  0.84768885015E+02 0.  0.
         24    2    4    4    0    0 -0.26415957544E+03 -0.34891401009E+03  0.22023855308E+03  0.49590793788E+03  0.76801008182E+02 0.  0.
         11    1    3    3    0    0 -0.30182687928E+02  0.61500706257E+01  0.35290268836E+01  0.31004387592E+02  0.00000000000E+00 0. -1.
        -11    1    3    3    0    0 -0.27844623208E+03  0.37606860444E+03 -0.17255069460E+02  0.46824954546E+03  0.00000000000E+00 0.  1.
          4    1    6    6  502    0 -0.13776624896E+03 -0.13230177861E+03  0.69243624563E+02  0.20316982925E+03  0.00000000000E+00 0. -1.
          3    1    5    5  503    0  0.33106337594E+03  0.21184209982E+02  0.19793206717E+03  0.38630147923E+03  0.00000000000E+00 0. -1.
         -4    1    5    5    0  503  0.24172511951E+03 -0.54488874951E+02  0.17140818217E+03  0.30129858249E+03  0.00000000000E+00 0.  1.
         -3    1    6    6    0  502 -0.12639332648E+03 -0.21661223149E+03  0.15099492852E+03  0.29273810863E+03  0.00000000000E+00 0.  1.
<mgrwt>
<rscale>  0 0.15811645E+04</rscale>
<asrwt>0</asrwt>
<pdfrwt beam="1">  1        2 0.17373959E+00 0.15811645E+04</pdfrwt>
<pdfrwt beam="2">  1       -2 0.85146860E-01 0.15811645E+04</pdfrwt>
<totfact> 0.24093293E+01</totfact>
</mgrwt>
</event>
<event>
12    1  0.1599266E-007  0.2371396E+04  0.7818608E-02  0.8450291E-01
         -1   -1    0    0    0  501 -0.00000000000E+00  0.00000000000E+00  0.54054066238E+03  0.54054066238E+03  0.00000000000E+00 0.  1.
          1   -1    0    0  501    0  0.00000000000E+00 -0.00000000000E+00 -0.26008780213E+04  0.26008780213E+04  0.00000000000E+00 0. -1.
         23    2    1    2    0    0  0.60509684219E+03 -0.31779183449E+03  0.47520928898E+02  0.69162805707E+03  0.94642972009E+02 0.  0.
        254    2    1    2    0    0 -0.60509684219E+03  0.31779183449E+03 -0.21078582878E+04  0.24497906266E+04  0.10446404713E+04 0.  0.
        -24    2    4    4    0    0 -0.43208467341E+03 -0.17525163530E+03 -0.17468776747E+04  0.18098297862E+04  0.80572602467E+02 0.  0.
         24    2    4    4    0    0 -0.17301216877E+03  0.49304346979E+03 -0.36098061315E+03  0.63996084036E+03  0.78853030877E+02 0.  0.
         13    1    3    3    0    0  0.24089538374E+03 -0.79190013168E+02 -0.58319167950E+00  0.25357835910E+03  0.00000000000E+00 0. -1.
        -13    1    3    3    0    0  0.36420145845E+03 -0.23860182133E+03  0.48104120577E+02  0.43804969797E+03  0.00000000000E+00 0.  1.
          4    1    6    6  502    0 -0.12601651185E+03  0.34513741789E+03 -0.20881597694E+03  0.42261579563E+03  0.00000000000E+00 0. -1.
          3    1    5    5  503    0 -0.16594713982E+03 -0.39270714806E+02 -0.74843732682E+03  0.76761909462E+03  0.00000000000E+00 0. -1.
         -4    1    5    5    0  503 -0.26613753359E+03 -0.13598092049E+03 -0.99844034785E+03  0.10422106916E+04  0.00000000000E+00 0.  1.
         -3    1    6    6    0  502 -0.46995656922E+02  0.14790605190E+03 -0.15216463620E+03  0.21734504473E+03  0.00000000000E+00 0.  1.
<mgrwt>
<rscale>  0 0.23713965E+04</rscale>
<asrwt>0</asrwt>
<pdfrwt beam="1">  1        1 0.40013509E+00 0.23713965E+04</pdfrwt>
<pdfrwt beam="2">  1       -1 0.83160100E-01 0.23713965E+04</pdfrwt>
<totfact> 0.14856549E+00</totfact>
</mgrwt>
</event>
<event>
12    1  0.1599266E-007  0.2319676E+04  0.7818608E-02  0.8470203E-01
          1   -1    0    0  501    0  0.00000000000E+00  0.00000000000E+00  0.18400226623E+04  0.18400226623E+04  0.00000000000E+00 0. -1.
         -1   -1    0    0    0  501 -0.00000000000E+00 -0.00000000000E+00 -0.73109114744E+03  0.73109114744E+03  0.00000000000E+00 0.  1.
         23    2    1    2    0    0  0.62707884404E+03  0.26518639324E+03 -0.31274795244E+03  0.75517287969E+03  0.94462144025E+02 0.  0.
        254    2    1    2    0    0 -0.62707884404E+03 -0.26518639324E+03  0.14216794673E+04  0.18159409300E+04  0.90161923996E+03 0.  0.
        -24    2    4    4    0    0 -0.67999474568E+03  0.40162777869E+02  0.52485729840E+03  0.86368010540E+03  0.80388045705E+02 0.  0.
         24    2    4    4    0    0  0.52915901638E+02 -0.30534917111E+03  0.89682216889E+03  0.95226082465E+03  0.80451641364E+02 0.  0.
         13    1    3    3    0    0  0.71188817352E+02  0.68827054594E+00 -0.41993110433E+02  0.82654357151E+02  0.00000000000E+00 0. -1.
        -13    1    3    3    0    0  0.55589002669E+03  0.26449812269E+03 -0.27075484201E+03  0.67251852254E+03  0.00000000000E+00 0.  1.
          4    1    6    6  502    0 -0.35869215654E+01  0.40089824471E+01  0.10413195320E+02  0.11720605076E+02  0.00000000000E+00 0. -1.
          3    1    5    5  503    0 -0.35901862885E+03 -0.35385031914E+01  0.23595730315E+03  0.42963094136E+03  0.00000000000E+00 0. -1.
         -4    1    5    5    0  503 -0.32097611683E+03  0.43701281060E+02  0.28889999525E+03  0.43404916403E+03  0.00000000000E+00 0.  1.
         -3    1    6    6    0  502  0.56502823203E+02 -0.30935815356E+03  0.88640897357E+03  0.94054021957E+03  0.00000000000E+00 0.  1.
<mgrwt>
<rscale>  0 0.23196761E+04</rscale>
<asrwt>0</asrwt>
<pdfrwt beam="1">  1        1 0.28308041E+00 0.23196761E+04</pdfrwt>
<pdfrwt beam="2">  1       -1 0.11247556E+00 0.23196761E+04</pdfrwt>
<totfact> 0.24991642E+00</totfact>
</mgrwt>
</event>
<event>
12    1  0.1599266E-007  0.1825343E+04  0.7818608E-02  0.8692937E-01
          1   -1    0    0  501    0  0.00000000000E+00  0.00000000000E+00  0.15885504267E+04  0.15885504267E+04  0.00000000000E+00 0. -1.
         -1   -1    0    0    0  501 -0.00000000000E+00 -0.00000000000E+00 -0.52435814531E+03  0.52435814531E+03  0.00000000000E+00 0.  1.
         23    2    1    2    0    0  0.30058198239E+03 -0.94964896441E+02  0.11200148297E+04  0.11670253880E+04  0.90261718016E+02 0.  0.
        254    2    1    2    0    0 -0.30058198239E+03  0.94964896441E+02 -0.55822548283E+02  0.94588318406E+03  0.89006234686E+03 0.  0.
        -24    2    4    4    0    0  0.14972444435E+03 -0.12713695874E+03  0.26940779120E+03  0.34270878890E+03  0.79294013139E+02 0.  0.
         24    2    4    4    0    0 -0.45030642674E+03  0.22210185518E+03 -0.32523033948E+03  0.60317439516E+03  0.77067926010E+02 0.  0.
         13    1    3    3    0    0  0.28250639396E+03 -0.98257290078E+02  0.10996259473E+04  0.11395795635E+04  0.00000000000E+00 0. -1.
        -13    1    3    3    0    0  0.18075588428E+02  0.32923936370E+01  0.20388882393E+02  0.27445824420E+02  0.00000000000E+00 0.  1.
          2    1    6    6  502    0 -0.28529972333E+03  0.98732293759E+02 -0.19757749907E+03  0.36080585653E+03  0.00000000000E+00 0. -1.
          1    1    5    5  503    0  0.87640269791E+02 -0.88162467077E+02  0.22484733822E+03  0.25692365208E+03  0.00000000000E+00 0. -1.
         -2    1    5    5    0  503  0.62084174558E+02 -0.38974491659E+02  0.44560452972E+02  0.85785136822E+02  0.00000000000E+00 0.  1.
         -1    1    6    6    0  502 -0.16500670341E+03  0.12336956142E+03 -0.12765284041E+03  0.24236853863E+03  0.00000000000E+00 0.  1.
<mgrwt>
<rscale>  0 0.18253431E+04</rscale>
<asrwt>0</asrwt>
<pdfrwt beam="1">  1        1 0.24439237E+00 0.18253431E+04</pdfrwt>
<pdfrwt beam="2">  1       -1 0.80670484E-01 0.18253431E+04</pdfrwt>
<totfact> 0.81977444E+00</totfact>
</mgrwt>
</event>
<event>
12    1  0.1599266E-007  0.1776091E+04  0.7818608E-02  0.8719118E-01
         -2   -1    0    0    0  501 -0.00000000000E+00  0.00000000000E+00  0.37961345855E+03  0.37961345855E+03  0.00000000000E+00 0.  1.
          2   -1    0    0  501    0  0.00000000000E+00 -0.00000000000E+00 -0.20774411979E+04  0.20774411979E+04  0.00000000000E+00 0. -1.
         23    2    1    2    0    0 -0.22165152333E+03 -0.50954105727E+03 -0.10776499771E+04  0.12158728644E+04  0.90861776099E+02 0.  0.
        254    2    1    2    0    0  0.22165152333E+03  0.50954105727E+03 -0.62017776224E+03  0.12411817921E+04  0.92040767997E+03 0.  0.
        -24    2    4    4    0    0 -0.20851854961E+03 -0.15570927269E+03 -0.97892086720E+02  0.28943601608E+03  0.80405121913E+02 0.  0.
         24    2    4    4    0    0  0.43017007294E+03  0.66525032996E+03 -0.52228567552E+03  0.95174577598E+03  0.73711614311E+02 0.  0.
         13    1    3    3    0    0 -0.89668689830E+01 -0.54131920211E+02 -0.62935103565E+02  0.83495489613E+02  0.00000000000E+00 0.  1.
        -13    1    3    3    0    0 -0.21268465435E+03 -0.45540913706E+03 -0.10147148735E+04  0.11323773748E+04  0.00000000000E+00 0. -1.
          2    1    6    6  502    0  0.13735261873E+03  0.16360822367E+03 -0.11793353786E+03  0.24401170479E+03  0.00000000000E+00 0. -1.
          1    1    5    5  503    0 -0.70386718144E+00  0.34693307823E+01  0.66714861473E+01  0.75525103442E+01  0.00000000000E+00 0. -1.
         -2    1    5    5    0  503 -0.20781468243E+03 -0.15917860347E+03 -0.10456357287E+03  0.28188350574E+03  0.00000000000E+00 0.  1.
         -1    1    6    6    0  502  0.29281745422E+03  0.50164210629E+03 -0.40435213766E+03  0.70773407119E+03  0.00000000000E+00 0.  1.
<mgrwt>
<rscale>  0 0.17760908E+04</rscale>
<asrwt>0</asrwt>
<pdfrwt beam="1">  1        2 0.31960634E+00 0.17760908E+04</pdfrwt>
<pdfrwt beam="2">  1       -2 0.58402070E-01 0.17760908E+04</pdfrwt>
<totfact> 0.15689258E+01</totfact>
</mgrwt>
</event>
<event>
12    1  0.1599266E-007  0.1604491E+04  0.7818608E-02  0.8817794E-01
          2   -1    0    0  501    0  0.00000000000E+00  0.00000000000E+00  0.17913769823E+03  0.17913769823E+03  0.00000000000E+00 0. -1.
         -2   -1    0    0    0  501 -0.00000000000E+00 -0.00000000000E+00 -0.35927531906E+04  0.35927531906E+04  0.00000000000E+00 0.  1.
         23    2    1    2    0    0 -0.47043507855E+03  0.25050452548E+03 -0.10113568847E+04  0.11467084296E+04  0.89642589384E+02 0.  0.
        254    2    1    2    0    0  0.47043507855E+03 -0.25050452548E+03 -0.24022586076E+04  0.26251824592E+04  0.91469931990E+03 0.  0.
        -24    2    4    4    0    0  0.71881138807E+03 -0.30602967644E+03 -0.16461537287E+04  0.18235492965E+04  0.71874639216E+02 0.  0.
         24    2    4    4    0    0 -0.24837630952E+03  0.55525150960E+02 -0.75610487891E+03  0.80163316270E+03  0.78404758215E+02 0.  0.
         11    1    3    3    0    0 -0.40400459897E+03  0.21982883455E+03 -0.92845604058E+03  0.10361346687E+04  0.00000000000E+00 0. -1.
        -11    1    3    3    0    0 -0.66430479578E+02  0.30675690926E+02 -0.82900844162E+02  0.11057376087E+03  0.00000000000E+00 0.  1.
          4    1    6    6  502    0 -0.21006247551E+03  0.31177747368E+02 -0.68596099612E+03  0.71808132112E+03  0.00000000000E+00 0. -1.
          3    1    5    5  503    0  0.65637406924E+03 -0.26535593231E+03 -0.14471211301E+04  0.16110245978E+04  0.00000000000E+00 0. -1.
         -4    1    5    5    0  503  0.62437318828E+02 -0.40673744130E+02 -0.19903259862E+03  0.21252469870E+03  0.00000000000E+00 0.  1.
         -3    1    6    6    0  502 -0.38313834010E+02  0.24347403592E+02 -0.70143882792E+02  0.83551841580E+02  0.00000000000E+00 0.  1.
<mgrwt>
<rscale>  0 0.16044906E+04</rscale>
<asrwt>0</asrwt>
<pdfrwt beam="1">  1        2 0.27559646E-01 0.16044906E+04</pdfrwt>
<pdfrwt beam="2">  1       -2 0.55273127E+00 0.16044906E+04</pdfrwt>
<totfact> 0.15360850E-01</totfact>
</mgrwt>
</event>
<event>
12    1  0.1599266E-007  0.1485857E+04  0.7818608E-02  0.8893912E-01
         -1   -1    0    0    0  501 -0.00000000000E+00  0.00000000000E+00  0.18737333851E+03  0.18737333851E+03  0.00000000000E+00 0.  1.
          1   -1    0    0  501    0  0.00000000000E+00 -0.00000000000E+00 -0.29456859965E+04  0.29456859965E+04  0.00000000000E+00 0. -1.
         23    2    1    2    0    0  0.77990297460E+02 -0.18461458573E+03 -0.17414338992E+04  0.17553319150E+04  0.91831775507E+02 0.  0.
        254    2    1    2    0    0 -0.77990297460E+02  0.18461458573E+03 -0.10168787588E+04  0.13777274199E+04  0.90770336665E+03 0.  0.
        -24    2    4    4    0    0 -0.40732139718E+02  0.40268127357E+03 -0.10610404568E+04  0.11385950144E+04  0.82343430868E+02 0.  0.
         24    2    4    4    0    0 -0.37258157742E+02 -0.21806668784E+03  0.44161697983E+02  0.23913240555E+03  0.79327177888E+02 0.  0.
         13    1    3    3    0    0  0.29097087241E+02 -0.11347432336E+03 -0.13175639404E+04  0.13227614296E+04  0.00000000000E+00 0. -1.
        -13    1    3    3    0    0  0.48893210219E+02 -0.71140262370E+02 -0.42386995878E+03  0.43257048546E+03  0.00000000000E+00 0.  1.
          2    1    6    6  502    0 -0.39691734743E+02 -0.20929039517E+03  0.59605767919E+02  0.22120296311E+03  0.00000000000E+00 0. -1.
          1    1    5    5  503    0 -0.60381555851E+02  0.36971128792E+03 -0.95794923313E+03  0.10285908331E+04  0.00000000000E+00 0. -1.
         -2    1    5    5    0  503  0.19649416133E+02  0.32969985647E+02 -0.10309122365E+03  0.11000418129E+03  0.00000000000E+00 0.  1.
         -1    1    6    6    0  502  0.24335770016E+01 -0.87762926625E+01 -0.15444069937E+02  0.17929442438E+02  0.00000000000E+00 0.  1.
<mgrwt>
<rscale>  0 0.14858574E+04</rscale>
<asrwt>0</asrwt>
<pdfrwt beam="1">  1        1 0.45318242E+00 0.14858574E+04</pdfrwt>
<pdfrwt beam="2">  1       -1 0.28826670E-01 0.14858574E+04</pdfrwt>
<totfact> 0.69801600E+00</totfact>
</mgrwt>
</event>
<event>
12    1  0.1599266E-007  0.1490551E+04  0.7818608E-02  0.8890761E-01
         -2   -1    0    0    0  501 -0.00000000000E+00  0.00000000000E+00  0.90602588827E+03  0.90602588827E+03  0.00000000000E+00 0.  1.
          2   -1    0    0  501    0  0.00000000000E+00 -0.00000000000E+00 -0.61304567538E+03  0.61304567538E+03  0.00000000000E+00 0. -1.
         23    2    1    2    0    0  0.25804756393E+03  0.58419317486E+02  0.45894098365E+03  0.53656721191E+03  0.85300554013E+02 0.  0.
        254    2    1    2    0    0 -0.25804756393E+03 -0.58419317486E+02 -0.16596077076E+03  0.98250435175E+03  0.93154198073E+03 0.  0.
        -24    2    4    4    0    0  0.13253782743E+03 -0.24439550251E+03 -0.39245135835E+03  0.48762445382E+03  0.80399638994E+02 0.  0.
         24    2    4    4    0    0 -0.39058539136E+03  0.18597618502E+03  0.22649058758E+03  0.49487989793E+03  0.80399239880E+02 0.  0.
         11    1    3    3    0    0  0.24288150379E+03  0.35522817327E+02  0.37453435324E+03  0.44780495441E+03  0.00000000000E+00 0.  1.
        -11    1    3    3    0    0  0.15166060143E+02  0.22896500159E+02  0.84406630410E+02  0.88762257503E+02  0.00000000000E+00 0. -1.
          4    1    6    6  502    0 -0.23612196177E+03  0.14491621403E+03  0.11477512132E+03  0.29987933972E+03  0.00000000000E+00 0. -1.
          1    1    5    5  503    0  0.10777661136E+03 -0.23535528597E+03 -0.37620643126E+03  0.45666091087E+03  0.00000000000E+00 0. -1.
         -2    1    5    5    0  503  0.24761216068E+02 -0.90402165347E+01 -0.16244927082E+02  0.30963542951E+02  0.00000000000E+00 0.  1.
         -3    1    6    6    0  502 -0.15446342959E+03  0.41059970989E+02  0.11171546626E+03  0.19500055821E+03  0.00000000000E+00 0.  1.
<mgrwt>
<rscale>  0 0.14905506E+04</rscale>
<asrwt>0</asrwt>
<pdfrwt beam="1">  1        2 0.94314719E-01 0.14905506E+04</pdfrwt>
<pdfrwt beam="2">  1       -2 0.13938860E+00 0.14905506E+04</pdfrwt>
<totfact> 0.16960947E+01</totfact>
</mgrwt>
</event>
<event>
12    1  0.1599266E-007  0.2453424E+04  0.7818608E-02  0.8419769E-01
          2   -1    0    0  501    0  0.00000000000E+00  0.00000000000E+00  0.17706454066E+04  0.17706454066E+04  0.00000000000E+00 0. -1.
         -2   -1    0    0    0  501 -0.00000000000E+00 -0.00000000000E+00 -0.84987235868E+03  0.84987235868E+03  0.00000000000E+00 0.  1.
         23    2    1    2    0    0 -0.98789532231E+03 -0.24410431646E+03  0.64260591510E+02  0.10237830423E+04  0.92077189875E+02 0.  0.
        254    2    1    2    0    0  0.98789532231E+03  0.24410431646E+03  0.85651245639E+03  0.15967347230E+04  0.88341615474E+03 0.  0.
        -24    2    4    4    0    0  0.58008823841E+03  0.50431756931E+03  0.24167319864E+03  0.80965596519E+03  0.79361653033E+02 0.  0.
         24    2    4    4    0    0  0.40780708390E+03 -0.26021325285E+03  0.61483925775E+03  0.78707875779E+03  0.86302395361E+02 0.  0.
         13    1    3    3    0    0 -0.12464468370E+03 -0.43774164271E+02 -0.19928073318E+02  0.13360240544E+03  0.00000000000E+00 0. -1.
        -13    1    3    3    0    0 -0.86325063861E+03 -0.20033015219E+03  0.84188664828E+02  0.89018063685E+03  0.00000000000E+00 0.  1.
          2    1    6    6  502    0  0.22464247863E+03 -0.11618713715E+03  0.26120838001E+03  0.36358425685E+03  0.00000000000E+00 0. -1.
          1    1    5    5  503    0  0.34325186704E+03  0.31367840071E+03  0.18471633802E+03  0.50033599593E+03  0.00000000000E+00 0. -1.
         -2    1    5    5    0  503  0.23683637137E+03  0.19063916861E+03  0.56956860626E+02  0.30931996926E+03  0.00000000000E+00 0.  1.
         -1    1    6    6    0  502  0.18316460527E+03 -0.14402611571E+03  0.35363087774E+03  0.42349450093E+03  0.00000000000E+00 0.  1.
<mgrwt>
<rscale>  0 0.24534242E+04</rscale>
<asrwt>0</asrwt>
<pdfrwt beam="1">  1        2 0.27240698E+00 0.24534242E+04</pdfrwt>
<pdfrwt beam="2">  1       -2 0.13074959E+00 0.24534242E+04</pdfrwt>
<totfact> 0.34334374E+00</totfact>
</mgrwt>
</event>
<event>
12    1  0.1599266E-007  0.1599668E+04  0.7818608E-02  0.8820752E-01
          1   -1    0    0  501    0  0.00000000000E+00  0.00000000000E+00  0.49658205698E+03  0.49658205698E+03  0.00000000000E+00 0. -1.
         -1   -1    0    0    0  501 -0.00000000000E+00 -0.00000000000E+00 -0.12882752452E+04  0.12882752452E+04  0.00000000000E+00 0.  1.
         23    2    1    2    0    0  0.34953602092E+03 -0.31932242496E+03  0.19229147722E+02  0.48240946033E+03  0.90591866619E+02 0.  0.
        254    2    1    2    0    0 -0.34953602092E+03  0.31932242496E+03 -0.81092233591E+03  0.13024478418E+04  0.90257027692E+03 0.  0.
        -24    2    4    4    0    0 -0.14163610896E+03 -0.17773293845E+03 -0.70862065559E+03  0.74833052574E+03  0.78775360757E+02 0.  0.
         24    2    4    4    0    0 -0.20789991196E+03  0.49705536341E+03 -0.10230168033E+03  0.55411731607E+03  0.79334472255E+02 0.  0.
         13    1    3    3    0    0  0.30169295386E+00 -0.24188299379E+02  0.62516242837E+01  0.24984948503E+02  0.00000000000E+00 0.  1.
        -13    1    3    3    0    0  0.34923432796E+03 -0.29513412558E+03  0.12977523438E+02  0.45742451183E+03  0.00000000000E+00 0. -1.
          4    1    6    6  502    0 -0.11437555125E+03  0.22312721630E+03 -0.12467659920E+02  0.25104374902E+03  0.00000000000E+00 0. -1.
          3    1    5    5  503    0 -0.11641362959E+03 -0.12520473746E+03 -0.61263416693E+03  0.63604165110E+03  0.00000000000E+00 0. -1.
         -4    1    5    5    0  503 -0.25222479370E+02 -0.52528200994E+02 -0.95986488655E+02  0.11228887465E+03  0.00000000000E+00 0.  1.
         -3    1    6    6    0  502 -0.93524360712E+02  0.27392814711E+03 -0.89834020407E+02  0.30307356705E+03  0.00000000000E+00 0.  1.
<mgrwt>
<rscale>  0 0.15996679E+04</rscale>
<asrwt>0</asrwt>
<pdfrwt beam="1">  1        1 0.76397239E-01 0.15996679E+04</pdfrwt>
<pdfrwt beam="2">  1       -1 0.19819619E+00 0.15996679E+04</pdfrwt>
<totfact> 0.66490030E+00</totfact>
</mgrwt>
</event>
<event>
12    1  0.1599266E-007  0.2123366E+04  0.7818608E-02  0.8551020E-01
          2   -1    0    0  501    0  0.00000000000E+00  0.00000000000E+00  0.26241851064E+04  0.26241851064E+04  0.00000000000E+00 0. -1.
         -2   -1    0    0    0  501 -0.00000000000E+00 -0.00000000000E+00 -0.42953156971E+03  0.42953156971E+03  0.00000000000E+00 0.  1.
         23    2    1    2    0    0 -0.31590157277E+03 -0.51495430822E+03  0.17711085834E+04  0.18735079640E+04  0.90745433751E+02 0.  0.
        254    2    1    2    0    0  0.31590157277E+03  0.51495430822E+03  0.42354495330E+03  0.11802087121E+04  0.92115717088E+03 0.  0.
        -24    2    4    4    0    0  0.88055681445E+02 -0.17724012258E+03 -0.14022092881E+03  0.25542939651E+03  0.80089972156E+02 0.  0.
         24    2    4    4    0    0  0.22784589133E+03  0.69219443080E+03  0.56376588211E+03  0.92477931561E+03  0.79611133205E+02 0.  0.
         13    1    3    3    0    0 -0.29358021662E+03 -0.47968816818E+03  0.17046862143E+04  0.17950613280E+04  0.00000000000E+00 0. -1.
        -13    1    3    3    0    0 -0.22321356156E+02 -0.35266140045E+02  0.66422369157E+02  0.78446635994E+02  0.00000000000E+00 0.  1.
          2    1    6    6  502    0  0.15687317464E+02  0.93151419055E+02  0.46058649245E+02  0.10509366285E+03  0.00000000000E+00 0. -1.
          1    1    5    5  503    0  0.47560929225E+02 -0.29695014195E+02 -0.15882206729E+02  0.58275898512E+02  0.00000000000E+00 0. -1.
         -2    1    5    5    0  503  0.40494752220E+02 -0.14754510838E+03 -0.12433872208E+03  0.19715349800E+03  0.00000000000E+00 0.  1.
         -1    1    6    6    0  502  0.21215857386E+03  0.59904301175E+03  0.51770723286E+03  0.81968565276E+03  0.00000000000E+00 0.  1.
<mgrwt>
<rscale>  0 0.21233656E+04</rscale>
<asrwt>0</asrwt>
<pdfrwt beam="1">  1        2 0.40372078E+00 0.21233656E+04</pdfrwt>
<pdfrwt beam="2">  1       -2 0.66081781E-01 0.21233656E+04</pdfrwt>
<totfact> 0.57099422E+00</totfact>
</mgrwt>
</event>
<event>
12    1  0.1599266E-007  0.1344753E+04  0.7818608E-02  0.8994809E-01
         -1   -1    0    0    0  501 -0.00000000000E+00  0.00000000000E+00  0.60200326184E+03  0.60200326184E+03  0.00000000000E+00 0.  1.
          1   -1    0    0  501    0  0.00000000000E+00 -0.00000000000E+00 -0.75097655710E+03  0.75097655710E+03  0.00000000000E+00 0. -1.
         23    2    1    2    0    0  0.94945682835E+01  0.13699061252E+02 -0.39318320744E+03  0.40366719738E+03  0.89868573634E+02 0.  0.
        254    2    1    2    0    0 -0.94945682835E+01 -0.13699061252E+02  0.24420991218E+03  0.94931262155E+03  0.91721216800E+03 0.  0.
        -24    2    4    4    0    0  0.42406406320E+03  0.12462990007E+03  0.66545470919E+02  0.45415283885E+03  0.80396266376E+02 0.  0.
         24    2    4    4    0    0 -0.43355863148E+03 -0.13832896132E+03  0.17766444126E+03  0.49515978271E+03  0.80688092360E+02 0.  0.
         11    1    3    3    0    0  0.28849976222E+02 -0.26627901382E+02 -0.10631506425E+03  0.11333251584E+03  0.00000000000E+00 0.  1.
        -11    1    3    3    0    0 -0.19355407939E+02  0.40326962634E+02 -0.28686814319E+03  0.29033468155E+03  0.00000000000E+00 0. -1.
          4    1    6    6  502    0 -0.32153289802E+03 -0.11267477683E+03  0.16787743207E+03  0.37981816971E+03  0.00000000000E+00 0. -1.
          3    1    5    5  503    0  0.26201089287E+03  0.83708219286E+02  0.22338658730E+01  0.27506683572E+03  0.00000000000E+00 0. -1.
         -4    1    5    5    0  503  0.16205317033E+03  0.40921680779E+02  0.64311605046E+02  0.17908600313E+03  0.00000000000E+00 0.  1.
         -3    1    6    6    0  502 -0.11202573346E+03 -0.25654184483E+02  0.97870091890E+01  0.11534161299E+03  0.00000000000E+00 0.  1.
<mgrwt>
<rscale>  0 0.13447533E+04</rscale>
<asrwt>0</asrwt>
<pdfrwt beam="1">  1        1 0.11553485E+00 0.13447533E+04</pdfrwt>
<pdfrwt beam="2">  1       -1 0.92615886E-01 0.13447533E+04</pdfrwt>
<totfact> 0.27142309E+01</totfact>
</mgrwt>
</event>
<event>
12    1  0.1609709E-007  0.2415236E+04  0.7818608E-02  0.8433821E-01
         -1   -1    0    0    0  501 -0.00000000000E+00  0.00000000000E+00  0.81211579224E+03  0.81211579224E+03  0.00000000000E+00 0.  1.
          1   -1    0    0  501    0  0.00000000000E+00 -0.00000000000E+00 -0.17957308135E+04  0.17957308135E+04  0.00000000000E+00 0. -1.
         23    2    1    2    0    0  0.27739786584E+03 -0.98031796255E+03 -0.23470512178E+03  0.10493884801E+04  0.90315028212E+02 0.  0.
        254    2    1    2    0    0 -0.27739786584E+03  0.98031796255E+03 -0.74890989944E+03  0.15584581256E+04  0.91101745761E+03 0.  0.
        -24    2    4    4    0    0 -0.38869138431E+03  0.34515566787E+02 -0.31928711431E+03  0.51054736589E+03  0.80262287975E+02 0.  0.
         24    2    4    4    0    0  0.11129351847E+03  0.94580239576E+03 -0.42962278513E+03  0.10479107597E+04  0.81319147199E+02 0.  0.
         11    1    3    3    0    0  0.27330559510E+03 -0.91922117744E+03 -0.23794378404E+03  0.98806921100E+03  0.00000000000E+00 0. -1.
        -11    1    3    3    0    0  0.40922707452E+01 -0.61096785110E+02  0.32386622564E+01  0.61319269107E+02  0.00000000000E+00 0.  1.
          2    1    6    6  502    0  0.91847599931E+02  0.90880832640E+03 -0.41796698043E+03  0.10045222509E+04  0.00000000000E+00 0. -1.
          3    1    5    5  503    0 -0.35975911963E+03  0.13290627126E+02 -0.30532071499E+03  0.47204237514E+03  0.00000000000E+00 0. -1.
         -4    1    5    5    0  503 -0.28932264675E+02  0.21224939661E+02 -0.13966399323E+02  0.38504990754E+02  0.00000000000E+00 0.  1.
         -1    1    6    6    0  502  0.19445918534E+02  0.36994069362E+02 -0.11655804700E+02  0.43388508834E+02  0.00000000000E+00 0.  1.
<mgrwt>
<rscale>  0 0.24152361E+04</rscale>
<asrwt>0</asrwt>
<pdfrwt beam="1">  1        1 0.27626628E+00 0.24152361E+04</pdfrwt>
<pdfrwt beam="2">  1       -1 0.12494089E+00 0.24152361E+04</pdfrwt>
<totfact> 0.20563365E+00</totfact>
</mgrwt>
</event>
<event>
12    1  0.1599266E-007  0.1495743E+04  0.7818608E-02  0.8887288E-01
         -1   -1    0    0    0  501 -0.00000000000E+00  0.00000000000E+00  0.15479764281E+04  0.15479764281E+04  0.00000000000E+00 0.  1.
          1   -1    0    0  501    0  0.00000000000E+00 -0.00000000000E+00 -0.36131821479E+03  0.36131821479E+03  0.00000000000E+00 0. -1.
         23    2    1    2    0    0 -0.36769378029E+03 -0.25331322650E+03  0.57746753088E+03  0.73684815964E+03  0.10054926331E+03 0.  0.
        254    2    1    2    0    0  0.36769378029E+03  0.25331322650E+03  0.60919068244E+03  0.11724464833E+04  0.89674475842E+03 0.  0.
        -24    2    4    4    0    0 -0.26785133889E+03  0.15713308307E+03  0.67155791011E+02  0.32760737415E+03  0.79884577932E+02 0.  0.
         24    2    4    4    0    0  0.63554511918E+03  0.96180143438E+02  0.54203489143E+03  0.84483910911E+03  0.82359445440E+02 0.  0.
         13    1    3    3    0    0 -0.24103421624E+03 -0.11099456240E+03  0.36801204351E+03  0.45370711968E+03  0.00000000000E+00 0.  1.
        -13    1    3    3    0    0 -0.12665956405E+03 -0.14231866410E+03  0.20945548737E+03  0.28314103996E+03  0.00000000000E+00 0. -1.
          4    1    6    6  502    0  0.89113435479E+02  0.43124638722E+02  0.86011006934E+02  0.13114431807E+03  0.00000000000E+00 0. -1.
          1    1    5    5  503    0 -0.13774673740E+03  0.53157761691E+02 -0.10064571568E+01  0.14765136047E+03  0.00000000000E+00 0. -1.
         -2    1    5    5    0  503 -0.13010460149E+03  0.10397532137E+03  0.68162248168E+02  0.17995601367E+03  0.00000000000E+00 0.  1.
         -3    1    6    6    0  502  0.54643168370E+03  0.53055504716E+02  0.45602388449E+03  0.71369479104E+03  0.00000000000E+00 0.  1.
<mgrwt>
<rscale>  0 0.14957434E+04</rscale>
<asrwt>0</asrwt>
<pdfrwt beam="1">  1        1 0.55587418E-01 0.14957434E+04</pdfrwt>
<pdfrwt beam="2">  1       -1 0.23815022E+00 0.14957434E+04</pdfrwt>
<totfact> 0.55426903E+00</totfact>
</mgrwt>
</event>
<event>
12    1  0.1599266E-007  0.1877323E+04  0.7818608E-02  0.8666227E-01
          1   -1    0    0  501    0  0.00000000000E+00  0.00000000000E+00  0.18748572854E+04  0.18748572854E+04  0.00000000000E+00 0. -1.
         -1   -1    0    0    0  501 -0.00000000000E+00 -0.00000000000E+00 -0.46994812807E+03  0.46994812807E+03  0.00000000000E+00 0.  1.
         23    2    1    2    0    0 -0.80126844773E+02 -0.52937386100E+03  0.11443751650E+04  0.12675563645E+04  0.10221361465E+03 0.  0.
        254    2    1    2    0    0  0.80126844773E+02  0.52937386100E+03  0.26053399233E+03  0.10772490489E+04  0.89773635123E+03 0.  0.
        -24    2    4    4    0    0  0.25205216233E+03  0.52967801442E+03 -0.16217923926E+03  0.61376576990E+03  0.79480961018E+02 0.  0.
         24    2    4    4    0    0 -0.17192531756E+03 -0.30415341415E+00  0.42271323159E+03  0.46348327904E+03  0.81067049204E+02 0.  0.
         13    1    3    3    0    0 -0.18413107263E+02 -0.34306370300E+02  0.15099130651E+03  0.15593057495E+03  0.00000000000E+00 0. -1.
        -13    1    3    3    0    0 -0.61713737510E+02 -0.49506749070E+03  0.99338385847E+03  0.11116257896E+04  0.00000000000E+00 0.  1.
          2    1    6    6  502    0 -0.45517033459E+02  0.28679474744E+02  0.18536978676E+03  0.19301883444E+03  0.00000000000E+00 0. -1.
          3    1    5    5  503    0 -0.52877546425E+01  0.21036512667E+02 -0.28131055955E+01  0.21872557634E+02  0.00000000000E+00 0. -1.
         -4    1    5    5    0  503  0.25733991697E+03  0.50864150175E+03 -0.15936613366E+03  0.59189321227E+03  0.00000000000E+00 0.  1.
         -1    1    6    6    0  502 -0.12640828410E+03 -0.28983628158E+02  0.23734344483E+03  0.27046444460E+03  0.00000000000E+00 0.  1.
<mgrwt>
<rscale>  0 0.18773233E+04</rscale>
<asrwt>0</asrwt>
<pdfrwt beam="1">  1        1 0.28843958E+00 0.18773233E+04</pdfrwt>
<pdfrwt beam="2">  1       -1 0.72299713E-01 0.18773233E+04</pdfrwt>
<totfact> 0.65556625E+00</totfact>
</mgrwt>
</event>
<event>
12    1  0.1599266E-007  0.1288958E+04  0.7818608E-02  0.9038368E-01
         -1   -1    0    0    0  501 -0.00000000000E+00  0.00000000000E+00  0.27532761914E+03  0.27532761914E+03  0.00000000000E+00 0.  1.
          1   -1    0    0  501    0  0.00000000000E+00 -0.00000000000E+00 -0.15085772689E+04  0.15085772689E+04  0.00000000000E+00 0. -1.
         23    2    1    2    0    0 -0.21747839135E+03  0.21090596297E+03 -0.16249975020E+03  0.35534579073E+03  0.89923780240E+02 0.  0.
        254    2    1    2    0    0  0.21747839135E+03 -0.21090596297E+03 -0.10707498995E+04  0.14285590973E+04  0.89582228772E+03 0.  0.
        -24    2    4    4    0    0  0.32701416201E+03  0.26914325806E+03 -0.36643513331E+03  0.56532567193E+03  0.77084712545E+02 0.  0.
         24    2    4    4    0    0 -0.10953577066E+03 -0.48004922102E+03 -0.70431476623E+03  0.86323342536E+03  0.81653640913E+02 0.  0.
         11    1    3    3    0    0 -0.20473288765E+03  0.21122809086E+03 -0.13226341994E+03  0.32253135337E+03  0.00000000000E+00 0.  1.
        -11    1    3    3    0    0 -0.12745503704E+02 -0.32212789691E+00 -0.30236330267E+02  0.32814437357E+02  0.00000000000E+00 0. -1.
          4    1    6    6  502    0 -0.63223579816E+02 -0.27753951934E+03 -0.33592482739E+03  0.44030772818E+03  0.00000000000E+00 0. -1.
          1    1    5    5  503    0  0.19954764032E+03  0.15598497057E+03 -0.26687648837E+03  0.36793155864E+03  0.00000000000E+00 0. -1.
         -2    1    5    5    0  503  0.12746652169E+03  0.11315828748E+03 -0.99558644941E+02  0.19739411329E+03  0.00000000000E+00 0.  1.
         -3    1    6    6    0  502 -0.46312190845E+02 -0.20250970168E+03 -0.36838993884E+03  0.42292569718E+03  0.00000000000E+00 0.  1.
<mgrwt>
<rscale>  0 0.12889577E+04</rscale>
<asrwt>0</asrwt>
<pdfrwt beam="1">  1        1 0.23208880E+00 0.12889577E+04</pdfrwt>
<pdfrwt beam="2">  1       -1 0.42358096E-01 0.12889577E+04</pdfrwt>
<totfact> 0.34772092E+01</totfact>
</mgrwt>
</event>
<event>
12    1  0.1599266E-007  0.2344076E+04  0.7818608E-02  0.8460742E-01
          2   -1    0    0  501    0  0.00000000000E+00  0.00000000000E+00  0.18924277337E+04  0.18924277337E+04  0.00000000000E+00 0.  1.
         -2   -1    0    0    0  501 -0.00000000000E+00 -0.00000000000E+00 -0.72587887574E+03  0.72587887574E+03  0.00000000000E+00 0. -1.
         23    2    1    2    0    0  0.53103926685E+03  0.64122709607E+03  0.40659408325E+01  0.83736120464E+03  0.89344073625E+02 0.  0.
        254    2    1    2    0    0 -0.53103926685E+03 -0.64122709607E+03  0.11624829171E+04  0.17809454048E+04  0.10617085808E+04 0.  0.
        -24    2    4    4    0    0 -0.56078824904E+03 -0.44362760020E+03  0.13587113990E+03  0.73200852073E+03  0.78016663865E+02 0.  0.
         24    2    4    4    0    0  0.29748982191E+02 -0.19759949587E+03  0.10266117772E+04  0.10489368841E+04  0.80039258647E+02 0.  0.
         13    1    3    3    0    0  0.35876508338E+03  0.44619931328E+03 -0.37823225792E+02  0.57379160732E+03  0.00000000000E+00 0. -1.
        -13    1    3    3    0    0  0.17227418347E+03  0.19502778279E+03  0.41889166625E+02  0.26356959732E+03  0.00000000000E+00 0.  1.
          4    1    6    6  502    0  0.25769291331E+02 -0.18211649838E+03  0.10068805977E+04  0.10235423847E+04  0.00000000000E+00 0. -1.
          3    1    5    5  503    0 -0.47651717367E+03 -0.40937435553E+03  0.11450813078E+03  0.63856721791E+03  0.00000000000E+00 0. -1.
         -4    1    5    5    0  503 -0.84271075369E+02 -0.34253244663E+02  0.21363009114E+02  0.93441302817E+02  0.00000000000E+00 0.  1.
         -3    1    6    6    0  502  0.39796908592E+01 -0.15482997494E+02  0.19731179553E+02  0.25394499351E+02  0.00000000000E+00 0.  1.
<mgrwt>
<rscale>  0 0.23440762E+04</rscale>
<asrwt>0</asrwt>
<pdfrwt beam="1">  1        2 0.29114273E+00 0.23440762E+04</pdfrwt>
<pdfrwt beam="2">  1       -2 0.11167367E+00 0.23440762E+04</pdfrwt>
<totfact> 0.43870053E+00</totfact>
</mgrwt>
</event>
<event>
12    1  0.1599266E-007  0.1897546E+04  0.7818608E-02  0.8656079E-01
          2   -1    0    0  501    0  0.00000000000E+00  0.00000000000E+00  0.25351082793E+04  0.25351082793E+04  0.00000000000E+00 0. -1.
         -2   -1    0    0    0  501 -0.00000000000E+00 -0.00000000000E+00 -0.35508147317E+03  0.35508147317E+03  0.00000000000E+00 0.  1.
         23    2    1    2    0    0 -0.61506748467E+03 -0.18025676903E+03  0.13822029088E+04  0.15264840089E+04  0.94170243911E+02 0.  0.
        254    2    1    2    0    0  0.61506748467E+03  0.18025676903E+03  0.79782389729E+03  0.13637057435E+04  0.90131563306E+03 0.  0.
        -24    2    4    4    0    0  0.58871409498E+03  0.37083552020E+03  0.89312753931E+03  0.11350724424E+04  0.81298089795E+02 0.  0.
         24    2    4    4    0    0  0.26353389691E+02 -0.19057875117E+03 -0.95303642015E+02  0.22863330112E+03  0.78585244508E+02 0.  0.
         13    1    3    3    0    0 -0.25707526327E+03 -0.66976217589E+02  0.68283287150E+03  0.73268972635E+03  0.00000000000E+00 0.  1.
        -13    1    3    3    0    0 -0.35799222141E+03 -0.11328055144E+03  0.69937003731E+03  0.79379428255E+03  0.00000000000E+00 0. -1.
          4    1    6    6  502    0  0.18673566097E+01 -0.58270852227E+02 -0.71053812279E+02  0.91910954077E+02  0.00000000000E+00 0. -1.
          1    1    5    5  503    0  0.38581211141E+03  0.25554750534E+03  0.65170637939E+03  0.79929764026E+03  0.00000000000E+00 0. -1.
         -2    1    5    5    0  503  0.20290198357E+03  0.11528801486E+03  0.24142115992E+03  0.33577480216E+03  0.00000000000E+00 0.  1.
         -3    1    6    6    0  502  0.24486033082E+02 -0.13230789894E+03 -0.24249829735E+02  0.13672234704E+03  0.00000000000E+00 0.  1.
<mgrwt>
<rscale>  0 0.18975458E+04</rscale>
<asrwt>0</asrwt>
<pdfrwt beam="1">  1        2 0.39001665E+00 0.18975458E+04</pdfrwt>
<pdfrwt beam="2">  1       -2 0.54627921E-01 0.18975458E+04</pdfrwt>
<totfact> 0.98195677E+00</totfact>
</mgrwt>
</event>
<event>
12    1  0.1599266E-007  0.1954062E+04  0.7818608E-02  0.8628405E-01
         -2   -1    0    0    0  501 -0.00000000000E+00  0.00000000000E+00  0.85966804170E+03  0.85966804170E+03  0.00000000000E+00 0.  1.
          2   -1    0    0  501    0  0.00000000000E+00 -0.00000000000E+00 -0.11104165074E+04  0.11104165074E+04  0.00000000000E+00 0. -1.
         23    2    1    2    0    0  0.34379106343E+03  0.31376766329E+03  0.51198601769E+03  0.69789669885E+03  0.91036685659E+02 0.  0.
        254    2    1    2    0    0 -0.34379106343E+03 -0.31376766329E+03 -0.76273448343E+03  0.12721878503E+04  0.90556920908E+03 0.  0.
        -24    2    4    4    0    0  0.88468846047E+02  0.14616516012E+02  0.15899853205E+03  0.19947097872E+03  0.80422378084E+02 0.  0.
         24    2    4    4    0    0 -0.43225990947E+03 -0.32838417930E+03 -0.92173301548E+03  0.10727168716E+04  0.80280360003E+02 0.  0.
         11    1    3    3    0    0  0.15405992929E+03  0.15031726371E+03  0.30330346866E+03  0.37191764638E+03  0.00000000000E+00 0.  1.
        -11    1    3    3    0    0  0.18973113414E+03  0.16345039957E+03  0.20868254902E+03  0.32597905247E+03  0.00000000000E+00 0. -1.
          4    1    6    6  502    0 -0.22520090971E+03 -0.18881761422E+03 -0.42444288160E+03  0.51625507350E+03  0.00000000000E+00 0. -1.
          1    1    5    5  503    0  0.79568001736E+02  0.43103424725E+02  0.11578060596E+03  0.14694938190E+03  0.00000000000E+00 0. -1.
         -2    1    5    5    0  503  0.89008443103E+01 -0.28486908713E+02  0.43217926086E+02  0.52521596821E+02  0.00000000000E+00 0.  1.
         -3    1    6    6    0  502 -0.20705899976E+03 -0.13956656508E+03 -0.49729013389E+03  0.55646179809E+03  0.00000000000E+00 0.  1.
<mgrwt>
<rscale>  0 0.19540620E+04</rscale>
<asrwt>0</asrwt>
<pdfrwt beam="1">  1        2 0.17083331E+00 0.19540620E+04</pdfrwt>
<pdfrwt beam="2">  1       -2 0.13225662E+00 0.19540620E+04</pdfrwt>
<totfact> 0.83224897E+00</totfact>
</mgrwt>
</event>
<event>
12    1  0.1599266E-007  0.1910567E+04  0.7818608E-02  0.8649614E-01
          4   -1    0    0  501    0  0.00000000000E+00  0.00000000000E+00  0.13602878951E+04  0.13602878951E+04  0.00000000000E+00 0. -1.
         -4   -1    0    0    0  501 -0.00000000000E+00 -0.00000000000E+00 -0.67086261568E+03  0.67086261568E+03  0.00000000000E+00 0.  1.
         23    2    1    2    0    0  0.76810133823E+02 -0.29689652076E+03  0.96113454412E+03  0.10133314883E+04  0.94940785040E+02 0.  0.
        254    2    1    2    0    0 -0.76810133823E+02  0.29689652076E+03 -0.27170926473E+03  0.10178190224E+04  0.93170934156E+03 0.  0.
        -24    2    4    4    0    0  0.32896094793E+03 -0.14199479961E+03 -0.17543477800E+03  0.40671475620E+03  0.79130924424E+02 0.  0.
         24    2    4    4    0    0 -0.40577108175E+03  0.43889132037E+03 -0.96274486729E+02  0.61110426622E+03  0.83089623373E+02 0.  0.
         13    1    3    3    0    0  0.57252106372E+02 -0.69019933767E+02  0.21567380566E+03  0.23357385425E+03  0.00000000000E+00 0.  1.
        -13    1    3    3    0    0  0.19558027451E+02 -0.22787658700E+03  0.74546073846E+03  0.77975763409E+03  0.00000000000E+00 0. -1.
          2    1    6    6  502    0 -0.40570116551E+03  0.43569768283E+03 -0.10251027613E+03  0.60409789209E+03  0.00000000000E+00 0. -1.
          1    1    5    5  503    0  0.21278123344E+03 -0.49830333958E+02 -0.10910345690E+03  0.24425904240E+03  0.00000000000E+00 0. -1.
         -2    1    5    5    0  503  0.11617971449E+03 -0.92164465648E+02 -0.66331321102E+02  0.16245571380E+03  0.00000000000E+00 0.  1.
         -1    1    6    6    0  502 -0.69916246593E-01  0.31936375444E+01  0.62357893980E+01  0.70063741309E+01  0.00000000000E+00 0.  1.
<mgrwt>
<rscale>  0 0.19105667E+04</rscale>
<asrwt>0</asrwt>
<pdfrwt beam="1">  1        4 0.20927506E+00 0.19105667E+04</pdfrwt>
<pdfrwt beam="2">  1       -4 0.10320963E+00 0.19105667E+04</pdfrwt>
<totfact> 0.16390053E-01</totfact>
</mgrwt>
</event>
<event>
12    1  0.1599266E-007  0.1329378E+04  0.7818608E-02  0.9006587E-01
         -1   -1    0    0    0  501 -0.00000000000E+00  0.00000000000E+00  0.81643275899E+03  0.81643275899E+03  0.00000000000E+00 0.  1.
          1   -1    0    0  501    0  0.00000000000E+00 -0.00000000000E+00 -0.54114845540E+03  0.54114845540E+03  0.00000000000E+00 0. -1.
         23    2    1    2    0    0 -0.21928657881E+03 -0.67110777202E+02 -0.19456021450E+03  0.31384703205E+03  0.89754233336E+02 0.  0.
        254    2    1    2    0    0  0.21928657881E+03  0.67110777202E+02  0.46984451809E+03  0.10437341823E+04  0.90334750352E+03 0.  0.
        -24    2    4    4    0    0  0.16025041747E+03  0.42447701374E+03  0.48956419668E+03  0.67249372825E+03  0.81937661505E+02 0.  0.
         24    2    4    4    0    0  0.59036161333E+02 -0.35736623654E+03 -0.19719678591E+02  0.37124045407E+03  0.78960202956E+02 0.  0.
         11    1    3    3    0    0 -0.76381526352E+02 -0.23311004078E+02 -0.12653547747E+03  0.14962876574E+03  0.00000000000E+00 0.  1.
        -11    1    3    3    0    0 -0.14290505245E+03 -0.43799773124E+02 -0.68024737032E+02  0.16421826631E+03  0.00000000000E+00 0. -1.
          2    1    6    6  502    0 -0.14337007778E+02 -0.25620585674E+02 -0.11041324199E+02  0.31366782468E+02  0.00000000000E+00 0. -1.
          1    1    5    5  503    0  0.26654206910E+01  0.44648043632E+02  0.22073485368E+02  0.49877760815E+02  0.00000000000E+00 0. -1.
         -2    1    5    5    0  503  0.15758499678E+03  0.37982897011E+03  0.46749071131E+03  0.62261596744E+03  0.00000000000E+00 0.  1.
         -1    1    6    6    0  502  0.73373169110E+02 -0.33174565087E+03 -0.86783543918E+01  0.33987367160E+03  0.00000000000E+00 0.  1.
<mgrwt>
<rscale>  0 0.13293778E+04</rscale>
<asrwt>0</asrwt>
<pdfrwt beam="1">  1        1 0.83253609E-01 0.13293778E+04</pdfrwt>
<pdfrwt beam="2">  1       -1 0.12560504E+00 0.13293778E+04</pdfrwt>
<totfact> 0.21521867E+01</totfact>
</mgrwt>
</event>
<event>
12    1  0.1599266E-007  0.3138842E+04  0.7818608E-02  0.8205158E-01
          2   -1    0    0  501    0  0.00000000000E+00  0.00000000000E+00  0.19697162193E+04  0.19697162193E+04  0.00000000000E+00 0.  1.
         -2   -1    0    0    0  501 -0.00000000000E+00 -0.00000000000E+00 -0.12504753128E+04  0.12504753128E+04  0.00000000000E+00 0. -1.
         23    2    1    2    0    0 -0.71268704636E+02 -0.10684318539E+04  0.13152319601E+04  0.16984841705E+04  0.91583371457E+02 0.  0.
        254    2    1    2    0    0  0.71268704636E+02  0.10684318539E+04 -0.59599105363E+03  0.15217073616E+04  0.90208763625E+03 0.  0.
        -24    2    4    4    0    0  0.11077472979E+03  0.85049922032E+03 -0.82545375667E+03  0.11931217812E+04  0.80905597616E+02 0.  0.
         24    2    4    4    0    0 -0.39506025153E+02  0.21793263362E+03  0.22946270304E+03  0.32858558042E+03  0.79120115995E+02 0.  0.
         13    1    3    3    0    0  0.14445376829E+01 -0.13940003812E+03  0.22008571049E+03  0.26052289204E+03  0.00000000000E+00 0. -1.
        -13    1    3    3    0    0 -0.72713242319E+02 -0.92903181582E+03  0.10951462496E+04  0.14379612785E+04  0.00000000000E+00 0.  1.
          2    1    6    6  502    0 -0.45223396642E+02  0.66806810672E+02  0.54692022299E+02  0.97465495736E+02  0.00000000000E+00 0. -1.
          1    1    5    5  503    0  0.36920894095E+02  0.57640833426E+03 -0.54843636889E+03  0.79648739534E+03  0.00000000000E+00 0. -1.
         -2    1    5    5    0  503  0.73853835693E+02  0.27409088606E+03 -0.27701738778E+03  0.39663438581E+03  0.00000000000E+00 0.  1.
         -1    1    6    6    0  502  0.57173714894E+01  0.15112582295E+03  0.17477068074E+03  0.23112008468E+03  0.00000000000E+00 0.  1.
<mgrwt>
<rscale>  0 0.31388415E+04</rscale>
<asrwt>0</asrwt>
<pdfrwt beam="1">  1        2 0.30303326E+00 0.31388415E+04</pdfrwt>
<pdfrwt beam="2">  1       -2 0.19238082E+00 0.31388415E+04</pdfrwt>
<totfact> 0.87832192E-01</totfact>
</mgrwt>
</event>
<event>
12    1  0.1599266E-007  0.1768916E+04  0.7818608E-02  0.8723006E-01
          2   -1    0    0  501    0  0.00000000000E+00  0.00000000000E+00  0.16064109059E+04  0.16064109059E+04  0.00000000000E+00 0. -1.
         -2   -1    0    0    0  501 -0.00000000000E+00 -0.00000000000E+00 -0.48696512295E+03  0.48696512295E+03  0.00000000000E+00 0.  1.
         23    2    1    2    0    0  0.58061801805E+03 -0.29993720222E+03  0.76212583215E+02  0.66469775824E+03  0.94525889628E+02 0.  0.
        254    2    1    2    0    0 -0.58061801805E+03  0.29993720222E+03  0.10432331997E+04  0.14286782706E+04  0.72505619348E+03 0.  0.
        -24    2    4    4    0    0 -0.50314037786E+02  0.30693657846E+03  0.75433074600E+03  0.81978710370E+03  0.79337604200E+02 0.  0.
         24    2    4    4    0    0 -0.53030398027E+03 -0.69993762467E+01  0.28890245369E+03  0.60889116687E+03  0.77540457724E+02 0.  0.
         13    1    3    3    0    0  0.49505122618E+03 -0.27812263583E+03  0.91281246180E+02  0.57511753843E+03  0.00000000000E+00 0.  1.
        -13    1    3    3    0    0  0.85566791878E+02 -0.21814566383E+02 -0.15068662966E+02  0.89580219817E+02  0.00000000000E+00 0. -1.
          2    1    6    6  502    0 -0.41430304382E+03 -0.93456535962E+01  0.18771441616E+03  0.45494071635E+03  0.00000000000E+00 0. -1.
          3    1    5    5  503    0 -0.21541823275E+02  0.19397216899E+03  0.37209839182E+03  0.42017432774E+03  0.00000000000E+00 0. -1.
         -4    1    5    5    0  503 -0.28772214511E+02  0.11296440947E+03  0.38223235418E+03  0.39961277596E+03  0.00000000000E+00 0.  1.
         -1    1    6    6    0  502 -0.11600093644E+03  0.23462773496E+01  0.10118803754E+03  0.15395045051E+03  0.00000000000E+00 0.  1.
<mgrwt>
<rscale>  0 0.17689161E+04</rscale>
<asrwt>0</asrwt>
<pdfrwt beam="1">  1        2 0.24714014E+00 0.17689161E+04</pdfrwt>
<pdfrwt beam="2">  1       -2 0.74917712E-01 0.17689161E+04</pdfrwt>
<totfact> 0.16753897E+01</totfact>
</mgrwt>
</event>
<event>
12    1  0.1599266E-007  0.1598891E+04  0.7818608E-02  0.8821230E-01
          1   -1    0    0  501    0  0.00000000000E+00  0.00000000000E+00  0.16331420326E+04  0.16331420326E+04  0.00000000000E+00 0. -1.
         -1   -1    0    0    0  501 -0.00000000000E+00 -0.00000000000E+00 -0.39133961721E+03  0.39133961721E+03  0.00000000000E+00 0.  1.
         23    2    1    2    0    0 -0.17665573632E+03 -0.44276963538E+03  0.88927603649E+02  0.49252727031E+03  0.86155638903E+02 0.  0.
        254    2    1    2    0    0  0.17665573632E+03  0.44276963538E+03  0.11528748117E+04  0.15319543795E+04  0.88910724332E+03 0.  0.
        -24    2    4    4    0    0  0.27498411865E+03  0.18437173737E+03  0.11942716519E+04  0.12419534227E+04  0.80958771851E+02 0.  0.
         24    2    4    4    0    0 -0.98328382333E+02  0.25839789802E+03 -0.41396840162E+02  0.29000095673E+03  0.77129190696E+02 0.  0.
         13    1    3    3    0    0 -0.17002373311E+03 -0.33083282604E+03  0.60580384122E+02  0.37686656995E+03  0.00000000000E+00 0.  1.
        -13    1    3    3    0    0 -0.66320032129E+01 -0.11193680935E+03  0.28347219527E+02  0.11566070036E+03  0.00000000000E+00 0. -1.
          4    1    6    6  502    0 -0.19492039812E+02  0.15069576601E+03 -0.37315805456E+02  0.15646604375E+03  0.00000000000E+00 0. -1.
          1    1    5    5  503    0  0.71331894634E+02  0.82020660945E+02  0.48190064484E+03  0.49400795491E+03  0.00000000000E+00 0. -1.
         -2    1    5    5    0  503  0.20365222402E+03  0.10235107642E+03  0.71237100704E+03  0.74794546784E+03  0.00000000000E+00 0.  1.
         -3    1    6    6    0  502 -0.78836342521E+02  0.10770213201E+03 -0.40810347056E+01  0.13353491298E+03  0.00000000000E+00 0.  1.
<mgrwt>
<rscale>  0 0.15988911E+04</rscale>
<asrwt>0</asrwt>
<pdfrwt beam="1">  1        1 0.25125262E+00 0.15988911E+04</pdfrwt>
<pdfrwt beam="2">  1       -1 0.60206096E-01 0.15988911E+04</pdfrwt>
<totfact> 0.14214902E+01</totfact>
</mgrwt>
</event>
<event>
12    1  0.1599266E-007  0.2098668E+04  0.7818608E-02  0.8561830E-01
         -2   -1    0    0    0  501 -0.00000000000E+00  0.00000000000E+00  0.99945038869E+03  0.99945038869E+03  0.00000000000E+00 0.  1.
          2   -1    0    0  501    0  0.00000000000E+00 -0.00000000000E+00 -0.11017076907E+04  0.11017076907E+04  0.00000000000E+00 0. -1.
         23    2    1    2    0    0 -0.81605525358E+03 -0.23886557724E+03  0.66161261790E+02  0.85771342271E+03  0.91060760158E+02 0.  0.
        254    2    1    2    0    0  0.81605525358E+03  0.23886557724E+03 -0.16841856379E+03  0.12434446567E+04  0.89150819439E+03 0.  0.
        -24    2    4    4    0    0  0.25159471010E+03 -0.54643676750E+02 -0.46450440314E+03  0.53732334583E+03  0.81646848604E+02 0.  0.
         24    2    4    4    0    0  0.56446054348E+03  0.29350925399E+03  0.29608583935E+03  0.70612131083E+03  0.78594491021E+02 0.  0.
         11    1    3    3    0    0 -0.64380561941E+03 -0.17001724957E+03  0.18249934537E+02  0.66612656519E+03  0.00000000000E+00 0. -1.
        -11    1    3    3    0    0 -0.17224963417E+03 -0.68848327677E+02  0.47911327253E+02  0.19158685752E+03  0.00000000000E+00 0.  1.
          2    1    6    6  502    0  0.43565452170E+03  0.21665157994E+03  0.18967670177E+03  0.52221644992E+03  0.00000000000E+00 0. -1.
          1    1    5    5  503    0  0.20668025601E+03 -0.10556464235E+02 -0.36495767272E+03  0.41955008049E+03  0.00000000000E+00 0. -1.
         -4    1    5    5    0  503  0.44914454089E+02 -0.44087212515E+02 -0.99546730417E+02  0.11777326535E+03  0.00000000000E+00 0.  1.
         -1    1    6    6    0  502  0.12880602179E+03  0.76857674050E+02  0.10640913758E+03  0.18390486092E+03  0.00000000000E+00 0.  1.
<mgrwt>
<rscale>  0 0.20986683E+04</rscale>
<asrwt>0</asrwt>
<pdfrwt beam="1">  1        2 0.16949349E+00 0.20986683E+04</pdfrwt>
<pdfrwt beam="2">  1       -2 0.15376160E+00 0.20986683E+04</pdfrwt>
<totfact> 0.56182005E+00</totfact>
</mgrwt>
</event>
<event>
12    1  0.1599266E-007  0.1085989E+04  0.7818608E-02  0.9218956E-01
          1   -1    0    0  501    0  0.00000000000E+00  0.00000000000E+00  0.14341790696E+04  0.14341790696E+04  0.00000000000E+00 0. -1.
         -1   -1    0    0    0  501 -0.00000000000E+00 -0.00000000000E+00 -0.20558327889E+03  0.20558327889E+03  0.00000000000E+00 0.  1.
         23    2    1    2    0    0 -0.20758245970E+02 -0.72070377955E+02  0.39731241119E+03  0.41462213079E+03  0.91811301616E+02 0.  0.
        254    2    1    2    0    0  0.20758245970E+02  0.72070377955E+02  0.83128337953E+03  0.12251402177E+04  0.89683412726E+03 0.  0.
        -24    2    4    4    0    0  0.18649290171E+03  0.30322433175E+03  0.85431682645E+03  0.92879923994E+03  0.78014039794E+02 0.  0.
         24    2    4    4    0    0 -0.16573465574E+03 -0.23115395379E+03 -0.23033446920E+02  0.29634097777E+03  0.79920641679E+02 0.  0.
         11    1    3    3    0    0  0.17317326225E+02 -0.66354008490E+02  0.33023366186E+03  0.33727883962E+03  0.00000000000E+00 0. -1.
        -11    1    3    3    0    0 -0.38075572196E+02 -0.57163694645E+01  0.67078749328E+02  0.77343291172E+02  0.00000000000E+00 0.  1.
          2    1    6    6  502    0 -0.25452476779E+02 -0.50066613244E+02  0.26306507699E+02  0.62020373130E+02  0.00000000000E+00 0. -1.
          1    1    5    5  503    0  0.16313823162E+02  0.27737323507E+02  0.15284050613E+03  0.15619129379E+03  0.00000000000E+00 0. -1.
         -2    1    5    5    0  503  0.17017907854E+03  0.27548700824E+03  0.70147632032E+03  0.77260794615E+03  0.00000000000E+00 0.  1.
         -1    1    6    6    0  502 -0.14028217896E+03 -0.18108734055E+03 -0.49339954618E+02  0.23432060464E+03  0.00000000000E+00 0.  1.
<mgrwt>
<rscale>  0 0.10859894E+04</rscale>
<asrwt>0</asrwt>
<pdfrwt beam="1">  1        1 0.22064293E+00 0.10859894E+04</pdfrwt>
<pdfrwt beam="2">  1       -1 0.31628198E-01 0.10859894E+04</pdfrwt>
<totfact> 0.67373324E+01</totfact>
</mgrwt>
</event>
<event>
12    1  0.1599266E-007  0.1278905E+04  0.7818608E-02  0.9046463E-01
         -1   -1    0    0    0  501 -0.00000000000E+00  0.00000000000E+00  0.38435744149E+03  0.38435744149E+03  0.00000000000E+00 0.  1.
          1   -1    0    0  501    0  0.00000000000E+00 -0.00000000000E+00 -0.10638518187E+04  0.10638518187E+04  0.00000000000E+00 0. -1.
         23    2    1    2    0    0 -0.91701986772E+02 -0.24798846910E+03 -0.69933288594E+02  0.28737744718E+03  0.88247363177E+02 0.  0.
        254    2    1    2    0    0  0.91701986772E+02  0.24798846910E+03 -0.60956108863E+03  0.11608318130E+04  0.95187091677E+03 0.  0.
        -24    2    4    4    0    0 -0.31232236426E+03 -0.20096113141E+03 -0.22801980088E+03  0.44206567114E+03  0.74151146021E+02 0.  0.
         24    2    4    4    0    0  0.40402435103E+03  0.44894960051E+03 -0.38154128776E+03  0.71876614189E+03  0.79117586156E+02 0.  0.
         11    1    3    3    0    0 -0.21315599719E+02 -0.56105350254E+00 -0.27070368249E+01  0.21494129914E+02  0.00000000000E+00 0. -1.
        -11    1    3    3    0    0 -0.70386387054E+02 -0.24742741560E+03 -0.67226251769E+02  0.26588331726E+03  0.00000000000E+00 0.  1.
          4    1    6    6  502    0  0.34942923316E+03  0.42205462917E+03 -0.33595216734E+03  0.64272448042E+03  0.00000000000E+00 0. -1.
          1    1    5    5  503    0 -0.28622002844E+03 -0.19594135643E+03 -0.22870412737E+03  0.41547623002E+03  0.00000000000E+00 0. -1.
         -2    1    5    5    0  503 -0.26102335827E+02 -0.50197749805E+01  0.68432649274E+00  0.26589441123E+02  0.00000000000E+00 0.  1.
         -3    1    6    6    0  502  0.54595117872E+02  0.26894971342E+02 -0.45589120414E+02  0.76041661470E+02  0.00000000000E+00 0.  1.
<mgrwt>
<rscale>  0 0.12789048E+04</rscale>
<asrwt>0</asrwt>
<pdfrwt beam="1">  1        1 0.16366951E+00 0.12789048E+04</pdfrwt>
<pdfrwt beam="2">  1       -1 0.59131914E-01 0.12789048E+04</pdfrwt>
<totfact> 0.38526322E+01</totfact>
</mgrwt>
</event>
<event>
12    1  0.1599266E-007  0.2361891E+04  0.7818608E-02  0.8453911E-01
         -2   -1    0    0    0  501 -0.00000000000E+00  0.00000000000E+00  0.38119411316E+03  0.38119411316E+03  0.00000000000E+00 0.  1.
          2   -1    0    0  501    0  0.00000000000E+00 -0.00000000000E+00 -0.36585866737E+04  0.36585866737E+04  0.00000000000E+00 0. -1.
         23    2    1    2    0    0 -0.48172422130E+02 -0.48416345496E+03  0.10559015961E+03  0.50596048525E+03  0.90066072753E+02 0.  0.
        254    2    1    2    0    0  0.48172422130E+02  0.48416345496E+03 -0.33829827201E+04  0.35338203016E+04  0.89809743672E+03 0.  0.
        -24    2    4    4    0    0  0.55344387875E+02  0.68982996929E+03 -0.17112001119E+04  0.18475591869E+04  0.79628753967E+02 0.  0.
         24    2    4    4    0    0 -0.71719657453E+01 -0.20566651434E+03 -0.16717826082E+04  0.16862611147E+04  0.79178945388E+02 0.  0.
         11    1    3    3    0    0 -0.37834615533E+02 -0.31810635034E+03  0.25649740173E+02  0.32137364147E+03  0.00000000000E+00 0. -1.
        -11    1    3    3    0    0 -0.10337806597E+02 -0.16605710462E+03  0.79940419435E+02  0.18458684379E+03  0.00000000000E+00 0.  1.
          4    1    6    6  502    0 -0.49029759962E+01 -0.27469382500E+02 -0.84104555596E+02  0.88612540989E+02  0.00000000000E+00 0. -1.
          3    1    5    5  503    0  0.45216611799E+02  0.14951483054E+03 -0.38343815134E+03  0.41403386629E+03  0.00000000000E+00 0. -1.
         -4    1    5    5    0  503  0.10127776076E+02  0.54031513876E+03 -0.13277619605E+04  0.14335253206E+04  0.00000000000E+00 0.  1.
         -1    1    6    6    0  502 -0.22689897491E+01 -0.17819713184E+03 -0.15876780526E+04  0.15976485737E+04  0.00000000000E+00 0.  1.
<mgrwt>
<rscale>  0 0.23618905E+04</rscale>
<asrwt>0</asrwt>
<pdfrwt beam="1">  1        2 0.56285947E+00 0.23618905E+04</pdfrwt>
<pdfrwt beam="2">  1       -2 0.58645250E-01 0.23618905E+04</pdfrwt>
<totfact> 0.15395508E+00</totfact>
</mgrwt>
</event>
<event>
12    1  0.1599266E-007  0.1331685E+04  0.7818608E-02  0.9004810E-01
         -2   -1    0    0    0  501 -0.00000000000E+00  0.00000000000E+00  0.58525750657E+03  0.58525750657E+03  0.00000000000E+00 0.  1.
          2   -1    0    0  501    0  0.00000000000E+00 -0.00000000000E+00 -0.75752291732E+03  0.75752291732E+03  0.00000000000E+00 0. -1.
         23    2    1    2    0    0  0.11446095756E+03  0.11495000036E+02 -0.39928307876E+03  0.42529686746E+03  0.90647684243E+02 0.  0.
        254    2    1    2    0    0 -0.11446095756E+03 -0.11495000036E+02  0.22701766801E+03  0.91748355642E+03  0.88147921637E+03 0.  0.
        -24    2    4    4    0    0  0.25954290169E+03  0.18230285506E+03  0.34206741983E+03  0.47329273232E+03  0.79994012161E+02 0.  0.
         24    2    4    4    0    0 -0.37400385925E+03 -0.19379785509E+03 -0.11504975182E+03  0.44419082410E+03  0.81440453391E+02 0.  0.
         11    1    3    3    0    0  0.38112544577E+02 -0.12580842834E+02 -0.27190506318E+03  0.27485124530E+03  0.00000000000E+00 0.  1.
        -11    1    3    3    0    0  0.76348412979E+02  0.24075842871E+02 -0.12737801558E+03  0.15044562216E+03  0.00000000000E+00 0. -1.
          4    1    6    6  502    0 -0.23514735357E+03 -0.77703553663E+02 -0.57162656733E+02  0.25416468966E+03  0.00000000000E+00 0. -1.
          1    1    5    5  503    0  0.44036084085E+02  0.76392659552E+01  0.22228215889E+02  0.49916216478E+02  0.00000000000E+00 0. -1.
         -2    1    5    5    0  503  0.21550681761E+03  0.17466358910E+03  0.31983920394E+03  0.42337651585E+03  0.00000000000E+00 0.  1.
         -3    1    6    6    0  502 -0.13885650567E+03 -0.11609430143E+03 -0.57887095089E+02  0.19002613444E+03  0.00000000000E+00 0.  1.
<mgrwt>
<rscale>  0 0.13316846E+04</rscale>
<asrwt>0</asrwt>
<pdfrwt beam="1">  1        2 0.11654199E+00 0.13316846E+04</pdfrwt>
<pdfrwt beam="2">  1       -2 0.90039617E-01 0.13316846E+04</pdfrwt>
<totfact> 0.38234153E+01</totfact>
</mgrwt>
</event>
<event>
12    1  0.1599266E-007  0.1377903E+04  0.7818608E-02  0.8969971E-01
         -2   -1    0    0    0  501 -0.00000000000E+00  0.00000000000E+00  0.37837153667E+03  0.37837153667E+03  0.00000000000E+00 0.  1.
          2   -1    0    0  501    0  0.00000000000E+00 -0.00000000000E+00 -0.12544653318E+04  0.12544653318E+04  0.00000000000E+00 0. -1.
         23    2    1    2    0    0 -0.20191796546E+02  0.55481162443E+02 -0.70710992299E+03  0.71530010042E+03  0.90354426843E+02 0.  0.
        254    2    1    2    0    0  0.20191796546E+02 -0.55481162443E+02 -0.16898387217E+03  0.91753676807E+03  0.89990683055E+03 0.  0.
        -24    2    4    4    0    0  0.41231689779E+03 -0.18108726929E+03 -0.19435603307E+03  0.49686004628E+03  0.79358772022E+02 0.  0.
         24    2    4    4    0    0 -0.39212510125E+03  0.12560610685E+03  0.25372160894E+02  0.42067672178E+03  0.82378204618E+02 0.  0.
         11    1    3    3    0    0  0.25511160702E+02  0.39107073803E+01 -0.72439467505E+02  0.76899866092E+02  0.00000000000E+00 0.  1.
        -11    1    3    3    0    0 -0.45702957248E+02  0.51570455063E+02 -0.63467045548E+03  0.63840023433E+03  0.00000000000E+00 0. -1.
          2    1    6    6  502    0 -0.30001940256E+02  0.16422155639E+02 -0.20190175100E+02  0.39717084303E+02  0.00000000000E+00 0. -1.
          1    1    5    5  503    0  0.28599434307E+03 -0.10430088448E+03 -0.16458346756E+03  0.34606235936E+03  0.00000000000E+00 0. -1.
         -2    1    5    5    0  503  0.12632255472E+03 -0.76786384813E+02 -0.29772565505E+02  0.15079768692E+03  0.00000000000E+00 0.  1.
         -1    1    6    6    0  502 -0.36212316099E+03  0.10918395121E+03  0.45562335994E+02  0.38095963748E+03  0.00000000000E+00 0.  1.
<mgrwt>
<rscale>  0 0.13779027E+04</rscale>
<asrwt>0</asrwt>
<pdfrwt beam="1">  1        2 0.19299467E+00 0.13779027E+04</pdfrwt>
<pdfrwt beam="2">  1       -2 0.58211006E-01 0.13779027E+04</pdfrwt>
<totfact> 0.47312853E+01</totfact>
</mgrwt>
</event>
<event>
12    1  0.1783493E-007  0.2427761E+04  0.7818608E-02  0.8429183E-01
          1   -1    0    0  501    0  0.00000000000E+00  0.00000000000E+00  0.20741056376E+04  0.20741056376E+04  0.00000000000E+00 0. -1.
         -1   -1    0    0    0  501 -0.00000000000E+00 -0.00000000000E+00 -0.71042965052E+03  0.71042965052E+03  0.00000000000E+00 0.  1.
         23    2    1    2    0    0  0.48811847904E+03 -0.81974198460E+03  0.10798536560E+04  0.14438518290E+04  0.91583922933E+02 0.  0.
        254    2    1    2    0    0 -0.48811847904E+03  0.81974198460E+03  0.28382233112E+03  0.13406834591E+04  0.89813164459E+03 0.  0.
        -24    2    4    4    0    0 -0.11832642656E+03  0.74026099786E+03 -0.14015384187E+03  0.76691285634E+03  0.80775872967E+02 0.  0.
         24    2    4    4    0    0 -0.36979205248E+03  0.79480986742E+02  0.42397617299E+03  0.57377060278E+03  0.79959489860E+02 0.  0.
         11    1    3    3    0    0  0.66275279157E+01 -0.18084240742E+02  0.66267595866E+01  0.20368550074E+02  0.00000000000E+00 0.  1.
        -11    1    3    3    0    0  0.48149095113E+03 -0.80165774386E+03  0.10732268964E+04  0.14234832789E+04  0.00000000000E+00 0. -1.
          2    1    6    6  502    0 -0.26821902079E+03  0.24159609324E+02  0.27173062635E+03  0.38257373555E+03  0.00000000000E+00 0. -1.
          3    1    5    5  503    0 -0.98143458652E+02  0.69589481638E+03 -0.11521861826E+03  0.71216364969E+03  0.00000000000E+00 0. -1.
         -4    1    5    5    0  503 -0.20182967907E+02  0.44366181477E+02 -0.24935223610E+02  0.54749206651E+02  0.00000000000E+00 0.  1.
         -1    1    6    6    0  502 -0.10157303169E+03  0.55321377418E+02  0.15224554664E+03  0.19119686723E+03  0.00000000000E+00 0.  1.
<mgrwt>
<rscale>  0 0.24277612E+04</rscale>
<asrwt>0</asrwt>
<pdfrwt beam="1">  1        1 0.31909317E+00 0.24277612E+04</pdfrwt>
<pdfrwt beam="2">  1       -1 0.10929687E+00 0.24277612E+04</pdfrwt>
<totfact> 0.18379176E+00</totfact>
</mgrwt>
</event>
<event>
12    1  0.1599266E-007  0.1670123E+04  0.7818608E-02  0.8778590E-01
          2   -1    0    0  501    0  0.00000000000E+00  0.00000000000E+00  0.17059749704E+04  0.17059749704E+04  0.00000000000E+00 0. -1.
         -2   -1    0    0    0  501 -0.00000000000E+00 -0.00000000000E+00 -0.40875633206E+03  0.40875633206E+03  0.00000000000E+00 0.  1.
         23    2    1    2    0    0  0.36705329631E+03  0.12550590133E+03 -0.94442352660E+02  0.40945006619E+03  0.90830309520E+02 0.  0.
        254    2    1    2    0    0 -0.36705329631E+03 -0.12550590133E+03  0.13916609910E+04  0.17052812363E+04  0.90597126187E+03 0.  0.
        -24    2    4    4    0    0 -0.53075601820E+03 -0.29523025400E+02  0.34651422144E+03  0.63993953192E+03  0.82927311370E+02 0.  0.
         24    2    4    4    0    0  0.16370272189E+03 -0.95982875928E+02  0.10451467696E+04  0.10653417044E+04  0.81301189989E+02 0.  0.
         13    1    3    3    0    0  0.18356590325E+02  0.84473087206E+01  0.15592291151E+02  0.25523341793E+02  0.00000000000E+00 0. -1.
        -13    1    3    3    0    0  0.34869670598E+03  0.11705859261E+03 -0.11003464381E+03  0.38392672439E+03  0.00000000000E+00 0.  1.
          4    1    6    6  502    0  0.82333065135E+02 -0.19830761381E+02  0.62309589821E+03  0.62882469026E+03  0.00000000000E+00 0. -1.
          1    1    5    5  503    0 -0.19120319715E+03 -0.34703786137E+02  0.88931062178E+02  0.21370949719E+03  0.00000000000E+00 0. -1.
         -2    1    5    5    0  503 -0.33955282105E+03  0.51807607370E+01  0.25758315926E+03  0.42623003473E+03  0.00000000000E+00 0.  1.
         -3    1    6    6    0  502  0.81369656758E+02 -0.76152114547E+02  0.42205087136E+03  0.43651701411E+03  0.00000000000E+00 0.  1.
<mgrwt>
<rscale>  0 0.16701234E+04</rscale>
<asrwt>0</asrwt>
<pdfrwt beam="1">  1        2 0.26245768E+00 0.16701234E+04</pdfrwt>
<pdfrwt beam="2">  1       -2 0.62885591E-01 0.16701234E+04</pdfrwt>
<totfact> 0.21751634E+01</totfact>
</mgrwt>
</event>
<event>
12    1  0.1599266E-007  0.3121831E+04  0.7818608E-02  0.8209772E-01
         -2   -1    0    0    0  501 -0.00000000000E+00  0.00000000000E+00  0.59209129796E+03  0.59209129796E+03  0.00000000000E+00 0.  1.
          2   -1    0    0  501    0  0.00000000000E+00 -0.00000000000E+00 -0.41150017152E+04  0.41150017152E+04  0.00000000000E+00 0. -1.
         23    2    1    2    0    0  0.78276323215E+03  0.13103032493E+03  0.16553925407E+03  0.81583660241E+03  0.91098263158E+02 0.  0.
        254    2    1    2    0    0 -0.78276323215E+03 -0.13103032493E+03 -0.36884496713E+04  0.38912564108E+04  0.95253779595E+03 0.  0.
        -24    2    4    4    0    0 -0.22255206306E+03  0.35898529776E+03 -0.19808966583E+04  0.20268890181E+04  0.76991272588E+02 0.  0.
         24    2    4    4    0    0 -0.56021116909E+03 -0.49001562269E+03 -0.17075530130E+04  0.18643673926E+04  0.78591462923E+02 0.  0.
         13    1    3    3    0    0  0.51559137347E+02  0.90574145517E+01  0.35395077360E+02  0.63191715467E+02  0.00000000000E+00 0. -1.
        -13    1    3    3    0    0  0.73120409480E+03  0.12197291038E+03  0.13014417671E+03  0.75264488695E+03  0.00000000000E+00 0.  1.
          2    1    6    6  502    0 -0.75025048555E+02 -0.33955386653E+02 -0.20127266422E+03  0.21746818516E+03  0.00000000000E+00 0. -1.
          1    1    5    5  503    0 -0.40472103430E+02  0.10949919499E+03 -0.43185223661E+03  0.44735267869E+03  0.00000000000E+00 0. -1.
         -4    1    5    5    0  503 -0.18207995963E+03  0.24948610277E+03 -0.15490444217E+04  0.15795363395E+04  0.00000000000E+00 0.  1.
         -1    1    6    6    0  502 -0.48518612053E+03 -0.45606023604E+03 -0.15062803488E+04  0.16468992075E+04  0.00000000000E+00 0.  1.
<mgrwt>
<rscale>  0 0.31218307E+04</rscale>
<asrwt>0</asrwt>
<pdfrwt beam="1">  1        2 0.63307721E+00 0.31218307E+04</pdfrwt>
<pdfrwt beam="2">  1       -2 0.91090966E-01 0.31218307E+04</pdfrwt>
<totfact> 0.23911899E-01</totfact>
</mgrwt>
</event>
<event>
12    1  0.1599266E-007  0.1932185E+04  0.7818608E-02  0.8639000E-01
         -2   -1    0    0    0  501 -0.00000000000E+00  0.00000000000E+00  0.31085484431E+03  0.31085484431E+03  0.00000000000E+00 0.  1.
          2   -1    0    0  501    0  0.00000000000E+00 -0.00000000000E+00 -0.30024780506E+04  0.30024780506E+04  0.00000000000E+00 0. -1.
         23    2    1    2    0    0  0.71521191445E+03 -0.17587321067E+03 -0.11063004924E+04  0.13321463002E+04  0.90848868603E+02 0.  0.
        254    2    1    2    0    0 -0.71521191445E+03  0.17587321067E+03 -0.15853227139E+04  0.19811865947E+04  0.93241232667E+03 0.  0.
        -24    2    4    4    0    0  0.21116117094E+03  0.12205213893E+03 -0.32593789585E+03  0.41483618323E+03  0.79798384912E+02 0.  0.
         24    2    4    4    0    0 -0.92637308539E+03  0.53821071740E+02 -0.12593848180E+04  0.15663504114E+04  0.79622172926E+02 0.  0.
         13    1    3    3    0    0  0.45700894783E+03 -0.12423344552E+03 -0.63337506526E+03  0.79085719361E+03  0.00000000000E+00 0. -1.
        -13    1    3    3    0    0  0.25820296662E+03 -0.51639765150E+02 -0.47292542711E+03  0.54128910660E+03  0.00000000000E+00 0.  1.
          4    1    6    6  502    0 -0.63806955867E+03  0.39033057786E+02 -0.80391527746E+03  0.10271008298E+04  0.00000000000E+00 0. -1.
          3    1    5    5  503    0  0.15789672784E+03  0.74344245908E+02 -0.27970129304E+03  0.32968357085E+03  0.00000000000E+00 0. -1.
         -4    1    5    5    0  503  0.53264443104E+02  0.47707893021E+02 -0.46236602819E+02  0.85152612385E+02  0.00000000000E+00 0.  1.
         -3    1    6    6    0  502 -0.28830352673E+03  0.14788013954E+02 -0.45546954058E+03  0.53924958162E+03  0.00000000000E+00 0.  1.
<mgrwt>
<rscale>  0 0.19321851E+04</rscale>
<asrwt>0</asrwt>
<pdfrwt beam="1">  1        2 0.46191971E+00 0.19321851E+04</pdfrwt>
<pdfrwt beam="2">  1       -2 0.47823821E-01 0.19321851E+04</pdfrwt>
<totfact> 0.67334539E+00</totfact>
</mgrwt>
</event>
<event>
12    1  0.1599266E-007  0.2740037E+04  0.7818608E-02  0.8322130E-01
         -2   -1    0    0    0  501 -0.00000000000E+00  0.00000000000E+00  0.16812666671E+04  0.16812666671E+04  0.00000000000E+00 0.  1.
          2   -1    0    0  501    0  0.00000000000E+00 -0.00000000000E+00 -0.11163910680E+04  0.11163910680E+04  0.00000000000E+00 0. -1.
         23    2    1    2    0    0  0.69505928863E+03  0.69503012018E+03  0.99322262088E+03  0.14002435635E+04  0.89535355214E+02 0.  0.
        254    2    1    2    0    0 -0.69505928863E+03 -0.69503012018E+03 -0.42834702179E+03  0.13974141717E+04  0.89616455712E+03 0.  0.
        -24    2    4    4    0    0 -0.28570478515E+03 -0.49091317688E+03  0.20809327806E+03  0.60968340492E+03  0.76079368878E+02 0.  0.
         24    2    4    4    0    0 -0.40935450348E+03 -0.20411694331E+03 -0.63644029985E+03  0.78773076675E+03  0.78921920569E+02 0.  0.
         13    1    3    3    0    0  0.12224782495E+03  0.15732932564E+03  0.16525094788E+03  0.25885309190E+03  0.00000000000E+00 0. -1.
        -13    1    3    3    0    0  0.57281146369E+03  0.53770079454E+03  0.82797167300E+03  0.11413904716E+04  0.00000000000E+00 0.  1.
          4    1    6    6  502    0 -0.30643529097E+03 -0.13098516676E+03 -0.50857319122E+03  0.60803486108E+03  0.00000000000E+00 0. -1.
          1    1    5    5  503    0 -0.22725374864E+03 -0.32435867169E+03  0.13197068642E+03  0.41745547816E+03  0.00000000000E+00 0. -1.
         -2    1    5    5    0  503 -0.58451036508E+02 -0.16655450519E+03  0.76122591644E+02  0.19222792676E+03  0.00000000000E+00 0.  1.
         -1    1    6    6    0  502 -0.10291921252E+03 -0.73131776545E+02 -0.12786710864E+03  0.17969590568E+03  0.00000000000E+00 0.  1.
<mgrwt>
<rscale>  0 0.27400373E+04</rscale>
<asrwt>0</asrwt>
<pdfrwt beam="1">  1        2 0.17175247E+00 0.27400373E+04</pdfrwt>
<pdfrwt beam="2">  1       -2 0.25865641E+00 0.27400373E+04</pdfrwt>
<totfact> 0.10582666E+00</totfact>
</mgrwt>
</event>
<event>
12    1  0.1599266E-007  0.1583947E+04  0.7818608E-02  0.8830471E-01
         -2   -1    0    0    0  501 -0.00000000000E+00  0.00000000000E+00  0.24975613786E+03  0.24975613786E+03  0.00000000000E+00 0.  1.
          2   -1    0    0  501    0  0.00000000000E+00 -0.00000000000E+00 -0.25113374807E+04  0.25113374807E+04  0.00000000000E+00 0. -1.
         23    2    1    2    0    0 -0.11733472533E+03 -0.41222382218E+03 -0.21890387813E+03  0.48904587485E+03  0.86896734707E+02 0.  0.
        254    2    1    2    0    0  0.11733472533E+03  0.41222382218E+03 -0.20426774647E+04  0.22720477437E+04  0.89776043995E+03 0.  0.
        -24    2    4    4    0    0  0.47438325350E+03  0.37324489935E+03 -0.14714941533E+04  0.15922804924E+04  0.75570476999E+02 0.  0.
         24    2    4    4    0    0 -0.35704852817E+03  0.38978922826E+02 -0.57118331141E+03  0.67976725137E+03  0.82644618157E+02 0.  0.
         13    1    3    3    0    0 -0.10015031837E+03 -0.37591052995E+03 -0.22342630875E+03  0.44861802042E+03  0.00000000000E+00 0.  1.
        -13    1    3    3    0    0 -0.17184406964E+02 -0.36313292226E+02  0.45224306246E+01  0.40427854429E+02  0.00000000000E+00 0. -1.
          4    1    6    6  502    0 -0.28881639488E+03  0.64014141466E+01 -0.49005916162E+03  0.56887069703E+03  0.00000000000E+00 0. -1.
          1    1    5    5  503    0  0.36814335058E+03  0.27716324102E+03 -0.10368169001E+04  0.11346093041E+04  0.00000000000E+00 0. -1.
         -2    1    5    5    0  503  0.10623990292E+03  0.96081658333E+02 -0.43467725324E+03  0.45767118822E+03  0.00000000000E+00 0.  1.
         -3    1    6    6    0  502 -0.68232133294E+02  0.32577508679E+02 -0.81124149794E+02  0.11089655434E+03  0.00000000000E+00 0.  1.
<mgrwt>
<rscale>  0 0.15839469E+04</rscale>
<asrwt>0</asrwt>
<pdfrwt beam="1">  1        2 0.38635963E+00 0.15839469E+04</pdfrwt>
<pdfrwt beam="2">  1       -2 0.38424020E-01 0.15839469E+04</pdfrwt>
<totfact> 0.21108756E+01</totfact>
</mgrwt>
</event>
<event>
12    1  0.1599266E-007  0.1764323E+04  0.7818608E-02  0.8725506E-01
          2   -1    0    0  501    0  0.00000000000E+00  0.00000000000E+00  0.67379427700E+03  0.67379427700E+03  0.00000000000E+00 0. -1.
         -2   -1    0    0    0  501 -0.00000000000E+00 -0.00000000000E+00 -0.11549647628E+04  0.11549647628E+04  0.00000000000E+00 0.  1.
         23    2    1    2    0    0 -0.57513879030E+03 -0.24066731090E+03  0.30727240703E+02  0.63098616414E+03  0.92162863298E+02 0.  0.
        254    2    1    2    0    0  0.57513879030E+03  0.24066731090E+03 -0.51189772650E+03  0.11977728757E+04  0.88538985573E+03 0.  0.
        -24    2    4    4    0    0 -0.63490114795E+02 -0.74095043248E+01  0.18882104890E+03  0.21443154712E+03  0.79003825630E+02 0.  0.
         24    2    4    4    0    0  0.63862890510E+03  0.24807681522E+03 -0.70071877540E+03  0.98334132854E+03  0.81020871004E+02 0.  0.
         11    1    3    3    0    0 -0.10629686087E+03 -0.69060392149E+02  0.35728451979E+02  0.13169997219E+03  0.00000000000E+00 0.  1.
        -11    1    3    3    0    0 -0.46884192944E+03 -0.17160691875E+03 -0.50012112761E+01  0.49928619195E+03  0.00000000000E+00 0. -1.
          4    1    6    6  502    0  0.60972582172E+02  0.50757175899E+02 -0.74565444939E+02  0.10887585711E+03  0.00000000000E+00 0. -1.
          3    1    5    5  503    0 -0.36713223697E+02 -0.39592161213E+02  0.14038083302E+03  0.15040670964E+03  0.00000000000E+00 0. -1.
         -4    1    5    5    0  503 -0.26776891098E+02  0.32182656888E+02  0.48440215877E+02  0.64024837489E+02  0.00000000000E+00 0.  1.
         -3    1    6    6    0  502  0.57765632293E+03  0.19731963932E+03 -0.62615333046E+03  0.87446547143E+03  0.00000000000E+00 0.  1.
<mgrwt>
<rscale>  0 0.17643227E+04</rscale>
<asrwt>0</asrwt>
<pdfrwt beam="1">  1        2 0.10366066E+00 0.17643227E+04</pdfrwt>
<pdfrwt beam="2">  1       -2 0.17768689E+00 0.17643227E+04</pdfrwt>
<totfact> 0.76525968E+00</totfact>
</mgrwt>
</event>
<event>
12    1  0.1599266E-007  0.1775940E+04  0.7818608E-02  0.8719200E-01
         -1   -1    0    0    0  501 -0.00000000000E+00  0.00000000000E+00  0.55770192030E+03  0.55770192030E+03  0.00000000000E+00 0.  1.
          1   -1    0    0  501    0  0.00000000000E+00 -0.00000000000E+00 -0.14138210563E+04  0.14138210563E+04  0.00000000000E+00 0. -1.
         23    2    1    2    0    0 -0.14119340017E+03  0.50988397153E+03  0.11358658734E+03  0.54900922360E+03  0.92692902091E+02 0.  0.
        254    2    1    2    0    0  0.14119340017E+03 -0.50988397153E+03 -0.96970572336E+03  0.14225137530E+04  0.89626946112E+03 0.  0.
        -24    2    4    4    0    0 -0.13842156780E+03 -0.41923150633E+03 -0.10193178082E+04  0.11136973806E+04  0.79984218081E+02 0.  0.
         24    2    4    4    0    0  0.27961496797E+03 -0.90652465204E+02  0.49612084794E+02  0.30881637245E+03  0.80646098303E+02 0.  0.
         13    1    3    3    0    0 -0.22720211721E+02  0.24063907685E+03  0.69989096779E+02  0.25163832577E+03  0.00000000000E+00 0.  1.
        -13    1    3    3    0    0 -0.11847318845E+03  0.26924489468E+03  0.43597490561E+02  0.29737089783E+03  0.00000000000E+00 0. -1.
          2    1    6    6  502    0  0.22700014193E+03 -0.92066247290E+02  0.14184434472E+02  0.24537003996E+03  0.00000000000E+00 0. -1.
          1    1    5    5  503    0 -0.96258796505E+02 -0.17674864839E+03 -0.41674403716E+03  0.46279739964E+03  0.00000000000E+00 0. -1.
         -2    1    5    5    0  503 -0.42162771297E+02 -0.24248285794E+03 -0.60257377099E+03  0.65089998092E+03  0.00000000000E+00 0.  1.
         -1    1    6    6    0  502  0.52614826042E+02  0.14137820861E+01  0.35427650322E+02  0.63446332491E+02  0.00000000000E+00 0.  1.
<mgrwt>
<rscale>  0 0.17759400E+04</rscale>
<asrwt>0</asrwt>
<pdfrwt beam="1">  1        1 0.21751093E+00 0.17759400E+04</pdfrwt>
<pdfrwt beam="2">  1       -1 0.85800297E-01 0.17759400E+04</pdfrwt>
<totfact> 0.95295123E+00</totfact>
</mgrwt>
</event>
<event>
12    1  0.1599266E-007  0.1876696E+04  0.7818608E-02  0.8666544E-01
         -1   -1    0    0    0  501 -0.00000000000E+00  0.00000000000E+00  0.11545399941E+04  0.11545399941E+04  0.00000000000E+00 0.  1.
          1   -1    0    0  501    0  0.00000000000E+00 -0.00000000000E+00 -0.76263891006E+03  0.76263891006E+03  0.00000000000E+00 0. -1.
         23    2    1    2    0    0  0.32675828118E+03  0.46177623642E+03  0.60762933766E+03  0.83503480626E+03  0.89785571455E+02 0.  0.
        254    2    1    2    0    0 -0.32675828118E+03 -0.46177623642E+03 -0.21572825366E+03  0.10821440979E+04  0.89693305339E+03 0.  0.
        -24    2    4    4    0    0 -0.26626477378E+03 -0.61171693734E+03 -0.43331257063E+03  0.79959016972E+03  0.80561246632E+02 0.  0.
         24    2    4    4    0    0 -0.60493507397E+02  0.14994070092E+03  0.21758431697E+03  0.28255392814E+03  0.79700119731E+02 0.  0.
         13    1    3    3    0    0  0.30180167563E+02  0.93447818811E+02  0.81457632058E+02  0.12758794291E+03  0.00000000000E+00 0. -1.
        -13    1    3    3    0    0  0.29657811362E+03  0.36832841761E+03  0.52617170560E+03  0.70744686336E+03  0.00000000000E+00 0.  1.
          2    1    6    6  502    0  0.12770994974E+02 -0.25675128316E+00  0.11142596079E+02  0.16950565809E+02  0.00000000000E+00 0. -1.
          1    1    5    5  503    0 -0.16361718225E+03 -0.33381021742E+03 -0.28407980937E+03  0.46786876544E+03  0.00000000000E+00 0. -1.
         -2    1    5    5    0  503 -0.10264759153E+03 -0.27790671992E+03 -0.14923276126E+03  0.33172140428E+03  0.00000000000E+00 0.  1.
         -1    1    6    6    0  502 -0.73264502371E+02  0.15019745220E+03  0.20644172089E+03  0.26560336233E+03  0.00000000000E+00 0.  1.
<mgrwt>
<rscale>  0 0.18766962E+04</rscale>
<asrwt>0</asrwt>
<pdfrwt beam="1">  1        1 0.11732906E+00 0.18766962E+04</pdfrwt>
<pdfrwt beam="2">  1       -1 0.17762154E+00 0.18766962E+04</pdfrwt>
<totfact> 0.48419747E+00</totfact>
</mgrwt>
</event>
<event>
12    1  0.1599266E-007  0.1682573E+04  0.7818608E-02  0.8771366E-01
          2   -1    0    0  501    0  0.00000000000E+00  0.00000000000E+00  0.12441496267E+04  0.12441496267E+04  0.00000000000E+00 0.  1.
         -2   -1    0    0    0  501 -0.00000000000E+00 -0.00000000000E+00 -0.56887298807E+03  0.56887298807E+03  0.00000000000E+00 0. -1.
         23    2    1    2    0    0 -0.84185600599E+02 -0.58710632143E+03  0.29352833101E+03  0.66815427891E+03  0.92142342652E+02 0.  0.
        254    2    1    2    0    0  0.84185600599E+02  0.58710632143E+03  0.38174830762E+03  0.11448683359E+04  0.90178195150E+03 0.  0.
        -24    2    4    4    0    0  0.39005809581E+03  0.54447211863E+03  0.36265272874E+02  0.67545969309E+03  0.79595357327E+02 0.  0.
         24    2    4    4    0    0 -0.30587249521E+03  0.42634202797E+02  0.34548303474E+03  0.46940864276E+03  0.74901855942E+02 0.  0.
         13    1    3    3    0    0  0.18031218016E+02 -0.14981774356E+03  0.82265462559E+02  0.17186648143E+03  0.00000000000E+00 0. -1.
        -13    1    3    3    0    0 -0.10221681861E+03 -0.43728857787E+03  0.21126286845E+03  0.49628779748E+03  0.00000000000E+00 0.  1.
          2    1    6    6  502    0 -0.83990505369E+02  0.37962491380E+02  0.70510866023E+02  0.11604886028E+03  0.00000000000E+00 0. -1.
          3    1    5    5  503    0  0.21160432104E+03  0.27696097421E+03 -0.19495063344E+02  0.34908999901E+03  0.00000000000E+00 0. -1.
         -4    1    5    5    0  503  0.17845377477E+03  0.26751114442E+03  0.55760336218E+02  0.32636969408E+03  0.00000000000E+00 0.  1.
         -1    1    6    6    0  502 -0.22188198984E+03  0.46717114171E+01  0.27497216872E+03  0.35335978248E+03  0.00000000000E+00 0.  1.
<mgrwt>
<rscale>  0 0.16825732E+04</rscale>
<asrwt>0</asrwt>
<pdfrwt beam="1">  1        2 0.19140763E+00 0.16825732E+04</pdfrwt>
<pdfrwt beam="2">  1       -2 0.87518922E-01 0.16825732E+04</pdfrwt>
<totfact> 0.19149484E+01</totfact>
</mgrwt>
</event>
<event>
12    1  0.1599266E-007  0.1670253E+04  0.7818608E-02  0.8778514E-01
          1   -1    0    0  501    0  0.00000000000E+00  0.00000000000E+00  0.70928082327E+03  0.70928082327E+03  0.00000000000E+00 0. -1.
         -1   -1    0    0    0  501 -0.00000000000E+00 -0.00000000000E+00 -0.98330106146E+03  0.98330106146E+03  0.00000000000E+00 0.  1.
         23    2    1    2    0    0  0.10640059310E+03  0.12553904511E+03  0.47233698962E+03  0.50848165479E+03  0.91488925232E+02 0.  0.
        254    2    1    2    0    0 -0.10640059310E+03 -0.12553904511E+03 -0.74635722781E+03  0.11841002299E+04  0.90441312739E+03 0.  0.
        -24    2    4    4    0    0  0.28290407460E+03  0.39063690344E+01  0.36655495077E+02  0.29600416392E+03  0.78897811081E+02 0.  0.
         24    2    4    4    0    0 -0.38930466770E+03 -0.12944541414E+03 -0.78301272289E+03  0.88809606602E+03  0.85390038894E+02 0.  0.
         13    1    3    3    0    0  0.10933766708E+03  0.13760420706E+03  0.44530772149E+03  0.47873647246E+03  0.00000000000E+00 0. -1.
        -13    1    3    3    0    0 -0.29370739793E+01 -0.12065161953E+02  0.27029268123E+02  0.29745182329E+02  0.00000000000E+00 0.  1.
          4    1    6    6  502    0 -0.78453049975E+02 -0.32561637366E+02 -0.98340108258E+02  0.12994582783E+03  0.00000000000E+00 0. -1.
          1    1    5    5  503    0 -0.51085072901E+01 -0.21109080288E+01 -0.46490789989E+00  0.55469738412E+01  0.00000000000E+00 0. -1.
         -2    1    5    5    0  503  0.28801258189E+03  0.60172770632E+01  0.37120402977E+02  0.29045719008E+03  0.00000000000E+00 0.  1.
         -3    1    6    6    0  502 -0.31085161773E+03 -0.96883776777E+02 -0.68467261463E+03  0.75815023819E+03  0.00000000000E+00 0.  1.
<mgrwt>
<rscale>  0 0.16702534E+04</rscale>
<asrwt>0</asrwt>
<pdfrwt beam="1">  1        1 0.10912013E+00 0.16702534E+04</pdfrwt>
<pdfrwt beam="2">  1       -1 0.15127709E+00 0.16702534E+04</pdfrwt>
<totfact> 0.86865373E+00</totfact>
</mgrwt>
</event>
<event>
12    1  0.1599266E-007  0.1265708E+04  0.7818608E-02  0.9057210E-01
          2   -1    0    0  501    0  0.00000000000E+00  0.00000000000E+00  0.47137501169E+03  0.47137501169E+03  0.00000000000E+00 0. -1.
         -2   -1    0    0    0  501 -0.00000000000E+00 -0.00000000000E+00 -0.84965104584E+03  0.84965104584E+03  0.00000000000E+00 0.  1.
         23    2    1    2    0    0  0.57412152064E+02  0.24184355121E+03 -0.25398443459E+03  0.36655071433E+03  0.89815781972E+02 0.  0.
        254    2    1    2    0    0 -0.57412152064E+02 -0.24184355121E+03 -0.12429159955E+03  0.95447534320E+03  0.91312119710E+03 0.  0.
        -24    2    4    4    0    0  0.20851984147E+03 -0.39837653353E+03 -0.34100649897E+03  0.56954998545E+03  0.76924422830E+02 0.  0.
         24    2    4    4    0    0 -0.26593199353E+03  0.15653298232E+03  0.21671489942E+03  0.38492535775E+03  0.77329060982E+02 0.  0.
         13    1    3    3    0    0  0.14011368348E+02  0.20972152304E+03 -0.19774558503E+03  0.28858751198E+03  0.00000000000E+00 0.  1.
        -13    1    3    3    0    0  0.43400783716E+02  0.32122028174E+02 -0.56238849558E+02  0.77963202351E+02  0.00000000000E+00 0. -1.
          4    1    6    6  502    0 -0.25201141109E+03  0.12384332415E+03  0.20443257779E+03  0.34733211645E+03  0.00000000000E+00 0. -1.
          3    1    5    5  503    0  0.19495483581E+03 -0.39473187997E+03 -0.33836406113E+03  0.55525749246E+03  0.00000000000E+00 0. -1.
         -4    1    5    5    0  503  0.13565005656E+02 -0.36446535668E+01 -0.26424378409E+01  0.14292492988E+02  0.00000000000E+00 0.  1.
         -3    1    6    6    0  502 -0.13920582442E+02  0.32689658174E+02  0.12282321629E+02  0.37593241303E+02  0.00000000000E+00 0.  1.
<mgrwt>
<rscale>  0 0.12657081E+04</rscale>
<asrwt>0</asrwt>
<pdfrwt beam="1">  1        2 0.72519233E-01 0.12657081E+04</pdfrwt>
<pdfrwt beam="2">  1       -2 0.13071554E+00 0.12657081E+04</pdfrwt>
<totfact> 0.27728457E+01</totfact>
</mgrwt>
</event>
<event>
12    1  0.1599266E-007  0.1926970E+04  0.7818608E-02  0.8641547E-01
          2   -1    0    0  501    0  0.00000000000E+00  0.00000000000E+00  0.99609138357E+03  0.99609138357E+03  0.00000000000E+00 0. -1.
         -2   -1    0    0    0  501 -0.00000000000E+00 -0.00000000000E+00 -0.93194590259E+03  0.93194590259E+03  0.00000000000E+00 0.  1.
         23    2    1    2    0    0 -0.64995375220E+03  0.37875296422E+03 -0.55034062845E+02  0.75876179386E+03  0.82444064876E+02 0.  0.
        254    2    1    2    0    0  0.64995375220E+03 -0.37875296422E+03  0.11917954382E+03  0.11692754923E+04  0.88719091819E+03 0.  0.
        -24    2    4    4    0    0  0.63129049578E+03 -0.36590166240E+03 -0.26176069892E+03  0.77922451235E+03  0.79123072116E+02 0.  0.
         24    2    4    4    0    0  0.18663256420E+02 -0.12851301828E+02  0.38094024275E+03  0.39005097995E+03  0.80689685314E+02 0.  0.
         11    1    3    3    0    0 -0.11757624135E+03  0.92742913381E+02  0.14417146379E+02  0.15044359283E+03  0.00000000000E+00 0. -1.
        -11    1    3    3    0    0 -0.53237751085E+03  0.28601005084E+03 -0.69451209224E+02  0.60831820103E+03  0.00000000000E+00 0.  1.
          2    1    6    6  502    0  0.46031032203E+02 -0.11397545138E+01  0.14237235081E+03  0.14963302190E+03  0.00000000000E+00 0. -1.
          3    1    5    5  503    0  0.50553533050E+02 -0.19950160658E+02 -0.19264557008E-01  0.54347667708E+02  0.00000000000E+00 0. -1.
         -4    1    5    5    0  503  0.58073696273E+03 -0.34595150174E+03 -0.26174143437E+03  0.72487684464E+03  0.00000000000E+00 0.  1.
         -1    1    6    6    0  502 -0.27367775784E+02 -0.11711547314E+02  0.23856789194E+03  0.24041795805E+03  0.00000000000E+00 0.  1.
<mgrwt>
<rscale>  0 0.19269699E+04</rscale>
<asrwt>0</asrwt>
<pdfrwt beam="1">  1        2 0.15324483E+00 0.19269699E+04</pdfrwt>
<pdfrwt beam="2">  1       -2 0.14337629E+00 0.19269699E+04</pdfrwt>
<totfact> 0.79902594E+00</totfact>
</mgrwt>
</event>
<event>
12    1  0.1599266E-007  0.1147388E+04  0.7818608E-02  0.9160196E-01
         -1   -1    0    0    0  501 -0.00000000000E+00  0.00000000000E+00  0.32616634788E+03  0.32616634788E+03  0.00000000000E+00 0.  1.
          1   -1    0    0  501    0  0.00000000000E+00 -0.00000000000E+00 -0.10090711533E+04  0.10090711533E+04  0.00000000000E+00 0. -1.
         23    2    1    2    0    0  0.39177802269E+02  0.18040747257E+03 -0.24541826994E+03  0.32058309005E+03  0.91987140699E+02 0.  0.
        254    2    1    2    0    0 -0.39177802269E+02 -0.18040747257E+03 -0.43748653547E+03  0.10146544111E+04  0.89668687342E+03 0.  0.
        -24    2    4    4    0    0 -0.39713656641E+03 -0.23250965941E+03 -0.44169689504E+03  0.64286481547E+03  0.80005185964E+02 0.  0.
         24    2    4    4    0    0  0.35795876414E+03  0.52102186844E+02  0.42103595678E+01  0.37178959566E+03  0.85794298289E+02 0.  0.
         11    1    3    3    0    0  0.69368400308E+01  0.16033934469E+03 -0.22795561109E+03  0.27878412048E+03  0.00000000000E+00 0. -1.
        -11    1    3    3    0    0  0.32240962238E+02  0.20068127883E+02 -0.17462658851E+02  0.41798969568E+02  0.00000000000E+00 0.  1.
          2    1    6    6  502    0  0.56549869674E+02  0.20942516393E+02 -0.29084528758E+02  0.66950627825E+02  0.00000000000E+00 0. -1.
          1    1    5    5  503    0 -0.18343989015E+03 -0.89668944620E+02 -0.14568606610E+03  0.25082891138E+03  0.00000000000E+00 0. -1.
         -2    1    5    5    0  503 -0.21369667625E+03 -0.14284071479E+03 -0.29601082894E+03  0.39203590408E+03  0.00000000000E+00 0.  1.
         -1    1    6    6    0  502  0.30140889446E+03  0.31159670452E+02  0.33294888326E+02  0.30483896784E+03  0.00000000000E+00 0.  1.
<mgrwt>
<rscale>  0 0.11473884E+04</rscale>
<asrwt>0</asrwt>
<pdfrwt beam="1">  1        1 0.15524171E+00 0.11473884E+04</pdfrwt>
<pdfrwt beam="2">  1       -1 0.50179439E-01 0.11473884E+04</pdfrwt>
<totfact> 0.58930364E+01</totfact>
</mgrwt>
</event>
<event>
12    1  0.1599266E-007  0.1189331E+04  0.7818608E-02  0.9122247E-01
          2   -1    0    0  501    0  0.00000000000E+00  0.00000000000E+00  0.11678113945E+04  0.11678113945E+04  0.00000000000E+00 0. -1.
         -2   -1    0    0    0  501 -0.00000000000E+00 -0.00000000000E+00 -0.30281154323E+03  0.30281154323E+03  0.00000000000E+00 0.  1.
         23    2    1    2    0    0 -0.22562572083E+03 -0.64505467323E+02  0.25858534372E+03  0.36128872128E+03  0.92710511381E+02 0.  0.
        254    2    1    2    0    0  0.22562572083E+03  0.64505467323E+02  0.60641450759E+03  0.11093342165E+04  0.89878580745E+03 0.  0.
        -24    2    4    4    0    0 -0.12456679431E+02  0.27802442196E+03  0.70760289788E+03  0.76447090788E+03  0.79127491054E+02 0.  0.
         24    2    4    4    0    0  0.23808240026E+03 -0.21351895464E+03 -0.10118839029E+03  0.34486330862E+03  0.80112658187E+02 0.  0.
         11    1    3    3    0    0 -0.59266470704E+02 -0.43366008805E+02  0.33803891814E+02  0.80844470257E+02  0.00000000000E+00 0.  1.
        -11    1    3    3    0    0 -0.16635925012E+03 -0.21139458519E+02  0.22478145191E+03  0.28044425102E+03  0.00000000000E+00 0. -1.
          2    1    6    6  502    0  0.44241225733E+02 -0.24042884940E+02 -0.46079128271E+02  0.68254175205E+02  0.00000000000E+00 0. -1.
          3    1    5    5  503    0 -0.26250568695E+02  0.21378558825E+03  0.45412420322E+03  0.50261532214E+03  0.00000000000E+00 0. -1.
         -4    1    5    5    0  503  0.13793889264E+02  0.64238833714E+02  0.25347869466E+03  0.26185558574E+03  0.00000000000E+00 0.  1.
         -1    1    6    6    0  502  0.19384117452E+03 -0.18947606970E+03 -0.55109262015E+02  0.27660913342E+03  0.00000000000E+00 0.  1.
<mgrwt>
<rscale>  0 0.11893305E+04</rscale>
<asrwt>0</asrwt>
<pdfrwt beam="1">  1        2 0.17966329E+00 0.11893305E+04</pdfrwt>
<pdfrwt beam="2">  1       -2 0.46586392E-01 0.11893305E+04</pdfrwt>
<totfact> 0.85386699E+01</totfact>
</mgrwt>
</event>
<event>
12    1  0.1599266E-007  0.1742299E+04  0.7818608E-02  0.8737601E-01
          2   -1    0    0  501    0  0.00000000000E+00  0.00000000000E+00  0.18390932497E+04  0.18390932497E+04  0.00000000000E+00 0. -1.
         -2   -1    0    0    0  501 -0.00000000000E+00 -0.00000000000E+00 -0.41264975606E+03  0.41264975606E+03  0.00000000000E+00 0.  1.
         23    2    1    2    0    0 -0.25929596133E+03  0.42858179587E+02  0.12725854583E+04  0.13024972534E+04  0.89185913637E+02 0.  0.
        254    2    1    2    0    0  0.25929596133E+03 -0.42858179587E+02  0.15385803532E+03  0.94924575239E+03  0.89906839800E+03 0.  0.
        -24    2    4    4    0    0  0.54511339614E+03 -0.84119849210E+02 -0.89440120412E+02  0.56454833018E+03  0.80563752974E+02 0.  0.
         24    2    4    4    0    0 -0.28581743480E+03  0.41261669623E+02  0.24329815573E+03  0.38469742221E+03  0.73511785815E+02 0.  0.
         13    1    3    3    0    0 -0.22609145783E+03  0.35289258954E+02  0.12080053931E+04  0.12294875798E+04  0.00000000000E+00 0. -1.
        -13    1    3    3    0    0 -0.33204503506E+02  0.75689206323E+01  0.64580065223E+02  0.73009673584E+02  0.00000000000E+00 0.  1.
          2    1    6    6  502    0 -0.27937163763E+03  0.26216968306E+02  0.23651097424E+03  0.36697858558E+03  0.00000000000E+00 0. -1.
          3    1    5    5  503    0  0.48847468543E+03 -0.93607871677E+02 -0.63037739832E+02  0.50134190787E+03  0.00000000000E+00 0. -1.
         -4    1    5    5    0  503  0.56638710705E+02  0.94880224679E+01 -0.26402380580E+02  0.63206422308E+02  0.00000000000E+00 0.  1.
         -1    1    6    6    0  502 -0.64457971757E+01  0.15044701317E+02  0.67871814983E+01  0.17718836633E+02  0.00000000000E+00 0.  1.
<mgrwt>
<rscale>  0 0.17422989E+04</rscale>
<asrwt>0</asrwt>
<pdfrwt beam="1">  1        2 0.28293742E+00 0.17422989E+04</pdfrwt>
<pdfrwt beam="2">  1       -2 0.63484579E-01 0.17422989E+04</pdfrwt>
<totfact> 0.17876571E+01</totfact>
</mgrwt>
</event>
<event>
12    1  0.1599266E-007  0.1016864E+04  0.7818608E-02  0.9290240E-01
         -1   -1    0    0    0  501 -0.00000000000E+00  0.00000000000E+00  0.32234252632E+03  0.32234252632E+03  0.00000000000E+00 0.  1.
          1   -1    0    0  501    0  0.00000000000E+00 -0.00000000000E+00 -0.80195155291E+03  0.80195155291E+03  0.00000000000E+00 0. -1.
         23    2    1    2    0    0  0.34283648979E+02 -0.66731417799E+02 -0.57100169961E+02  0.13105719913E+03  0.91033561533E+02 0.  0.
        254    2    1    2    0    0 -0.34283648979E+02  0.66731417799E+02 -0.42250885663E+03  0.99323688010E+03  0.89575516485E+03 0.  0.
        -24    2    4    4    0    0  0.36979236477E+03  0.10730691905E+03 -0.42483169688E+03  0.57927185323E+03  0.82539332139E+02 0.  0.
         24    2    4    4    0    0 -0.40407601375E+03 -0.40575501256E+02  0.23228402444E+01  0.41396502687E+03  0.80236224325E+02 0.  0.
         11    1    3    3    0    0  0.47156017928E+02 -0.71138551437E+02 -0.14799498266E+02  0.86622218145E+02  0.00000000000E+00 0.  1.
        -11    1    3    3    0    0 -0.12872368949E+02  0.44071336380E+01 -0.42300671696E+02  0.44434980985E+02  0.00000000000E+00 0. -1.
          2    1    6    6  502    0 -0.20606793272E+02 -0.17554128210E+02 -0.11836095552E+02  0.29544551175E+02  0.00000000000E+00 0. -1.
          1    1    5    5  503    0  0.23770350217E+02  0.31590312776E+02 -0.39912866041E+02  0.56178414772E+02  0.00000000000E+00 0. -1.
         -2    1    5    5    0  503  0.34602201456E+03  0.75716606279E+02 -0.38491883083E+03  0.52309343845E+03  0.00000000000E+00 0.  1.
         -1    1    6    6    0  502 -0.38346922048E+03 -0.23021373046E+02  0.14158935797E+02  0.38442047570E+03  0.00000000000E+00 0.  1.
<mgrwt>
<rscale>  0 0.10168640E+04</rscale>
<asrwt>0</asrwt>
<pdfrwt beam="1">  1        1 0.12337716E+00 0.10168640E+04</pdfrwt>
<pdfrwt beam="2">  1       -1 0.49591158E-01 0.10168640E+04</pdfrwt>
<totfact> 0.89904327E+01</totfact>
</mgrwt>
</event>
<event>
12    1  0.1599266E-007  0.1328327E+04  0.7818608E-02  0.9007398E-01
         -2   -1    0    0    0  501 -0.00000000000E+00  0.00000000000E+00  0.33977510306E+03  0.33977510306E+03  0.00000000000E+00 0.  1.
          2   -1    0    0  501    0  0.00000000000E+00 -0.00000000000E+00 -0.12982509680E+04  0.12982509680E+04  0.00000000000E+00 0. -1.
         23    2    1    2    0    0 -0.27929857669E+03 -0.21211608126E+03 -0.27503996304E+03  0.45466045337E+03  0.89823269336E+02 0.  0.
        254    2    1    2    0    0  0.27929857669E+03  0.21211608126E+03 -0.68343590190E+03  0.11833656177E+04  0.90014922444E+03 0.  0.
        -24    2    4    4    0    0  0.68630448077E+02  0.26518818234E+03 -0.85083355535E+03  0.89728069948E+03  0.78485694858E+02 0.  0.
         24    2    4    4    0    0  0.21066812861E+03 -0.53072101078E+02  0.16739765345E+03  0.28608491821E+03  0.81393474672E+02 0.  0.
         11    1    3    3    0    0 -0.60010358664E+02 -0.68374256402E+02 -0.30029061112E+02  0.95802017707E+02  0.00000000000E+00 0.  1.
        -11    1    3    3    0    0 -0.21928821803E+03 -0.14374182486E+03 -0.24501090193E+03  0.35885843566E+03  0.00000000000E+00 0. -1.
          4    1    6    6  502    0  0.12076395823E+03 -0.22692821118E+02  0.44222762742E+02  0.13059307211E+03  0.00000000000E+00 0. -1.
          3    1    5    5  503    0 -0.16561380198E+02  0.48523003816E+02 -0.12830005819E+03  0.13816535797E+03  0.00000000000E+00 0. -1.
         -4    1    5    5    0  503  0.85191828275E+02  0.21666517852E+03 -0.72253349717E+03  0.75911534151E+03  0.00000000000E+00 0.  1.
         -3    1    6    6    0  502  0.89904170384E+02 -0.30379279960E+02  0.12317489071E+03  0.15549184610E+03  0.00000000000E+00 0.  1.
<mgrwt>
<rscale>  0 0.13283273E+04</rscale>
<asrwt>0</asrwt>
<pdfrwt beam="1">  1        2 0.19973092E+00 0.13283273E+04</pdfrwt>
<pdfrwt beam="2">  1       -2 0.52273093E-01 0.13283273E+04</pdfrwt>
<totfact> 0.55982878E+01</totfact>
</mgrwt>
</event>
<event>
12    1  0.1599266E-007  0.2475075E+04  0.7818608E-02  0.8411919E-01
         -2   -1    0    0    0  501 -0.00000000000E+00  0.00000000000E+00  0.62621792364E+03  0.62621792364E+03  0.00000000000E+00 0.  1.
          2   -1    0    0  501    0  0.00000000000E+00 -0.00000000000E+00 -0.24456322911E+04  0.24456322911E+04  0.00000000000E+00 0. -1.
         23    2    1    2    0    0  0.10664152711E+04  0.64205799709E+02 -0.76601951353E+03  0.13175802233E+04  0.88700814761E+02 0.  0.
        254    2    1    2    0    0 -0.10664152711E+04 -0.64205799709E+02 -0.10533948539E+04  0.17542699914E+04  0.90909766767E+03 0.  0.
        -24    2    4    4    0    0 -0.11839004154E+04 -0.13286998112E+03 -0.74437090745E+03  0.14069609838E+04  0.78590945912E+02 0.  0.
         24    2    4    4    0    0  0.11748514428E+03  0.68664181406E+02 -0.30902394644E+03  0.34730900755E+03  0.81303249121E+02 0.  0.
         11    1    3    3    0    0  0.19474402996E+02  0.30560843508E+01 -0.31689548255E+02  0.37320496945E+02  0.00000000000E+00 0.  1.
        -11    1    3    3    0    0  0.10469408681E+04  0.61149715358E+02 -0.73432996528E+03  0.12802597264E+04  0.00000000000E+00 0. -1.
          2    1    6    6  502    0  0.15763662802E+00 -0.48144366020E+01  0.31913543770E+01  0.57782689329E+01  0.00000000000E+00 0. -1.
          3    1    5    5  503    0 -0.57128693571E+03 -0.24614983069E+02 -0.35570421127E+03  0.67342419485E+03  0.00000000000E+00 0. -1.
         -4    1    5    5    0  503 -0.61261347968E+03 -0.10825499805E+03 -0.38866669618E+03  0.73353678900E+03  0.00000000000E+00 0.  1.
         -1    1    6    6    0  502  0.11732750765E+03  0.73478618008E+02 -0.31221530082E+03  0.34153073862E+03  0.00000000000E+00 0.  1.
<mgrwt>
<rscale>  0 0.24750748E+04</rscale>
<asrwt>0</asrwt>
<pdfrwt beam="1">  1        2 0.37625113E+00 0.24750748E+04</pdfrwt>
<pdfrwt beam="2">  1       -2 0.96341217E-01 0.24750748E+04</pdfrwt>
<totfact> 0.30160169E+00</totfact>
</mgrwt>
</event>
<event>
12    1  0.1599266E-007  0.2354543E+04  0.7818608E-02  0.8456721E-01
         -2   -1    0    0    0  501 -0.00000000000E+00  0.00000000000E+00  0.58466304384E+03  0.58466304384E+03  0.00000000000E+00 0. -1.
          2   -1    0    0  501    0  0.00000000000E+00 -0.00000000000E+00 -0.23705413462E+04  0.23705413462E+04  0.00000000000E+00 0.  1.
         23    2    1    2    0    0 -0.69889436414E+03  0.25239868650E+01 -0.16616843863E+04  0.18049415367E+04  0.90328559068E+02 0.  0.
        254    2    1    2    0    0  0.69889436414E+03 -0.25239868650E+01 -0.12419391602E+03  0.11502628533E+04  0.90510817040E+03 0.  0.
        -24    2    4    4    0    0  0.22994823835E+02 -0.31446607737E+03 -0.22403860464E+03  0.39491952849E+03  0.79689785276E+02 0.  0.
         24    2    4    4    0    0  0.67589954031E+03  0.31194209050E+03  0.99844688624E+02  0.75534332479E+03  0.80165578898E+02 0.  0.
         11    1    3    3    0    0 -0.28364060128E+03 -0.41909363750E+02 -0.70523025823E+03  0.76128713544E+03  0.00000000000E+00 0. -1.
        -11    1    3    3    0    0 -0.41525376287E+03  0.44433350615E+02 -0.95645412807E+03  0.10436544013E+04  0.00000000000E+00 0.  1.
          2    1    6    6  502    0  0.45242602952E+03  0.16933412116E+03  0.78158359528E+02  0.48935885191E+03  0.00000000000E+00 0. -1.
          1    1    5    5  503    0  0.16506250772E+01  0.37355616776E+01 -0.10091829041E+02  0.10886872718E+02  0.00000000000E+00 0. -1.
         -2    1    5    5    0  503  0.21344198758E+02 -0.31820163904E+03 -0.21394677560E+03  0.38403265578E+03  0.00000000000E+00 0.  1.
         -1    1    6    6    0  502  0.22347351079E+03  0.14260796934E+03  0.21686329096E+02  0.26598447288E+03  0.00000000000E+00 0.  1.
<mgrwt>
<rscale>  0 0.23545428E+04</rscale>
<asrwt>0</asrwt>
<pdfrwt beam="1">  1        2 0.36469867E+00 0.23545428E+04</pdfrwt>
<pdfrwt beam="2">  1       -2 0.89948161E-01 0.23545428E+04</pdfrwt>
<totfact> 0.39469746E+00</totfact>
</mgrwt>
</event>
<event>
12    1  0.1599266E-007  0.2761687E+04  0.7818608E-02  0.8315263E-01
          1   -1    0    0  501    0  0.00000000000E+00  0.00000000000E+00  0.10449441095E+04  0.10449441095E+04  0.00000000000E+00 0. -1.
         -1   -1    0    0    0  501 -0.00000000000E+00 -0.00000000000E+00 -0.18247186191E+04  0.18247186191E+04  0.00000000000E+00 0.  1.
         23    2    1    2    0    0 -0.54807466981E+03 -0.98998594832E+03 -0.86235291829E+03  0.14256510114E+04  0.91488956493E+02 0.  0.
        254    2    1    2    0    0  0.54807466981E+03  0.98998594832E+03  0.82578408736E+02  0.14440117172E+04  0.89324835524E+03 0.  0.
        -24    2    4    4    0    0  0.53303367738E+03  0.10313410567E+04  0.30732291848E+03  0.12035608333E+04  0.79511173965E+02 0.  0.
         24    2    4    4    0    0  0.15040992429E+02 -0.41355108363E+02 -0.22474450975E+03  0.24045088386E+03  0.73280668996E+02 0.  0.
         11    1    3    3    0    0 -0.12901034760E+03 -0.28048988913E+03 -0.27816108704E+03  0.41556207483E+03  0.00000000000E+00 0.  1.
        -11    1    3    3    0    0 -0.41906432221E+03 -0.70949605920E+03 -0.58419183126E+03  0.10100889366E+04  0.00000000000E+00 0. -1.
          4    1    6    6  502    0 -0.14693122974E+02  0.82298606617E+01 -0.11670510490E+03  0.11791395159E+03  0.00000000000E+00 0. -1.
          3    1    5    5  503    0  0.73368973043E+02  0.13653431334E+03  0.69478334834E+02  0.16985836434E+03  0.00000000000E+00 0. -1.
         -4    1    5    5    0  503  0.45966470434E+03  0.89480674335E+03  0.23784458365E+03  0.10337024690E+04  0.00000000000E+00 0.  1.
         -3    1    6    6    0  502  0.29734115403E+02 -0.49584969024E+02 -0.10803940484E+03  0.12253693227E+03  0.00000000000E+00 0.  1.
<mgrwt>
<rscale>  0 0.27616871E+04</rscale>
<asrwt>0</asrwt>
<pdfrwt beam="1">  1        1 0.16076063E+00 0.27616871E+04</pdfrwt>
<pdfrwt beam="2">  1       -1 0.28072594E+00 0.27616871E+04</pdfrwt>
<totfact> 0.53394839E-01</totfact>
</mgrwt>
</event>
<event>
12    1  0.1599266E-007  0.2552386E+04  0.7818608E-02  0.8384557E-01
          2   -1    0    0  501    0  0.00000000000E+00  0.00000000000E+00  0.26415430214E+04  0.26415430214E+04  0.00000000000E+00 0. -1.
         -2   -1    0    0    0  501 -0.00000000000E+00 -0.00000000000E+00 -0.61655941861E+03  0.61655941861E+03  0.00000000000E+00 0.  1.
         23    2    1    2    0    0 -0.30414152843E+03  0.36673866450E+03  0.21782462645E+04  0.22315917228E+04  0.90804797213E+02 0.  0.
        254    2    1    2    0    0  0.30414152843E+03 -0.36673866450E+03 -0.15326266169E+03  0.10265107172E+04  0.89623406080E+03 0.  0.
        -24    2    4    4    0    0  0.33303232448E+03 -0.57387231447E+03  0.11393231680E+03  0.67804869295E+03  0.80805289063E+02 0.  0.
         24    2    4    4    0    0 -0.28890796051E+02  0.20713364997E+03 -0.26719497848E+03  0.34846202426E+03  0.79332205177E+02 0.  0.
         11    1    3    3    0    0 -0.26098113523E+03  0.25596399585E+03  0.16894027156E+04  0.17284994231E+04  0.00000000000E+00 0. -1.
        -11    1    3    3    0    0 -0.43160393206E+02  0.11077466864E+03  0.48884354888E+03  0.50309229972E+03  0.00000000000E+00 0.  1.
          2    1    6    6  502    0 -0.86170131165E+01 -0.22172100587E+01 -0.64421519207E+00  0.89209836177E+01  0.00000000000E+00 0. -1.
          1    1    5    5  503    0  0.10690308921E+03 -0.15093314637E+03  0.64637999349E+02  0.19592640485E+03  0.00000000000E+00 0. -1.
         -2    1    5    5    0  503  0.22612923527E+03 -0.42293916810E+03  0.49294317448E+02  0.48212228811E+03  0.00000000000E+00 0.  1.
         -1    1    6    6    0  502 -0.20273782935E+02  0.20935086003E+03 -0.26655076329E+03  0.33954104064E+03  0.00000000000E+00 0.  1.
<mgrwt>
<rscale>  0 0.25523857E+04</rscale>
<asrwt>0</asrwt>
<pdfrwt beam="1">  1        2 0.40639123E+00 0.25523857E+04</pdfrwt>
<pdfrwt beam="2">  1       -2 0.94855296E-01 0.25523857E+04</pdfrwt>
<totfact> 0.23887392E+00</totfact>
</mgrwt>
</event>
<event>
12    1  0.1599266E-007  0.1532718E+04  0.7818608E-02  0.8862982E-01
          2   -1    0    0  501    0  0.00000000000E+00  0.00000000000E+00  0.80468705783E+03  0.80468705783E+03  0.00000000000E+00 0. -1.
         -2   -1    0    0    0  501 -0.00000000000E+00 -0.00000000000E+00 -0.72985695639E+03  0.72985695639E+03  0.00000000000E+00 0.  1.
         23    2    1    2    0    0  0.28769825827E+03 -0.32336945851E+02 -0.37126158993E+03  0.47959495571E+03  0.91434060990E+02 0.  0.
        254    2    1    2    0    0 -0.28769825827E+03  0.32336945851E+02  0.44609169137E+03  0.10549490585E+04  0.91110029802E+03 0.  0.
        -24    2    4    4    0    0 -0.14800921564E+03  0.20594324118E+03 -0.22210422388E+03  0.34621219116E+03  0.78824162195E+02 0.  0.
         24    2    4    4    0    0 -0.13968904264E+03 -0.17360629533E+03  0.66819591524E+03  0.70873686734E+03  0.78549293891E+02 0.  0.
         13    1    3    3    0    0  0.63560889904E+02  0.29969499645E+02 -0.10030703006E+03  0.12247309057E+03  0.00000000000E+00 0. -1.
        -13    1    3    3    0    0  0.22413736837E+03 -0.62306445496E+02 -0.27095455987E+03  0.35712186515E+03  0.00000000000E+00 0.  1.
          4    1    6    6  502    0 -0.12725905086E+03 -0.10118577338E+03  0.44635108479E+03  0.47503970113E+03  0.00000000000E+00 0. -1.
          3    1    5    5  503    0 -0.11004229236E+03  0.15042053249E+03 -0.20449312650E+03  0.27668227534E+03  0.00000000000E+00 0. -1.
         -4    1    5    5    0  503 -0.37966923274E+02  0.55522708692E+02 -0.17611097375E+02  0.69529915821E+02  0.00000000000E+00 0.  1.
         -3    1    6    6    0  502 -0.12429991779E+02 -0.72420521947E+02  0.22184483046E+03  0.23369716621E+03  0.00000000000E+00 0.  1.
<mgrwt>
<rscale>  0 0.15327184E+04</rscale>
<asrwt>0</asrwt>
<pdfrwt beam="1">  1        2 0.12379801E+00 0.15327184E+04</pdfrwt>
<pdfrwt beam="2">  1       -2 0.11228569E+00 0.15327184E+04</pdfrwt>
<totfact> 0.20590493E+01</totfact>
</mgrwt>
</event>
<event>
12    1  0.1599266E-007  0.3370425E+04  0.7818608E-02  0.8145203E-01
          1   -1    0    0  501    0  0.00000000000E+00  0.00000000000E+00  0.13382194975E+04  0.13382194975E+04  0.00000000000E+00 0. -1.
         -1   -1    0    0    0  501 -0.00000000000E+00 -0.00000000000E+00 -0.21221784772E+04  0.21221784772E+04  0.00000000000E+00 0.  1.
         23    2    1    2    0    0  0.32449901753E+03 -0.12264771453E+04 -0.13086502539E+04  0.18250294547E+04  0.92850541937E+02 0.  0.
        254    2    1    2    0    0 -0.32449901753E+03  0.12264771453E+04  0.52469127417E+03  0.16353685200E+04  0.88858509029E+03 0.  0.
        -24    2    4    4    0    0 -0.22468616037E+03  0.13484624448E+04  0.43255704584E+03  0.14362168329E+04  0.82330779646E+02 0.  0.
         24    2    4    4    0    0 -0.99812857162E+02 -0.12198529956E+03  0.92134228328E+02  0.19915168713E+03  0.79559152167E+02 0.  0.
         13    1    3    3    0    0  0.15164698036E+03 -0.74534700214E+03 -0.79909442349E+03  0.11032184090E+04  0.00000000000E+00 0.  1.
        -13    1    3    3    0    0  0.17285203717E+03 -0.48113014314E+03 -0.50955583040E+03  0.72181104570E+03  0.00000000000E+00 0. -1.
          2    1    6    6  502    0 -0.52555401949E+02 -0.17442352078E+02  0.56274458490E+02  0.78950114619E+02  0.00000000000E+00 0. -1.
          1    1    5    5  503    0 -0.28477326598E+02  0.27243160559E+03  0.11679428899E+03  0.29777649974E+03  0.00000000000E+00 0. -1.
         -2    1    5    5    0  503 -0.19620883377E+03  0.10760308393E+04  0.31576275685E+03  0.11384403331E+04  0.00000000000E+00 0.  1.
         -1    1    6    6    0  502 -0.47257455213E+02 -0.10454294748E+03  0.35859769838E+02  0.12020157251E+03  0.00000000000E+00 0.  1.
<mgrwt>
<rscale>  0 0.33704247E+04</rscale>
<asrwt>0</asrwt>
<pdfrwt beam="1">  1        1 0.20587992E+00 0.33704247E+04</pdfrwt>
<pdfrwt beam="2">  1       -1 0.32648899E+00 0.33704247E+04</pdfrwt>
<totfact> 0.15547810E-01</totfact>
</mgrwt>
</event>
<event>
12    1  0.1599266E-007  0.1223437E+04  0.7818608E-02  0.9092586E-01
         -2   -1    0    0    0  501 -0.00000000000E+00  0.00000000000E+00  0.31345054593E+03  0.31345054593E+03  0.00000000000E+00 0. -1.
          2   -1    0    0  501    0  0.00000000000E+00 -0.00000000000E+00 -0.11938080061E+04  0.11938080061E+04  0.00000000000E+00 0.  1.
         23    2    1    2    0    0 -0.34875385434E+01 -0.46213837612E+02 -0.53386585285E+03  0.54396500836E+03  0.93473524379E+02 0.  0.
        254    2    1    2    0    0  0.34875385434E+01  0.46213837612E+02 -0.34649160731E+03  0.96329354367E+03  0.89762471870E+03 0.  0.
        -24    2    4    4    0    0  0.18709444356E+03 -0.36311829388E+03 -0.28200021197E+03  0.50289530435E+03  0.80748631107E+02 0.  0.
         24    2    4    4    0    0 -0.18360690502E+03  0.40933213150E+03 -0.64491395346E+02  0.46039823931E+03  0.80889487847E+02 0.  0.
         13    1    3    3    0    0 -0.28850390828E+00 -0.81775782547E+01  0.53740157155E+00  0.82002939621E+01  0.00000000000E+00 0. -1.
        -13    1    3    3    0    0 -0.31990346352E+01 -0.38036259358E+02 -0.53440325443E+03  0.53576471439E+03  0.00000000000E+00 0.  1.
          2    1    6    6  502    0 -0.18692709051E+03  0.39948610855E+03 -0.51940642932E+02  0.44410440042E+03  0.00000000000E+00 0. -1.
          1    1    5    5  503    0  0.80185523761E+02 -0.19548493267E+03 -0.18862661099E+03  0.28323854874E+03  0.00000000000E+00 0. -1.
         -2    1    5    5    0  503  0.10690891980E+03 -0.16763336122E+03 -0.93373600979E+02  0.21965675561E+03  0.00000000000E+00 0.  1.
         -1    1    6    6    0  502  0.33201854899E+01  0.98460229484E+01 -0.12550752414E+02  0.16293838889E+02  0.00000000000E+00 0.  1.
<mgrwt>
<rscale>  0 0.12234374E+04</rscale>
<asrwt>0</asrwt>
<pdfrwt beam="1">  1        2 0.18366277E+00 0.12234374E+04</pdfrwt>
<pdfrwt beam="2">  1       -2 0.48223160E-01 0.12234374E+04</pdfrwt>
<totfact> 0.76644709E+01</totfact>
</mgrwt>
</event>
<event>
12    1  0.1599266E-007  0.1223483E+04  0.7818608E-02  0.9092547E-01
         -2   -1    0    0    0  501 -0.00000000000E+00  0.00000000000E+00  0.26725871658E+03  0.26725871658E+03  0.00000000000E+00 0.  1.
          2   -1    0    0  501    0  0.00000000000E+00 -0.00000000000E+00 -0.14002446066E+04  0.14002446066E+04  0.00000000000E+00 0. -1.
         23    2    1    2    0    0  0.27585571400E+03  0.29959009569E+02 -0.23347011070E+03  0.37464317401E+03  0.94102593151E+02 0.  0.
        254    2    1    2    0    0 -0.27585571400E+03 -0.29959009569E+02 -0.89951577936E+03  0.12928601492E+04  0.88620810811E+03 0.  0.
        -24    2    4    4    0    0  0.91631728262E+02  0.36372595992E+03 -0.39087670099E+03  0.54764117091E+03  0.80207912080E+02 0.  0.
         24    2    4    4    0    0 -0.36748744226E+03 -0.39368496949E+03 -0.50863907837E+03  0.74521897830E+03  0.81257234405E+02 0.  0.
         13    1    3    3    0    0  0.16714310415E+03  0.75845621699E+01 -0.19553409589E+03  0.25734786866E+03  0.00000000000E+00 0. -1.
        -13    1    3    3    0    0  0.10871260985E+03  0.22374447399E+02 -0.37936014812E+02  0.11729530535E+03  0.00000000000E+00 0.  1.
          4    1    6    6  502    0 -0.76258760377E+02 -0.12324340720E+03 -0.10671106045E+03  0.17997662730E+03  0.00000000000E+00 0. -1.
          1    1    5    5  503    0  0.21271069969E+02  0.21812693536E+02 -0.12771907258E+02  0.33035944544E+02  0.00000000000E+00 0. -1.
         -2    1    5    5    0  503  0.70360658293E+02  0.34191326638E+03 -0.37810479373E+03  0.51460522637E+03  0.00000000000E+00 0.  1.
         -3    1    6    6    0  502 -0.29122868189E+03 -0.27044156228E+03 -0.40192801792E+03  0.56524235099E+03  0.00000000000E+00 0.  1.
<mgrwt>
<rscale>  0 0.12234829E+04</rscale>
<asrwt>0</asrwt>
<pdfrwt beam="1">  1        2 0.21542225E+00 0.12234829E+04</pdfrwt>
<pdfrwt beam="2">  1       -2 0.41116725E-01 0.12234829E+04</pdfrwt>
<totfact> 0.79808123E+01</totfact>
</mgrwt>
</event>
<event>
12    1  0.1599266E-007  0.1354843E+04  0.7818608E-02  0.8987170E-01
         -1   -1    0    0    0  501 -0.00000000000E+00  0.00000000000E+00  0.46706006457E+03  0.46706006457E+03  0.00000000000E+00 0.  1.
          1   -1    0    0  501    0  0.00000000000E+00 -0.00000000000E+00 -0.98252900766E+03  0.98252900766E+03  0.00000000000E+00 0. -1.
         23    2    1    2    0    0 -0.74206768611E+02  0.14788704473E+03  0.21652235724E+03  0.28753820434E+03  0.91755464476E+02 0.  0.
        254    2    1    2    0    0  0.74206768611E+02 -0.14788704473E+03 -0.73199130033E+03  0.11620508679E+04  0.88722811795E+03 0.  0.
        -24    2    4    4    0    0  0.15536028839E+03  0.54588326528E+02  0.15745420820E+03  0.24197528478E+03  0.81507706156E+02 0.  0.
         24    2    4    4    0    0 -0.81153519778E+02 -0.20247537126E+03 -0.88944550853E+03  0.92007558311E+03  0.88564079883E+02 0.  0.
         13    1    3    3    0    0 -0.27090916165E+02  0.66148555867E+02  0.16550631691E+03  0.18028280594E+03  0.00000000000E+00 0.  1.
        -13    1    3    3    0    0 -0.47115852447E+02  0.81738488865E+02  0.51016040334E+02  0.10725539840E+03  0.00000000000E+00 0. -1.
          4    1    6    6  502    0 -0.76822733946E+02 -0.13959847130E+03 -0.75444028898E+03  0.77108340358E+03  0.00000000000E+00 0. -1.
          1    1    5    5  503    0  0.15336679313E+03  0.45396216002E+02  0.16508811840E+03  0.22986142890E+03  0.00000000000E+00 0. -1.
         -4    1    5    5    0  503  0.19934952638E+01  0.91921105267E+01 -0.76339101983E+01  0.12113855877E+02  0.00000000000E+00 0.  1.
         -3    1    6    6    0  502 -0.43307858321E+01 -0.62876899957E+02 -0.13500521955E+03  0.14899217952E+03  0.00000000000E+00 0.  1.
<mgrwt>
<rscale>  0 0.13548433E+04</rscale>
<asrwt>0</asrwt>
<pdfrwt beam="1">  1        1 0.15115831E+00 0.13548433E+04</pdfrwt>
<pdfrwt beam="2">  1       -1 0.71855396E-01 0.13548433E+04</pdfrwt>
<totfact> 0.29876032E+01</totfact>
</mgrwt>
</event>
<event>
12    1  0.1599266E-007  0.1457102E+04  0.7818608E-02  0.8913491E-01
         -2   -1    0    0    0  501 -0.00000000000E+00  0.00000000000E+00  0.53217006102E+03  0.53217006102E+03  0.00000000000E+00 0.  1.
          2   -1    0    0  501    0  0.00000000000E+00 -0.00000000000E+00 -0.99740086134E+03  0.99740086134E+03  0.00000000000E+00 0. -1.
         23    2    1    2    0    0  0.17525608031E+03 -0.15639865874E+03 -0.52206131369E+03  0.57970514505E+03  0.91295157618E+02 0.  0.
        254    2    1    2    0    0 -0.17525608031E+03  0.15639865874E+03  0.56830513365E+02  0.94986577731E+03  0.91860767116E+03 0.  0.
        -24    2    4    4    0    0  0.96570521870E+02  0.62797623135E+02  0.44161036734E+03  0.46313782118E+03  0.78787801755E+02 0.  0.
         24    2    4    4    0    0 -0.27182660218E+03  0.93601035602E+02 -0.38477985397E+03  0.48672795613E+03  0.78725546897E+02 0.  0.
         13    1    3    3    0    0  0.12275710066E+03 -0.15429945456E+03 -0.44144889381E+03  0.48348190585E+03  0.00000000000E+00 0. -1.
        -13    1    3    3    0    0  0.52498979655E+02 -0.20992041758E+01 -0.80612419879E+02  0.96223239198E+02  0.00000000000E+00 0.  1.
          4    1    6    6  502    0 -0.12474294202E+03  0.84276268727E+02 -0.18664799821E+03  0.23979317399E+03  0.00000000000E+00 0. -1.
          3    1    5    5  503    0  0.10758420393E+03  0.57794005716E+02  0.34920729525E+03  0.36994627054E+03  0.00000000000E+00 0. -1.
         -4    1    5    5    0  503 -0.11013682061E+02  0.50036174187E+01  0.92403072087E+02  0.93191550642E+02  0.00000000000E+00 0.  1.
         -3    1    6    6    0  502 -0.14708366016E+03  0.93247668746E+01 -0.19813185576E+03  0.24693478214E+03  0.00000000000E+00 0.  1.
<mgrwt>
<rscale>  0 0.14571024E+04</rscale>
<asrwt>0</asrwt>
<pdfrwt beam="1">  1        2 0.15344629E+00 0.14571024E+04</pdfrwt>
<pdfrwt beam="2">  1       -2 0.81872317E-01 0.14571024E+04</pdfrwt>
<totfact> 0.32163114E+01</totfact>
</mgrwt>
</event>
<event>
12    1  0.1599266E-007  0.1307890E+04  0.7818608E-02  0.9023332E-01
          1   -1    0    0  501    0  0.00000000000E+00  0.00000000000E+00  0.32048050359E+03  0.32048050359E+03  0.00000000000E+00 0. -1.
         -1   -1    0    0    0  501 -0.00000000000E+00 -0.00000000000E+00 -0.13343831533E+04  0.13343831533E+04  0.00000000000E+00 0.  1.
         23    2    1    2    0    0 -0.18734568293E+03 -0.77052733757E+02  0.66334176693E+02  0.23085777763E+03  0.88654169674E+02 0.  0.
        254    2    1    2    0    0  0.18734568293E+03  0.77052733757E+02 -0.10802368264E+04  0.14240058793E+04  0.90545326459E+03 0.  0.
        -24    2    4    4    0    0 -0.11040048730E+03  0.27255384899E+03 -0.10065428459E+04  0.10516070622E+04  0.79215176956E+02 0.  0.
         24    2    4    4    0    0  0.29774617024E+03 -0.19550111524E+03 -0.73693980472E+02  0.37239881711E+03  0.79853667915E+02 0.  0.
         11    1    3    3    0    0 -0.17339560661E+03 -0.58933556691E+02  0.26662935256E+02  0.18506785948E+03  0.00000000000E+00 0. -1.
        -11    1    3    3    0    0 -0.13950076325E+02 -0.18119177066E+02  0.39671241437E+02  0.45789918150E+02  0.00000000000E+00 0.  1.
          4    1    6    6  502    0  0.22514469715E+03 -0.16857809985E+03 -0.85726126956E+02  0.29403686716E+03  0.00000000000E+00 0. -1.
          3    1    5    5  503    0 -0.79724333838E+02  0.22834993416E+03 -0.90410538051E+03  0.93589860611E+03  0.00000000000E+00 0. -1.
         -4    1    5    5    0  503 -0.30676153466E+02  0.44203914833E+02 -0.10243746543E+03  0.11570845605E+03  0.00000000000E+00 0.  1.
         -3    1    6    6    0  502  0.72601473086E+02 -0.26923015383E+02  0.12032146484E+02  0.78361949954E+02  0.00000000000E+00 0.  1.
<mgrwt>
<rscale>  0 0.13078896E+04</rscale>
<asrwt>0</asrwt>
<pdfrwt beam="1">  1        1 0.49304692E-01 0.13078896E+04</pdfrwt>
<pdfrwt beam="2">  1       -1 0.20528972E+00 0.13078896E+04</pdfrwt>
<totfact> 0.10931294E+01</totfact>
</mgrwt>
</event>
<event>
12    1  0.1599266E-007  0.2500827E+04  0.7818608E-02  0.8402691E-01
          2   -1    0    0  501    0  0.00000000000E+00  0.00000000000E+00  0.24021838252E+04  0.24021838252E+04  0.00000000000E+00 0. -1.
         -2   -1    0    0    0  501 -0.00000000000E+00 -0.00000000000E+00 -0.65088026128E+03  0.65088026128E+03  0.00000000000E+00 0.  1.
         23    2    1    2    0    0 -0.69274300641E+03  0.50598636081E+03 -0.44125438654E+02  0.86363470567E+03  0.89458259833E+02 0.  0.
        254    2    1    2    0    0  0.69274300641E+03 -0.50598636081E+03  0.17954290026E+04  0.21894293808E+04  0.91330205301E+03 0.  0.
        -24    2    4    4    0    0  0.67666764219E+01  0.36114450479E+02  0.10027006013E+04  0.10065085328E+04  0.79378140928E+02 0.  0.
         24    2    4    4    0    0  0.68597632999E+03 -0.54210081129E+03  0.79272840128E+03  0.11829208481E+04  0.80290719557E+02 0.  0.
         11    1    3    3    0    0 -0.62393944371E+03  0.47086238494E+03 -0.17315152504E+02  0.78186420143E+03  0.00000000000E+00 0.  1.
        -11    1    3    3    0    0 -0.68803562702E+02  0.35123975868E+02 -0.26810286149E+02  0.81770504247E+02  0.00000000000E+00 0. -1.
          4    1    6    6  502    0  0.58747248447E+03 -0.48105401105E+03  0.65370857410E+03  0.10019340205E+04  0.00000000000E+00 0. -1.
          1    1    5    5  503    0 -0.22738539549E+02  0.48549493196E+02  0.72202034271E+03  0.72400792106E+03  0.00000000000E+00 0. -1.
         -2    1    5    5    0  503  0.29505215971E+02 -0.12435042717E+02  0.28068025856E+03  0.28250061169E+03  0.00000000000E+00 0.  1.
         -3    1    6    6    0  502  0.98503845520E+02 -0.61046800234E+02  0.13901982718E+03  0.18098682756E+03  0.00000000000E+00 0.  1.
<mgrwt>
<rscale>  0 0.25008271E+04</rscale>
<asrwt>0</asrwt>
<pdfrwt beam="1">  1        2 0.36956674E+00 0.25008271E+04</pdfrwt>
<pdfrwt beam="2">  1       -2 0.10013543E+00 0.25008271E+04</pdfrwt>
<totfact> 0.29102673E+00</totfact>
</mgrwt>
</event>
<event>
12    1  0.1599266E-007  0.3239867E+04  0.7818608E-02  0.8178367E-01
         -2   -1    0    0    0  501 -0.00000000000E+00  0.00000000000E+00  0.14079319165E+04  0.14079319165E+04  0.00000000000E+00 0.  1.
          2   -1    0    0  501    0  0.00000000000E+00 -0.00000000000E+00 -0.18638577641E+04  0.18638577641E+04  0.00000000000E+00 0. -1.
         23    2    1    2    0    0 -0.91448610585E+03  0.11396007822E+03  0.97701041274E+03  0.13462417106E+04  0.92442736500E+02 0.  0.
        254    2    1    2    0    0  0.91448610585E+03 -0.11396007822E+03 -0.14329362603E+04  0.19255479700E+04  0.89730536682E+03 0.  0.
        -24    2    4    4    0    0  0.30907215175E+02 -0.27916090541E+03 -0.71606521024E+03  0.77296409419E+03  0.76407058142E+02 0.  0.
         24    2    4    4    0    0  0.88357889067E+03  0.16520082719E+03 -0.71687105006E+03  0.11525838758E+04  0.80885838881E+02 0.  0.
         11    1    3    3    0    0 -0.32235667025E+03  0.62398794915E+02  0.29292728169E+03  0.44001570974E+03  0.00000000000E+00 0. -1.
        -11    1    3    3    0    0 -0.59212943560E+03  0.51561283304E+02  0.68408313105E+03  0.90622600086E+03  0.00000000000E+00 0.  1.
          2    1    6    6  502    0  0.25360901130E+03  0.27333360916E+02 -0.24322192403E+03  0.35245077325E+03  0.00000000000E+00 0. -1.
          3    1    5    5  503    0 -0.23021437385E+02 -0.12567543752E+03 -0.34027414881E+03  0.36347049196E+03  0.00000000000E+00 0. -1.
         -4    1    5    5    0  503  0.53928652560E+02 -0.15348546788E+03 -0.37579106142E+03  0.40949360222E+03  0.00000000000E+00 0.  1.
         -1    1    6    6    0  502  0.62996987937E+03  0.13786746627E+03 -0.47364912603E+03  0.80013310253E+03  0.00000000000E+00 0.  1.
<mgrwt>
<rscale>  0 0.32398672E+04</rscale>
<asrwt>0</asrwt>
<pdfrwt beam="1">  1        2 0.28674735E+00 0.32398672E+04</pdfrwt>
<pdfrwt beam="2">  1       -2 0.21660491E+00 0.32398672E+04</pdfrwt>
<totfact> 0.69335249E-01</totfact>
</mgrwt>
</event>
<event>
12    1  0.1599266E-007  0.1439521E+04  0.7818608E-02  0.8925698E-01
          1   -1    0    0  501    0  0.00000000000E+00  0.00000000000E+00  0.12026747780E+04  0.12026747780E+04  0.00000000000E+00 0. -1.
         -1   -1    0    0    0  501 -0.00000000000E+00 -0.00000000000E+00 -0.43075255196E+03  0.43075255196E+03  0.00000000000E+00 0.  1.
         23    2    1    2    0    0  0.14308821326E+03  0.30164241212E+03  0.54541677098E+03  0.64634446678E+03  0.93911309785E+02 0.  0.
        254    2    1    2    0    0 -0.14308821326E+03 -0.30164241212E+03  0.22650545504E+03  0.98708286316E+03  0.90086928909E+03 0.  0.
        -24    2    4    4    0    0 -0.23204513169E+03 -0.11946392150E+03  0.54000716420E+03  0.60494000735E+03  0.78918333893E+02 0.  0.
         24    2    4    4    0    0  0.88956918426E+02 -0.18217849062E+03 -0.31350170916E+03  0.38214285581E+03  0.81532231777E+02 0.  0.
         11    1    3    3    0    0  0.19766427193E+02  0.71083316125E+02  0.19964989607E+03  0.21284649510E+03  0.00000000000E+00 0. -1.
        -11    1    3    3    0    0  0.12332178607E+03  0.23055909599E+03  0.34576687491E+03  0.43349797168E+03  0.00000000000E+00 0.  1.
          4    1    6    6  502    0 -0.10585789663E+02 -0.12344792623E+02 -0.66388339924E+01  0.17564935652E+02  0.00000000000E+00 0. -1.
          3    1    5    5  503    0 -0.23215298048E+02 -0.62542297612E+01  0.14095202193E+02  0.27870058813E+02  0.00000000000E+00 0. -1.
         -4    1    5    5    0  503 -0.20882983364E+03 -0.11320969174E+03  0.52591196201E+03  0.57706994854E+03  0.00000000000E+00 0.  1.
         -3    1    6    6    0  502  0.99542708088E+02 -0.16983369800E+03 -0.30686287517E+03  0.36457792016E+03  0.00000000000E+00 0.  1.
<mgrwt>
<rscale>  0 0.14395211E+04</rscale>
<asrwt>0</asrwt>
<pdfrwt beam="1">  1        1 0.18502689E+00 0.14395211E+04</pdfrwt>
<pdfrwt beam="2">  1       -1 0.66269624E-01 0.14395211E+04</pdfrwt>
<totfact> 0.23860663E+01</totfact>
</mgrwt>
</event>
<event>
12    1  0.1599266E-007  0.1305820E+04  0.7818608E-02  0.9024963E-01
         -2   -1    0    0    0  501 -0.00000000000E+00  0.00000000000E+00  0.37386809806E+03  0.37386809806E+03  0.00000000000E+00 0. -1.
          2   -1    0    0  501    0  0.00000000000E+00 -0.00000000000E+00 -0.11402188417E+04  0.11402188417E+04  0.00000000000E+00 0.  1.
         23    2    1    2    0    0  0.85087466582E+02  0.32271632319E+03 -0.21827103384E+03  0.40949272096E+03  0.93039465184E+02 0.  0.
        254    2    1    2    0    0 -0.85087466582E+02 -0.32271632319E+03 -0.54807970978E+03  0.11045942188E+04  0.89908359883E+03 0.  0.
        -24    2    4    4    0    0 -0.15503575263E+03  0.28631293770E+03 -0.14331220438E+03  0.36550953410E+03  0.83950275200E+02 0.  0.
         24    2    4    4    0    0  0.69948286049E+02 -0.60902926089E+03 -0.40476750539E+03  0.73908468468E+03  0.81240595600E+02 0.  0.
         13    1    3    3    0    0  0.73049100638E+02  0.22987752209E+03 -0.10642997565E+03  0.26364215517E+03  0.00000000000E+00 0. -1.
        -13    1    3    3    0    0  0.12038365944E+02  0.92838801104E+02 -0.11184105818E+03  0.14585056579E+03  0.00000000000E+00 0.  1.
          2    1    6    6  502    0  0.91425124793E+01 -0.28484989451E+03 -0.14828473380E+03  0.32126532682E+03  0.00000000000E+00 0. -1.
          3    1    5    5  503    0 -0.41165938705E+02  0.16410951409E+03 -0.73864660245E+02  0.18461461253E+03  0.00000000000E+00 0. -1.
         -4    1    5    5    0  503 -0.11386981393E+03  0.12220342360E+03 -0.69447544140E+02  0.18089492157E+03  0.00000000000E+00 0.  1.
         -1    1    6    6    0  502  0.60805773570E+02 -0.32417936638E+03 -0.25648277159E+03  0.41781935786E+03  0.00000000000E+00 0.  1.
<mgrwt>
<rscale>  0 0.13058200E+04</rscale>
<asrwt>0</asrwt>
<pdfrwt beam="1">  1        2 0.17541829E+00 0.13058200E+04</pdfrwt>
<pdfrwt beam="2">  1       -2 0.57518168E-01 0.13058200E+04</pdfrwt>
<totfact> 0.57093192E+01</totfact>
</mgrwt>
</event>
<event>
12    1  0.1599266E-007  0.1816212E+04  0.7818608E-02  0.8697725E-01
         -1   -1    0    0    0  501 -0.00000000000E+00  0.00000000000E+00  0.51443132334E+03  0.51443132334E+03  0.00000000000E+00 0.  1.
          1   -1    0    0  501    0  0.00000000000E+00 -0.00000000000E+00 -0.16030455606E+04  0.16030455606E+04  0.00000000000E+00 0. -1.
         23    2    1    2    0    0 -0.63505802113E+03 -0.13455819652E+03 -0.16764374291E+03  0.67651885104E+03  0.90381042377E+02 0.  0.
        254    2    1    2    0    0  0.63505802113E+03  0.13455819652E+03 -0.92097049436E+03  0.14409580329E+04  0.89820309657E+03 0.  0.
        -24    2    4    4    0    0 -0.11682601015E+03 -0.21827592871E+03 -0.32592596668E+03  0.41687261932E+03  0.79134994024E+02 0.  0.
         24    2    4    4    0    0  0.75188403128E+03  0.35283412523E+03 -0.59504452769E+03  0.10240854136E+04  0.69652192981E+02 0.  0.
         13    1    3    3    0    0 -0.39839722301E+02 -0.16145979699E+02  0.10071224016E+02  0.44151168576E+02  0.00000000000E+00 0. -1.
        -13    1    3    3    0    0 -0.59521829883E+03 -0.11841221682E+03 -0.17771496692E+03  0.63236768246E+03  0.00000000000E+00 0.  1.
          2    1    6    6  502    0  0.50741579117E+03  0.27256115067E+03 -0.40159047282E+03  0.70216470564E+03  0.00000000000E+00 0. -1.
          3    1    5    5  503    0 -0.48154359802E+01 -0.87806694721E+02 -0.10786110072E+03  0.13916616367E+03  0.00000000000E+00 0. -1.
         -4    1    5    5    0  503 -0.11201057417E+03 -0.13046923399E+03 -0.21806486595E+03  0.27770645565E+03  0.00000000000E+00 0.  1.
         -1    1    6    6    0  502  0.24446824011E+03  0.80272974558E+02 -0.19345405487E+03  0.32192070796E+03  0.00000000000E+00 0.  1.
<mgrwt>
<rscale>  0 0.18162124E+04</rscale>
<asrwt>0</asrwt>
<pdfrwt beam="1">  1        1 0.24662239E+00 0.18162124E+04</pdfrwt>
<pdfrwt beam="2">  1       -1 0.79143281E-01 0.18162124E+04</pdfrwt>
<totfact> 0.83515268E+00</totfact>
</mgrwt>
</event>
<event>
12    1  0.1599266E-007  0.1786409E+04  0.7818608E-02  0.8713561E-01
          2   -1    0    0  501    0  0.00000000000E+00  0.00000000000E+00  0.22785767384E+04  0.22785767384E+04  0.00000000000E+00 0.  1.
         -2   -1    0    0    0  501 -0.00000000000E+00 -0.00000000000E+00 -0.35013695688E+03  0.35013695688E+03  0.00000000000E+00 0. -1.
         23    2    1    2    0    0 -0.56007767808E+03  0.25983001440E+03  0.36883215999E+03  0.72445459335E+03  0.87170257058E+02 0.  0.
        254    2    1    2    0    0  0.56007767808E+03 -0.25983001440E+03  0.15596076215E+04  0.19042591019E+04  0.90145890217E+03 0.  0.
        -24    2    4    4    0    0 -0.95916383816E+01 -0.38084118164E+03  0.10739457995E+04  0.11418711743E+04  0.73336166091E+02 0.  0.
         24    2    4    4    0    0  0.56966931646E+03  0.12101116724E+03  0.48566182200E+03  0.76238792761E+03  0.78747153011E+02 0.  0.
         13    1    3    3    0    0 -0.10140445679E+03  0.81182574942E+02  0.97253089191E+02  0.16227026125E+03  0.00000000000E+00 0.  1.
        -13    1    3    3    0    0 -0.45867322129E+03  0.17864743945E+03  0.27157907080E+03  0.56218433209E+03  0.00000000000E+00 0. -1.
          2    1    6    6  502    0  0.48405802990E+03  0.10510187774E+03  0.37338791817E+03  0.62030405323E+03  0.00000000000E+00 0. -1.
          3    1    5    5  503    0 -0.17222586296E+01 -0.37062462540E+03  0.10597555810E+04  0.11226965176E+04  0.00000000000E+00 0. -1.
         -4    1    5    5    0  503 -0.78693797520E+01 -0.10216556240E+02  0.14190218520E+02  0.19174656731E+02  0.00000000000E+00 0.  1.
         -1    1    6    6    0  502  0.85611286560E+02  0.15909289505E+02  0.11227390383E+03  0.14208387438E+03  0.00000000000E+00 0.  1.
<mgrwt>
<rscale>  0 0.17864086E+04</rscale>
<asrwt>0</asrwt>
<pdfrwt beam="1">  1        2 0.35055026E+00 0.17864086E+04</pdfrwt>
<pdfrwt beam="2">  1       -2 0.53867226E-01 0.17864086E+04</pdfrwt>
<totfact> 0.14311404E+01</totfact>
</mgrwt>
</event>
<event>
12    1  0.1599266E-007  0.1495255E+04  0.7818608E-02  0.8887615E-01
         -2   -1    0    0    0  501 -0.00000000000E+00  0.00000000000E+00  0.70142882807E+03  0.70142882807E+03  0.00000000000E+00 0.  1.
          2   -1    0    0  501    0  0.00000000000E+00 -0.00000000000E+00 -0.79686853433E+03  0.79686853433E+03  0.00000000000E+00 0. -1.
         23    2    1    2    0    0  0.16486894184E+03 -0.36010151304E+03 -0.29407074042E+03  0.50221583527E+03  0.94277659844E+02 0.  0.
        254    2    1    2    0    0 -0.16486894184E+03  0.36010151304E+03  0.19863103416E+03  0.99608152714E+03  0.89211504488E+03 0.  0.
        -24    2    4    4    0    0 -0.23578819062E+03  0.33576659405E+03 -0.28093685444E+03  0.50371685053E+03  0.80435519550E+02 0.  0.
         24    2    4    4    0    0  0.70919248788E+02  0.24334918993E+02  0.47956788860E+03  0.49236467662E+03  0.82558384646E+02 0.  0.
         13    1    3    3    0    0  0.27115646904E+02 -0.61936054104E+02 -0.10001345684E+03  0.12072292514E+03  0.00000000000E+00 0.  1.
        -13    1    3    3    0    0  0.13775329493E+03 -0.29816545894E+03 -0.19405728358E+03  0.38149291013E+03  0.00000000000E+00 0. -1.
          4    1    6    6  502    0 -0.13519389782E+02  0.30124142535E+01  0.17620336793E+03  0.17674692476E+03  0.00000000000E+00 0. -1.
          1    1    5    5  503    0 -0.78936023130E+02  0.18209232885E+03 -0.12968996899E+03  0.23708226426E+03  0.00000000000E+00 0. -1.
         -2    1    5    5    0  503 -0.15685216749E+03  0.15367426520E+03 -0.15124688545E+03  0.26663458626E+03  0.00000000000E+00 0.  1.
         -3    1    6    6    0  502  0.84438638570E+02  0.21322504739E+02  0.30336452066E+03  0.31561775186E+03  0.00000000000E+00 0.  1.
<mgrwt>
<rscale>  0 0.14952546E+04</rscale>
<asrwt>0</asrwt>
<pdfrwt beam="1">  1        2 0.12259516E+00 0.14952546E+04</pdfrwt>
<pdfrwt beam="2">  1       -2 0.10791213E+00 0.14952546E+04</pdfrwt>
<totfact> 0.23035356E+01</totfact>
</mgrwt>
</event>
<event>
12    1  0.1599266E-007  0.1167163E+04  0.7818608E-02  0.9142095E-01
          2   -1    0    0  501    0  0.00000000000E+00  0.00000000000E+00  0.56857598901E+03  0.56857598901E+03  0.00000000000E+00 0. -1.
         -2   -1    0    0    0  501 -0.00000000000E+00 -0.00000000000E+00 -0.59898279530E+03  0.59898279530E+03  0.00000000000E+00 0.  1.
         23    2    1    2    0    0 -0.14586656389E+03 -0.43711306530E+02  0.14269770390E+03  0.22327929056E+03  0.79393161632E+02 0.  0.
        254    2    1    2    0    0  0.14586656389E+03  0.43711306530E+02 -0.17310451019E+03  0.94427949375E+03  0.91570238511E+03 0.  0.
        -24    2    4    4    0    0  0.17773432194E+03 -0.36913949197E+03 -0.28779220670E+03  0.50688915782E+03  0.79112643423E+02 0.  0.
         24    2    4    4    0    0 -0.31867758046E+02  0.41285079850E+03  0.11468769651E+03  0.43739033593E+03  0.81827271779E+02 0.  0.
         11    1    3    3    0    0 -0.90279248284E+02  0.36412234763E+01  0.11242124162E+03  0.14422945866E+03  0.00000000000E+00 0. -1.
        -11    1    3    3    0    0 -0.55587315609E+02 -0.47352530006E+02  0.30276462282E+02  0.79049831897E+02  0.00000000000E+00 0.  1.
          4    1    6    6  502    0 -0.25419347093E+02  0.90771231512E+02  0.56896719227E+02  0.11010357095E+03  0.00000000000E+00 0. -1.
          3    1    5    5  503    0  0.12587615355E+03 -0.19346012652E+03 -0.12864799493E+03  0.26423840217E+03  0.00000000000E+00 0. -1.
         -2    1    5    5    0  503  0.51858168394E+02 -0.17567936545E+03 -0.15914421177E+03  0.24265075565E+03  0.00000000000E+00 0.  1.
         -3    1    6    6    0  502 -0.64484109531E+01  0.32207956699E+03  0.57790977287E+02  0.32728676498E+03  0.00000000000E+00 0.  1.
<mgrwt>
<rscale>  0 0.11671628E+04</rscale>
<asrwt>0</asrwt>
<pdfrwt beam="1">  1        2 0.87473229E-01 0.11671628E+04</pdfrwt>
<pdfrwt beam="2">  1       -2 0.92151200E-01 0.11671628E+04</pdfrwt>
<totfact> 0.52373252E+01</totfact>
</mgrwt>
</event>
<event>
12    1  0.1599266E-007  0.2430258E+04  0.7818608E-02  0.8428261E-01
          2   -1    0    0  501    0  0.00000000000E+00  0.00000000000E+00  0.90575664934E+03  0.90575664934E+03  0.00000000000E+00 0. -1.
         -2   -1    0    0    0  501 -0.00000000000E+00 -0.00000000000E+00 -0.16301718174E+04  0.16301718174E+04  0.00000000000E+00 0.  1.
         23    2    1    2    0    0  0.79891922809E+03  0.66995272615E+03 -0.22566257759E+03  0.10708455479E+04  0.93155784321E+02 0.  0.
        254    2    1    2    0    0 -0.79891922809E+03 -0.66995272615E+03 -0.49875259051E+03  0.14650829189E+04  0.90033617303E+03 0.  0.
        -24    2    4    4    0    0  0.46661220183E+02  0.71757390453E+02  0.12981375155E+03  0.17451189878E+03  0.79223734912E+02 0.  0.
         24    2    4    4    0    0 -0.84558044827E+03 -0.74171011660E+03 -0.62856634205E+03  0.12905710201E+04  0.73059702034E+02 0.  0.
         11    1    3    3    0    0  0.74173465308E+03  0.64551040874E+03 -0.19920895029E+03  0.10032637685E+04  0.00000000000E+00 0. -1.
        -11    1    3    3    0    0  0.57184575008E+02  0.24442317408E+02 -0.26453627301E+02  0.67581779323E+02  0.00000000000E+00 0.  1.
          2    1    6    6  502    0 -0.32598524291E+01 -0.91099541004E+01 -0.51283066551E+00  0.96892154926E+01  0.00000000000E+00 0. -1.
          3    1    5    5  503    0  0.40354384363E+02  0.61044121649E+01  0.17807342565E+02  0.44529109966E+02  0.00000000000E+00 0. -1.
         -4    1    5    5    0  503  0.63068358205E+01  0.65652978288E+02  0.11200640898E+03  0.12998278882E+03  0.00000000000E+00 0.  1.
         -1    1    6    6    0  502 -0.84232059584E+03 -0.73260016250E+03 -0.62805351139E+03  0.12808818046E+04  0.00000000000E+00 0.  1.
<mgrwt>
<rscale>  0 0.24302584E+04</rscale>
<asrwt>0</asrwt>
<pdfrwt beam="1">  1        2 0.13934718E+00 0.24302584E+04</pdfrwt>
<pdfrwt beam="2">  1       -2 0.25079566E+00 0.24302584E+04</pdfrwt>
<totfact> 0.16560761E+00</totfact>
</mgrwt>
</event>
<event>
12    1  0.1599266E-007  0.1284858E+04  0.7818608E-02  0.9041660E-01
         -2   -1    0    0    0  501 -0.00000000000E+00  0.00000000000E+00  0.69368831689E+03  0.69368831689E+03  0.00000000000E+00 0. -1.
          2   -1    0    0  501    0  0.00000000000E+00 -0.00000000000E+00 -0.59495708758E+03  0.59495708758E+03  0.00000000000E+00 0.  1.
         23    2    1    2    0    0  0.88062637217E+02  0.16298728609E+03  0.28782952091E+03  0.35293209109E+03  0.85996187781E+02 0.  0.
        254    2    1    2    0    0 -0.88062637217E+02 -0.16298728609E+03 -0.18909829160E+03  0.93571331338E+03  0.89748613218E+03 0.  0.
        -24    2    4    4    0    0 -0.35344584987E+03 -0.40632184417E+03 -0.86861990074E+02  0.55110413893E+03  0.78417834635E+02 0.  0.
         24    2    4    4    0    0  0.26538321265E+03  0.24333455808E+03 -0.10223630153E+03  0.38460917446E+03  0.88498581987E+02 0.  0.
         11    1    3    3    0    0  0.60063280186E+02  0.16465432872E+03  0.23553879126E+03  0.29359354179E+03  0.00000000000E+00 0. -1.
        -11    1    3    3    0    0  0.27999357031E+02 -0.16670426340E+01  0.52290729652E+02  0.59338549298E+02  0.00000000000E+00 0.  1.
          2    1    6    6  502    0  0.63172292970E+02  0.25677667467E+02  0.59064526767E+01  0.68446821612E+02  0.00000000000E+00 0. -1.
          3    1    5    5  503    0 -0.43895222159E+02 -0.97665242381E+02 -0.17431449756E+02  0.10848569278E+03  0.00000000000E+00 0. -1.
         -2    1    5    5    0  503 -0.30955062771E+03 -0.30865660179E+03 -0.69430540318E+02  0.44261844615E+03  0.00000000000E+00 0.  1.
         -1    1    6    6    0  502  0.20221091968E+03  0.21765689061E+03 -0.10814275420E+03  0.31616235284E+03  0.00000000000E+00 0.  1.
<mgrwt>
<rscale>  0 0.12848576E+04</rscale>
<asrwt>0</asrwt>
<pdfrwt beam="1">  1        2 0.91531859E-01 0.12848576E+04</pdfrwt>
<pdfrwt beam="2">  1       -2 0.10672128E+00 0.12848576E+04</pdfrwt>
<totfact> 0.34755875E+01</totfact>
</mgrwt>
</event>
<event>
12    1  0.1599266E-007  0.2291370E+04  0.7818608E-02  0.8481331E-01
         -2   -1    0    0    0  501 -0.00000000000E+00  0.00000000000E+00  0.12690395944E+04  0.12690395944E+04  0.00000000000E+00 0.  1.
          2   -1    0    0  501    0  0.00000000000E+00 -0.00000000000E+00 -0.10343211728E+04  0.10343211728E+04  0.00000000000E+00 0. -1.
         23    2    1    2    0    0 -0.66767287018E+02  0.57637612628E+03 -0.68076518606E+03  0.89969720874E+03  0.96677398053E+02 0.  0.
        254    2    1    2    0    0  0.66767287018E+02 -0.57637612628E+03  0.91548360766E+03  0.14036635585E+04  0.89190461378E+03 0.  0.
        -24    2    4    4    0    0 -0.20234619188E+03 -0.71137543107E+03  0.56424233331E+03  0.93356299224E+03  0.78558669026E+02 0.  0.
         24    2    4    4    0    0  0.26911347889E+03  0.13499930479E+03  0.35124127435E+03  0.47010056629E+03  0.83529831822E+02 0.  0.
         11    1    3    3    0    0 -0.50406856740E+02  0.52536138100E+03 -0.65216748972E+03  0.83896833463E+03  0.00000000000E+00 0. -1.
        -11    1    3    3    0    0 -0.16360430278E+02  0.51014745281E+02 -0.28597696336E+02  0.60728874110E+02  0.00000000000E+00 0.  1.
          2    1    6    6  502    0  0.52633571670E+02  0.45589267192E+02  0.39106272653E+02  0.79862223301E+02  0.00000000000E+00 0. -1.
          3    1    5    5  503    0 -0.92101561698E+02 -0.24537019940E+03  0.23890782636E+03  0.35463528013E+03  0.00000000000E+00 0. -1.
         -2    1    5    5    0  503 -0.11024463018E+03 -0.46600523167E+03  0.32533450695E+03  0.57892771210E+03  0.00000000000E+00 0.  1.
         -1    1    6    6    0  502  0.21647990722E+03  0.89410037596E+02  0.31213500170E+03  0.39023834299E+03  0.00000000000E+00 0.  1.
<mgrwt>
<rscale>  0 0.22913704E+04</rscale>
<asrwt>0</asrwt>
<pdfrwt beam="1">  1        2 0.15912633E+00 0.22913704E+04</pdfrwt>
<pdfrwt beam="2">  1       -2 0.19523686E+00 0.22913704E+04</pdfrwt>
<totfact> 0.31064071E+00</totfact>
</mgrwt>
</event>
<event>
12    1  0.1599266E-007  0.2044914E+04  0.7818608E-02  0.8585905E-01
          2   -1    0    0  501    0  0.00000000000E+00  0.00000000000E+00  0.89728822632E+03  0.89728822632E+03  0.00000000000E+00 0. -1.
         -2   -1    0    0    0  501 -0.00000000000E+00 -0.00000000000E+00 -0.11650859115E+04  0.11650859115E+04  0.00000000000E+00 0.  1.
         23    2    1    2    0    0  0.23532446737E+03 -0.50414456213E+03 -0.73016054476E+03  0.92257055366E+03  0.91992721859E+02 0.  0.
        254    2    1    2    0    0 -0.23532446737E+03  0.50414456213E+03  0.46236285958E+03  0.11398035842E+04  0.88081408486E+03 0.  0.
        -24    2    4    4    0    0 -0.14386904024E+03 -0.23577549322E+03  0.16845952417E+03  0.33418936120E+03  0.83758784094E+02 0.  0.
         24    2    4    4    0    0 -0.91455427136E+02  0.73992005535E+03  0.29390333541E+03  0.80561422297E+03  0.82397343508E+02 0.  0.
         11    1    3    3    0    0  0.17654284786E+03 -0.31344134859E+03 -0.41143657686E+03  0.54652805318E+03  0.00000000000E+00 0.  1.
        -11    1    3    3    0    0  0.58781619513E+02 -0.19070321354E+03 -0.31872396791E+03  0.37604250048E+03  0.00000000000E+00 0. -1.
          2    1    6    6  502    0 -0.70883956593E+02  0.67666824634E+03  0.28808014603E+03  0.73884681866E+03  0.00000000000E+00 0. -1.
          1    1    5    5  503    0 -0.14067966140E+03 -0.24103048905E+03  0.17125482118E+03  0.32743652447E+03  0.00000000000E+00 0. -1.
         -2    1    5    5    0  503 -0.31893788350E+01  0.52549958239E+01 -0.27952970114E+01  0.67528367257E+01  0.00000000000E+00 0.  1.
         -1    1    6    6    0  502 -0.20571470543E+02  0.63251809014E+02  0.58231893855E+01  0.66767404311E+02  0.00000000000E+00 0.  1.
<mgrwt>
<rscale>  0 0.20449136E+04</rscale>
<asrwt>0</asrwt>
<pdfrwt beam="1">  1        2 0.13804434E+00 0.20449136E+04</pdfrwt>
<pdfrwt beam="2">  1       -2 0.17924399E+00 0.20449136E+04</pdfrwt>
<totfact> 0.50007419E+00</totfact>
</mgrwt>
</event>
<event>
12    1  0.1599266E-007  0.1831397E+04  0.7818608E-02  0.8689779E-01
         -1   -1    0    0    0  501 -0.00000000000E+00  0.00000000000E+00  0.60969826929E+03  0.60969826929E+03  0.00000000000E+00 0.  1.
          1   -1    0    0  501    0  0.00000000000E+00 -0.00000000000E+00 -0.13752761710E+04  0.13752761710E+04  0.00000000000E+00 0. -1.
         23    2    1    2    0    0  0.41345413918E+03 -0.20794429178E+03  0.18369172837E+03  0.50494360488E+03  0.83906134188E+02 0.  0.
        254    2    1    2    0    0 -0.41345413918E+03  0.20794429178E+03 -0.94926963010E+03  0.14800308354E+04  0.10369152759E+04 0.  0.
        -24    2    4    4    0    0 -0.62483996717E+03  0.41204599528E+03 -0.40067058894E+03  0.85270014371E+03  0.79710271867E+02 0.  0.
         24    2    4    4    0    0  0.21138582799E+03 -0.20410170350E+03 -0.54859904116E+03  0.62733069171E+03  0.79002627539E+02 0.  0.
         13    1    3    3    0    0  0.19062706819E+03 -0.71391284076E+02  0.42663791490E+02  0.20797979150E+03  0.00000000000E+00 0.  1.
        -13    1    3    3    0    0  0.22282707099E+03 -0.13655300770E+03  0.14102793688E+03  0.29696381339E+03  0.00000000000E+00 0. -1.
          4    1    6    6  502    0  0.12689968216E+02 -0.48036433866E+02 -0.11876885881E+03  0.12874228558E+03  0.00000000000E+00 0. -1.
          3    1    5    5  503    0 -0.30687817111E+02  0.31175460022E+02 -0.43609300215E+02  0.61769106290E+02  0.00000000000E+00 0. -1.
         -4    1    5    5    0  503 -0.59415215006E+03  0.38087053525E+03 -0.35706128873E+03  0.79093103742E+03  0.00000000000E+00 0.  1.
         -3    1    6    6    0  502  0.19869585978E+03 -0.15606526963E+03 -0.42983018235E+03  0.49858840614E+03  0.00000000000E+00 0.  1.
<mgrwt>
<rscale>  0 0.18313967E+04</rscale>
<asrwt>0</asrwt>
<pdfrwt beam="1">  1        1 0.21158095E+00 0.18313967E+04</pdfrwt>
<pdfrwt beam="2">  1       -1 0.93799735E-01 0.18313967E+04</pdfrwt>
<totfact> 0.82920621E+00</totfact>
</mgrwt>
</event>
<event>
12    1  0.1599266E-007  0.1665897E+04  0.7818608E-02  0.8781057E-01
          2   -1    0    0  501    0  0.00000000000E+00  0.00000000000E+00  0.17551075010E+04  0.17551075010E+04  0.00000000000E+00 0. -1.
         -2   -1    0    0    0  501 -0.00000000000E+00 -0.00000000000E+00 -0.39530528779E+03  0.39530528779E+03  0.00000000000E+00 0.  1.
         23    2    1    2    0    0  0.89007622470E+01 -0.54062741854E+03  0.72321994349E+03  0.90820419908E+03  0.97111025732E+02 0.  0.
        254    2    1    2    0    0 -0.89007622470E+01  0.54062741854E+03  0.63658226969E+03  0.12422085897E+04  0.91950419518E+03 0.  0.
        -24    2    4    4    0    0 -0.21463129033E+03  0.55917930239E+03  0.77377148721E+03  0.98158804610E+03  0.77747635483E+02 0.  0.
         24    2    4    4    0    0  0.20573052808E+03 -0.18551883850E+02 -0.13718921752E+03  0.26062054358E+03  0.80205758867E+02 0.  0.
         13    1    3    3    0    0  0.25600437888E+02 -0.10383851644E+03  0.96101322145E+02  0.14378207132E+03  0.00000000000E+00 0.  1.
        -13    1    3    3    0    0 -0.16699675641E+02 -0.43678890210E+03  0.62711862135E+03  0.76442212776E+03  0.00000000000E+00 0. -1.
          2    1    6    6  502    0  0.15813843568E+01 -0.83489409993E+01  0.65566238877E+01  0.10732889131E+02  0.00000000000E+00 0. -1.
          3    1    5    5  503    0 -0.51101522227E+02  0.19102615322E+03  0.30515744064E+03  0.36362538466E+03  0.00000000000E+00 0. -1.
         -4    1    5    5    0  503 -0.16352976810E+03  0.36815314917E+03  0.46861404656E+03  0.61796266144E+03  0.00000000000E+00 0.  1.
         -1    1    6    6    0  502  0.20414914373E+03 -0.10202942851E+02 -0.14374584141E+03  0.24988765445E+03  0.00000000000E+00 0.  1.
<mgrwt>
<rscale>  0 0.16658971E+04</rscale>
<asrwt>0</asrwt>
<pdfrwt beam="1">  1        2 0.27001653E+00 0.16658971E+04</pdfrwt>
<pdfrwt beam="2">  1       -2 0.60816199E-01 0.16658971E+04</pdfrwt>
<totfact> 0.21941969E+01</totfact>
</mgrwt>
</event>
<event>
12    1  0.1599266E-007  0.1419801E+04  0.7818608E-02  0.8939609E-01
          1   -1    0    0  501    0  0.00000000000E+00  0.00000000000E+00  0.86788357216E+03  0.86788357216E+03  0.00000000000E+00 0. -1.
         -1   -1    0    0    0  501 -0.00000000000E+00 -0.00000000000E+00 -0.58067535652E+03  0.58067535652E+03  0.00000000000E+00 0.  1.
         23    2    1    2    0    0 -0.39955140881E+03  0.30724445572E+02  0.16638682899E+03  0.44364466272E+03  0.92469941400E+02 0.  0.
        254    2    1    2    0    0  0.39955140881E+03 -0.30724445572E+02  0.12082138664E+03  0.10049142660E+04  0.91360251457E+03 0.  0.
        -24    2    4    4    0    0  0.28045487489E+03 -0.15737588161E+03  0.48801022736E+03  0.59067839961E+03  0.85585540750E+02 0.  0.
         24    2    4    4    0    0  0.11909653392E+03  0.12665143604E+03 -0.36718884072E+03  0.41423586636E+03  0.80864934203E+02 0.  0.
         11    1    3    3    0    0 -0.82531920424E+02  0.29172010454E+02  0.44302207530E+01  0.87647880400E+02  0.00000000000E+00 0.  1.
        -11    1    3    3    0    0 -0.31701948838E+03  0.15524351182E+01  0.16195660824E+03  0.35599678232E+03  0.00000000000E+00 0. -1.
          4    1    6    6  502    0  0.94611770459E+02  0.97085238944E+02 -0.19290146809E+03  0.23577087844E+03  0.00000000000E+00 0. -1.
          3    1    5    5  503    0  0.87827108250E+02 -0.91738257198E+02  0.15470169267E+03  0.20015524598E+03  0.00000000000E+00 0. -1.
         -4    1    5    5    0  503  0.19262776664E+03 -0.65637624416E+02  0.33330853470E+03  0.39052315363E+03  0.00000000000E+00 0.  1.
         -3    1    6    6    0  502  0.24484763456E+02  0.29566197098E+02 -0.17428737263E+03  0.17846498792E+03  0.00000000000E+00 0.  1.
<mgrwt>
<rscale>  0 0.14198008E+04</rscale>
<asrwt>0</asrwt>
<pdfrwt beam="1">  1        1 0.13352055E+00 0.14198008E+04</pdfrwt>
<pdfrwt beam="2">  1       -1 0.89334671E-01 0.14198008E+04</pdfrwt>
<totfact> 0.23135415E+01</totfact>
</mgrwt>
</event>
<event>
12    1  0.1599266E-007  0.1217788E+04  0.7818608E-02  0.9097427E-01
         -2   -1    0    0    0  501 -0.00000000000E+00  0.00000000000E+00  0.54538441270E+03  0.54538441270E+03  0.00000000000E+00 0.  1.
          2   -1    0    0  501    0  0.00000000000E+00 -0.00000000000E+00 -0.67979965177E+03  0.67979965177E+03  0.00000000000E+00 0. -1.
         23    2    1    2    0    0 -0.23378201620E+03  0.53710673276E+02  0.60506099942E+02  0.26348454419E+03  0.90687647293E+02 0.  0.
        254    2    1    2    0    0  0.23378201620E+03 -0.53710673276E+02 -0.19492133901E+03  0.96169952028E+03  0.91067709501E+03 0.  0.
        -24    2    4    4    0    0  0.51663410306E+03 -0.25442381072E+03 -0.16208721485E+03  0.60416092541E+03  0.84237086044E+02 0.  0.
         24    2    4    4    0    0 -0.28285208686E+03  0.20071313744E+03 -0.32834124166E+02  0.35753859487E+03  0.80403361421E+02 0.  0.
         13    1    3    3    0    0 -0.53474596818E+02  0.16078914006E+01 -0.22784775766E+02  0.58148635636E+02  0.00000000000E+00 0. -1.
        -13    1    3    3    0    0 -0.18030741939E+03  0.52102781875E+02  0.83290875707E+02  0.20533590855E+03  0.00000000000E+00 0.  1.
          2    1    6    6  502    0 -0.50380345100E+02  0.77429775711E+02 -0.14466446686E+00  0.92377325502E+02  0.00000000000E+00 0. -1.
          1    1    5    5  503    0  0.18593579297E+02 -0.36599251196E+01  0.88850905933E+01  0.20929908691E+02  0.00000000000E+00 0. -1.
         -2    1    5    5    0  503  0.49804052377E+03 -0.25076388560E+03 -0.17097230544E+03  0.58323101672E+03  0.00000000000E+00 0.  1.
         -1    1    6    6    0  502 -0.23247174176E+03  0.12328336173E+03 -0.32689459699E+02  0.26516126937E+03  0.00000000000E+00 0.  1.
<mgrwt>
<rscale>  0 0.12177884E+04</rscale>
<asrwt>0</asrwt>
<pdfrwt beam="1">  1        2 0.10458456E+00 0.12177884E+04</pdfrwt>
<pdfrwt beam="2">  1       -2 0.83905295E-01 0.12177884E+04</pdfrwt>
<totfact> 0.52027662E+01</totfact>
</mgrwt>
</event>
<event>
12    1  0.1599266E-007  0.1580384E+04  0.7818608E-02  0.8832690E-01
         -2   -1    0    0    0  501 -0.00000000000E+00  0.00000000000E+00  0.24102820812E+03  0.24102820812E+03  0.00000000000E+00 0.  1.
          2   -1    0    0  501    0  0.00000000000E+00 -0.00000000000E+00 -0.25905826042E+04  0.25905826042E+04  0.00000000000E+00 0. -1.
         23    2    1    2    0    0  0.29784537134E+03  0.15924895249E+03 -0.15102447307E+04  0.15503073896E+04  0.92421650954E+02 0.  0.
        254    2    1    2    0    0 -0.29784537134E+03 -0.15924895249E+03 -0.83930966537E+03  0.12813034227E+04  0.90731783435E+03 0.  0.
        -24    2    4    4    0    0 -0.44826622513E+02  0.26741993060E+03  0.22752880651E+02  0.28348983268E+03  0.79535817630E+02 0.  0.
         24    2    4    4    0    0 -0.25301874883E+03 -0.42666888310E+03 -0.86206254602E+03  0.99781359001E+03  0.80095593538E+02 0.  0.
         11    1    3    3    0    0  0.25025465734E+03  0.90457950579E+02 -0.11802226867E+04  0.12098494223E+04  0.00000000000E+00 0. -1.
        -11    1    3    3    0    0  0.47590713999E+02  0.68791001916E+02 -0.33002204395E+03  0.34045796730E+03  0.00000000000E+00 0.  1.
          2    1    6    6  502    0 -0.85421622623E+02 -0.81113032931E+02 -0.18185815404E+03  0.21667617754E+03  0.00000000000E+00 0. -1.
          1    1    5    5  503    0 -0.13842449631E+02  0.22774747016E+02 -0.19857807723E+02  0.33236050322E+02  0.00000000000E+00 0. -1.
         -2    1    5    5    0  503 -0.30984172882E+02  0.24464518359E+03  0.42610688374E+02  0.25025378236E+03  0.00000000000E+00 0.  1.
         -1    1    6    6    0  502 -0.16759712621E+03 -0.34555585017E+03 -0.68020439198E+03  0.78113741248E+03  0.00000000000E+00 0.  1.
<mgrwt>
<rscale>  0 0.15803841E+04</rscale>
<asrwt>0</asrwt>
<pdfrwt beam="1">  1        2 0.39855115E+00 0.15803841E+04</pdfrwt>
<pdfrwt beam="2">  1       -2 0.37081265E-01 0.15803841E+04</pdfrwt>
<totfact> 0.20347642E+01</totfact>
</mgrwt>
</event>
<event>
12    1  0.1599266E-007  0.1803967E+04  0.7818608E-02  0.8704193E-01
          1   -1    0    0  501    0  0.00000000000E+00  0.00000000000E+00  0.15051614962E+04  0.15051614962E+04  0.00000000000E+00 0. -1.
         -1   -1    0    0    0  501 -0.00000000000E+00 -0.00000000000E+00 -0.54052291355E+03  0.54052291355E+03  0.00000000000E+00 0.  1.
         23    2    1    2    0    0 -0.20039704965E+02  0.52660695346E+03 -0.11660853711E+03  0.54740153006E+03  0.91292995246E+02 0.  0.
        254    2    1    2    0    0  0.20039704965E+02 -0.52660695346E+03  0.10812471198E+04  0.14982828797E+04  0.89333072285E+03 0.  0.
        -24    2    4    4    0    0  0.42972077924E+03 -0.12870332894E+03  0.40396277147E+03  0.60867397831E+03  0.77933280104E+02 0.  0.
         24    2    4    4    0    0 -0.40968107428E+03 -0.39790362451E+03  0.67728434831E+03  0.88960890139E+03  0.80771479843E+02 0.  0.
         11    1    3    3    0    0 -0.26529238349E+02  0.28466980868E+03 -0.19320129426E+02  0.28655534869E+03  0.00000000000E+00 0. -1.
        -11    1    3    3    0    0  0.64895333831E+01  0.24193714478E+03 -0.97288407683E+02  0.26084618137E+03  0.00000000000E+00 0.  1.
          4    1    6    6  502    0 -0.56646261892E+02 -0.25857729934E+02  0.53919504638E+02  0.82369497778E+02  0.00000000000E+00 0. -1.
          1    1    5    5  503    0  0.23936980626E+03 -0.61477018331E+02  0.27194100682E+03  0.36746324867E+03  0.00000000000E+00 0. -1.
         -2    1    5    5    0  503  0.19035097298E+03 -0.67226310613E+02  0.13202176465E+03  0.24121072964E+03  0.00000000000E+00 0.  1.
         -3    1    6    6    0  502 -0.35303481238E+03 -0.37204589458E+03  0.62336484367E+03  0.80723940362E+03  0.00000000000E+00 0.  1.
<mgrwt>
<rscale>  0 0.18039670E+04</rscale>
<asrwt>0</asrwt>
<pdfrwt beam="1">  1        1 0.23156331E+00 0.18039670E+04</pdfrwt>
<pdfrwt beam="2">  1       -1 0.83157372E-01 0.18039670E+04</pdfrwt>
<totfact> 0.87855482E+00</totfact>
</mgrwt>
</event>
<event>
12    1  0.1808299E-007  0.1721521E+04  0.7818608E-02  0.8749184E-01
          2   -1    0    0  501    0  0.00000000000E+00  0.00000000000E+00  0.17492852387E+04  0.17492852387E+04  0.00000000000E+00 0. -1.
         -2   -1    0    0    0  501 -0.00000000000E+00 -0.00000000000E+00 -0.42354945791E+03  0.42354945791E+03  0.00000000000E+00 0.  1.
         23    2    1    2    0    0  0.16026292528E+03 -0.23178256534E+03 -0.22454430306E+03  0.37206005651E+03  0.92742540389E+02 0.  0.
        254    2    1    2    0    0 -0.16026292528E+03  0.23178256534E+03  0.15502800839E+04  0.18007746401E+04  0.87178759067E+03 0.  0.
        -24    2    4    4    0    0  0.11188210542E+03  0.78182519162E+02 -0.52669650856E+02  0.16563050491E+03  0.77648311116E+02 0.  0.
         24    2    4    4    0    0 -0.27214503070E+03  0.15360004617E+03  0.16029497347E+04  0.16351441352E+04  0.81194820843E+02 0.  0.
         13    1    3    3    0    0  0.17341770236E+02 -0.12849807479E+02  0.71298597079E+01  0.22730803914E+02  0.00000000000E+00 0. -1.
        -13    1    3    3    0    0  0.14292115504E+03 -0.21893275786E+03 -0.23167416277E+03  0.34932925259E+03  0.00000000000E+00 0.  1.
          2    1    6    6  502    0 -0.39536159297E+02  0.50984438191E+01  0.11233801310E+03  0.11920122150E+03  0.00000000000E+00 0. -1.
          1    1    5    5  503    0  0.35907898272E+02 -0.12235498773E+02 -0.20993202145E+02  0.43356650295E+02  0.00000000000E+00 0. -1.
         -2    1    5    5    0  503  0.75974207150E+02  0.90418017935E+02 -0.31676448711E+02  0.12227385461E+03  0.00000000000E+00 0.  1.
         -1    1    6    6    0  502 -0.23260887140E+03  0.14850160235E+03  0.14906117216E+04  0.15159429137E+04  0.00000000000E+00 0.  1.
<mgrwt>
<rscale>  0 0.17215212E+04</rscale>
<asrwt>0</asrwt>
<pdfrwt beam="1">  1        2 0.26912080E+00 0.17215212E+04</pdfrwt>
<pdfrwt beam="2">  1       -2 0.65161456E-01 0.17215212E+04</pdfrwt>
<totfact> 0.18990530E+01</totfact>
</mgrwt>
</event>
<event>
12    1  0.1599266E-007  0.1492106E+04  0.7818608E-02  0.8889719E-01
         -2   -1    0    0    0  501 -0.00000000000E+00  0.00000000000E+00  0.15025696074E+03  0.15025696074E+03  0.00000000000E+00 0.  1.
          2   -1    0    0  501    0  0.00000000000E+00 -0.00000000000E+00 -0.37042892625E+04  0.37042892625E+04  0.00000000000E+00 0. -1.
         23    2    1    2    0    0 -0.73013594059E+02 -0.23449123687E+03 -0.21077099783E+04  0.21238184049E+04  0.88578436874E+02 0.  0.
        254    2    1    2    0    0  0.73013594059E+02  0.23449123687E+03 -0.14463223235E+04  0.17307278183E+04  0.91828829493E+03 0.  0.
        -24    2    4    4    0    0 -0.34472201906E+03  0.26288209272E+03 -0.37937122763E+03  0.58148985974E+03  0.79168576629E+02 0.  0.
         24    2    4    4    0    0  0.41773561312E+03 -0.28390855851E+02 -0.10669510958E+04  0.11492379586E+04  0.83989054873E+02 0.  0.
         13    1    3    3    0    0 -0.71179556276E+02 -0.82034491579E+02 -0.87187093877E+03  0.87860976601E+03  0.00000000000E+00 0. -1.
        -13    1    3    3    0    0 -0.18340377833E+01 -0.15245674529E+03 -0.12358390395E+04  0.12452086389E+04  0.00000000000E+00 0.  1.
          2    1    6    6  502    0  0.13433405273E+03 -0.28304873655E+02 -0.44645675627E+03  0.46708718545E+03  0.00000000000E+00 0. -1.
          1    1    5    5  503    0 -0.31709921322E+03  0.22239313310E+03 -0.36001445543E+03  0.52879204305E+03  0.00000000000E+00 0. -1.
         -4    1    5    5    0  503 -0.27622805841E+02  0.40488959616E+02 -0.19356772198E+02  0.52697816684E+02  0.00000000000E+00 0.  1.
         -1    1    6    6    0  502  0.28340156039E+03 -0.85982196008E-01 -0.62049433957E+03  0.68215077311E+03  0.00000000000E+00 0.  1.
<mgrwt>
<rscale>  0 0.14921062E+04</rscale>
<asrwt>0</asrwt>
<pdfrwt beam="1">  1        2 0.56989059E+00 0.14921062E+04</pdfrwt>
<pdfrwt beam="2">  1       -2 0.23116458E-01 0.14921062E+04</pdfrwt>
<totfact> 0.94258510E+00</totfact>
</mgrwt>
</event>
<event>
12    1  0.1599266E-007  0.1872614E+04  0.7818608E-02  0.8668609E-01
         -2   -1    0    0    0  501 -0.00000000000E+00  0.00000000000E+00  0.51720576606E+03  0.51720576606E+03  0.00000000000E+00 0. -1.
          2   -1    0    0  501    0  0.00000000000E+00 -0.00000000000E+00 -0.16950141543E+04  0.16950141543E+04  0.00000000000E+00 0.  1.
         23    2    1    2    0    0 -0.16124685353E+03  0.37503375466E+03 -0.11499042212E+04  0.12232141173E+04  0.85569818094E+02 0.  0.
        254    2    1    2    0    0  0.16124685353E+03 -0.37503375466E+03 -0.27904167018E+02  0.98900580309E+03  0.90039045481E+03 0.  0.
        -24    2    4    4    0    0  0.31630870418E+03 -0.60833748924E+03 -0.73760629949E+02  0.69419071835E+03  0.79589105812E+02 0.  0.
         24    2    4    4    0    0 -0.15506185065E+03  0.23330373458E+03  0.45856462931E+02  0.29481508474E+03  0.79613497005E+02 0.  0.
         13    1    3    3    0    0 -0.86398434719E+01  0.40279010459E+02 -0.59110727844E+02  0.72049453329E+02  0.00000000000E+00 0. -1.
        -13    1    3    3    0    0 -0.15260701006E+03  0.33475474420E+03 -0.10907934934E+04  0.11511646639E+04  0.00000000000E+00 0.  1.
          4    1    6    6  502    0 -0.64019621611E+02  0.15104731784E+03  0.65421253869E+00  0.16405557647E+03  0.00000000000E+00 0. -1.
          1    1    5    5  503    0  0.31467745503E+03 -0.57948235788E+03 -0.59863381557E+02  0.66212183791E+03  0.00000000000E+00 0. -1.
         -2    1    5    5    0  503  0.16312491547E+01 -0.28855131359E+02 -0.13897248393E+02  0.32068880436E+02  0.00000000000E+00 0.  1.
         -3    1    6    6    0  502 -0.91042229041E+02  0.82256416739E+02  0.45202250393E+02  0.13075950827E+03  0.00000000000E+00 0.  1.
<mgrwt>
<rscale>  0 0.18726143E+04</rscale>
<asrwt>0</asrwt>
<pdfrwt beam="1">  1        2 0.26077141E+00 0.18726143E+04</pdfrwt>
<pdfrwt beam="2">  1       -2 0.79570116E-01 0.18726143E+04</pdfrwt>
<totfact> 0.12960801E+01</totfact>
</mgrwt>
</event>
<event>
12    1  0.1599266E-007  0.1763208E+04  0.7818608E-02  0.8726113E-01
         -1   -1    0    0    0  501 -0.00000000000E+00  0.00000000000E+00  0.10108991189E+04  0.10108991189E+04  0.00000000000E+00 0.  1.
          1   -1    0    0  501    0  0.00000000000E+00 -0.00000000000E+00 -0.76884593410E+03  0.76884593410E+03  0.00000000000E+00 0. -1.
         23    2    1    2    0    0  0.19898345305E+03 -0.52478160024E+03  0.34063151687E+03  0.66433504192E+03  0.10159269216E+03 0.  0.
        254    2    1    2    0    0 -0.19898345305E+03  0.52478160024E+03 -0.98578332025E+02  0.11154100111E+04  0.95886999267E+03 0.  0.
        -24    2    4    4    0    0  0.57173990274E+02  0.74548568049E+03 -0.14370849839E+03  0.76555670871E+03  0.80044842197E+02 0.  0.
         24    2    4    4    0    0 -0.25615744332E+03 -0.22070408025E+03  0.45130166365E+02  0.34985330241E+03  0.77676730642E+02 0.  0.
         13    1    3    3    0    0  0.14313549054E+03 -0.43438660963E+03  0.31405476396E+03  0.55480617340E+03  0.00000000000E+00 0.  1.
        -13    1    3    3    0    0  0.55847962505E+02 -0.90394990612E+02  0.26576752908E+02  0.10952886852E+03  0.00000000000E+00 0. -1.
          2    1    6    6  502    0 -0.60516167691E+02 -0.44268852244E+02  0.42922295741E+02  0.86395956519E+02  0.00000000000E+00 0. -1.
          3    1    5    5  503    0 -0.17818966635E+02  0.24590582925E+03 -0.55835154224E+02  0.25279390198E+03  0.00000000000E+00 0. -1.
         -4    1    5    5    0  503  0.74992956909E+02  0.49957985124E+03 -0.87873344167E+02  0.51276280673E+03  0.00000000000E+00 0.  1.
         -1    1    6    6    0  502 -0.19564127563E+03 -0.17643522801E+03  0.22078706240E+01  0.26345734589E+03  0.00000000000E+00 0.  1.
<mgrwt>
<rscale>  0 0.17632081E+04</rscale>
<asrwt>0</asrwt>
<pdfrwt beam="1">  1        1 0.11828399E+00 0.17632081E+04</pdfrwt>
<pdfrwt beam="2">  1       -1 0.15552294E+00 0.17632081E+04</pdfrwt>
<totfact> 0.70501921E+00</totfact>
</mgrwt>
</event>
<event>
12    1  0.1599266E-007  0.1897365E+04  0.7818608E-02  0.8656169E-01
         -2   -1    0    0    0  501 -0.00000000000E+00  0.00000000000E+00  0.59276710589E+03  0.59276710589E+03  0.00000000000E+00 0. -1.
          2   -1    0    0  501    0  0.00000000000E+00 -0.00000000000E+00 -0.15183000412E+04  0.15183000412E+04  0.00000000000E+00 0.  1.
         23    2    1    2    0    0  0.18407852154E+03  0.15532213961E+03 -0.11324831309E+04  0.11613445979E+04  0.90517203511E+02 0.  0.
        254    2    1    2    0    0 -0.18407852154E+03 -0.15532213961E+03  0.20695019554E+03  0.94972254925E+03  0.89506126493E+03 0.  0.
        -24    2    4    4    0    0 -0.51978663370E+03 -0.94690468209E+02  0.26167133098E+03  0.59508551507E+03  0.80687393327E+02 0.  0.
         24    2    4    4    0    0  0.33570811215E+03 -0.60631671400E+02 -0.54721135444E+02  0.35463703419E+03  0.79980542698E+02 0.  0.
         11    1    3    3    0    0  0.91897830892E+01  0.54090127987E+02 -0.21753241298E+03  0.22434470075E+03  0.00000000000E+00 0. -1.
        -11    1    3    3    0    0  0.17488873845E+03  0.10123201162E+03 -0.91495071791E+03  0.93699989713E+03  0.00000000000E+00 0.  1.
          4    1    6    6  502    0  0.62395435693E+02 -0.43441275107E+02 -0.19818018729E+02  0.78569005623E+02  0.00000000000E+00 0. -1.
          3    1    5    5  503    0 -0.48023327346E+03 -0.68164621114E+02  0.22355236326E+03  0.53408433007E+03  0.00000000000E+00 0. -1.
         -4    1    5    5    0  503 -0.39553360237E+02 -0.26525847095E+02  0.38118967726E+02  0.61001184994E+02  0.00000000000E+00 0.  1.
         -3    1    6    6    0  502  0.27331267646E+03 -0.17190396293E+02 -0.34903116716E+02  0.27606802857E+03  0.00000000000E+00 0.  1.
<mgrwt>
<rscale>  0 0.18973648E+04</rscale>
<asrwt>0</asrwt>
<pdfrwt beam="1">  1        2 0.23358462E+00 0.18973648E+04</pdfrwt>
<pdfrwt beam="2">  1       -2 0.91194940E-01 0.18973648E+04</pdfrwt>
<totfact> 0.11903015E+01</totfact>
</mgrwt>
</event>
<event>
12    1  0.1599266E-007  0.1986850E+04  0.7818608E-02  0.8612793E-01
         -1   -1    0    0    0  501 -0.00000000000E+00  0.00000000000E+00  0.73314744349E+03  0.73314744349E+03  0.00000000000E+00 0.  1.
          1   -1    0    0  501    0  0.00000000000E+00 -0.00000000000E+00 -0.13461047948E+04  0.13461047948E+04  0.00000000000E+00 0. -1.
         23    2    1    2    0    0 -0.49065236554E+03  0.59625786493E+03 -0.63668311364E+02  0.78020053629E+03  0.91629894990E+02 0.  0.
        254    2    1    2    0    0  0.49065236554E+03 -0.59625786493E+03 -0.54928903993E+03  0.12990517020E+04  0.88856833712E+03 0.  0.
        -24    2    4    4    0    0  0.15963871724E+03 -0.76859357215E+03 -0.42740345717E+03  0.89795070923E+03  0.86146165440E+02 0.  0.
         24    2    4    4    0    0  0.33101364830E+03  0.17233570722E+03 -0.12188558277E+03  0.40110099276E+03  0.82196592147E+02 0.  0.
         13    1    3    3    0    0 -0.34836996895E+03  0.43570166041E+03 -0.86279135998E+02  0.56448353515E+03  0.00000000000E+00 0. -1.
        -13    1    3    3    0    0 -0.14228239659E+03  0.16055620452E+03  0.22610824634E+02  0.21571700114E+03  0.00000000000E+00 0.  1.
          4    1    6    6  502    0  0.71671245449E+02  0.66664782904E+02 -0.61243697033E+01  0.98073791648E+02  0.00000000000E+00 0. -1.
          1    1    5    5  503    0  0.26588126855E+02 -0.80383210828E+02 -0.76328303834E+02  0.11399297802E+03  0.00000000000E+00 0. -1.
         -2    1    5    5    0  503  0.13305059039E+03 -0.68821036132E+03 -0.35107515333E+03  0.78395773121E+03  0.00000000000E+00 0.  1.
         -3    1    6    6    0  502  0.25934240285E+03  0.10567092431E+03 -0.11576121306E+03  0.30302720111E+03  0.00000000000E+00 0.  1.
<mgrwt>
<rscale>  0 0.19868501E+04</rscale>
<asrwt>0</asrwt>
<pdfrwt beam="1">  1        1 0.20709304E+00 0.19868501E+04</pdfrwt>
<pdfrwt beam="2">  1       -1 0.11279192E+00 0.19868501E+04</pdfrwt>
<totfact> 0.56004633E+00</totfact>
</mgrwt>
</event>
<event>
12    1  0.1599266E-007  0.1678984E+04  0.7818608E-02  0.8773442E-01
          1   -1    0    0  501    0  0.00000000000E+00  0.00000000000E+00  0.11046782555E+04  0.11046782555E+04  0.00000000000E+00 0. -1.
         -1   -1    0    0    0  501 -0.00000000000E+00 -0.00000000000E+00 -0.63796537246E+03  0.63796537246E+03  0.00000000000E+00 0.  1.
         23    2    1    2    0    0 -0.15390896843E+03  0.42486796336E+03 -0.23707016391E+03  0.52583122967E+03  0.12686789436E+03 0.  0.
        254    2    1    2    0    0  0.15390896843E+03 -0.42486796336E+03  0.70378304693E+03  0.12168123983E+04  0.88381054452E+03 0.  0.
        -24    2    4    4    0    0  0.30788865527E+03  0.15072787632E+03  0.10279534180E+03  0.36678052145E+03  0.80291667543E+02 0.  0.
         24    2    4    4    0    0 -0.15397968684E+03 -0.57559583968E+03  0.60098770514E+03  0.85003187683E+03  0.79672173848E+02 0.  0.
         13    1    3    3    0    0 -0.12904397310E+03  0.28919427017E+03 -0.22271416279E+03  0.38715277501E+03  0.00000000000E+00 0.  1.
        -13    1    3    3    0    0 -0.24864995333E+02  0.13567369319E+03 -0.14356001120E+02  0.13867845465E+03  0.00000000000E+00 0. -1.
          4    1    6    6  502    0 -0.12214070158E+03 -0.31063691199E+03  0.35091777308E+03  0.48431077371E+03  0.00000000000E+00 0. -1.
          1    1    5    5  503    0  0.29180924255E+03  0.15738376212E+03  0.10787199727E+03  0.34865262141E+03  0.00000000000E+00 0. -1.
         -2    1    5    5    0  503  0.16079412719E+02 -0.66558858044E+01 -0.50766554735E+01  0.18127900045E+02  0.00000000000E+00 0.  1.
         -3    1    6    6    0  502 -0.31838985262E+02 -0.26495892769E+03  0.25006993206E+03  0.36572110312E+03  0.00000000000E+00 0.  1.
<mgrwt>
<rscale>  0 0.16789836E+04</rscale>
<asrwt>0</asrwt>
<pdfrwt beam="1">  1        1 0.16995050E+00 0.16789836E+04</pdfrwt>
<pdfrwt beam="2">  1       -1 0.98148518E-01 0.16789836E+04</pdfrwt>
<totfact> 0.11926492E+01</totfact>
</mgrwt>
</event>
<event>
12    1  0.1599266E-007  0.1326218E+04  0.7818608E-02  0.9009028E-01
          1   -1    0    0  501    0  0.00000000000E+00  0.00000000000E+00  0.36264631822E+04  0.36264631822E+04  0.00000000000E+00 0. -1.
         -1   -1    0    0    0  501 -0.00000000000E+00 -0.00000000000E+00 -0.12125142487E+03  0.12125142487E+03  0.00000000000E+00 0.  1.
         23    2    1    2    0    0  0.21925979511E+03  0.63557781244E+02  0.15216879580E+03  0.28880641934E+03  0.90218380212E+02 0.  0.
        254    2    1    2    0    0 -0.21925979511E+03 -0.63557781244E+02  0.33530429616E+04  0.34589081878E+04  0.81794516934E+03 0.  0.
        -24    2    4    4    0    0  0.24457265514E+03  0.16382628797E+03  0.16356314591E+04  0.16638096296E+04  0.79481929878E+02 0.  0.
         24    2    4    4    0    0 -0.46383245025E+03 -0.22738406921E+03  0.17174115025E+04  0.17950985582E+04  0.77669221965E+02 0.  0.
         13    1    3    3    0    0  0.13408601315E+03 -0.44620398390E+01  0.10344841150E+03  0.16941234478E+03  0.00000000000E+00 0.  1.
        -13    1    3    3    0    0  0.85173781962E+02  0.68019821083E+02  0.48720384298E+02  0.11939407456E+03  0.00000000000E+00 0. -1.
          2    1    6    6  502    0 -0.33310618495E+02 -0.41724576463E+02  0.16345828794E+03  0.17195682447E+03  0.00000000000E+00 0. -1.
          3    1    5    5  503    0  0.14195574290E+03  0.59835402758E+02  0.98526986156E+03  0.99724039653E+03  0.00000000000E+00 0. -1.
         -4    1    5    5    0  503  0.10261691224E+03  0.10399088521E+03  0.65036159756E+03  0.66656923306E+03  0.00000000000E+00 0.  1.
         -1    1    6    6    0  502 -0.43052183175E+03 -0.18565949275E+03  0.15539532145E+04  0.16231417337E+04  0.00000000000E+00 0.  1.
<mgrwt>
<rscale>  0 0.13262184E+04</rscale>
<asrwt>0</asrwt>
<pdfrwt beam="1">  1        1 0.55791733E+00 0.13262184E+04</pdfrwt>
<pdfrwt beam="2">  1       -1 0.18654068E-01 0.13262184E+04</pdfrwt>
<totfact> 0.45492206E+00</totfact>
</mgrwt>
</event>
<event>
12    1  0.1599266E-007  0.1510520E+04  0.7818608E-02  0.8877487E-01
         -2   -1    0    0    0  501 -0.00000000000E+00  0.00000000000E+00  0.56589404420E+03  0.56589404420E+03  0.00000000000E+00 0.  1.
          2   -1    0    0  501    0  0.00000000000E+00 -0.00000000000E+00 -0.10079936498E+04  0.10079936498E+04  0.00000000000E+00 0. -1.
         23    2    1    2    0    0  0.21105375788E+03 -0.12903549684E+03  0.29320934573E+03  0.39528186167E+03  0.95300480468E+02 0.  0.
        254    2    1    2    0    0 -0.21105375788E+03  0.12903549684E+03 -0.73530895129E+03  0.11786058323E+04  0.88726467637E+03 0.  0.
        -24    2    4    4    0    0  0.76737863498E+02 -0.50327944247E+02 -0.81283175553E+03  0.82189768024E+03  0.79992076666E+02 0.  0.
         24    2    4    4    0    0 -0.28779162138E+03  0.17936344109E+03  0.77522804236E+02  0.35670815206E+03  0.78966190434E+02 0.  0.
         11    1    3    3    0    0  0.42585472465E+02 -0.10072747680E+02  0.11382109811E+03  0.12194353237E+03  0.00000000000E+00 0. -1.
        -11    1    3    3    0    0  0.16846828542E+03 -0.11896274916E+03  0.17938824762E+03  0.27333832930E+03  0.00000000000E+00 0.  1.
          4    1    6    6  502    0 -0.48515474056E+02  0.49862065267E+02  0.44628391445E+02  0.82653917624E+02  0.00000000000E+00 0. -1.
          1    1    5    5  503    0  0.95087317599E+01 -0.15692102596E+02 -0.48932241068E+03  0.48966629418E+03  0.00000000000E+00 0. -1.
         -2    1    5    5    0  503  0.67229131738E+02 -0.34635841651E+02 -0.32350934485E+03  0.33223138606E+03  0.00000000000E+00 0.  1.
         -1    1    6    6    0  502 -0.23927614733E+03  0.12950137582E+03  0.32894412791E+02  0.27405423444E+03  0.00000000000E+00 0.  1.
<mgrwt>
<rscale>  0 0.15105199E+04</rscale>
<asrwt>0</asrwt>
<pdfrwt beam="1">  1        2 0.15507595E+00 0.15105199E+04</pdfrwt>
<pdfrwt beam="2">  1       -2 0.87060623E-01 0.15105199E+04</pdfrwt>
<totfact> 0.27420052E+01</totfact>
</mgrwt>
</event>
<event>
12    1  0.1599266E-007  0.1239121E+04  0.7818608E-02  0.9079287E-01
         -2   -1    0    0    0  501 -0.00000000000E+00  0.00000000000E+00  0.13713046645E+03  0.13713046645E+03  0.00000000000E+00 0.  1.
          2   -1    0    0  501    0  0.00000000000E+00 -0.00000000000E+00 -0.27991964471E+04  0.27991964471E+04  0.00000000000E+00 0. -1.
         23    2    1    2    0    0 -0.13671355391E+03 -0.10719030427E+03 -0.11081628512E+03  0.22474963163E+03  0.89731770966E+02 0.  0.
        254    2    1    2    0    0  0.13671355391E+03  0.10719030427E+03 -0.25512496955E+04  0.27115772819E+04  0.90199555968E+03 0.  0.
        -24    2    4    4    0    0  0.26301825664E+03 -0.31410765514E+02 -0.24796568749E+04  0.24950232253E+04  0.79230284332E+02 0.  0.
         24    2    4    4    0    0 -0.12630470274E+03  0.13860106978E+03 -0.71592820645E+02  0.21655405664E+03  0.81283411602E+02 0.  0.
         11    1    3    3    0    0 -0.24626088653E+02 -0.50786771692E+02 -0.75744615723E+02  0.94461564841E+02  0.00000000000E+00 0.  1.
        -11    1    3    3    0    0 -0.11208746525E+03 -0.56403532576E+02 -0.35071669395E+02  0.13028806679E+03  0.00000000000E+00 0. -1.
          2    1    6    6  502    0 -0.13857581887E+02  0.53368008986E+02  0.61079433802E+01  0.55475074865E+02  0.00000000000E+00 0. -1.
          3    1    5    5  503    0  0.63319080352E+02  0.11127137252E+02 -0.37350691064E+03  0.37899938181E+03  0.00000000000E+00 0. -1.
         -4    1    5    5    0  503  0.19969917629E+03 -0.42537902766E+02 -0.21061499642E+04  0.21160238434E+04  0.00000000000E+00 0.  1.
         -1    1    6    6    0  502 -0.11244712085E+03  0.85233060795E+02 -0.77700764026E+02  0.16107898178E+03  0.00000000000E+00 0.  1.
<mgrwt>
<rscale>  0 0.12391208E+04</rscale>
<asrwt>0</asrwt>
<pdfrwt beam="1">  1        2 0.43064560E+00 0.12391208E+04</pdfrwt>
<pdfrwt beam="2">  1       -2 0.21096995E-01 0.12391208E+04</pdfrwt>
<totfact> 0.44757775E+01</totfact>
</mgrwt>
</event>
<event>
12    1  0.1599266E-007  0.1609871E+04  0.7818608E-02  0.8814507E-01
         -1   -1    0    0    0  501 -0.00000000000E+00  0.00000000000E+00  0.60156420893E+03  0.60156420893E+03  0.00000000000E+00 0.  1.
          1   -1    0    0  501    0  0.00000000000E+00 -0.00000000000E+00 -0.10770609045E+04  0.10770609045E+04  0.00000000000E+00 0. -1.
         23    2    1    2    0    0 -0.40355730001E+03 -0.14692696416E+03 -0.51073860126E+03  0.67334950733E+03  0.89997850029E+02 0.  0.
        254    2    1    2    0    0  0.40355730001E+03  0.14692696416E+03  0.35241905685E+02  0.10052756061E+04  0.90823511555E+03 0.  0.
        -24    2    4    4    0    0  0.36759734803E+03 -0.33394789683E+03  0.10032193631E+03  0.51327383445E+03  0.82076367782E+02 0.  0.
         24    2    4    4    0    0  0.35959951980E+02  0.48087486099E+03 -0.65080030623E+02  0.49200177165E+03  0.72777626017E+02 0.  0.
         13    1    3    3    0    0 -0.40590194890E+03 -0.15118203325E+03 -0.49974380649E+03  0.66132917025E+03  0.00000000000E+00 0. -1.
        -13    1    3    3    0    0  0.23446488862E+01  0.42550690941E+01 -0.10994794774E+02  0.12020337080E+02  0.00000000000E+00 0.  1.
          2    1    6    6  502    0  0.30673910125E+02  0.44958159242E+03 -0.78732820188E+02  0.45745311670E+03  0.00000000000E+00 0. -1.
          3    1    5    5  503    0  0.32421108561E+03 -0.25267341522E+03  0.76318607108E+02  0.41806843050E+03  0.00000000000E+00 0. -1.
         -4    1    5    5    0  503  0.43386262419E+02 -0.81274481610E+02  0.24003329200E+02  0.95205403945E+02  0.00000000000E+00 0.  1.
         -1    1    6    6    0  502  0.52860418546E+01  0.31293268568E+02  0.13652789565E+02  0.34548654953E+02  0.00000000000E+00 0.  1.
<mgrwt>
<rscale>  0 0.16098712E+04</rscale>
<asrwt>0</asrwt>
<pdfrwt beam="1">  1        1 0.16570168E+00 0.16098712E+04</pdfrwt>
<pdfrwt beam="2">  1       -1 0.92548340E-01 0.16098712E+04</pdfrwt>
<totfact> 0.14366623E+01</totfact>
</mgrwt>
</event>
<event>
12    1  0.1599266E-007  0.2994656E+04  0.7818608E-02  0.8245259E-01
         -2   -1    0    0    0  501 -0.00000000000E+00  0.00000000000E+00  0.11835122753E+04  0.11835122753E+04  0.00000000000E+00 0.  1.
          2   -1    0    0  501    0  0.00000000000E+00 -0.00000000000E+00 -0.18943536199E+04  0.18943536199E+04  0.00000000000E+00 0. -1.
         23    2    1    2    0    0  0.12783814270E+04  0.46432789327E+03 -0.20666258096E+03  0.13786500650E+04  0.90039512643E+02 0.  0.
        254    2    1    2    0    0 -0.12783814270E+04 -0.46432789327E+03 -0.50417876365E+03  0.16992158302E+04  0.88503036468E+03 0.  0.
        -24    2    4    4    0    0 -0.56705679515E+03 -0.60997126090E+03 -0.48023222283E+02  0.83822273957E+03  0.81809432285E+02 0.  0.
         24    2    4    4    0    0 -0.71132463188E+03  0.14564336763E+03 -0.45615554137E+03  0.86099309061E+03  0.77694927231E+02 0.  0.
         13    1    3    3    0    0  0.94220107993E+03  0.31647295692E+03 -0.11859749217E+03  0.10009812049E+04  0.00000000000E+00 0.  1.
        -13    1    3    3    0    0  0.33618034710E+03  0.14785493635E+03 -0.88065088789E+02  0.37766886004E+03  0.00000000000E+00 0. -1.
          4    1    6    6  502    0 -0.39017655045E+03  0.10792012029E+03 -0.28544200447E+03  0.49533991440E+03  0.00000000000E+00 0. -1.
          1    1    5    5  503    0 -0.12773205084E+03 -0.10890374902E+03  0.16767630939E+02  0.16869100987E+03  0.00000000000E+00 0. -1.
         -2    1    5    5    0  503 -0.43932474431E+03 -0.50106751187E+03 -0.64790853222E+02  0.66953172971E+03  0.00000000000E+00 0.  1.
         -3    1    6    6    0  502 -0.32114808143E+03  0.37723247344E+02 -0.17071353689E+03  0.36565317621E+03  0.00000000000E+00 0.  1.
<mgrwt>
<rscale>  0 0.29946557E+04</rscale>
<asrwt>0</asrwt>
<pdfrwt beam="1">  1        2 0.29143902E+00 0.29946557E+04</pdfrwt>
<pdfrwt beam="2">  1       -2 0.18207881E+00 0.29946557E+04</pdfrwt>
<totfact> 0.11492899E+00</totfact>
</mgrwt>
</event>
<event>
12    1  0.1599266E-007  0.1416704E+04  0.7818608E-02  0.8941815E-01
         -2   -1    0    0    0  501 -0.00000000000E+00  0.00000000000E+00  0.49532344079E+03  0.49532344079E+03  0.00000000000E+00 0.  1.
          2   -1    0    0  501    0  0.00000000000E+00 -0.00000000000E+00 -0.10129996661E+04  0.10129996661E+04  0.00000000000E+00 0. -1.
         23    2    1    2    0    0 -0.17189946779E+01 -0.41592956223E+03 -0.10640982911E+03  0.43896590113E+03  0.91474886936E+02 0.  0.
        254    2    1    2    0    0  0.17189946779E+01  0.41592956223E+03 -0.41126639616E+03  0.10693572057E+04  0.89520077589E+03 0.  0.
        -24    2    4    4    0    0  0.16137320060E+02 -0.14913179792E+03 -0.46563194862E+03  0.49589758451E+03  0.81244055148E+02 0.  0.
         24    2    4    4    0    0 -0.14418325382E+02  0.56506136015E+03  0.54365552466E+02  0.57345962122E+03  0.79988093030E+02 0.  0.
         13    1    3    3    0    0  0.52522910851E+01 -0.19334245869E+03 -0.30140293129E+01  0.19343726959E+03  0.00000000000E+00 0. -1.
        -13    1    3    3    0    0 -0.69712857630E+01 -0.22258710354E+03 -0.10339579980E+03  0.24552863154E+03  0.00000000000E+00 0.  1.
          4    1    6    6  502    0  0.23452002930E+02  0.40455927795E+03  0.25471696976E+02  0.40603819175E+03  0.00000000000E+00 0. -1.
          1    1    5    5  503    0  0.28392854458E+01 -0.15231352103E+03 -0.38375261164E+03  0.41288441139E+03  0.00000000000E+00 0. -1.
         -4    1    5    5    0  503  0.13298034614E+02  0.31817231103E+01 -0.81879336983E+02  0.83013173119E+02  0.00000000000E+00 0.  1.
         -3    1    6    6    0  502 -0.37870328312E+02  0.16050208220E+03  0.28893855490E+02  0.16742142946E+03  0.00000000000E+00 0.  1.
<mgrwt>
<rscale>  0 0.14167039E+04</rscale>
<asrwt>0</asrwt>
<pdfrwt beam="1">  1        2 0.15584610E+00 0.14167039E+04</pdfrwt>
<pdfrwt beam="2">  1       -2 0.76203607E-01 0.14167039E+04</pdfrwt>
<totfact> 0.37031570E+01</totfact>
</mgrwt>
</event>
<event>
12    1  0.1599266E-007  0.1325629E+04  0.7818608E-02  0.9009484E-01
         -2   -1    0    0    0  501 -0.00000000000E+00  0.00000000000E+00  0.47518570511E+03  0.47518570511E+03  0.00000000000E+00 0.  1.
          2   -1    0    0  501    0  0.00000000000E+00 -0.00000000000E+00 -0.92452943112E+03  0.92452943112E+03  0.00000000000E+00 0. -1.
         23    2    1    2    0    0  0.15850726179E+03 -0.72096853046E+02 -0.43277085817E+03  0.47534129215E+03  0.91302902924E+02 0.  0.
        254    2    1    2    0    0 -0.15850726179E+03  0.72096853046E+02 -0.16572867842E+02  0.92437384409E+03  0.90767275789E+03 0.  0.
        -24    2    4    4    0    0 -0.48226628890E+03 -0.14242607491E+03 -0.97178425922E+02  0.51966872535E+03  0.88011234629E+02 0.  0.
         24    2    4    4    0    0  0.32375902711E+03  0.21452292795E+03  0.80605558079E+02  0.40470511874E+03  0.80305559507E+02 0.  0.
         13    1    3    3    0    0  0.42298672643E+01 -0.13229833635E+02 -0.12765372570E+03  0.12840714139E+03  0.00000000000E+00 0.  1.
        -13    1    3    3    0    0  0.15427739453E+03 -0.58867019410E+02 -0.30511713246E+03  0.34693415075E+03  0.00000000000E+00 0. -1.
          2    1    6    6  502    0  0.27626748969E+03  0.18503870184E+03  0.38519995201E+02  0.33473397955E+03  0.00000000000E+00 0. -1.
          3    1    5    5  503    0 -0.39775968249E+03 -0.14694214940E+03 -0.64310717305E+02  0.42888300112E+03  0.00000000000E+00 0. -1.
         -4    1    5    5    0  503 -0.84506606405E+02  0.45160744884E+01 -0.32867708617E+02  0.90785724234E+02  0.00000000000E+00 0.  1.
         -1    1    6    6    0  502  0.47491537416E+02  0.29484226117E+02  0.42085562878E+02  0.69971139183E+02  0.00000000000E+00 0.  1.
<mgrwt>
<rscale>  0 0.13256292E+04</rscale>
<asrwt>0</asrwt>
<pdfrwt beam="1">  1        2 0.14223530E+00 0.13256292E+04</pdfrwt>
<pdfrwt beam="2">  1       -2 0.73105493E-01 0.13256292E+04</pdfrwt>
<totfact> 0.46687114E+01</totfact>
</mgrwt>
</event>
<event>
12    1  0.1599266E-007  0.1641053E+04  0.7818608E-02  0.8795717E-01
          2   -1    0    0  501    0  0.00000000000E+00  0.00000000000E+00  0.30229297201E+04  0.30229297201E+04  0.00000000000E+00 0.  1.
         -2   -1    0    0    0  501 -0.00000000000E+00 -0.00000000000E+00 -0.22271895220E+03  0.22271895220E+03  0.00000000000E+00 0. -1.
         23    2    1    2    0    0 -0.52220213104E+03 -0.21914937304E+03  0.96246794090E+03  0.11204295358E+04  0.91083994306E+02 0.  0.
        254    2    1    2    0    0  0.52220213104E+03  0.21914937304E+03  0.18377428270E+04  0.21252191365E+04  0.90472988603E+03 0.  0.
        -24    2    4    4    0    0  0.56646153580E+03  0.10201471907E+03  0.46424823340E+03  0.74371529679E+03  0.79374718924E+02 0.  0.
         24    2    4    4    0    0 -0.44259404769E+02  0.11713465397E+03  0.13734945936E+04  0.13815038397E+04  0.79912692882E+02 0.  0.
         11    1    3    3    0    0 -0.47089262075E+03 -0.20699043111E+03  0.91404227331E+03  0.10488365822E+04  0.00000000000E+00 0.  1.
        -11    1    3    3    0    0 -0.51309510286E+02 -0.12158941932E+02  0.48425667593E+02  0.71592953540E+02  0.00000000000E+00 0. -1.
          4    1    6    6  502    0 -0.67803310639E+02  0.87493983127E+02  0.10240257284E+04  0.10299908633E+04  0.00000000000E+00 0. -1.
          1    1    5    5  503    0  0.48151917558E+03  0.61610660251E+02  0.40790958498E+03  0.63407162011E+03  0.00000000000E+00 0. -1.
         -2    1    5    5    0  503  0.84942360219E+02  0.40404058820E+02  0.56338648423E+02  0.10964367668E+03  0.00000000000E+00 0.  1.
         -3    1    6    6    0  502  0.23543905870E+02  0.29640670840E+02  0.34946886521E+03  0.35151297646E+03  0.00000000000E+00 0.  1.
<mgrwt>
<rscale>  0 0.16410530E+04</rscale>
<asrwt>0</asrwt>
<pdfrwt beam="1">  1        2 0.46506608E+00 0.16410530E+04</pdfrwt>
<pdfrwt beam="2">  1       -2 0.34264456E-01 0.16410530E+04</pdfrwt>
<totfact> 0.12919047E+01</totfact>
</mgrwt>
</event>
<event>
12    1  0.1599266E-007  0.1293114E+04  0.7818608E-02  0.9035043E-01
         -1   -1    0    0    0  501 -0.00000000000E+00  0.00000000000E+00  0.20241506901E+04  0.20241506901E+04  0.00000000000E+00 0.  1.
          1   -1    0    0  501    0  0.00000000000E+00 -0.00000000000E+00 -0.20652424301E+03  0.20652424301E+03  0.00000000000E+00 0. -1.
         23    2    1    2    0    0  0.31886619838E+03  0.64182536033E+02  0.50223706567E+03  0.60541090231E+03  0.92115362991E+02 0.  0.
        254    2    1    2    0    0 -0.31886619838E+03 -0.64182536033E+02  0.13153893814E+04  0.16252640308E+04  0.89746247536E+03 0.  0.
        -24    2    4    4    0    0  0.16277899781E+03 -0.34487100751E+03  0.59006589524E+03  0.70724951704E+03  0.81185618678E+02 0.  0.
         24    2    4    4    0    0 -0.48164519619E+03  0.28068847147E+03  0.72532348621E+03  0.91801451379E+03  0.76735746912E+02 0.  0.
         13    1    3    3    0    0  0.31651932172E+03  0.48639381513E+02  0.46129069693E+03  0.56155086816E+03  0.00000000000E+00 0. -1.
        -13    1    3    3    0    0  0.23468766605E+01  0.15543154519E+02  0.40946368745E+02  0.43860034152E+02  0.00000000000E+00 0.  1.
          2    1    6    6  502    0 -0.33226587865E+03  0.22139177252E+03  0.47470629201E+03  0.62029105646E+03  0.00000000000E+00 0. -1.
          1    1    5    5  503    0  0.12196286720E+03 -0.23085974564E+03  0.46418048353E+03  0.53257364225E+03  0.00000000000E+00 0. -1.
         -2    1    5    5    0  503  0.40816130613E+02 -0.11401126187E+03  0.12588541171E+03  0.17467587479E+03  0.00000000000E+00 0.  1.
         -1    1    6    6    0  502 -0.14937931754E+03  0.59296698958E+02  0.25061719420E+03  0.29772345733E+03  0.00000000000E+00 0.  1.
<mgrwt>
<rscale>  0 0.12931144E+04</rscale>
<asrwt>0</asrwt>
<pdfrwt beam="1">  1        1 0.31772962E-01 0.12931144E+04</pdfrwt>
<pdfrwt beam="2">  1       -1 0.31140778E+00 0.12931144E+04</pdfrwt>
<totfact> 0.39273460E+00</totfact>
</mgrwt>
</event>
<event>
12    1  0.1599266E-007  0.1657677E+04  0.7818608E-02  0.8785878E-01
         -2   -1    0    0    0  501 -0.00000000000E+00  0.00000000000E+00  0.38178261160E+03  0.38178261160E+03  0.00000000000E+00 0.  1.
          2   -1    0    0  501    0  0.00000000000E+00 -0.00000000000E+00 -0.17993834022E+04  0.17993834022E+04  0.00000000000E+00 0. -1.
         23    2    1    2    0    0 -0.13450166731E+03 -0.67093901137E+02 -0.12565034593E+04  0.12686718234E+04  0.90194024724E+02 0.  0.
        254    2    1    2    0    0  0.13450166731E+03  0.67093901137E+02 -0.16109733122E+03  0.91249419034E+03  0.88549478102E+03 0.  0.
        -24    2    4    4    0    0  0.26438542680E+03  0.38093373716E+03 -0.27542327856E+03  0.54510180596E+03  0.79169631037E+02 0.  0.
         24    2    4    4    0    0 -0.12988375949E+03 -0.31383983602E+03  0.11432594734E+03  0.36739238438E+03  0.80879590800E+02 0.  0.
         13    1    3    3    0    0 -0.14375877345E+03 -0.45823630683E+02 -0.11336908028E+04  0.11436875563E+04  0.00000000000E+00 0. -1.
        -13    1    3    3    0    0  0.92571061345E+01 -0.21270270454E+02 -0.12281265653E+03  0.12498426710E+03  0.00000000000E+00 0.  1.
          2    1    6    6  502    0 -0.65161438360E+02 -0.76574077818E+02  0.12927311385E+02  0.10137414770E+03  0.00000000000E+00 0. -1.
          3    1    5    5  503    0  0.25431846356E+02  0.38683970029E+02 -0.58764170441E+02  0.74809465136E+02  0.00000000000E+00 0. -1.
         -4    1    5    5    0  503  0.23895358045E+03  0.34224976713E+03 -0.21665910812E+03  0.47029234083E+03  0.00000000000E+00 0.  1.
         -1    1    6    6    0  502 -0.64722321132E+02 -0.23726575821E+03  0.10139863596E+03  0.26601823668E+03  0.00000000000E+00 0.  1.
<mgrwt>
<rscale>  0 0.16576770E+04</rscale>
<asrwt>0</asrwt>
<pdfrwt beam="1">  1        2 0.27682821E+00 0.16576770E+04</pdfrwt>
<pdfrwt beam="2">  1       -2 0.58735787E-01 0.16576770E+04</pdfrwt>
<totfact> 0.22333139E+01</totfact>
</mgrwt>
</event>
<event>
12    1  0.1599266E-007  0.1141561E+04  0.7818608E-02  0.9165604E-01
          2   -1    0    0  501    0  0.00000000000E+00  0.00000000000E+00  0.78232457354E+03  0.78232457354E+03  0.00000000000E+00 0. -1.
         -2   -1    0    0    0  501 -0.00000000000E+00 -0.00000000000E+00 -0.41643921178E+03  0.41643921178E+03  0.00000000000E+00 0.  1.
         23    2    1    2    0    0  0.10856316399E+03  0.16493242611E+03  0.10608860305E+03  0.24192073777E+03  0.91006515736E+02 0.  0.
        254    2    1    2    0    0 -0.10856316399E+03 -0.16493242611E+03  0.25979675872E+03  0.95684304756E+03  0.89948073690E+03 0.  0.
        -24    2    4    4    0    0 -0.22766426604E+03 -0.34329183522E+03 -0.18362161160E+03  0.45834105496E+03  0.81727132906E+02 0.  0.
         24    2    4    4    0    0  0.11910110205E+03  0.17835940911E+03  0.44341837032E+03  0.49850199260E+03  0.76728313915E+02 0.  0.
         13    1    3    3    0    0  0.63149825494E+02  0.87129726986E+02  0.67536121470E+01  0.10781976192E+03  0.00000000000E+00 0. -1.
        -13    1    3    3    0    0  0.45413338499E+02  0.77802699125E+02  0.99334990899E+02  0.13410097584E+03  0.00000000000E+00 0.  1.
          2    1    6    6  502    0  0.75821627400E+02  0.77322871100E+02  0.14870730721E+03  0.18396088931E+03  0.00000000000E+00 0. -1.
          1    1    5    5  503    0 -0.16045667864E+03 -0.22785698610E+03 -0.81979375948E+02  0.29049228891E+03  0.00000000000E+00 0. -1.
         -2    1    5    5    0  503 -0.67207587400E+02 -0.11543484912E+03 -0.10164223565E+03  0.16784876605E+03  0.00000000000E+00 0.  1.
         -1    1    6    6    0  502  0.43279474652E+02  0.10103653801E+03  0.29471106311E+03  0.31454110329E+03  0.00000000000E+00 0.  1.
<mgrwt>
<rscale>  0 0.11415614E+04</rscale>
<asrwt>0</asrwt>
<pdfrwt beam="1">  1        2 0.12035763E+00 0.11415614E+04</pdfrwt>
<pdfrwt beam="2">  1       -2 0.64067571E-01 0.11415614E+04</pdfrwt>
<totfact> 0.79172969E+01</totfact>
</mgrwt>
</event>
<event>
12    1  0.1599266E-007  0.1302396E+04  0.7818608E-02  0.9027667E-01
         -2   -1    0    0    0  501 -0.00000000000E+00  0.00000000000E+00  0.37873727136E+03  0.37873727136E+03  0.00000000000E+00 0.  1.
          2   -1    0    0  501    0  0.00000000000E+00 -0.00000000000E+00 -0.11196650031E+04  0.11196650031E+04  0.00000000000E+00 0. -1.
         23    2    1    2    0    0  0.49252922167E+02 -0.29112896150E+03 -0.14698377277E+02  0.30949751647E+03  0.91601025333E+02 0.  0.
        254    2    1    2    0    0 -0.49252922167E+02  0.29112896150E+03 -0.72622935451E+03  0.11889047580E+04  0.89381403309E+03 0.  0.
        -24    2    4    4    0    0  0.16362455982E+03  0.69806659238E+02 -0.83254208334E+03  0.85522488753E+03  0.81469757950E+02 0.  0.
         24    2    4    4    0    0 -0.21287748199E+03  0.22132230226E+03  0.10631272883E+03  0.33367987050E+03  0.75759328472E+02 0.  0.
         13    1    3    3    0    0  0.25839148662E+02 -0.11530512262E+02  0.24219601340E+01  0.28398595167E+02  0.00000000000E+00 0. -1.
        -13    1    3    3    0    0  0.23413773506E+02 -0.27959844924E+03 -0.17120337411E+02  0.28109892130E+03  0.00000000000E+00 0.  1.
          4    1    6    6  502    0 -0.16449144734E+03  0.19567031203E+03  0.11106078836E+03  0.27870917812E+03  0.00000000000E+00 0. -1.
          1    1    5    5  503    0  0.14988777698E+03  0.36657563063E+02 -0.74111762002E+03  0.75701086473E+03  0.00000000000E+00 0. -1.
         -2    1    5    5    0  503  0.13736782840E+02  0.33149096174E+02 -0.91424463322E+02  0.98214022795E+02  0.00000000000E+00 0.  1.
         -3    1    6    6    0  502 -0.48386034651E+02  0.25651990235E+02 -0.47480595221E+01  0.54970692387E+02  0.00000000000E+00 0.  1.
<mgrwt>
<rscale>  0 0.13023961E+04</rscale>
<asrwt>0</asrwt>
<pdfrwt beam="1">  1        2 0.17225615E+00 0.13023961E+04</pdfrwt>
<pdfrwt beam="2">  1       -2 0.58267273E-01 0.13023961E+04</pdfrwt>
<totfact> 0.57208039E+01</totfact>
</mgrwt>
</event>
<event>
12    1  0.1599266E-007  0.2617455E+04  0.7818608E-02  0.8362296E-01
          2   -1    0    0  501    0  0.00000000000E+00  0.00000000000E+00  0.10574527938E+04  0.10574527938E+04  0.00000000000E+00 0. -1.
         -2   -1    0    0    0  501 -0.00000000000E+00 -0.00000000000E+00 -0.16197104059E+04  0.16197104059E+04  0.00000000000E+00 0.  1.
         23    2    1    2    0    0  0.11261079043E+04 -0.16698889840E+03 -0.43392996173E+03  0.12217235108E+04  0.91152734348E+02 0.  0.
        254    2    1    2    0    0 -0.11261079043E+04  0.16698889840E+03 -0.12832765043E+03  0.14554396888E+04  0.89768167951E+03 0.  0.
        -24    2    4    4    0    0 -0.72244945085E+03  0.51543365127E+03  0.36553762942E+02  0.89178609889E+03  0.79631719056E+02 0.  0.
         24    2    4    4    0    0 -0.40365845342E+03 -0.34844475287E+03 -0.16488141337E+03  0.56365358995E+03  0.78521310284E+02 0.  0.
         13    1    3    3    0    0  0.86755084745E+03 -0.13123591842E+03 -0.37464738563E+03  0.95405869985E+03  0.00000000000E+00 0.  1.
        -13    1    3    3    0    0  0.25855705682E+03 -0.35752979973E+02 -0.59282576096E+02  0.26766481098E+03  0.00000000000E+00 0. -1.
          4    1    6    6  502    0 -0.32768575960E+03 -0.26765928916E+03 -0.98548582371E+02  0.43443212957E+03  0.00000000000E+00 0. -1.
          1    1    5    5  503    0 -0.32960578806E+03  0.25039704570E+03 -0.20719232289E+02  0.41444896261E+03  0.00000000000E+00 0. -1.
         -2    1    5    5    0  503 -0.39284366280E+03  0.26503660557E+03  0.57272995231E+02  0.47733713628E+03  0.00000000000E+00 0.  1.
         -3    1    6    6    0  502 -0.75972693814E+02 -0.80785463718E+02 -0.66332831003E+02  0.12922146038E+03  0.00000000000E+00 0.  1.
<mgrwt>
<rscale>  0 0.26174547E+04</rscale>
<asrwt>0</asrwt>
<pdfrwt beam="1">  1        2 0.16268505E+00 0.26174547E+04</pdfrwt>
<pdfrwt beam="2">  1       -2 0.24918622E+00 0.26174547E+04</pdfrwt>
<totfact> 0.13295801E+00</totfact>
</mgrwt>
</event>
<event>
12    1  0.1599266E-007  0.1056928E+04  0.7818608E-02  0.9248220E-01
          1   -1    0    0  501    0  0.00000000000E+00  0.00000000000E+00  0.49084722060E+03  0.49084722060E+03  0.00000000000E+00 0. -1.
         -1   -1    0    0    0  501 -0.00000000000E+00 -0.00000000000E+00 -0.56896358820E+03  0.56896358820E+03  0.00000000000E+00 0.  1.
         23    2    1    2    0    0  0.48503273002E+02  0.48886978644E+02  0.85599314083E+02  0.14308659997E+03  0.91673487702E+02 0.  0.
        254    2    1    2    0    0 -0.48503273002E+02 -0.48886978644E+02 -0.16371568168E+03  0.91672420883E+03  0.89935418298E+03 0.  0.
        -24    2    4    4    0    0 -0.39951840291E+03  0.29778999193E+02 -0.31782864466E+03  0.51742224282E+03  0.78797125215E+02 0.  0.
         24    2    4    4    0    0  0.35101512991E+03 -0.78665977836E+02  0.15411296298E+03  0.39930196600E+03  0.79317697912E+02 0.  0.
         13    1    3    3    0    0 -0.24190274207E+02  0.85363179338E+00  0.56969475616E+01  0.24866709975E+02  0.00000000000E+00 0.  1.
        -13    1    3    3    0    0  0.72693547209E+02  0.48033346851E+02  0.79902366521E+02  0.11821989000E+03  0.00000000000E+00 0. -1.
          4    1    6    6  502    0  0.10379896695E+03 -0.93842356172E+01  0.95488249744E+01  0.10465882417E+03  0.00000000000E+00 0. -1.
          1    1    5    5  503    0 -0.56673496877E+02 -0.39687115979E-01 -0.14054761087E+02  0.58390265735E+02  0.00000000000E+00 0. -1.
         -2    1    5    5    0  503 -0.34284490603E+03  0.29818686308E+02 -0.30377388358E+03  0.45903197709E+03  0.00000000000E+00 0.  1.
         -3    1    6    6    0  502  0.24721616296E+03 -0.69281742219E+02  0.14456413801E+03  0.29464314183E+03  0.00000000000E+00 0.  1.
<mgrwt>
<rscale>  0 0.10569280E+04</rscale>
<asrwt>0</asrwt>
<pdfrwt beam="1">  1        1 0.75514957E-01 0.10569280E+04</pdfrwt>
<pdfrwt beam="2">  1       -1 0.87532860E-01 0.10569280E+04</pdfrwt>
<totfact> 0.58376943E+01</totfact>
</mgrwt>
</event>
<event>
12    1  0.1599266E-007  0.1743667E+04  0.7818608E-02  0.8736844E-01
          1   -1    0    0  501    0  0.00000000000E+00  0.00000000000E+00  0.23953709778E+04  0.23953709778E+04  0.00000000000E+00 0. -1.
         -1   -1    0    0    0  501 -0.00000000000E+00 -0.00000000000E+00 -0.31731789304E+03  0.31731789304E+03  0.00000000000E+00 0.  1.
         23    2    1    2    0    0  0.23340112433E+03 -0.17644772054E+03  0.16994311142E+04  0.17266221817E+04  0.86880168754E+02 0.  0.
        254    2    1    2    0    0 -0.23340112433E+03  0.17644772054E+03  0.37862197056E+03  0.98606668908E+03  0.86218503571E+03 0.  0.
        -24    2    4    4    0    0  0.30282694049E+02 -0.18887669731E+03  0.47351024700E+03  0.51855574859E+03  0.89981453870E+02 0.  0.
         24    2    4    4    0    0 -0.26368381838E+03  0.36532441785E+03 -0.94888276436E+02  0.46751094049E+03  0.81065455794E+02 0.  0.
         13    1    3    3    0    0 -0.58123165726E+00  0.16982128323E+01  0.12195070245E+03  0.12196391099E+03  0.00000000000E+00 0.  1.
        -13    1    3    3    0    0  0.23398235599E+03 -0.17814593337E+03  0.15774804117E+04  0.16046582708E+04  0.00000000000E+00 0. -1.
          4    1    6    6  502    0 -0.97608042335E+02  0.10644485329E+03 -0.65367140429E+02  0.15852665318E+03  0.00000000000E+00 0. -1.
          3    1    5    5  503    0  0.40348329735E+00 -0.11167212120E+03  0.16577869620E+03  0.19988346997E+03  0.00000000000E+00 0. -1.
         -4    1    5    5    0  503  0.29879210752E+02 -0.77204576107E+02  0.30773155080E+03  0.31867227862E+03  0.00000000000E+00 0.  1.
         -3    1    6    6    0  502 -0.16607577604E+03  0.25887956456E+03 -0.29521136007E+02  0.30898428731E+03  0.00000000000E+00 0.  1.
<mgrwt>
<rscale>  0 0.17436675E+04</rscale>
<asrwt>0</asrwt>
<pdfrwt beam="1">  1        1 0.36851860E+00 0.17436675E+04</pdfrwt>
<pdfrwt beam="2">  1       -1 0.48818139E-01 0.17436675E+04</pdfrwt>
<totfact> 0.63806976E+00</totfact>
</mgrwt>
</event>
<event>
12    1  0.1599266E-007  0.1441923E+04  0.7818608E-02  0.8924019E-01
         -1   -1    0    0    0  501 -0.00000000000E+00  0.00000000000E+00  0.43972643253E+03  0.43972643253E+03  0.00000000000E+00 0.  1.
          1   -1    0    0  501    0  0.00000000000E+00 -0.00000000000E+00 -0.11820651929E+04  0.11820651929E+04  0.00000000000E+00 0. -1.
         23    2    1    2    0    0 -0.27313787270E+03  0.31120679718E+03 -0.32414319352E+03  0.53425474278E+03  0.94368173449E+02 0.  0.
        254    2    1    2    0    0  0.27313787270E+03 -0.31120679718E+03 -0.41819556688E+03  0.10875368827E+04  0.91454631973E+03 0.  0.
        -24    2    4    4    0    0  0.20449847254E+03 -0.20833379047E+02 -0.65949771237E+03  0.69541139373E+03  0.80038234334E+02 0.  0.
         24    2    4    4    0    0  0.68639400163E+02 -0.29037341814E+03  0.24130214549E+03  0.39212548896E+03  0.80669600579E+02 0.  0.
         13    1    3    3    0    0 -0.10596191265E+03  0.58081794574E+02 -0.80768423310E+02  0.14534428093E+03  0.00000000000E+00 0.  1.
        -13    1    3    3    0    0 -0.16717596005E+03  0.25312500261E+03 -0.24337477021E+03  0.38891046185E+03  0.00000000000E+00 0. -1.
          4    1    6    6  502    0  0.41917824780E+02 -0.21619004274E+03  0.21808393267E+03  0.30992876650E+03  0.00000000000E+00 0. -1.
          3    1    5    5  503    0  0.18315374969E+03 -0.24235684852E+02 -0.47520163091E+03  0.50985218884E+03  0.00000000000E+00 0. -1.
         -4    1    5    5    0  503  0.21344722854E+02  0.34023058044E+01 -0.18429608146E+03  0.18555920489E+03  0.00000000000E+00 0.  1.
         -3    1    6    6    0  502  0.26721575384E+02 -0.74183375399E+02  0.23218212815E+02  0.82196722458E+02  0.00000000000E+00 0.  1.
<mgrwt>
<rscale>  0 0.14419228E+04</rscale>
<asrwt>0</asrwt>
<pdfrwt beam="1">  1        1 0.18185618E+00 0.14419228E+04</pdfrwt>
<pdfrwt beam="2">  1       -1 0.67650220E-01 0.14419228E+04</pdfrwt>
<totfact> 0.23687132E+01</totfact>
</mgrwt>
</event>
<event>
12    1  0.1599266E-007  0.2050048E+04  0.7818608E-02  0.8583573E-01
         -2   -1    0    0    0  501 -0.00000000000E+00  0.00000000000E+00  0.76292602335E+03  0.76292602335E+03  0.00000000000E+00 0.  1.
          2   -1    0    0  501    0  0.00000000000E+00 -0.00000000000E+00 -0.13771633097E+04  0.13771633097E+04  0.00000000000E+00 0. -1.
         23    2    1    2    0    0  0.83736941614E+03 -0.35996042484E+02 -0.18984992513E+03  0.86397693761E+03  0.89049988704E+02 0.  0.
        254    2    1    2    0    0 -0.83736941614E+03  0.35996042484E+02 -0.42438736123E+03  0.12761123954E+04  0.86364052666E+03 0.  0.
        -24    2    4    4    0    0 -0.60032100854E+03 -0.28745453571E+01  0.17093289997E+03  0.62925433728E+03  0.79683049561E+02 0.  0.
         24    2    4    4    0    0 -0.23704840760E+03  0.38870587841E+02 -0.59532026120E+03  0.64685805817E+03  0.79474926162E+02 0.  0.
         11    1    3    3    0    0  0.19049134135E+03  0.24344228221E+02 -0.62258526486E+02  0.20188045150E+03  0.00000000000E+00 0.  1.
        -11    1    3    3    0    0  0.64687807479E+03 -0.60340270705E+02 -0.12759139865E+03  0.66209648611E+03  0.00000000000E+00 0. -1.
          4    1    6    6  502    0 -0.20847863875E+03  0.60779127832E+01 -0.51245790087E+03  0.55327514313E+03  0.00000000000E+00 0. -1.
          3    1    5    5  503    0 -0.29202954128E+03 -0.35627825332E+02  0.62079488659E+02  0.30067334074E+03  0.00000000000E+00 0. -1.
         -4    1    5    5    0  503 -0.30829146726E+03  0.32753279975E+02  0.10885341131E+03  0.32858099654E+03  0.00000000000E+00 0.  1.
         -3    1    6    6    0  502 -0.28569768848E+02  0.32792675058E+02 -0.82862360324E+02  0.93582915043E+02  0.00000000000E+00 0.  1.
<mgrwt>
<rscale>  0 0.20500475E+04</rscale>
<asrwt>0</asrwt>
<pdfrwt beam="1">  1        2 0.21187128E+00 0.20500475E+04</pdfrwt>
<pdfrwt beam="2">  1       -2 0.11737324E+00 0.20500475E+04</pdfrwt>
<totfact> 0.77415678E+00</totfact>
</mgrwt>
</event>
<event>
12    1  0.1952675E-007  0.1637907E+04  0.7818608E-02  0.8797593E-01
         -1   -1    0    0    0  501 -0.00000000000E+00  0.00000000000E+00  0.10544944757E+04  0.10544944757E+04  0.00000000000E+00 0.  1.
          1   -1    0    0  501    0  0.00000000000E+00 -0.00000000000E+00 -0.63602487013E+03  0.63602487013E+03  0.00000000000E+00 0. -1.
         23    2    1    2    0    0 -0.33663338007E+03  0.14734190865E+03 -0.27340642413E+03  0.46699387975E+03  0.91107301272E+02 0.  0.
        254    2    1    2    0    0  0.33663338007E+03 -0.14734190865E+03  0.69187602966E+03  0.12235254660E+04  0.93983533399E+03 0.  0.
        -24    2    4    4    0    0 -0.53259750352E+02 -0.46685938721E+03  0.20963832982E+03  0.52066942923E+03  0.79712839438E+02 0.  0.
         24    2    4    4    0    0  0.38989313042E+03  0.31951747856E+03  0.48223769983E+03  0.70285603681E+03  0.85704942033E+02 0.  0.
         11    1    3    3    0    0 -0.40565806867E+02  0.69059143599E+01 -0.70329331742E+02  0.81483073354E+02  0.00000000000E+00 0.  1.
        -11    1    3    3    0    0 -0.29606757320E+03  0.14043599429E+03 -0.20307709239E+03  0.38551080639E+03  0.00000000000E+00 0. -1.
          4    1    6    6  502    0  0.37372048827E+03  0.31995415523E+03  0.47840845129E+03  0.68623050870E+03  0.00000000000E+00 0. -1.
          3    1    5    5  503    0 -0.29892729714E+02 -0.43991900420E+03  0.19458528679E+03  0.48196030892E+03  0.00000000000E+00 0. -1.
         -4    1    5    5    0  503 -0.23367020638E+02 -0.26940383013E+02  0.15053043032E+02  0.38709120307E+02  0.00000000000E+00 0.  1.
         -3    1    6    6    0  502  0.16172642150E+02 -0.43667666891E+00  0.38292485384E+01  0.16625528112E+02  0.00000000000E+00 0.  1.
<mgrwt>
<rscale>  0 0.16379068E+04</rscale>
<asrwt>0</asrwt>
<pdfrwt beam="1">  1        1 0.97849980E-01 0.16379068E+04</pdfrwt>
<pdfrwt beam="2">  1       -1 0.16222992E+00 0.16379068E+04</pdfrwt>
<totfact> 0.84571917E+00</totfact>
</mgrwt>
</event>
<event>
12    1  0.1599266E-007  0.1731733E+04  0.7818608E-02  0.8743470E-01
         -2   -1    0    0    0  501 -0.00000000000E+00  0.00000000000E+00  0.70806701934E+03  0.70806701934E+03  0.00000000000E+00 0.  1.
          2   -1    0    0  501    0  0.00000000000E+00 -0.00000000000E+00 -0.10588324907E+04  0.10588324907E+04  0.00000000000E+00 0. -1.
         23    2    1    2    0    0  0.20797961069E+03  0.53251451593E+03  0.70192998442E+02  0.58334385592E+03  0.92389225915E+02 0.  0.
        254    2    1    2    0    0 -0.20797961069E+03 -0.53251451593E+03 -0.42095846978E+03  0.11835556541E+04  0.94697979120E+03 0.  0.
        -24    2    4    4    0    0 -0.40256466642E+03 -0.10956963259E+03 -0.54996483476E+03  0.69533325583E+03  0.83445803678E+02 0.  0.
         24    2    4    4    0    0  0.19458505573E+03 -0.42294488335E+03  0.12900636498E+03  0.48822239828E+03  0.70517726206E+02 0.  0.
         13    1    3    3    0    0  0.16831631965E+03  0.49282614114E+03  0.47925989555E+02  0.52297694913E+03  0.00000000000E+00 0.  1.
        -13    1    3    3    0    0  0.39663291044E+02  0.39688374797E+02  0.22267008887E+02  0.60366906789E+02  0.00000000000E+00 0. -1.
          4    1    6    6  502    0  0.11049744385E+03 -0.19518757988E+03  0.92883303503E+02  0.24276569878E+03  0.00000000000E+00 0. -1.
          3    1    5    5  503    0 -0.33205436059E+03 -0.63436298320E+02 -0.40389570753E+03  0.52670295698E+03  0.00000000000E+00 0. -1.
         -4    1    5    5    0  503 -0.70510305826E+02 -0.46133334268E+02 -0.14606912723E+03  0.16863029885E+03  0.00000000000E+00 0.  1.
         -3    1    6    6    0  502  0.84087611877E+02 -0.22775730347E+03  0.36123061481E+02  0.24545669949E+03  0.00000000000E+00 0.  1.
<mgrwt>
<rscale>  0 0.17317325E+04</rscale>
<asrwt>0</asrwt>
<pdfrwt beam="1">  1        2 0.16289731E+00 0.17317325E+04</pdfrwt>
<pdfrwt beam="2">  1       -2 0.10893339E+00 0.17317325E+04</pdfrwt>
<totfact> 0.14759127E+01</totfact>
</mgrwt>
</event>
<event>
12    1  0.1599266E-007  0.1371596E+04  0.7818608E-02  0.8974640E-01
          1   -1    0    0  501    0  0.00000000000E+00  0.00000000000E+00  0.21653927040E+04  0.21653927040E+04  0.00000000000E+00 0. -1.
         -1   -1    0    0    0  501 -0.00000000000E+00 -0.00000000000E+00 -0.21719786637E+03  0.21719786637E+03  0.00000000000E+00 0.  1.
         23    2    1    2    0    0  0.26943533731E+03  0.37502770866E+02  0.10204970989E+04  0.10601158677E+04  0.91812118606E+02 0.  0.
        254    2    1    2    0    0 -0.26943533731E+03 -0.37502770866E+02  0.92769773866E+03  0.13224747027E+04  0.90239369794E+03 0.  0.
        -24    2    4    4    0    0  0.12618409071E+03  0.12922438537E+03  0.85768304536E+03  0.88031675130E+03  0.81951264829E+02 0.  0.
         24    2    4    4    0    0 -0.39561942803E+03 -0.16672715624E+03  0.70014693302E+02  0.44215795137E+03  0.79302712580E+02 0.  0.
         11    1    3    3    0    0  0.27183930102E+03  0.46300313795E+02  0.10048992708E+04  0.10420474409E+04  0.00000000000E+00 0. -1.
        -11    1    3    3    0    0 -0.24039637141E+01 -0.87975429285E+01  0.15597828152E+02  0.18068426777E+02  0.00000000000E+00 0.  1.
          4    1    6    6  502    0 -0.21608264429E+03 -0.12603916466E+03  0.17706133941E+02  0.25078095496E+03  0.00000000000E+00 0. -1.
          1    1    5    5  503    0  0.17038766070E+02  0.71492789153E+02  0.37146964419E+03  0.37867035136E+03  0.00000000000E+00 0. -1.
         -2    1    5    5    0  503  0.10914532464E+03  0.57731596220E+02  0.48621340117E+03  0.50164639994E+03  0.00000000000E+00 0.  1.
         -3    1    6    6    0  502 -0.17953678374E+03 -0.40687991584E+02  0.52308559361E+02  0.19137699641E+03  0.00000000000E+00 0.  1.
<mgrwt>
<rscale>  0 0.13715957E+04</rscale>
<asrwt>0</asrwt>
<pdfrwt beam="1">  1        1 0.33313733E+00 0.13715957E+04</pdfrwt>
<pdfrwt beam="2">  1       -1 0.33415058E-01 0.13715957E+04</pdfrwt>
<totfact> 0.18983334E+01</totfact>
</mgrwt>
</event>
<event>
12    1  0.1599266E-007  0.1196517E+04  0.7818608E-02  0.9115910E-01
         -2   -1    0    0    0  501 -0.00000000000E+00  0.00000000000E+00  0.82197904433E+03  0.82197904433E+03  0.00000000000E+00 0. -1.
          2   -1    0    0  501    0  0.00000000000E+00 -0.00000000000E+00 -0.43542881011E+03  0.43542881011E+03  0.00000000000E+00 0.  1.
         23    2    1    2    0    0 -0.18152412978E+03 -0.58696425001E+02 -0.79559597402E+02  0.22564279839E+03  0.90491231208E+02 0.  0.
        254    2    1    2    0    0  0.18152412978E+03  0.58696425001E+02  0.46610983162E+03  0.10317650561E+04  0.90049124136E+03 0.  0.
        -24    2    4    4    0    0  0.29067128051E+03  0.30181287197E+03  0.59113982127E+03  0.72884692202E+03  0.78681283981E+02 0.  0.
         24    2    4    4    0    0 -0.10914715073E+03 -0.24311644697E+03 -0.12502998965E+03  0.30291813403E+03  0.71471604949E+02 0.  0.
         13    1    3    3    0    0 -0.16184683362E+03 -0.79179586954E+02 -0.80227543726E+02  0.19723149676E+03  0.00000000000E+00 0.  1.
        -13    1    3    3    0    0 -0.19677296160E+02  0.20483161953E+02  0.66794632403E+00  0.28411301625E+02  0.00000000000E+00 0. -1.
          2    1    6    6  502    0  0.83711135325E+01 -0.23211011559E+02 -0.16626938994E+01  0.24730368990E+02  0.00000000000E+00 0. -1.
          3    1    5    5  503    0  0.50755804889E+02  0.33924940619E+02  0.13367243089E+03  0.14695363931E+03  0.00000000000E+00 0. -1.
         -4    1    5    5    0  503  0.23991547562E+03  0.26788793135E+03  0.45746739039E+03  0.58189328272E+03  0.00000000000E+00 0.  1.
         -1    1    6    6    0  502 -0.11751826426E+03 -0.21990543541E+03 -0.12336729575E+03  0.27818776504E+03  0.00000000000E+00 0.  1.
<mgrwt>
<rscale>  0 0.11965172E+04</rscale>
<asrwt>0</asrwt>
<pdfrwt beam="1">  1        2 0.66989048E-01 0.11965172E+04</pdfrwt>
<pdfrwt beam="2">  1       -2 0.12645831E+00 0.11965172E+04</pdfrwt>
<totfact> 0.33174342E+01</totfact>
</mgrwt>
</event>
<event>
12    1  0.1599266E-007  0.1554514E+04  0.7818608E-02  0.8848990E-01
          2   -1    0    0  501    0  0.00000000000E+00  0.00000000000E+00  0.35255668421E+04  0.35255668421E+04  0.00000000000E+00 0. -1.
         -2   -1    0    0    0  501 -0.00000000000E+00 -0.00000000000E+00 -0.17135635839E+03  0.17135635839E+03  0.00000000000E+00 0.  1.
         23    2    1    2    0    0 -0.26578605577E+02 -0.47006631802E+03  0.16039974076E+04  0.16741723141E+04  0.91523156518E+02 0.  0.
        254    2    1    2    0    0  0.26578605577E+02  0.47006631802E+03  0.17502130761E+04  0.20227508864E+04  0.89811278296E+03 0.  0.
        -24    2    4    4    0    0  0.41920560110E+03  0.67430139982E+02  0.59575677731E+03  0.73608373507E+03  0.81320154663E+02 0.  0.
         24    2    4    4    0    0 -0.39262699552E+03  0.40263617804E+03  0.11544562988E+04  0.12866671513E+04  0.80443538750E+02 0.  0.
         11    1    3    3    0    0 -0.32502145110E+02 -0.60755030330E+02  0.27894624981E+03  0.28733007749E+03  0.00000000000E+00 0.  1.
        -11    1    3    3    0    0  0.59235395328E+01 -0.40931128769E+03  0.13250511578E+04  0.13868422366E+04  0.00000000000E+00 0. -1.
          4    1    6    6  502    0 -0.24832194031E+03  0.25173243487E+03  0.81084480281E+03  0.88459160014E+03  0.00000000000E+00 0. -1.
          3    1    5    5  503    0  0.49793874815E+02  0.35762557654E+02  0.93312241412E+02  0.11164929420E+03  0.00000000000E+00 0. -1.
         -4    1    5    5    0  503  0.36941172628E+03  0.31667582328E+02  0.50244453590E+03  0.62443444087E+03  0.00000000000E+00 0.  1.
         -3    1    6    6    0  502 -0.14430505521E+03  0.15090374317E+03  0.34361149598E+03  0.40207555115E+03  0.00000000000E+00 0.  1.
<mgrwt>
<rscale>  0 0.15545138E+04</rscale>
<asrwt>0</asrwt>
<pdfrwt beam="1">  1        2 0.54239485E+00 0.15545138E+04</pdfrwt>
<pdfrwt beam="2">  1       -2 0.26362519E-01 0.15545138E+04</pdfrwt>
<totfact> 0.99053320E+00</totfact>
</mgrwt>
</event>
<event>
12    1  0.1599266E-007  0.1253555E+04  0.7818608E-02  0.9067229E-01
         -1   -1    0    0    0  501 -0.00000000000E+00  0.00000000000E+00  0.14815742903E+03  0.14815742903E+03  0.00000000000E+00 0.  1.
          1   -1    0    0  501    0  0.00000000000E+00 -0.00000000000E+00 -0.26515730013E+04  0.26515730013E+04  0.00000000000E+00 0. -1.
         23    2    1    2    0    0  0.64107618045E+02  0.31971611312E+02 -0.12292328770E+04  0.12346615397E+04  0.90794720291E+02 0.  0.
        254    2    1    2    0    0 -0.64107618045E+02 -0.31971611312E+02 -0.12741826953E+04  0.15650688906E+04  0.90596198635E+03 0.  0.
        -24    2    4    4    0    0 -0.14809149302E+03  0.95321648494E+01 -0.13877062900E+04  0.13979397497E+04  0.80528527947E+02 0.  0.
         24    2    4    4    0    0  0.83983874976E+02 -0.41503776162E+02  0.11352359474E+03  0.16712914093E+03  0.79175049694E+02 0.  0.
         13    1    3    3    0    0 -0.12344751084E+02  0.20031762533E+02 -0.97997929824E+02  0.10078322598E+03  0.00000000000E+00 0.  1.
        -13    1    3    3    0    0  0.76452369129E+02  0.11939848779E+02 -0.11312349472E+04  0.11338783138E+04  0.00000000000E+00 0. -1.
          4    1    6    6  502    0 -0.11806663118E+02 -0.14941947747E+02  0.37242060518E+02  0.41828580756E+02  0.00000000000E+00 0. -1.
          1    1    5    5  503    0  0.73686606790E+01 -0.97114769616E+01 -0.10211255909E+03  0.10283766172E+03  0.00000000000E+00 0. -1.
         -2    1    5    5    0  503 -0.15546015370E+03  0.19243641811E+02 -0.12855937310E+04  0.12951020880E+04  0.00000000000E+00 0.  1.
         -3    1    6    6    0  502  0.95790538093E+02 -0.26561828415E+02  0.76281534226E+02  0.12530056018E+03  0.00000000000E+00 0.  1.
<mgrwt>
<rscale>  0 0.12535553E+04</rscale>
<asrwt>0</asrwt>
<pdfrwt beam="1">  1        1 0.40793432E+00 0.12535553E+04</pdfrwt>
<pdfrwt beam="2">  1       -1 0.22793450E-01 0.12535553E+04</pdfrwt>
<totfact> 0.17287938E+01</totfact>
</mgrwt>
</event>
<event>
12    1  0.1599266E-007  0.2503114E+04  0.7818608E-02  0.8401877E-01
          1   -1    0    0  501    0  0.00000000000E+00  0.00000000000E+00  0.24494501545E+04  0.24494501545E+04  0.00000000000E+00 0. -1.
         -1   -1    0    0    0  501 -0.00000000000E+00 -0.00000000000E+00 -0.63948849835E+03  0.63948849835E+03  0.00000000000E+00 0.  1.
         23    2    1    2    0    0  0.62563552601E+03  0.25471626238E+03 -0.26126712663E+03  0.72981545100E+03  0.89832596134E+02 0.  0.
        254    2    1    2    0    0 -0.62563552601E+03 -0.25471626238E+03  0.20712287827E+04  0.23591232018E+04  0.90508199916E+03 0.  0.
        -24    2    4    4    0    0 -0.53996975821E+03  0.35534397826E+02  0.19473693435E+04  0.20227430922E+04  0.80076363092E+02 0.  0.
         24    2    4    4    0    0 -0.85665767800E+02 -0.29025066021E+03  0.12385943922E+03  0.33638010958E+03  0.78907210780E+02 0.  0.
         11    1    3    3    0    0  0.55698391621E+03  0.23287476427E+03 -0.26115829849E+03  0.65777305785E+03  0.00000000000E+00 0.  1.
        -11    1    3    3    0    0  0.68651609795E+02  0.21841498109E+02 -0.10882813524E+00  0.72042393149E+02  0.00000000000E+00 0. -1.
          4    1    6    6  502    0 -0.56538580480E+02 -0.13362107819E+03  0.97733608788E+02  0.17493730851E+03  0.00000000000E+00 0. -1.
          1    1    5    5  503    0 -0.15430644765E+02  0.96488947789E+01  0.33485673489E+02  0.38111629424E+02  0.00000000000E+00 0. -1.
         -2    1    5    5    0  503 -0.52453911344E+03  0.25885503047E+02  0.19138836700E+04  0.19846314628E+04  0.00000000000E+00 0.  1.
         -3    1    6    6    0  502 -0.29127187320E+02 -0.15662958202E+03  0.26125830435E+02  0.16144280108E+03  0.00000000000E+00 0.  1.
<mgrwt>
<rscale>  0 0.25031142E+04</rscale>
<asrwt>0</asrwt>
<pdfrwt beam="1">  1        1 0.37683848E+00 0.25031142E+04</pdfrwt>
<pdfrwt beam="2">  1       -1 0.98382847E-01 0.25031142E+04</pdfrwt>
<totfact> 0.12899002E+00</totfact>
</mgrwt>
</event>
<event>
12    1  0.1599266E-007  0.1349094E+04  0.7818608E-02  0.8991515E-01
         -2   -1    0    0    0  501 -0.00000000000E+00  0.00000000000E+00  0.40028890811E+03  0.40028890811E+03  0.00000000000E+00 0.  1.
          2   -1    0    0  501    0  0.00000000000E+00 -0.00000000000E+00 -0.11367123555E+04  0.11367123555E+04  0.00000000000E+00 0. -1.
         23    2    1    2    0    0  0.94269616347E+02 -0.24477438744E+03 -0.49915221829E+03  0.57175358434E+03  0.94593672474E+02 0.  0.
        254    2    1    2    0    0 -0.94269616347E+02  0.24477438744E+03 -0.23727122915E+03  0.96524767932E+03  0.89811145463E+03 0.  0.
        -24    2    4    4    0    0  0.74102520925E+02  0.54956659855E+03 -0.23704849278E+03  0.60795594328E+03  0.76836262189E+02 0.  0.
         24    2    4    4    0    0 -0.16837213727E+03 -0.30479221112E+03 -0.22273637234E+00  0.35729173604E+03  0.80061641655E+02 0.  0.
         11    1    3    3    0    0  0.92627352460E+01 -0.15081861472E+03 -0.24689254576E+03  0.28946153797E+03  0.00000000000E+00 0.  1.
        -11    1    3    3    0    0  0.85006881101E+02 -0.93955772716E+02 -0.25225967252E+03  0.28229204637E+03  0.00000000000E+00 0. -1.
          4    1    6    6  502    0 -0.15327702655E+03 -0.26908214144E+03 -0.25952338555E+02  0.31076127427E+03  0.00000000000E+00 0. -1.
          3    1    5    5  503    0  0.73421840903E+02  0.52793515115E+03 -0.20899664251E+03  0.57252588336E+03  0.00000000000E+00 0. -1.
         -4    1    5    5    0  503  0.68068002192E+00  0.21631447405E+02 -0.28051850272E+02  0.35430059918E+02  0.00000000000E+00 0.  1.
         -3    1    6    6    0  502 -0.15095110724E+02 -0.35710069674E+02  0.25729602183E+02  0.46530461768E+02  0.00000000000E+00 0.  1.
<mgrwt>
<rscale>  0 0.13490935E+04</rscale>
<asrwt>0</asrwt>
<pdfrwt beam="1">  1        2 0.17487882E+00 0.13490935E+04</pdfrwt>
<pdfrwt beam="2">  1       -2 0.61582910E-01 0.13490935E+04</pdfrwt>
<totfact> 0.49518192E+01</totfact>
</mgrwt>
</event>
<event>
12    1  0.1599266E-007  0.1830906E+04  0.7818608E-02  0.8690034E-01
         -2   -1    0    0    0  501 -0.00000000000E+00  0.00000000000E+00  0.27680709263E+03  0.27680709263E+03  0.00000000000E+00 0.  1.
          2   -1    0    0  501    0  0.00000000000E+00 -0.00000000000E+00 -0.30275754709E+04  0.30275754709E+04  0.00000000000E+00 0. -1.
         23    2    1    2    0    0  0.68356738360E+03 -0.12772487622E+01 -0.11386898990E+04  0.13305516943E+04  0.80542695248E+02 0.  0.
        254    2    1    2    0    0 -0.68356738360E+03  0.12772487622E+01 -0.16120784793E+04  0.19738308692E+04  0.91101332469E+03 0.  0.
        -24    2    4    4    0    0 -0.66403518038E+03 -0.36591366904E+03 -0.10557357379E+04  0.13022268305E+04  0.79882637544E+02 0.  0.
         24    2    4    4    0    0 -0.19532203222E+02  0.36719091780E+03 -0.55634274133E+03  0.67160403873E+03  0.79523970769E+02 0.  0.
         13    1    3    3    0    0  0.36840906308E+03 -0.75561410172E+01 -0.68958274878E+03  0.78186104932E+03  0.00000000000E+00 0.  1.
        -13    1    3    3    0    0  0.31515832052E+03  0.62788922550E+01 -0.44910715024E+03  0.54869064497E+03  0.00000000000E+00 0. -1.
          2    1    6    6  502    0 -0.99341931263E+01  0.26993161191E+03 -0.46538852510E+03  0.53809687102E+03  0.00000000000E+00 0. -1.
          1    1    5    5  503    0 -0.23398516838E+03 -0.10540448160E+03 -0.30396470543E+03  0.39781114352E+03  0.00000000000E+00 0. -1.
         -2    1    5    5    0  503 -0.43005001200E+03 -0.26050918744E+03 -0.75177103249E+03  0.90441568698E+03  0.00000000000E+00 0.  1.
         -1    1    6    6    0  502 -0.95980100957E+01  0.97259305895E+02 -0.90954216224E+02  0.13350716771E+03  0.00000000000E+00 0.  1.
<mgrwt>
<rscale>  0 0.18309062E+04</rscale>
<asrwt>0</asrwt>
<pdfrwt beam="1">  1        2 0.46578083E+00 0.18309062E+04</pdfrwt>
<pdfrwt beam="2">  1       -2 0.42585708E-01 0.18309062E+04</pdfrwt>
<totfact> 0.82665536E+00</totfact>
</mgrwt>
</event>
<event>
12    1  0.1599266E-007  0.1525040E+04  0.7818608E-02  0.8867970E-01
          1   -1    0    0  501    0  0.00000000000E+00  0.00000000000E+00  0.45797580666E+03  0.45797580666E+03  0.00000000000E+00 0. -1.
         -1   -1    0    0    0  501 -0.00000000000E+00 -0.00000000000E+00 -0.12695800723E+04  0.12695800723E+04  0.00000000000E+00 0.  1.
         23    2    1    2    0    0  0.26501959478E+03  0.19064111194E+03  0.14975593419E+03  0.37023969170E+03  0.89839692259E+02 0.  0.
        254    2    1    2    0    0 -0.26501959478E+03 -0.19064111194E+03 -0.96136019983E+03  0.13573161873E+04  0.90084092891E+03 0.  0.
        -24    2    4    4    0    0 -0.25086462863E+03 -0.43017736751E+03 -0.98242616797E+03  0.11043975697E+04  0.80914689530E+02 0.  0.
         24    2    4    4    0    0 -0.14154966148E+02  0.23953625557E+03  0.21065968141E+02  0.25291861758E+03  0.77110772965E+02 0.  0.
         11    1    3    3    0    0  0.25794873995E+03  0.15217684095E+03  0.13262533406E+03  0.32754361938E+03  0.00000000000E+00 0. -1.
        -11    1    3    3    0    0  0.70708548373E+01  0.38464270991E+02  0.17130600125E+02  0.42696072321E+02  0.00000000000E+00 0.  1.
          2    1    6    6  502    0 -0.11176367245E+02  0.46859548565E+02  0.35256423312E+02  0.59697100945E+02  0.00000000000E+00 0. -1.
          3    1    5    5  503    0 -0.24837787407E+03 -0.40679524636E+03 -0.96045468962E+03  0.10722160004E+04  0.00000000000E+00 0. -1.
         -4    1    5    5    0  503 -0.24867545604E+01 -0.23382121147E+02 -0.21971478351E+02  0.32181569236E+02  0.00000000000E+00 0.  1.
         -1    1    6    6    0  502 -0.29785989026E+01  0.19267670700E+03 -0.14190455172E+02  0.19322151664E+03  0.00000000000E+00 0.  1.
<mgrwt>
<rscale>  0 0.15250403E+04</rscale>
<asrwt>0</asrwt>
<pdfrwt beam="1">  1        1 0.70457817E-01 0.15250403E+04</pdfrwt>
<pdfrwt beam="2">  1       -1 0.19532001E+00 0.15250403E+04</pdfrwt>
<totfact> 0.78264296E+00</totfact>
</mgrwt>
</event>
<event>
12    1  0.1599266E-007  0.2378274E+04  0.7818608E-02  0.8447682E-01
          1   -1    0    0  501    0  0.00000000000E+00  0.00000000000E+00  0.93172143688E+03  0.93172143688E+03  0.00000000000E+00 0. -1.
         -1   -1    0    0    0  501 -0.00000000000E+00 -0.00000000000E+00 -0.15176711803E+04  0.15176711803E+04  0.00000000000E+00 0.  1.
         23    2    1    2    0    0 -0.92754556623E+03  0.79841989451E+02  0.22280006121E+03  0.96048431981E+03  0.78579517786E+02 0.  0.
        254    2    1    2    0    0  0.92754556623E+03 -0.79841989451E+02 -0.80874980467E+03  0.14889082974E+04  0.83429979670E+03 0.  0.
        -24    2    4    4    0    0 -0.81773133629E+02  0.36030145918E+02  0.74363078883E+02  0.14040975956E+03  0.78740182122E+02 0.  0.
         24    2    4    4    0    0  0.10093186999E+04 -0.11587213537E+03 -0.88311288355E+03  0.13484985378E+04  0.80058427418E+02 0.  0.
         11    1    3    3    0    0 -0.43980141700E+03  0.43586162015E+02  0.65888449390E+02  0.44684038277E+03  0.00000000000E+00 0.  1.
        -11    1    3    3    0    0 -0.48774414924E+03  0.36255827436E+02  0.15691161182E+03  0.51364393704E+03  0.00000000000E+00 0. -1.
          2    1    6    6  502    0  0.47146761346E+03 -0.21091294813E+02 -0.43951890718E+03  0.64490574740E+03  0.00000000000E+00 0. -1.
          1    1    5    5  503    0 -0.11889876431E+02 -0.18036312562E+02 -0.43972799072E+01  0.22045720740E+02  0.00000000000E+00 0. -1.
         -2    1    5    5    0  503 -0.69883257198E+02  0.54066458480E+02  0.78760358790E+02  0.11836403882E+03  0.00000000000E+00 0.  1.
         -1    1    6    6    0  502  0.53785108640E+03 -0.94780840557E+02 -0.44359397637E+03  0.70359279043E+03  0.00000000000E+00 0.  1.
<mgrwt>
<rscale>  0 0.23782740E+04</rscale>
<asrwt>0</asrwt>
<pdfrwt beam="1">  1        1 0.14334176E+00 0.23782740E+04</pdfrwt>
<pdfrwt beam="2">  1       -1 0.23348787E+00 0.23782740E+04</pdfrwt>
<totfact> 0.13776236E+00</totfact>
</mgrwt>
</event>
<event>
12    1  0.1599266E-007  0.2136372E+04  0.7818608E-02  0.8545388E-01
          2   -1    0    0  501    0  0.00000000000E+00  0.00000000000E+00  0.31069177770E+04  0.31069177770E+04  0.00000000000E+00 0.  1.
         -2   -1    0    0    0  501 -0.00000000000E+00 -0.00000000000E+00 -0.36725175344E+03  0.36725175344E+03  0.00000000000E+00 0. -1.
         23    2    1    2    0    0 -0.84158087804E+03  0.23584616705E+03  0.10394230015E+04  0.13611051993E+04  0.91243624148E+02 0.  0.
        254    2    1    2    0    0  0.84158087804E+03 -0.23584616705E+03  0.17002430221E+04  0.21130643311E+04  0.90018483899E+03 0.  0.
        -24    2    4    4    0    0  0.10155459201E+04 -0.17744927832E+03  0.15478137628E+04  0.18614398176E+04  0.80056155938E+02 0.  0.
         24    2    4    4    0    0 -0.17396504209E+03 -0.58396888732E+02  0.15242925936E+03  0.25162451351E+03  0.80038641948E+02 0.  0.
         13    1    3    3    0    0 -0.32249427312E+03  0.10104325460E+03  0.46997822513E+03  0.57887116666E+03  0.00000000000E+00 0. -1.
        -13    1    3    3    0    0 -0.51908660492E+03  0.13480291246E+03  0.56944477632E+03  0.78223403269E+03  0.00000000000E+00 0.  1.
          2    1    6    6  502    0 -0.14234001134E+03 -0.12165403171E+02  0.12209263876E+03  0.18792362359E+03  0.00000000000E+00 0. -1.
          3    1    5    5  503    0  0.10025181553E+04 -0.16837704801E+03  0.15347357105E+04  0.18408713108E+04  0.00000000000E+00 0. -1.
         -4    1    5    5    0  503  0.13027764872E+02 -0.90722303175E+01  0.13078052270E+02  0.20568506792E+02  0.00000000000E+00 0.  1.
         -1    1    6    6    0  502 -0.31625030748E+02 -0.46231485560E+02  0.30336620606E+02  0.63700889921E+02  0.00000000000E+00 0.  1.
<mgrwt>
<rscale>  0 0.21363717E+04</rscale>
<asrwt>0</asrwt>
<pdfrwt beam="1">  1        2 0.47798733E+00 0.21363717E+04</pdfrwt>
<pdfrwt beam="2">  1       -2 0.56500272E-01 0.21363717E+04</pdfrwt>
<totfact> 0.40308294E+00</totfact>
</mgrwt>
</event>
<event>
12    1  0.1599266E-007  0.1637773E+04  0.7818608E-02  0.8797673E-01
         -1   -1    0    0    0  501 -0.00000000000E+00  0.00000000000E+00  0.39439450256E+03  0.39439450256E+03  0.00000000000E+00 0.  1.
          1   -1    0    0  501    0  0.00000000000E+00 -0.00000000000E+00 -0.17002657006E+04  0.17002657006E+04  0.00000000000E+00 0. -1.
         23    2    1    2    0    0  0.71102385521E+02  0.35189089098E+03 -0.10065256794E+04  0.10724574197E+04  0.90488813508E+02 0.  0.
        254    2    1    2    0    0 -0.71102385521E+02 -0.35189089098E+03 -0.29934551868E+03  0.10222027835E+04  0.90906987778E+03 0.  0.
        -24    2    4    4    0    0 -0.42861580954E+03  0.32380386707E+02 -0.20568139981E+03  0.48321038329E+03  0.80171283282E+02 0.  0.
         24    2    4    4    0    0  0.35751342402E+03 -0.38427127769E+03 -0.93664118870E+02  0.53899240022E+03  0.79117489328E+02 0.  0.
         13    1    3    3    0    0  0.52028122104E+02  0.10126032948E+03 -0.40068003846E+03  0.41653940154E+03  0.00000000000E+00 0.  1.
        -13    1    3    3    0    0  0.19074263417E+02  0.25063056150E+03 -0.60584564092E+03  0.65591801813E+03  0.00000000000E+00 0. -1.
          4    1    6    6  502    0  0.26998792006E+03 -0.31797573173E+03 -0.10019254302E+03  0.42899952054E+03  0.00000000000E+00 0. -1.
          3    1    5    5  503    0 -0.42891565962E+03  0.38576880470E+02 -0.20009857431E+03  0.47486446300E+03  0.00000000000E+00 0. -1.
         -4    1    5    5    0  503  0.29985008255E+00 -0.61964937626E+01 -0.55828254997E+01  0.83459202957E+01  0.00000000000E+00 0.  1.
         -3    1    6    6    0  502  0.87525503965E+02 -0.66295545963E+02  0.65284241531E+01  0.10999287968E+03  0.00000000000E+00 0.  1.
<mgrwt>
<rscale>  0 0.16377734E+04</rscale>
<asrwt>0</asrwt>
<pdfrwt beam="1">  1        1 0.26157934E+00 0.16377734E+04</pdfrwt>
<pdfrwt beam="2">  1       -1 0.60676076E-01 0.16377734E+04</pdfrwt>
<totfact> 0.12552678E+01</totfact>
</mgrwt>
</event>
<event>
12    1  0.1599266E-007  0.1909863E+04  0.7818608E-02  0.8649963E-01
         -2   -1    0    0    0  501 -0.00000000000E+00  0.00000000000E+00  0.80564617245E+03  0.80564617245E+03  0.00000000000E+00 0.  1.
          2   -1    0    0  501    0  0.00000000000E+00 -0.00000000000E+00 -0.11318790844E+04  0.11318790844E+04  0.00000000000E+00 0. -1.
         23    2    1    2    0    0 -0.96175810413E+02  0.36483562886E+03 -0.76167970360E+03  0.85603475880E+03  0.10141358291E+03 0.  0.
        254    2    1    2    0    0  0.96175810413E+02 -0.36483562886E+03  0.43544679167E+03  0.10814904980E+04  0.91523383151E+03 0.  0.
        -24    2    4    4    0    0  0.37661746432E+03 -0.84198152704E+02 -0.10351974754E+03  0.40737461216E+03  0.79420986874E+02 0.  0.
         24    2    4    4    0    0 -0.28044165390E+03 -0.28063747616E+03  0.53896653921E+03  0.67411588586E+03  0.80884998072E+02 0.  0.
         11    1    3    3    0    0 -0.77022674667E+02  0.32869426274E+03 -0.73004963523E+03  0.80432883864E+03  0.00000000000E+00 0. -1.
        -11    1    3    3    0    0 -0.19153135746E+02  0.36141366122E+02 -0.31630068366E+02  0.51705920153E+02  0.00000000000E+00 0.  1.
          4    1    6    6  502    0 -0.66954255057E+02 -0.40908188111E+02  0.66160675280E+02  0.10263326497E+03  0.00000000000E+00 0. -1.
          1    1    5    5  503    0  0.32736208945E+01 -0.13550456165E+02 -0.53198509831E+01  0.14920866949E+02  0.00000000000E+00 0. -1.
         -2    1    5    5    0  503  0.37334384342E+03 -0.70647696539E+02 -0.98199896557E+02  0.39245374521E+03  0.00000000000E+00 0.  1.
         -3    1    6    6    0  502 -0.21348739885E+03 -0.23972928805E+03  0.47280586393E+03  0.57148262089E+03  0.00000000000E+00 0.  1.
<mgrwt>
<rscale>  0 0.19098629E+04</rscale>
<asrwt>0</asrwt>
<pdfrwt beam="1">  1        2 0.17413524E+00 0.19098629E+04</pdfrwt>
<pdfrwt beam="2">  1       -2 0.12394556E+00 0.19098629E+04</pdfrwt>
<totfact> 0.95464653E+00</totfact>
</mgrwt>
</event>
<event>
12    1  0.1599266E-007  0.1337429E+04  0.7818608E-02  0.9000399E-01
         -2   -1    0    0    0  501 -0.00000000000E+00  0.00000000000E+00  0.35862515904E+03  0.35862515904E+03  0.00000000000E+00 0.  1.
          2   -1    0    0  501    0  0.00000000000E+00 -0.00000000000E+00 -0.12469264399E+04  0.12469264399E+04  0.00000000000E+00 0. -1.
         23    2    1    2    0    0  0.59184104070E+02  0.16621068861E+03 -0.60652022788E+03  0.63829058363E+03  0.91756913251E+02 0.  0.
        254    2    1    2    0    0 -0.59184104070E+02 -0.16621068861E+03 -0.28178105298E+03  0.96726101532E+03  0.90833064396E+03 0.  0.
        -24    2    4    4    0    0  0.39373458931E+03 -0.22451888150E+03 -0.16810362772E+03  0.48950293667E+03  0.76932700360E+02 0.  0.
         24    2    4    4    0    0 -0.45291869338E+03  0.58308192886E+02 -0.11367742526E+03  0.47775807865E+03  0.82432011557E+02 0.  0.
         11    1    3    3    0    0  0.72773997589E+02  0.15610700013E+03 -0.46705453741E+03  0.49780055357E+03  0.00000000000E+00 0. -1.
        -11    1    3    3    0    0 -0.13589893519E+02  0.10103688479E+02 -0.13946569047E+03  0.14049003006E+03  0.00000000000E+00 0.  1.
          2    1    6    6  502    0 -0.17296981369E+03 -0.11850097658E+02 -0.21031811309E+02  0.17464626635E+03  0.00000000000E+00 0. -1.
          3    1    5    5  503    0  0.98411831308E+02 -0.23613238110E+02 -0.21842092846E+02  0.10353526247E+03  0.00000000000E+00 0. -1.
         -4    1    5    5    0  503  0.29532275800E+03 -0.20090564339E+03 -0.14626153488E+03  0.38596767420E+03  0.00000000000E+00 0.  1.
         -1    1    6    6    0  502 -0.27994887969E+03  0.70158290544E+02 -0.92645613947E+02  0.30311181230E+03  0.00000000000E+00 0.  1.
<mgrwt>
<rscale>  0 0.13374292E+04</rscale>
<asrwt>0</asrwt>
<pdfrwt beam="1">  1        2 0.19183483E+00 0.13374292E+04</pdfrwt>
<pdfrwt beam="2">  1       -2 0.55173102E-01 0.13374292E+04</pdfrwt>
<totfact> 0.53627380E+01</totfact>
</mgrwt>
</event>
<event>
12    1  0.1599266E-007  0.1560155E+04  0.7818608E-02  0.8845408E-01
         -1   -1    0    0    0  501 -0.00000000000E+00  0.00000000000E+00  0.64101890150E+03  0.64101890150E+03  0.00000000000E+00 0.  1.
          1   -1    0    0  501    0  0.00000000000E+00 -0.00000000000E+00 -0.94930199645E+03  0.94930199645E+03  0.00000000000E+00 0. -1.
         23    2    1    2    0    0  0.50148992167E+03 -0.19373468049E+02 -0.21855856780E+03  0.55510108274E+03  0.92205703156E+02 0.  0.
        254    2    1    2    0    0 -0.50148992167E+03  0.19373468049E+02 -0.89724527143E+02  0.10352198152E+04  0.90097841386E+03 0.  0.
        -24    2    4    4    0    0 -0.42218432824E+03  0.23486703050E+03 -0.40604773005E+03  0.63632383045E+03  0.81431744958E+02 0.  0.
         24    2    4    4    0    0 -0.79305593426E+02 -0.21549356245E+03  0.31632320291E+03  0.39889598476E+03  0.79566232507E+02 0.  0.
         13    1    3    3    0    0  0.31314496493E+03 -0.26652609973E+02 -0.18177573511E+03  0.36305997928E+03  0.00000000000E+00 0. -1.
        -13    1    3    3    0    0  0.18834495674E+03  0.72791419243E+01 -0.36782832693E+02  0.19204110345E+03  0.00000000000E+00 0.  1.
          4    1    6    6  502    0  0.20927843223E+01 -0.24131254171E+02  0.82473550024E+02  0.85956870742E+02  0.00000000000E+00 0. -1.
          3    1    5    5  503    0 -0.57218440890E+02  0.89635532451E+01 -0.27904019022E+02  0.64287864658E+02  0.00000000000E+00 0. -1.
         -4    1    5    5    0  503 -0.36496588735E+03  0.22590347726E+03 -0.37814371103E+03  0.57203596579E+03  0.00000000000E+00 0.  1.
         -3    1    6    6    0  502 -0.81398377748E+02 -0.19136230828E+03  0.23384965288E+03  0.31293911402E+03  0.00000000000E+00 0.  1.
<mgrwt>
<rscale>  0 0.15601545E+04</rscale>
<asrwt>0</asrwt>
<pdfrwt beam="1">  1        1 0.14604646E+00 0.15601545E+04</pdfrwt>
<pdfrwt beam="2">  1       -1 0.98618293E-01 0.15601545E+04</pdfrwt>
<totfact> 0.15723302E+01</totfact>
</mgrwt>
</event>
<event>
12    1  0.1599266E-007  0.2002121E+04  0.7818608E-02  0.8605630E-01
          1   -1    0    0  501    0  0.00000000000E+00  0.00000000000E+00  0.10203716254E+04  0.10203716254E+04  0.00000000000E+00 0. -1.
         -1   -1    0    0    0  501 -0.00000000000E+00 -0.00000000000E+00 -0.98211491626E+03  0.98211491626E+03  0.00000000000E+00 0.  1.
         23    2    1    2    0    0  0.50460035940E+03  0.23729581404E+03 -0.54716420182E+03  0.78642360866E+03  0.90236369809E+02 0.  0.
        254    2    1    2    0    0 -0.50460035940E+03 -0.23729581404E+03  0.58542091098E+03  0.12160629330E+04  0.90838350271E+03 0.  0.
        -24    2    4    4    0    0 -0.25496849574E+03 -0.13801084863E+03 -0.21360413353E+03  0.36928034054E+03  0.81763781024E+02 0.  0.
         24    2    4    4    0    0 -0.24963186366E+03 -0.99284965411E+02  0.79902504451E+03  0.84678259248E+03  0.80163367402E+02 0.  0.
         11    1    3    3    0    0  0.48515619427E+03  0.24494884367E+03 -0.53265093894E+03  0.76098192594E+03  0.00000000000E+00 0.  1.
        -11    1    3    3    0    0  0.19444165132E+02 -0.76530296293E+01 -0.14513262870E+02  0.25441682714E+02  0.00000000000E+00 0. -1.
          2    1    6    6  502    0 -0.14771482804E+02 -0.25322755018E+02  0.14517638014E+03  0.14810678572E+03  0.00000000000E+00 0. -1.
          3    1    5    5  503    0 -0.72231291424E+01 -0.88317416294E+01 -0.37059820572E+02  0.38776327258E+02  0.00000000000E+00 0. -1.
         -4    1    5    5    0  503 -0.24774536660E+03 -0.12917910700E+03 -0.17654431296E+03  0.33050401328E+03  0.00000000000E+00 0.  1.
         -1    1    6    6    0  502 -0.23486038085E+03 -0.73962210393E+02  0.65384866436E+03  0.69867580676E+03  0.00000000000E+00 0.  1.
<mgrwt>
<rscale>  0 0.20021211E+04</rscale>
<asrwt>0</asrwt>
<pdfrwt beam="1">  1        1 0.15698025E+00 0.20021211E+04</pdfrwt>
<pdfrwt beam="2">  1       -1 0.15109460E+00 0.20021211E+04</pdfrwt>
<totfact> 0.46289855E+00</totfact>
</mgrwt>
</event>
<event>
12    1  0.1599266E-007  0.1408970E+04  0.7818608E-02  0.8947351E-01
          1   -1    0    0  501    0  0.00000000000E+00  0.00000000000E+00  0.22190888719E+04  0.22190888719E+04  0.00000000000E+00 0.  1.
         -1   -1    0    0    0  501 -0.00000000000E+00 -0.00000000000E+00 -0.22365006993E+03  0.22365006993E+03  0.00000000000E+00 0. -1.
         23    2    1    2    0    0  0.21497699712E+03 -0.14197172925E+03  0.42202634132E+02  0.27689518355E+03  0.92297340956E+02 0.  0.
        254    2    1    2    0    0 -0.21497699712E+03  0.14197172925E+03  0.19532361678E+04  0.21658437582E+04  0.89965358704E+03 0.  0.
        -24    2    4    4    0    0  0.19894751060E+03 -0.17702118338E+03  0.22088472744E+03  0.35458745737E+03  0.77624678888E+02 0.  0.
         24    2    4    4    0    0 -0.41392450773E+03  0.31899291263E+03  0.17323514404E+04  0.18112563009E+04  0.80733500297E+02 0.  0.
         13    1    3    3    0    0  0.21630269340E+03 -0.13000871649E+03  0.21929197239E+02  0.25331800415E+03  0.00000000000E+00 0. -1.
        -13    1    3    3    0    0 -0.13256962792E+01 -0.11963012762E+02  0.20273436892E+02  0.23577179399E+02  0.00000000000E+00 0.  1.
          2    1    6    6  502    0 -0.72115518061E+02  0.74917796954E+02  0.45066246311E+03  0.46250403231E+03  0.00000000000E+00 0. -1.
          3    1    5    5  503    0  0.58577986456E+02 -0.36986003894E+02  0.19485176019E+02  0.71965387971E+02  0.00000000000E+00 0. -1.
         -4    1    5    5    0  503  0.14036952415E+03 -0.14003517948E+03  0.20139955142E+03  0.28262206940E+03  0.00000000000E+00 0.  1.
         -1    1    6    6    0  502 -0.34180898966E+03  0.24407511568E+03  0.12816889773E+04  0.13487522686E+04  0.00000000000E+00 0.  1.
<mgrwt>
<rscale>  0 0.14089704E+04</rscale>
<asrwt>0</asrwt>
<pdfrwt beam="1">  1        1 0.34139827E+00 0.14089704E+04</pdfrwt>
<pdfrwt beam="2">  1       -1 0.34407705E-01 0.14089704E+04</pdfrwt>
<totfact> 0.16511535E+01</totfact>
</mgrwt>
</event>
<event>
12    1  0.1599266E-007  0.1329246E+04  0.7818608E-02  0.9006689E-01
          2   -1    0    0  501    0  0.00000000000E+00  0.00000000000E+00  0.51278682496E+03  0.51278682496E+03  0.00000000000E+00 0. -1.
         -2   -1    0    0    0  501 -0.00000000000E+00 -0.00000000000E+00 -0.86141745219E+03  0.86141745219E+03  0.00000000000E+00 0.  1.
         23    2    1    2    0    0  0.19481037953E+03  0.13491469843E+03 -0.26880029120E+03  0.36948579547E+03  0.90072729946E+02 0.  0.
        254    2    1    2    0    0 -0.19481037953E+03 -0.13491469843E+03 -0.79830336027E+02  0.10047184817E+04  0.97310497124E+03 0.  0.
        -24    2    4    4    0    0 -0.35524353760E+03  0.31582768534E+03 -0.17088511853E+03  0.51126113614E+03  0.79000808589E+02 0.  0.
         24    2    4    4    0    0  0.16043315807E+03 -0.45074238377E+03  0.91054782499E+02  0.49345734554E+03  0.79383145080E+02 0.  0.
         13    1    3    3    0    0  0.22309498280E+02  0.36539719681E+02 -0.11244425280E+02  0.44264002618E+02  0.00000000000E+00 0. -1.
        -13    1    3    3    0    0  0.17250088125E+03  0.98374978749E+02 -0.25755586592E+03  0.32522179286E+03  0.00000000000E+00 0.  1.
          2    1    6    6  502    0  0.12420738575E+03 -0.23195784615E+03  0.44398093731E+02  0.26683910469E+03  0.00000000000E+00 0. -1.
          3    1    5    5  503    0 -0.54828775988E+02  0.64988032793E+02 -0.21151153049E+01  0.85053587787E+02  0.00000000000E+00 0. -1.
         -4    1    5    5    0  503 -0.30041476161E+03  0.25083965254E+03 -0.16877000322E+03  0.42620754835E+03  0.00000000000E+00 0.  1.
         -1    1    6    6    0  502  0.36225772321E+02 -0.21878453762E+03  0.46656688767E+02  0.22661824086E+03  0.00000000000E+00 0.  1.
<mgrwt>
<rscale>  0 0.13292457E+04</rscale>
<asrwt>0</asrwt>
<pdfrwt beam="1">  1        2 0.78890281E-01 0.13292457E+04</pdfrwt>
<pdfrwt beam="2">  1       -2 0.13252576E+00 0.13292457E+04</pdfrwt>
<totfact> 0.24175340E+01</totfact>
</mgrwt>
</event>
<event>
12    1  0.1599266E-007  0.1775706E+04  0.7818608E-02  0.8719327E-01
         -2   -1    0    0    0  501 -0.00000000000E+00  0.00000000000E+00  0.12160010371E+04  0.12160010371E+04  0.00000000000E+00 0.  1.
          2   -1    0    0  501    0  0.00000000000E+00 -0.00000000000E+00 -0.64825819276E+03  0.64825819276E+03  0.00000000000E+00 0. -1.
         23    2    1    2    0    0  0.43358474671E+03  0.36202396910E+03 -0.14276744186E+03  0.58969815164E+03  0.91127826759E+02 0.  0.
        254    2    1    2    0    0 -0.43358474671E+03 -0.36202396910E+03  0.71051028623E+03  0.12745610783E+04  0.89477594324E+03 0.  0.
        -24    2    4    4    0    0 -0.11363751694E+02 -0.55077161009E+03  0.22803211787E+03  0.60150327980E+03  0.79555310899E+02 0.  0.
         24    2    4    4    0    0 -0.42222099501E+03  0.18874764099E+03  0.48247816835E+03  0.67305779846E+03  0.79532235708E+02 0.  0.
         11    1    3    3    0    0  0.42079137375E+03  0.35952400920E+03 -0.12456380733E+03  0.56730858932E+03  0.00000000000E+00 0. -1.
        -11    1    3    3    0    0  0.12793372955E+02  0.24999599029E+01 -0.18203634524E+02  0.22389562322E+02  0.00000000000E+00 0.  1.
          4    1    6    6  502    0 -0.40121397656E+03  0.16570087940E+03  0.46909247555E+03  0.63912220039E+03  0.00000000000E+00 0. -1.
          3    1    5    5  503    0 -0.40509074969E+02 -0.39198117353E+03  0.14446973426E+03  0.41971624900E+03  0.00000000000E+00 0. -1.
         -4    1    5    5    0  503  0.29145323274E+02 -0.15879043656E+03  0.83562383610E+02  0.18178703080E+03  0.00000000000E+00 0.  1.
         -3    1    6    6    0  502 -0.21007018454E+02  0.23046761589E+02  0.13385692809E+02  0.33935598065E+02  0.00000000000E+00 0.  1.
<mgrwt>
<rscale>  0 0.17757056E+04</rscale>
<asrwt>0</asrwt>
<pdfrwt beam="1">  1        2 0.99732030E-01 0.17757056E+04</pdfrwt>
<pdfrwt beam="2">  1       -2 0.18707708E+00 0.17757056E+04</pdfrwt>
<totfact> 0.69155155E+00</totfact>
</mgrwt>
</event>
<event>
12    1  0.1599266E-007  0.1849792E+04  0.7818608E-02  0.8680260E-01
         -1   -1    0    0    0  501 -0.00000000000E+00  0.00000000000E+00  0.86854305197E+03  0.86854305197E+03  0.00000000000E+00 0.  1.
          1   -1    0    0  501    0  0.00000000000E+00 -0.00000000000E+00 -0.98490561593E+03  0.98490561593E+03  0.00000000000E+00 0. -1.
         23    2    1    2    0    0 -0.47028141772E+03  0.37077276329E+03  0.31659064497E+03  0.68282910967E+03  0.85958726646E+02 0.  0.
        254    2    1    2    0    0  0.47028141772E+03 -0.37077276329E+03 -0.43295320892E+03  0.11706195582E+04  0.90789019993E+03 0.  0.
        -24    2    4    4    0    0 -0.17394796435E+03 -0.38253267000E+03 -0.94071315324E+02  0.43830629242E+03  0.81693669820E+02 0.  0.
         24    2    4    4    0    0  0.64422938207E+03  0.11759906711E+02 -0.33888189360E+03  0.73231326581E+03  0.79195892211E+02 0.  0.
         11    1    3    3    0    0 -0.43926151535E+03  0.34314049219E+03  0.31709394321E+03  0.64128359177E+03  0.00000000000E+00 0.  1.
        -11    1    3    3    0    0 -0.31019902369E+02  0.27632271099E+02 -0.50329824050E+00  0.41545517908E+02  0.00000000000E+00 0. -1.
          4    1    6    6  502    0  0.27791340741E+03  0.12975461505E+02 -0.18995878214E+03  0.33688063692E+03  0.00000000000E+00 0. -1.
          3    1    5    5  503    0  0.22853723399E+01 -0.19865449925E+02 -0.20110581467E+02  0.28360086643E+02  0.00000000000E+00 0. -1.
         -4    1    5    5    0  503 -0.17623333669E+03 -0.36266722007E+03 -0.73960733857E+02  0.40994620577E+03  0.00000000000E+00 0.  1.
         -3    1    6    6    0  502  0.36631597466E+03 -0.12155547943E+01 -0.14892311146E+03  0.39543262889E+03  0.00000000000E+00 0.  1.
<mgrwt>
<rscale>  0 0.18497923E+04</rscale>
<asrwt>0</asrwt>
<pdfrwt beam="1">  1        1 0.15152394E+00 0.18497923E+04</pdfrwt>
<pdfrwt beam="2">  1       -1 0.13362201E+00 0.18497923E+04</pdfrwt>
<totfact> 0.69105210E+00</totfact>
</mgrwt>
</event>
<event>
12    1  0.1599266E-007  0.1832323E+04  0.7818608E-02  0.8689297E-01
         -1   -1    0    0    0  501 -0.00000000000E+00  0.00000000000E+00  0.25113203096E+03  0.25113203096E+03  0.00000000000E+00 0.  1.
          1   -1    0    0  501    0  0.00000000000E+00 -0.00000000000E+00 -0.33422748472E+04  0.33422748472E+04  0.00000000000E+00 0. -1.
         23    2    1    2    0    0 -0.89025485103E+01 -0.59191299736E+02  0.17298553831E+03  0.20367701013E+03  0.89316642653E+02 0.  0.
        254    2    1    2    0    0  0.89025485103E+01  0.59191299736E+02 -0.32641283545E+04  0.33897298680E+04  0.91222354603E+03 0.  0.
        -24    2    4    4    0    0 -0.44947448260E+01 -0.21632504955E+03 -0.18154089116E+03  0.29377158386E+03  0.80795535316E+02 0.  0.
         24    2    4    4    0    0  0.13397293336E+02  0.27551634928E+03 -0.30825874634E+04  0.30959582842E+04  0.80768073643E+02 0.  0.
         13    1    3    3    0    0  0.34860764803E+02 -0.16015095634E+01  0.63469832593E+02  0.72431052767E+02  0.00000000000E+00 0. -1.
        -13    1    3    3    0    0 -0.43763313313E+02 -0.57589790173E+02  0.10951570572E+03  0.13124595736E+03  0.00000000000E+00 0.  1.
          4    1    6    6  502    0 -0.31975040564E+02  0.70048129005E+02 -0.83331796774E+03  0.83686795789E+03  0.00000000000E+00 0. -1.
          1    1    5    5  503    0  0.37485464340E+02 -0.80598170038E+02 -0.68936315060E+02  0.11248751302E+03  0.00000000000E+00 0. -1.
         -4    1    5    5    0  503 -0.41980209166E+02 -0.13572687951E+03 -0.11260457610E+03  0.18128407085E+03  0.00000000000E+00 0.  1.
         -3    1    6    6    0  502  0.45372333901E+02  0.20546822028E+03 -0.22492694956E+04  0.22590903263E+04  0.00000000000E+00 0.  1.
<mgrwt>
<rscale>  0 0.18323234E+04</rscale>
<asrwt>0</asrwt>
<pdfrwt beam="1">  1        1 0.51419608E+00 0.18323234E+04</pdfrwt>
<pdfrwt beam="2">  1       -1 0.38635701E-01 0.18323234E+04</pdfrwt>
<totfact> 0.20344987E+00</totfact>
</mgrwt>
</event>
<event>
12    1  0.1599266E-007  0.1956468E+04  0.7818608E-02  0.8627248E-01
          2   -1    0    0  501    0  0.00000000000E+00  0.00000000000E+00  0.12047676985E+04  0.12047676985E+04  0.00000000000E+00 0. -1.
         -2   -1    0    0    0  501 -0.00000000000E+00 -0.00000000000E+00 -0.79429583122E+03  0.79429583122E+03  0.00000000000E+00 0.  1.
         23    2    1    2    0    0 -0.11556455191E+03 -0.75025621264E+03  0.28239239701E+03  0.81508798535E+03  0.91560950767E+02 0.  0.
        254    2    1    2    0    0  0.11556455191E+03  0.75025621264E+03  0.12807947031E+03  0.11839755444E+04  0.89952998215E+03 0.  0.
        -24    2    4    4    0    0  0.37864785580E+03  0.37822407810E+03  0.37662144344E+03  0.65940122305E+03  0.80861667990E+02 0.  0.
         24    2    4    4    0    0 -0.26308330389E+03  0.37203213454E+03 -0.24854197313E+03  0.52457432136E+03  0.76055060974E+02 0.  0.
         13    1    3    3    0    0 -0.10744111299E+01 -0.12959745433E+03  0.79979432334E+02  0.15229367723E+03  0.00000000000E+00 0.  1.
        -13    1    3    3    0    0 -0.11449014078E+03 -0.62065875831E+03  0.20241296467E+03  0.66279430811E+03  0.00000000000E+00 0. -1.
          2    1    6    6  502    0 -0.18031319409E+02  0.72246662196E+02 -0.33266980963E+02  0.81556119945E+02  0.00000000000E+00 0. -1.
          1    1    5    5  503    0  0.11027608945E+02  0.27144958659E+01 -0.22300459706E+01  0.11573666311E+02  0.00000000000E+00 0. -1.
         -2    1    5    5    0  503  0.36762024685E+03  0.37550958223E+03  0.37885148941E+03  0.64782755674E+03  0.00000000000E+00 0.  1.
         -1    1    6    6    0  502 -0.24505198448E+03  0.29978547234E+03 -0.21527499217E+03  0.44301820141E+03  0.00000000000E+00 0.  1.
<mgrwt>
<rscale>  0 0.19564682E+04</rscale>
<asrwt>0</asrwt>
<pdfrwt beam="1">  1        2 0.18534888E+00 0.19564682E+04</pdfrwt>
<pdfrwt beam="2">  1       -2 0.12219936E+00 0.19564682E+04</pdfrwt>
<totfact> 0.89045772E+00</totfact>
</mgrwt>
</event>
<event>
12    1  0.1599266E-007  0.2092590E+04  0.7818608E-02  0.8564514E-01
         -1   -1    0    0    0  501 -0.00000000000E+00  0.00000000000E+00  0.98404485186E+03  0.98404485186E+03  0.00000000000E+00 0.  1.
          1   -1    0    0  501    0  0.00000000000E+00 -0.00000000000E+00 -0.11124833679E+04  0.11124833679E+04  0.00000000000E+00 0. -1.
         23    2    1    2    0    0  0.14550523834E+03  0.55183252572E+03  0.58031091669E+03  0.81930751841E+03  0.93878319463E+02 0.  0.
        254    2    1    2    0    0 -0.14550523834E+03 -0.55183252572E+03 -0.70874943272E+03  0.12772207013E+04  0.89625668797E+03 0.  0.
        -24    2    4    4    0    0 -0.19388754379E+03  0.74761166427E+02  0.10465351243E+03  0.24605334201E+03  0.80051719596E+02 0.  0.
         24    2    4    4    0    0  0.48382305447E+02 -0.62659369214E+03 -0.81340294515E+03  0.10311673593E+04  0.81983347450E+02 0.  0.
         11    1    3    3    0    0  0.35954285624E+01  0.44251363507E+00  0.20562971486E+02  0.20879624546E+02  0.00000000000E+00 0. -1.
        -11    1    3    3    0    0  0.14190980978E+03  0.55139001208E+03  0.55974794520E+03  0.79842789386E+03  0.00000000000E+00 0.  1.
          4    1    6    6  502    0  0.93206574476E+01 -0.11823012480E+03 -0.10526829435E+03  0.15857695564E+03  0.00000000000E+00 0. -1.
          3    1    5    5  503    0 -0.10714676913E+02 -0.14767039847E+02  0.13640181175E+02  0.22779910221E+02  0.00000000000E+00 0. -1.
         -4    1    5    5    0  503 -0.18317286688E+03  0.89528206274E+02  0.91013331252E+02  0.22327343179E+03  0.00000000000E+00 0.  1.
         -3    1    6    6    0  502  0.39061648000E+02 -0.50836356734E+03 -0.70813465080E+03  0.87259040369E+03  0.00000000000E+00 0.  1.
<mgrwt>
<rscale>  0 0.20925903E+04</rscale>
<asrwt>0</asrwt>
<pdfrwt beam="1">  1        1 0.17115129E+00 0.20925903E+04</pdfrwt>
<pdfrwt beam="2">  1       -1 0.15139152E+00 0.20925903E+04</pdfrwt>
<totfact> 0.38858199E+00</totfact>
</mgrwt>
</event>
<event>
12    1  0.1599266E-007  0.1342085E+04  0.7818608E-02  0.8996842E-01
          1   -1    0    0  501    0  0.00000000000E+00  0.00000000000E+00  0.15739752505E+04  0.15739752505E+04  0.00000000000E+00 0. -1.
         -1   -1    0    0    0  501 -0.00000000000E+00 -0.00000000000E+00 -0.28608948000E+03  0.28608948000E+03  0.00000000000E+00 0.  1.
         23    2    1    2    0    0 -0.69225641979E+02  0.14423648763E+03  0.80605320269E+03  0.82731173929E+03  0.95533211678E+02 0.  0.
        254    2    1    2    0    0  0.69225641979E+02 -0.14423648763E+03  0.48183256785E+03  0.10327529913E+04  0.89934407411E+03 0.  0.
        -24    2    4    4    0    0  0.97123964138E+02 -0.51608332586E+03  0.25573359092E+03  0.58962013673E+03  0.80480882679E+02 0.  0.
         24    2    4    4    0    0 -0.27898322160E+02  0.37184683823E+03  0.22609897693E+03  0.44313285453E+03  0.78724785857E+02 0.  0.
         11    1    3    3    0    0 -0.41489949035E+02  0.63700250565E+02  0.59314848324E+03  0.59800021820E+03  0.00000000000E+00 0. -1.
        -11    1    3    3    0    0 -0.27735692943E+02  0.80536237061E+02  0.21290471945E+03  0.22931152109E+03  0.00000000000E+00 0.  1.
          4    1    6    6  502    0 -0.14208247122E+02  0.34928596626E+03  0.22685534059E+03  0.41673241543E+03  0.00000000000E+00 0. -1.
          1    1    5    5  503    0  0.62839916790E+02 -0.46679514567E+03  0.22125120652E+03  0.52038318530E+03  0.00000000000E+00 0. -1.
         -2    1    5    5    0  503  0.34284047349E+02 -0.49288180188E+02  0.34482384399E+02  0.69236951426E+02  0.00000000000E+00 0.  1.
         -3    1    6    6    0  502 -0.13690075037E+02  0.22560871972E+02 -0.75636365916E+00  0.26400439100E+02  0.00000000000E+00 0.  1.
<mgrwt>
<rscale>  0 0.13420846E+04</rscale>
<asrwt>0</asrwt>
<pdfrwt beam="1">  1        1 0.24215003E+00 0.13420846E+04</pdfrwt>
<pdfrwt beam="2">  1       -1 0.44013767E-01 0.13420846E+04</pdfrwt>
<totfact> 0.29069318E+01</totfact>
</mgrwt>
</event>
<event>
12    1  0.1599266E-007  0.1058207E+04  0.7818608E-02  0.9246912E-01
          1   -1    0    0  501    0  0.00000000000E+00  0.00000000000E+00  0.18047858066E+04  0.18047858066E+04  0.00000000000E+00 0. -1.
         -1   -1    0    0    0  501 -0.00000000000E+00 -0.00000000000E+00 -0.15511551242E+03  0.15511551242E+03  0.00000000000E+00 0.  1.
         23    2    1    2    0    0 -0.30065156316E+02 -0.12767421798E+02  0.13087985366E+02  0.91031576194E+02  0.83955534777E+02 0.  0.
        254    2    1    2    0    0  0.30065156316E+02  0.12767421798E+02  0.16365823088E+04  0.18688697428E+04  0.90177909792E+03 0.  0.
        -24    2    4    4    0    0  0.45438033210E+03  0.63841097630E+02  0.91898132897E+03  0.10302641247E+04  0.79876853249E+02 0.  0.
         24    2    4    4    0    0 -0.42431517579E+03 -0.51073675832E+02  0.71760097980E+03  0.83860561809E+03  0.75208561509E+02 0.  0.
         13    1    3    3    0    0  0.30804725138E+01  0.42052375536E+01 -0.32075167450E+02  0.32495995149E+02  0.00000000000E+00 0.  1.
        -13    1    3    3    0    0 -0.33145628830E+02 -0.16972659351E+02  0.45163152815E+02  0.58535581044E+02  0.00000000000E+00 0. -1.
          2    1    6    6  502    0 -0.12185863546E+03 -0.48674621636E+02  0.20399221571E+03  0.24255220036E+03  0.00000000000E+00 0. -1.
          1    1    5    5  503    0  0.66416878386E+02 -0.18506321864E+02  0.12589283700E+03  0.14353637898E+03  0.00000000000E+00 0. -1.
         -2    1    5    5    0  503  0.38796345372E+03  0.82347419494E+02  0.79308849197E+03  0.88672774571E+03  0.00000000000E+00 0.  1.
         -1    1    6    6    0  502 -0.30245654033E+03 -0.23990541963E+01  0.51360876408E+03  0.59605341773E+03  0.00000000000E+00 0.  1.
<mgrwt>
<rscale>  0 0.10582065E+04</rscale>
<asrwt>0</asrwt>
<pdfrwt beam="1">  1        1 0.27765934E+00 0.10582065E+04</pdfrwt>
<pdfrwt beam="2">  1       -1 0.23863926E-01 0.10582065E+04</pdfrwt>
<totfact> 0.61389333E+01</totfact>
</mgrwt>
</event>
<event>
12    1  0.1599266E-007  0.1237748E+04  0.7818608E-02  0.9080443E-01
          4   -1    0    0  501    0  0.00000000000E+00  0.00000000000E+00  0.12519462038E+04  0.12519462038E+04  0.00000000000E+00 0. -1.
         -4   -1    0    0    0  501 -0.00000000000E+00 -0.00000000000E+00 -0.30592753768E+03  0.30592753768E+03  0.00000000000E+00 0.  1.
         23    2    1    2    0    0  0.22098260951E+03  0.13934561874E+03  0.39608889190E+03  0.48281830813E+03  0.89311775321E+02 0.  0.
        254    2    1    2    0    0 -0.22098260951E+03 -0.13934561874E+03  0.54992977424E+03  0.10750554334E+04  0.88604227499E+03 0.  0.
        -24    2    4    4    0    0  0.26520206852E+02  0.31211820343E+03  0.43489329399E+03  0.54155496542E+03  0.77643474484E+02 0.  0.
         24    2    4    4    0    0 -0.24750281636E+03 -0.45146382216E+03  0.11503648025E+03  0.53350046796E+03  0.79448918786E+02 0.  0.
         13    1    3    3    0    0  0.17120466472E+03  0.14034728005E+03  0.35449874701E+03  0.41794468279E+03  0.00000000000E+00 0. -1.
        -13    1    3    3    0    0  0.49777944792E+02 -0.10016613115E+01  0.41590144892E+02  0.64873625344E+02  0.00000000000E+00 0.  1.
          2    1    6    6  502    0 -0.21028571184E+03 -0.42790424396E+03  0.10209785569E+03  0.48759213974E+03  0.00000000000E+00 0. -1.
          3    1    5    5  503    0  0.52830606949E+02  0.19693355944E+03  0.25823731927E+03  0.32902950161E+03  0.00000000000E+00 0. -1.
         -4    1    5    5    0  503 -0.26310400097E+02  0.11518464398E+03  0.17665597472E+03  0.21252546381E+03  0.00000000000E+00 0.  1.
         -1    1    6    6    0  502 -0.37217104521E+02 -0.23559578201E+02  0.12938624562E+02  0.45908328215E+02  0.00000000000E+00 0.  1.
<mgrwt>
<rscale>  0 0.12377477E+04</rscale>
<asrwt>0</asrwt>
<pdfrwt beam="1">  1        4 0.19260711E+00 0.12377477E+04</pdfrwt>
<pdfrwt beam="2">  1       -4 0.47065776E-01 0.12377477E+04</pdfrwt>
<totfact> 0.12683869E+00</totfact>
</mgrwt>
</event>
<event>
12    1  0.1599266E-007  0.1600808E+04  0.7818608E-02  0.8820052E-01
         -2   -1    0    0    0  501 -0.00000000000E+00  0.00000000000E+00  0.73026916591E+03  0.73026916591E+03  0.00000000000E+00 0.  1.
          2   -1    0    0  501    0  0.00000000000E+00 -0.00000000000E+00 -0.87727453982E+03  0.87727453982E+03  0.00000000000E+00 0. -1.
         23    2    1    2    0    0 -0.11273702764E+03  0.46998291511E+03 -0.29590414850E+03  0.57373176830E+03  0.89528202033E+02 0.  0.
        254    2    1    2    0    0  0.11273702764E+03 -0.46998291511E+03  0.14889877460E+03  0.10338119374E+04  0.90166662298E+03 0.  0.
        -24    2    4    4    0    0  0.43959388550E+03 -0.63968813756E+02  0.21970518405E+03  0.50187097620E+03  0.79179009491E+02 0.  0.
         24    2    4    4    0    0 -0.32685685786E+03 -0.40601410135E+03 -0.70806409450E+02  0.53194096123E+03  0.79150379593E+02 0.  0.
         13    1    3    3    0    0 -0.13078945844E+02  0.16285065196E+02  0.33704844422E+01  0.21157087186E+02  0.00000000000E+00 0.  1.
        -13    1    3    3    0    0 -0.99658081797E+02  0.45369784991E+03 -0.29927463295E+03  0.55257468111E+03  0.00000000000E+00 0. -1.
          2    1    6    6  502    0 -0.12422291990E+03 -0.11158959066E+03 -0.48244474748E+02  0.17381340546E+03  0.00000000000E+00 0. -1.
          1    1    5    5  503    0 -0.28808078555E+01 -0.36320913234E+01  0.27401616972E+01  0.53851302128E+01  0.00000000000E+00 0. -1.
         -2    1    5    5    0  503  0.44247469336E+03 -0.60336722432E+02  0.21696502235E+03  0.49648584598E+03  0.00000000000E+00 0.  1.
         -1    1    6    6    0  502 -0.20263393796E+03 -0.29442451069E+03 -0.22561934703E+02  0.35812755578E+03  0.00000000000E+00 0.  1.
<mgrwt>
<rscale>  0 0.16008080E+04</rscale>
<asrwt>0</asrwt>
<pdfrwt beam="1">  1        2 0.13496531E+00 0.16008080E+04</pdfrwt>
<pdfrwt beam="2">  1       -2 0.11234910E+00 0.16008080E+04</pdfrwt>
<totfact> 0.18187763E+01</totfact>
</mgrwt>
</event>
<event>
12    1  0.1599266E-007  0.1926997E+04  0.7818608E-02  0.8641534E-01
         -2   -1    0    0    0  501 -0.00000000000E+00  0.00000000000E+00  0.14691935498E+04  0.14691935498E+04  0.00000000000E+00 0.  1.
          2   -1    0    0  501    0  0.00000000000E+00 -0.00000000000E+00 -0.63186325376E+03  0.63186325376E+03  0.00000000000E+00 0. -1.
         23    2    1    2    0    0  0.70058284994E+03  0.11260260190E+03  0.59395953217E+03  0.92992556477E+03  0.92075808841E+02 0.  0.
        254    2    1    2    0    0 -0.70058284994E+03 -0.11260260190E+03  0.24337076389E+03  0.11711312388E+04  0.89934608144E+03 0.  0.
        -24    2    4    4    0    0 -0.87055028967E+03  0.75920078939E+02  0.20815194731E+03  0.90159507204E+03  0.76972563396E+02 0.  0.
         24    2    4    4    0    0  0.16996743974E+03 -0.18852268084E+03  0.35218816573E+02  0.26953616676E+03  0.83544289995E+02 0.  0.
         11    1    3    3    0    0  0.25602028911E+03  0.73423288445E+02  0.18214112066E+03  0.32266508264E+03  0.00000000000E+00 0. -1.
        -11    1    3    3    0    0  0.44456256083E+03  0.39179313458E+02  0.41181841151E+03  0.60726048212E+03  0.00000000000E+00 0.  1.
          4    1    6    6  502    0  0.94125200836E+02 -0.16101329622E+03  0.22409253863E+02  0.18784836877E+03  0.00000000000E+00 0. -1.
          1    1    5    5  503    0 -0.41897164711E+03  0.69641276187E+02  0.80532276854E+02  0.43228763115E+03  0.00000000000E+00 0. -1.
         -2    1    5    5    0  503 -0.45157864257E+03  0.62788027524E+01  0.12761967046E+03  0.46930744089E+03  0.00000000000E+00 0.  1.
         -3    1    6    6    0  502  0.75842238901E+02 -0.27509384621E+02  0.12809562711E+02  0.81687797991E+02  0.00000000000E+00 0.  1.
<mgrwt>
<rscale>  0 0.19269971E+04</rscale>
<asrwt>0</asrwt>
<pdfrwt beam="1">  1        2 0.97209732E-01 0.19269971E+04</pdfrwt>
<pdfrwt beam="2">  1       -2 0.22602978E+00 0.19269971E+04</pdfrwt>
<totfact> 0.39376883E+00</totfact>
</mgrwt>
</event>
<event>
12    1  0.1599266E-007  0.2599668E+04  0.7818608E-02  0.8368314E-01
          1   -1    0    0  501    0  0.00000000000E+00  0.00000000000E+00  0.13984979336E+04  0.13984979336E+04  0.00000000000E+00 0. -1.
         -1   -1    0    0    0  501 -0.00000000000E+00 -0.00000000000E+00 -0.12081311592E+04  0.12081311592E+04  0.00000000000E+00 0.  1.
         23    2    1    2    0    0  0.12482569133E+03 -0.59401646803E+03 -0.88337147168E+03  0.10757567562E+04  0.92034906875E+02 0.  0.
        254    2    1    2    0    0 -0.12482569133E+03  0.59401646803E+03  0.10737382461E+04  0.15308723366E+04  0.90676307394E+03 0.  0.
        -24    2    4    4    0    0  0.15116814031E+03  0.55979956363E+03  0.10937836332E+04  0.12408833254E+04  0.84861256644E+02 0.  0.
         24    2    4    4    0    0 -0.27599383164E+03  0.34216904393E+02 -0.20045387102E+02  0.28998901120E+03  0.79676956658E+02 0.  0.
         11    1    3    3    0    0  0.11162879675E+03 -0.55399880261E+03 -0.77249902177E+03  0.95714701076E+03  0.00000000000E+00 0. -1.
        -11    1    3    3    0    0  0.13196894582E+02 -0.40017665413E+02 -0.11087244991E+03  0.11860974547E+03  0.00000000000E+00 0.  1.
          2    1    6    6  502    0 -0.12075477914E+03  0.51437517939E+02 -0.25476451273E+02  0.13370334516E+03  0.00000000000E+00 0. -1.
          3    1    5    5  503    0  0.63243161581E+02  0.34081714863E+03  0.71526782468E+03  0.79483588703E+03  0.00000000000E+00 0. -1.
         -2    1    5    5    0  503  0.87924978730E+02  0.21898241500E+03  0.37851580848E+03  0.44604743833E+03  0.00000000000E+00 0.  1.
         -1    1    6    6    0  502 -0.15523905249E+03 -0.17220613546E+02  0.54310641712E+01  0.15628566604E+03  0.00000000000E+00 0.  1.
<mgrwt>
<rscale>  0 0.25996684E+04</rscale>
<asrwt>0</asrwt>
<pdfrwt beam="1">  1        1 0.21515353E+00 0.25996684E+04</pdfrwt>
<pdfrwt beam="2">  1       -1 0.18586633E+00 0.25996684E+04</pdfrwt>
<totfact> 0.12819583E+00</totfact>
</mgrwt>
</event>
<event>
12    1  0.1599266E-007  0.1311460E+04  0.7818608E-02  0.9020526E-01
         -2   -1    0    0    0  501 -0.00000000000E+00  0.00000000000E+00  0.77931724501E+03  0.77931724501E+03  0.00000000000E+00 0.  1.
          2   -1    0    0  501    0  0.00000000000E+00 -0.00000000000E+00 -0.55174169920E+03  0.55174169920E+03  0.00000000000E+00 0. -1.
         23    2    1    2    0    0  0.20171768092E+03 -0.14312352235E+03 -0.17241441162E+03  0.31764910113E+03  0.99999283328E+02 0.  0.
        254    2    1    2    0    0 -0.20171768092E+03  0.14312352235E+03  0.39998995744E+03  0.10134098431E+04  0.89768211443E+03 0.  0.
        -24    2    4    4    0    0 -0.54157741606E+03  0.10101316624E+03  0.13608061998E+03  0.57317663229E+03  0.80645888473E+02 0.  0.
         24    2    4    4    0    0  0.33985973514E+03  0.42110356105E+02  0.26390933745E+03  0.44023321080E+03  0.82941062417E+02 0.  0.
         11    1    3    3    0    0  0.18684667386E+03 -0.15255269084E+03 -0.17731240687E+03  0.29937216411E+03  0.00000000000E+00 0. -1.
        -11    1    3    3    0    0  0.14871007060E+02  0.94291684878E+01  0.48979952443E+01  0.18276937018E+02  0.00000000000E+00 0.  1.
          2    1    6    6  502    0  0.16820409011E+03  0.29462646413E+02  0.18215816395E+03  0.24968432101E+03  0.00000000000E+00 0. -1.
          3    1    5    5  503    0 -0.34231569678E+01  0.10190264586E+02  0.20226409859E+00  0.10751762959E+02  0.00000000000E+00 0. -1.
         -4    1    5    5    0  503 -0.53815425909E+03  0.90822901659E+02  0.13587835588E+03  0.56242486933E+03  0.00000000000E+00 0.  1.
         -1    1    6    6    0  502  0.17165564503E+03  0.12647709692E+02  0.81751173502E+02  0.19054888979E+03  0.00000000000E+00 0.  1.
<mgrwt>
<rscale>  0 0.13114600E+04</rscale>
<asrwt>0</asrwt>
<pdfrwt beam="1">  1        2 0.84883339E-01 0.13114600E+04</pdfrwt>
<pdfrwt beam="2">  1       -2 0.11989496E+00 0.13114600E+04</pdfrwt>
<totfact> 0.28578201E+01</totfact>
</mgrwt>
</event>
<event>
12    1  0.1599266E-007  0.1369568E+04  0.7818608E-02  0.8976146E-01
          1   -1    0    0  501    0  0.00000000000E+00  0.00000000000E+00  0.79863561782E+03  0.79863561782E+03  0.00000000000E+00 0. -1.
         -1   -1    0    0    0  501 -0.00000000000E+00 -0.00000000000E+00 -0.58716252030E+03  0.58716252030E+03  0.00000000000E+00 0.  1.
         23    2    1    2    0    0 -0.24096159328E+03  0.33930375340E+02 -0.20949017797E+03  0.33346974631E+03  0.90012094920E+02 0.  0.
        254    2    1    2    0    0  0.24096159328E+03 -0.33930375340E+02  0.42096327549E+03  0.10523283918E+04  0.93325838067E+03 0.  0.
        -24    2    4    4    0    0  0.43304018768E+03 -0.33523088581E+03  0.93231665655E+02  0.56098527427E+03  0.78158707195E+02 0.  0.
         24    2    4    4    0    0 -0.19207859441E+03  0.30130051047E+03  0.32773160983E+03  0.49134311755E+03  0.79585595650E+02 0.  0.
         11    1    3    3    0    0 -0.14228118538E+03  0.35648559331E+02 -0.69822596333E+02  0.16244983981E+03  0.00000000000E+00 0. -1.
        -11    1    3    3    0    0 -0.98680407897E+02 -0.17181839904E+01 -0.13966758163E+03  0.17101990650E+03  0.00000000000E+00 0.  1.
          2    1    6    6  502    0 -0.25876124524E+02  0.35845761328E+02  0.10256976811E+02  0.45383895810E+02  0.00000000000E+00 0. -1.
          3    1    5    5  503    0  0.84723080624E+02 -0.47965172229E+02 -0.99068762894E+01  0.97861148242E+02  0.00000000000E+00 0. -1.
         -4    1    5    5    0  503  0.34831710706E+03 -0.28726571358E+03  0.10313854194E+03  0.46312412602E+03  0.00000000000E+00 0.  1.
         -1    1    6    6    0  502 -0.16620246988E+03  0.26545474914E+03  0.31747463302E+03  0.44595922174E+03  0.00000000000E+00 0.  1.
<mgrwt>
<rscale>  0 0.13695677E+04</rscale>
<asrwt>0</asrwt>
<pdfrwt beam="1">  1        1 0.12286702E+00 0.13695677E+04</pdfrwt>
<pdfrwt beam="2">  1       -1 0.90332695E-01 0.13695677E+04</pdfrwt>
<totfact> 0.25972343E+01</totfact>
</mgrwt>
</event>
<event>
12    1  0.1599266E-007  0.3261120E+04  0.7818608E-02  0.8172859E-01
         -2   -1    0    0    0  501 -0.00000000000E+00  0.00000000000E+00  0.12550772993E+04  0.12550772993E+04  0.00000000000E+00 0.  1.
          2   -1    0    0  501    0  0.00000000000E+00 -0.00000000000E+00 -0.21183762901E+04  0.21183762901E+04  0.00000000000E+00 0. -1.
         23    2    1    2    0    0  0.22020102883E+03 -0.13950712808E+04  0.99772806960E+02  0.14186401845E+04  0.88729861534E+02 0.  0.
        254    2    1    2    0    0 -0.22020102883E+03  0.13950712808E+04 -0.96307179785E+03  0.19548134049E+04  0.94819607081E+03 0.  0.
        -24    2    4    4    0    0  0.88874361845E+02  0.10033963572E+04 -0.10324321410E+04  0.14446930069E+04  0.80739436740E+02 0.  0.
         24    2    4    4    0    0 -0.30907539068E+03  0.39167492365E+03  0.69360343117E+02  0.51012039807E+03  0.80468132791E+02 0.  0.
         13    1    3    3    0    0  0.83492813836E+01 -0.49495771066E+02 -0.12933943447E+02  0.51834628831E+02  0.00000000000E+00 0. -1.
        -13    1    3    3    0    0  0.21185174745E+03 -0.13455755097E+04  0.11270675041E+03  0.13668055556E+04  0.00000000000E+00 0.  1.
          2    1    6    6  502    0 -0.11422086508E+03  0.12307414810E+03 -0.12381474316E+02  0.16836553346E+03  0.00000000000E+00 0. -1.
          3    1    5    5  503    0 -0.45736440586E+01  0.15818624234E+03 -0.13073071098E+03  0.20526647140E+03  0.00000000000E+00 0. -1.
         -4    1    5    5    0  503  0.93448005904E+02  0.84521011481E+03 -0.90170142998E+03  0.12394265355E+04  0.00000000000E+00 0.  1.
         -1    1    6    6    0  502 -0.19485452560E+03  0.26860077555E+03  0.81741817433E+02  0.34175486462E+03  0.00000000000E+00 0.  1.
<mgrwt>
<rscale>  0 0.32611200E+04</rscale>
<asrwt>0</asrwt>
<pdfrwt beam="1">  1        2 0.32590404E+00 0.32611200E+04</pdfrwt>
<pdfrwt beam="2">  1       -2 0.19308882E+00 0.32611200E+04</pdfrwt>
<totfact> 0.71059907E-01</totfact>
</mgrwt>
</event>
<event>
12    1  0.1599266E-007  0.1958379E+04  0.7818608E-02  0.8626331E-01
          1   -1    0    0  501    0  0.00000000000E+00  0.00000000000E+00  0.56555928546E+03  0.56555928546E+03  0.00000000000E+00 0. -1.
         -1   -1    0    0    0  501 -0.00000000000E+00 -0.00000000000E+00 -0.16953337153E+04  0.16953337153E+04  0.00000000000E+00 0.  1.
         23    2    1    2    0    0 -0.13476964240E+03 -0.70525641297E+02  0.42318667533E+03  0.45969134500E+03  0.95354328153E+02 0.  0.
        254    2    1    2    0    0  0.13476964240E+03  0.70525641297E+02 -0.15529611052E+04  0.18012016558E+04  0.89972356196E+03 0.  0.
        -24    2    4    4    0    0  0.18667899390E+03  0.46291750422E+03 -0.80303944843E+03  0.94951962672E+03  0.87025877244E+02 0.  0.
         24    2    4    4    0    0 -0.51909351496E+02 -0.39239186293E+03 -0.74992165678E+03  0.85168202907E+03  0.79459627963E+02 0.  0.
         11    1    3    3    0    0 -0.74632512813E+02 -0.51710900291E+02  0.12254079784E+03  0.15251320046E+03  0.00000000000E+00 0.  1.
        -11    1    3    3    0    0 -0.60137129589E+02 -0.18814741006E+02  0.30064587749E+03  0.30717814455E+03  0.00000000000E+00 0. -1.
          2    1    6    6  502    0  0.99543423261E+01 -0.78028651335E+02 -0.10139202117E+03  0.12832732101E+03  0.00000000000E+00 0. -1.
          1    1    5    5  503    0  0.48164077169E+01  0.27719673864E+02 -0.17139388766E+02  0.32944449452E+02  0.00000000000E+00 0. -1.
         -2    1    5    5    0  503  0.18186258618E+03  0.43519783036E+03 -0.78590005966E+03  0.91657517727E+03  0.00000000000E+00 0.  1.
         -1    1    6    6    0  502 -0.61863693822E+02 -0.31436321159E+03 -0.64852963561E+03  0.72335470806E+03  0.00000000000E+00 0.  1.
<mgrwt>
<rscale>  0 0.19583786E+04</rscale>
<asrwt>0</asrwt>
<pdfrwt beam="1">  1        1 0.87009123E-01 0.19583786E+04</pdfrwt>
<pdfrwt beam="2">  1       -1 0.26082057E+00 0.19583786E+04</pdfrwt>
<totfact> 0.20575124E+00</totfact>
</mgrwt>
</event>
<event>
12    1  0.1599266E-007  0.2293306E+04  0.7818608E-02  0.8480565E-01
         -2   -1    0    0    0  501 -0.00000000000E+00  0.00000000000E+00  0.69887004053E+03  0.69887004053E+03  0.00000000000E+00 0.  1.
          2   -1    0    0  501    0  0.00000000000E+00 -0.00000000000E+00 -0.18813413037E+04  0.18813413037E+04  0.00000000000E+00 0. -1.
         23    2    1    2    0    0  0.40092667603E+02 -0.18647695598E+03  0.55314842989E+03  0.59212132147E+03  0.90848207177E+02 0.  0.
        254    2    1    2    0    0 -0.40092667603E+02  0.18647695598E+03 -0.17356196931E+04  0.19880900228E+04  0.95065511230E+03 0.  0.
        -24    2    4    4    0    0 -0.47489554365E+03 -0.74193793905E+00 -0.99757601014E+03  0.11076940984E+04  0.79385085214E+02 0.  0.
         24    2    4    4    0    0  0.43480287605E+03  0.18721889392E+03 -0.73804368297E+03  0.88039592441E+03  0.79272003150E+02 0.  0.
         13    1    3    3    0    0  0.33103679784E+02 -0.17165205063E+03  0.38096281794E+03  0.41915742718E+03  0.00000000000E+00 0.  1.
        -13    1    3    3    0    0  0.69889878187E+01 -0.14824905347E+02  0.17218561194E+03  0.17296389429E+03  0.00000000000E+00 0. -1.
          4    1    6    6  502    0  0.43409090443E+03  0.19112286437E+03 -0.72190429225E+03  0.86377582147E+03  0.00000000000E+00 0. -1.
          3    1    5    5  503    0 -0.28785029887E+03 -0.17373007771E+02 -0.68219522567E+03  0.74064157451E+03  0.00000000000E+00 0. -1.
         -4    1    5    5    0  503 -0.18704524478E+03  0.16631069832E+02 -0.31538078447E+03  0.36705252389E+03  0.00000000000E+00 0.  1.
         -3    1    6    6    0  502  0.71197162407E+00 -0.39039704495E+01 -0.16139390719E+02  0.16620102937E+02  0.00000000000E+00 0.  1.
<mgrwt>
<rscale>  0 0.22933060E+04</rscale>
<asrwt>0</asrwt>
<pdfrwt beam="1">  1        2 0.28943712E+00 0.22933060E+04</pdfrwt>
<pdfrwt beam="2">  1       -2 0.10751847E+00 0.22933060E+04</pdfrwt>
<totfact> 0.48978452E+00</totfact>
</mgrwt>
</event>
<event>
12    1  0.1599266E-007  0.1248221E+04  0.7818608E-02  0.9071665E-01
         -2   -1    0    0    0  501 -0.00000000000E+00  0.00000000000E+00  0.13229670623E+03  0.13229670623E+03  0.00000000000E+00 0.  1.
          2   -1    0    0  501    0  0.00000000000E+00 -0.00000000000E+00 -0.29442459143E+04  0.29442459143E+04  0.00000000000E+00 0. -1.
         23    2    1    2    0    0 -0.43710718603E+02  0.27220985115E+03 -0.94263052036E+03  0.98638910974E+03  0.91664321892E+02 0.  0.
        254    2    1    2    0    0  0.43710718603E+02 -0.27220985115E+03 -0.18693186877E+04  0.20901535108E+04  0.89352141130E+03 0.  0.
        -24    2    4    4    0    0  0.37539478825E+03 -0.12456970380E+02 -0.37926219184E+03  0.53959384342E+03  0.79027100041E+02 0.  0.
         24    2    4    4    0    0 -0.33168406965E+03 -0.25975288077E+03 -0.14900564958E+04  0.15505596673E+04  0.80504907046E+02 0.  0.
         13    1    3    3    0    0 -0.30276816741E+02  0.21555038116E+03 -0.58769916963E+03  0.62671282613E+03  0.00000000000E+00 0. -1.
        -13    1    3    3    0    0 -0.13433901862E+02  0.56659469988E+02 -0.35493135073E+03  0.35967628361E+03  0.00000000000E+00 0.  1.
          2    1    6    6  502    0 -0.19697855025E+03 -0.10933511283E+03 -0.85445796043E+03  0.88365894003E+03  0.00000000000E+00 0. -1.
          1    1    5    5  503    0  0.36574478586E+03 -0.23386219185E+02 -0.34936939706E+03  0.50633500692E+03  0.00000000000E+00 0. -1.
         -2    1    5    5    0  503  0.96500023925E+01  0.10929248806E+02 -0.29892794778E+02  0.33258836499E+02  0.00000000000E+00 0.  1.
         -1    1    6    6    0  502 -0.13470551940E+03 -0.15041776793E+03 -0.63559853540E+03  0.66690072730E+03  0.00000000000E+00 0.  1.
<mgrwt>
<rscale>  0 0.12482212E+04</rscale>
<asrwt>0</asrwt>
<pdfrwt beam="1">  1        2 0.45296091E+00 0.12482212E+04</pdfrwt>
<pdfrwt beam="2">  1       -2 0.20353339E-01 0.12482212E+04</pdfrwt>
<totfact> 0.38917774E+01</totfact>
</mgrwt>
</event>
<event>
12    1  0.1599266E-007  0.1689310E+04  0.7818608E-02  0.8767485E-01
         -1   -1    0    0    0  501 -0.00000000000E+00  0.00000000000E+00  0.61704892176E+03  0.61704892176E+03  0.00000000000E+00 0.  1.
          1   -1    0    0  501    0  0.00000000000E+00 -0.00000000000E+00 -0.11562162027E+04  0.11562162027E+04  0.00000000000E+00 0. -1.
         23    2    1    2    0    0  0.37223333921E+03  0.22854658180E+03  0.19613419008E+03  0.48735990610E+03  0.90883764717E+02 0.  0.
        254    2    1    2    0    0 -0.37223333921E+03 -0.22854658180E+03 -0.73530147103E+03  0.12859052184E+04  0.96025662116E+03 0.  0.
        -24    2    4    4    0    0 -0.61453817112E+03 -0.26627331847E+03 -0.21973626265E+03  0.70928170767E+03  0.78980198825E+02 0.  0.
         24    2    4    4    0    0  0.24230483192E+03  0.37726736671E+02 -0.51556520837E+03  0.57662351071E+03  0.80945974469E+02 0.  0.
         11    1    3    3    0    0  0.29621700581E+03  0.21830940961E+03  0.14687273477E+03  0.39620084941E+03  0.00000000000E+00 0.  1.
        -11    1    3    3    0    0  0.76016333399E+02  0.10237172190E+02  0.49261455312E+02  0.91159056694E+02  0.00000000000E+00 0. -1.
          4    1    6    6  502    0  0.23460505961E+03  0.35308236035E+02 -0.43360271396E+03  0.49426462454E+03  0.00000000000E+00 0. -1.
          3    1    5    5  503    0 -0.50703798065E+03 -0.23948614539E+03 -0.20711660779E+03  0.59777789929E+03  0.00000000000E+00 0. -1.
         -2    1    5    5    0  503 -0.10750019047E+03 -0.26787173079E+02 -0.12619654863E+02  0.11150380838E+03  0.00000000000E+00 0.  1.
         -3    1    6    6    0  502  0.76997723138E+01  0.24185006353E+01 -0.81962494414E+02  0.82358886161E+02  0.00000000000E+00 0.  1.
<mgrwt>
<rscale>  0 0.16893099E+04</rscale>
<asrwt>0</asrwt>
<pdfrwt beam="1">  1        1 0.17787941E+00 0.16893099E+04</pdfrwt>
<pdfrwt beam="2">  1       -1 0.94930604E-01 0.16893099E+04</pdfrwt>
<totfact> 0.11758924E+01</totfact>
</mgrwt>
</event>
<event>
12    1  0.1599266E-007  0.2232961E+04  0.7818608E-02  0.8504833E-01
          2   -1    0    0  501    0  0.00000000000E+00  0.00000000000E+00  0.65172888440E+03  0.65172888440E+03  0.00000000000E+00 0. -1.
         -2   -1    0    0    0  501 -0.00000000000E+00 -0.00000000000E+00 -0.19126486225E+04  0.19126486225E+04  0.00000000000E+00 0.  1.
         23    2    1    2    0    0  0.88073849805E+03  0.17551289086E+03 -0.81141621316E+03  0.12146537003E+04  0.10238292717E+03 0.  0.
        254    2    1    2    0    0 -0.88073849805E+03 -0.17551289086E+03 -0.44950352490E+03  0.13497238066E+04  0.90177372906E+03 0.  0.
        -24    2    4    4    0    0 -0.40403060601E+03 -0.52679663973E+03 -0.30623792452E+03  0.73543226575E+03  0.79520568794E+02 0.  0.
         24    2    4    4    0    0 -0.47670789204E+03  0.35128374887E+03 -0.14326560038E+03  0.61429154086E+03  0.78602661352E+02 0.  0.
         11    1    3    3    0    0  0.20800633748E+03  0.32554763466E+02 -0.25005866535E+03  0.32688803155E+03  0.00000000000E+00 0.  1.
        -11    1    3    3    0    0  0.67273216057E+03  0.14295812740E+03 -0.56135754780E+03  0.88776566870E+03  0.00000000000E+00 0. -1.
          2    1    6    6  502    0 -0.29976053810E+03  0.17356735898E+03 -0.75613896523E+02  0.35454121009E+03  0.00000000000E+00 0. -1.
          1    1    5    5  503    0 -0.35404000722E+03 -0.42629857303E+03 -0.27660057174E+03  0.61934051730E+03  0.00000000000E+00 0. -1.
         -2    1    5    5    0  503 -0.49990598785E+02 -0.10049806670E+03 -0.29637352785E+02  0.11609174845E+03  0.00000000000E+00 0.  1.
         -1    1    6    6    0  502 -0.17694735394E+03  0.17771638989E+03 -0.67651703860E+02  0.25975033077E+03  0.00000000000E+00 0.  1.
<mgrwt>
<rscale>  0 0.22329607E+04</rscale>
<asrwt>0</asrwt>
<pdfrwt beam="1">  1        2 0.10026598E+00 0.22329607E+04</pdfrwt>
<pdfrwt beam="2">  1       -2 0.29425363E+00 0.22329607E+04</pdfrwt>
<totfact> 0.14084683E+00</totfact>
</mgrwt>
</event>
<event>
12    1  0.1599266E-007  0.1802401E+04  0.7818608E-02  0.8705024E-01
          2   -1    0    0  501    0  0.00000000000E+00  0.00000000000E+00  0.81370594753E+03  0.81370594753E+03  0.00000000000E+00 0.  1.
         -2   -1    0    0    0  501 -0.00000000000E+00 -0.00000000000E+00 -0.99810266830E+03  0.99810266830E+03  0.00000000000E+00 0. -1.
         23    2    1    2    0    0  0.66855144657E+03 -0.64697079922E+02 -0.57159193320E+02  0.68063361548E+03  0.94064851487E+02 0.  0.
        254    2    1    2    0    0 -0.66855144657E+03  0.64697079922E+02 -0.12723752745E+03  0.11311750003E+04  0.90123290228E+03 0.  0.
        -24    2    4    4    0    0 -0.42757454516E+03 -0.35127099987E+03  0.13882968573E+03  0.57609400779E+03  0.79995732121E+02 0.  0.
         24    2    4    4    0    0 -0.24097690140E+03  0.41596807979E+03 -0.26606721318E+03  0.55508099255E+03  0.78891291953E+02 0.  0.
         11    1    3    3    0    0  0.64503626738E+03 -0.43580858569E+02 -0.57161411173E+02  0.64902889335E+03  0.00000000000E+00 0. -1.
        -11    1    3    3    0    0  0.23515179188E+02 -0.21116221353E+02  0.22178531153E-02  0.31604722138E+02  0.00000000000E+00 0.  1.
          4    1    6    6  502    0 -0.17081563019E+03  0.33750944551E+03 -0.23504720358E+03  0.44535131440E+03  0.00000000000E+00 0. -1.
          1    1    5    5  503    0 -0.21411999839E+03 -0.22731049470E+03  0.77589812504E+02  0.32177261182E+03  0.00000000000E+00 0. -1.
         -2    1    5    5    0  503 -0.21345454677E+03 -0.12396050517E+03  0.61239873226E+02  0.25432139598E+03  0.00000000000E+00 0.  1.
         -3    1    6    6    0  502 -0.70161271214E+02  0.78458634273E+02 -0.31020009599E+02  0.10972967815E+03  0.00000000000E+00 0.  1.
<mgrwt>
<rscale>  0 0.18024007E+04</rscale>
<asrwt>0</asrwt>
<pdfrwt beam="1">  1        2 0.12518553E+00 0.18024007E+04</pdfrwt>
<pdfrwt beam="2">  1       -2 0.15355426E+00 0.18024007E+04</pdfrwt>
<totfact> 0.89433207E+00</totfact>
</mgrwt>
</event>
<event>
12    1  0.1599266E-007  0.1616698E+04  0.7818608E-02  0.8810355E-01
         -1   -1    0    0    0  501 -0.00000000000E+00  0.00000000000E+00  0.80814067265E+03  0.80814067265E+03  0.00000000000E+00 0.  1.
          1   -1    0    0  501    0  0.00000000000E+00 -0.00000000000E+00 -0.80855751530E+03  0.80855751530E+03  0.00000000000E+00 0. -1.
         23    2    1    2    0    0 -0.21323551922E+03 -0.18158005555E+03  0.47720744426E+03  0.56070970756E+03  0.90706824788E+02 0.  0.
        254    2    1    2    0    0  0.21323551922E+03  0.18158005555E+03 -0.47762428691E+03  0.10559884804E+04  0.89919186387E+03 0.  0.
        -24    2    4    4    0    0  0.44240715803E+03  0.40352440867E+03 -0.37561360869E+03  0.71145557805E+03  0.80792417005E+02 0.  0.
         24    2    4    4    0    0 -0.22917163881E+03 -0.22194435312E+03 -0.10201067822E+03  0.34453290234E+03  0.80732932621E+02 0.  0.
         11    1    3    3    0    0 -0.33608484641E+02 -0.68954884822E+02  0.82416675813E+02  0.11259136216E+03  0.00000000000E+00 0. -1.
        -11    1    3    3    0    0 -0.17962703458E+03 -0.11262517073E+03  0.39479076845E+03  0.44811834540E+03  0.00000000000E+00 0.  1.
          2    1    6    6  502    0 -0.21109175254E+03 -0.21014434248E+03 -0.11505466364E+03  0.31930854716E+03  0.00000000000E+00 0. -1.
          1    1    5    5  503    0  0.44117990426E+03  0.39463456524E+03 -0.35821061305E+03  0.69187498243E+03  0.00000000000E+00 0. -1.
         -2    1    5    5    0  503  0.12272537690E+01  0.88898434251E+01 -0.17402995635E+02  0.19580595625E+02  0.00000000000E+00 0.  1.
         -1    1    6    6    0  502 -0.18079886274E+02 -0.11800010640E+02  0.13043985418E+02  0.25224355182E+02  0.00000000000E+00 0.  1.
<mgrwt>
<rscale>  0 0.16166981E+04</rscale>
<asrwt>0</asrwt>
<pdfrwt beam="1">  1        1 0.12439346E+00 0.16166981E+04</pdfrwt>
<pdfrwt beam="2">  1       -1 0.12432933E+00 0.16166981E+04</pdfrwt>
<totfact> 0.11814401E+01</totfact>
</mgrwt>
</event>
<event>
12    1  0.1599266E-007  0.3727338E+04  0.7818608E-02  0.8061930E-01
          1   -1    0    0  501    0  0.00000000000E+00  0.00000000000E+00  0.23439110242E+04  0.23439110242E+04  0.00000000000E+00 0. -1.
         -1   -1    0    0    0  501 -0.00000000000E+00 -0.00000000000E+00 -0.14818232190E+04  0.14818232190E+04  0.00000000000E+00 0.  1.
         23    2    1    2    0    0 -0.47559153290E+03 -0.57881657404E+03  0.20330862942E+04  0.21686222194E+04  0.90920395509E+02 0.  0.
        254    2    1    2    0    0  0.47559153290E+03  0.57881657404E+03 -0.11709984891E+04  0.16571120237E+04  0.90197941505E+03 0.  0.
        -24    2    4    4    0    0  0.17300186918E+03  0.55524031219E+03 -0.17418773546E+03  0.61221508688E+03  0.79022113390E+02 0.  0.
         24    2    4    4    0    0  0.30258966371E+03  0.23576261857E+02 -0.99681075366E+03  0.10448969369E+04  0.77856183760E+02 0.  0.
         13    1    3    3    0    0 -0.20487353775E+03 -0.29348700916E+03  0.86639734210E+03  0.93741780728E+03  0.00000000000E+00 0.  1.
        -13    1    3    3    0    0 -0.27071799515E+03 -0.28532956488E+03  0.11666889521E+04  0.12312044122E+04  0.00000000000E+00 0. -1.
          4    1    6    6  502    0  0.14309742424E+03  0.19752598877E+02 -0.60159889931E+03  0.61869885537E+03  0.00000000000E+00 0. -1.
          3    1    5    5  503    0  0.64600769521E+02  0.18726007206E+03 -0.21206618671E+02  0.19922177262E+03  0.00000000000E+00 0. -1.
         -4    1    5    5    0  503  0.10840109966E+03  0.36798024013E+03 -0.15298111679E+03  0.41299331426E+03  0.00000000000E+00 0.  1.
         -3    1    6    6    0  502  0.15949223947E+03  0.38236629798E+01 -0.39521185435E+03  0.42619808149E+03  0.00000000000E+00 0.  1.
<mgrwt>
<rscale>  0 0.37273378E+04</rscale>
<asrwt>0</asrwt>
<pdfrwt beam="1">  1        1 0.36060170E+00 0.37273378E+04</pdfrwt>
<pdfrwt beam="2">  1       -1 0.22797280E+00 0.37273378E+04</pdfrwt>
<totfact> 0.13533921E-01</totfact>
</mgrwt>
</event>
<event>
12    1  0.1599266E-007  0.2993921E+04  0.7818608E-02  0.8245469E-01
          1   -1    0    0  501    0  0.00000000000E+00  0.00000000000E+00  0.17983253286E+04  0.17983253286E+04  0.00000000000E+00 0. -1.
         -1   -1    0    0    0  501 -0.00000000000E+00 -0.00000000000E+00 -0.12460988507E+04  0.12460988507E+04  0.00000000000E+00 0.  1.
         23    2    1    2    0    0  0.10888665998E+04 -0.78785018879E+03  0.43713755421E+03  0.14162786622E+04  0.91747564438E+02 0.  0.
        254    2    1    2    0    0 -0.10888665998E+04  0.78785018879E+03  0.11508892370E+03  0.16281455171E+04  0.91174227302E+03 0.  0.
        -24    2    4    4    0    0 -0.11612043568E+04  0.84330754337E+03  0.23452019852E+03  0.14560835702E+04  0.74943104963E+02 0.  0.
         24    2    4    4    0    0  0.72337756992E+02 -0.55457354581E+02 -0.11943127482E+03  0.17206194690E+03  0.83864264755E+02 0.  0.
         13    1    3    3    0    0  0.97496621346E+03 -0.71228071801E+03  0.42058310051E+03  0.12785902718E+04  0.00000000000E+00 0.  1.
        -13    1    3    3    0    0  0.11390038637E+03 -0.75569470780E+02  0.16554453705E+02  0.13768839045E+03  0.00000000000E+00 0. -1.
          4    1    6    6  502    0  0.12454406254E+02 -0.56643237264E+02 -0.32461581707E+02  0.66462943433E+02  0.00000000000E+00 0. -1.
          3    1    5    5  503    0 -0.10259331547E+04  0.77343491371E+03  0.21138405488E+03  0.13020843377E+04  0.00000000000E+00 0. -1.
         -4    1    5    5    0  503 -0.13527120209E+03  0.69872629662E+02  0.23136143636E+02  0.15399923257E+03  0.00000000000E+00 0.  1.
         -3    1    6    6    0  502  0.59883350738E+02  0.11858826829E+01 -0.86969693115E+02  0.10559900347E+03  0.00000000000E+00 0.  1.
<mgrwt>
<rscale>  0 0.29939213E+04</rscale>
<asrwt>0</asrwt>
<pdfrwt beam="1">  1        1 0.27666543E+00 0.29939213E+04</pdfrwt>
<pdfrwt beam="2">  1       -1 0.19170752E+00 0.29939213E+04</pdfrwt>
<totfact> 0.59789828E-01</totfact>
</mgrwt>
</event>
<event>
12    1  0.1599266E-007  0.1291468E+04  0.7818608E-02  0.9036358E-01
          1   -1    0    0  501    0  0.00000000000E+00  0.00000000000E+00  0.40086633798E+03  0.40086633798E+03  0.00000000000E+00 0.  1.
         -1   -1    0    0    0  501 -0.00000000000E+00 -0.00000000000E+00 -0.10401783984E+04  0.10401783984E+04  0.00000000000E+00 0. -1.
         23    2    1    2    0    0 -0.71492221974E+02  0.30565691452E+03 -0.14957530156E+03  0.35891003809E+03  0.88917700214E+02 0.  0.
        254    2    1    2    0    0  0.71492221974E+02 -0.30565691452E+03 -0.48973675891E+03  0.10821346983E+04  0.91248897261E+03 0.  0.
        -24    2    4    4    0    0  0.42664925865E+03 -0.39895008754E+03 -0.29584191545E+03  0.65937667129E+03  0.77874215547E+02 0.  0.
         24    2    4    4    0    0 -0.35515703668E+03  0.93293173022E+02 -0.19389484346E+03  0.42275802705E+03  0.79303229967E+02 0.  0.
         13    1    3    3    0    0 -0.89555363572E+02  0.27509413833E+03 -0.12208400397E+03  0.31400868158E+03  0.00000000000E+00 0.  1.
        -13    1    3    3    0    0  0.18063141598E+02  0.30562776194E+02 -0.27491297591E+02  0.44901356509E+02  0.00000000000E+00 0. -1.
          4    1    6    6  502    0 -0.24160262626E+02 -0.11810797361E+02 -0.47560859375E+01  0.27309953824E+02  0.00000000000E+00 0. -1.
          1    1    5    5  503    0  0.17350185142E+03 -0.17611799877E+03 -0.16704256565E+03  0.29836833055E+03  0.00000000000E+00 0. -1.
         -2    1    5    5    0  503  0.25314740723E+03 -0.22283208877E+03 -0.12879934980E+03  0.36100834074E+03  0.00000000000E+00 0.  1.
         -3    1    6    6    0  502 -0.33099677405E+03  0.10510397038E+03 -0.18913875752E+03  0.39544807323E+03  0.00000000000E+00 0.  1.
<mgrwt>
<rscale>  0 0.12914682E+04</rscale>
<asrwt>0</asrwt>
<pdfrwt beam="1">  1        1 0.61671745E-01 0.12914682E+04</pdfrwt>
<pdfrwt beam="2">  1       -1 0.16002745E+00 0.12914682E+04</pdfrwt>
<totfact> 0.17179817E+01</totfact>
</mgrwt>
</event>
<event>
12    1  0.1599266E-007  0.1347090E+04  0.7818608E-02  0.8993034E-01
         -2   -1    0    0    0  501 -0.00000000000E+00  0.00000000000E+00  0.65592342330E+03  0.65592342330E+03  0.00000000000E+00 0.  1.
          2   -1    0    0  501    0  0.00000000000E+00 -0.00000000000E+00 -0.69164025602E+03  0.69164025602E+03  0.00000000000E+00 0. -1.
         23    2    1    2    0    0 -0.39990464843E+01 -0.25908445820E+03 -0.26648327834E+03  0.38862006359E+03  0.11345248933E+03 0.  0.
        254    2    1    2    0    0  0.39990464843E+01  0.25908445820E+03  0.23076644561E+03  0.95894361573E+03  0.89396809612E+03 0.  0.
        -24    2    4    4    0    0 -0.19191383806E+03  0.43039559666E+03  0.41254474527E+03  0.63171953443E+03  0.82493105551E+02 0.  0.
         24    2    4    4    0    0  0.19591288454E+03 -0.17131113847E+03 -0.18177829966E+03  0.32722408130E+03  0.79390708939E+02 0.  0.
         13    1    3    3    0    0  0.14555014917E+01 -0.88226827575E+02 -0.17197161940E+03  0.19328820312E+03  0.00000000000E+00 0. -1.
        -13    1    3    3    0    0 -0.54545479760E+01 -0.17085763062E+03 -0.94511658939E+02  0.19533186046E+03  0.00000000000E+00 0.  1.
          4    1    6    6  502    0  0.18065337411E+02 -0.32795041805E+02  0.31149605071E+00  0.37442865977E+02  0.00000000000E+00 0. -1.
          1    1    5    5  503    0 -0.46460471605E+02  0.43618805766E+02  0.72882966868E+02  0.96814784499E+02  0.00000000000E+00 0. -1.
         -2    1    5    5    0  503 -0.14545336645E+03  0.38677679090E+03  0.33966177840E+03  0.53490474993E+03  0.00000000000E+00 0.  1.
         -3    1    6    6    0  502  0.17784754713E+03 -0.13851609666E+03 -0.18208979571E+03  0.28978121532E+03  0.00000000000E+00 0.  1.
<mgrwt>
<rscale>  0 0.13470903E+04</rscale>
<asrwt>0</asrwt>
<pdfrwt beam="1">  1        2 0.10640619E+00 0.13470903E+04</pdfrwt>
<pdfrwt beam="2">  1       -2 0.10091130E+00 0.13470903E+04</pdfrwt>
<totfact> 0.32862181E+01</totfact>
</mgrwt>
</event>
<event>
12    1  0.1599266E-007  0.2043128E+04  0.7818608E-02  0.8586718E-01
          2   -1    0    0  501    0  0.00000000000E+00  0.00000000000E+00  0.36955396640E+04  0.36955396640E+04  0.00000000000E+00 0. -1.
         -2   -1    0    0    0  501 -0.00000000000E+00 -0.00000000000E+00 -0.28239271290E+03  0.28239271290E+03  0.00000000000E+00 0.  1.
         23    2    1    2    0    0  0.59497776647E+03  0.38778639775E+03  0.58193086694E+03  0.92282614092E+03  0.92669949842E+02 0.  0.
        254    2    1    2    0    0 -0.59497776647E+03 -0.38778639775E+03  0.28312160841E+04  0.30551062359E+04  0.90194942486E+03 0.  0.
        -24    2    4    4    0    0 -0.11279358528E+03  0.10108203163E+03  0.18325676040E+04  0.18405519039E+04  0.79920696156E+02 0.  0.
         24    2    4    4    0    0 -0.48218418119E+03 -0.48886842938E+03  0.99864848015E+03  0.12145543321E+04  0.79683830403E+02 0.  0.
         13    1    3    3    0    0  0.41221834838E+03  0.30866185316E+03  0.45051623572E+03  0.68422290592E+03  0.00000000000E+00 0.  1.
        -13    1    3    3    0    0  0.18275941809E+03  0.79124544592E+02  0.13141463122E+03  0.23860323501E+03  0.00000000000E+00 0. -1.
          2    1    6    6  502    0 -0.29368132370E+02 -0.24905337953E+02  0.29287048167E+02  0.48378654878E+02  0.00000000000E+00 0. -1.
          1    1    5    5  503    0  0.39786559805E+01 -0.69717484767E+01  0.32873626762E+02  0.33839478671E+02  0.00000000000E+00 0. -1.
         -2    1    5    5    0  503 -0.11677224126E+03  0.10805378011E+03  0.17996939772E+04  0.18067124252E+04  0.00000000000E+00 0.  1.
         -1    1    6    6    0  502 -0.45281604882E+03 -0.46396309143E+03  0.96936143199E+03  0.11661756772E+04  0.00000000000E+00 0.  1.
<mgrwt>
<rscale>  0 0.20431285E+04</rscale>
<asrwt>0</asrwt>
<pdfrwt beam="1">  1        2 0.56854453E+00 0.20431285E+04</pdfrwt>
<pdfrwt beam="2">  1       -2 0.43445035E-01 0.20431285E+04</pdfrwt>
<totfact> 0.27541115E+00</totfact>
</mgrwt>
</event>
<event>
12    1  0.1599266E-007  0.1021732E+04  0.7818608E-02  0.9285025E-01
          1   -1    0    0  501    0  0.00000000000E+00  0.00000000000E+00  0.33092282154E+04  0.33092282154E+04  0.00000000000E+00 0. -1.
         -1   -1    0    0    0  501 -0.00000000000E+00 -0.00000000000E+00 -0.78865574353E+02  0.78865574353E+02  0.00000000000E+00 0.  1.
         23    2    1    2    0    0  0.40645989066E+02 -0.65254139598E+02  0.27510936299E+03  0.29904837679E+03  0.88513111407E+02 0.  0.
        254    2    1    2    0    0 -0.40645989066E+02  0.65254139598E+02  0.29552532780E+04  0.30890454129E+04  0.89597401008E+03 0.  0.
        -24    2    4    4    0    0 -0.39129766516E+03  0.40890782248E+02  0.71541295843E+03  0.82028078269E+03  0.79113478785E+02 0.  0.
         24    2    4    4    0    0  0.35065167609E+03  0.24363357350E+02  0.22398403196E+04  0.22687646302E+04  0.82813761362E+02 0.  0.
         11    1    3    3    0    0  0.89666663906E+01  0.22190582462E+02  0.48107655252E+02  0.53732388277E+02  0.00000000000E+00 0.  1.
        -11    1    3    3    0    0  0.31679322676E+02 -0.87444722060E+02  0.22700170774E+03  0.24531598851E+03  0.00000000000E+00 0. -1.
          4    1    6    6  502    0  0.33653545628E+03  0.34148870692E+02  0.21917420186E+04  0.22176914426E+04  0.00000000000E+00 0. -1.
          1    1    5    5  503    0 -0.15286468467E+03 -0.20439319419E+02  0.24941806128E+03  0.29324860936E+03  0.00000000000E+00 0. -1.
         -2    1    5    5    0  503 -0.23843298049E+03  0.61330101668E+02  0.46599489715E+03  0.52703217333E+03  0.00000000000E+00 0.  1.
         -3    1    6    6    0  502  0.14116219814E+02 -0.97855133428E+01  0.48098300975E+02  0.51073187583E+02  0.00000000000E+00 0.  1.
<mgrwt>
<rscale>  0 0.10217322E+04</rscale>
<asrwt>0</asrwt>
<pdfrwt beam="1">  1        1 0.50911192E+00 0.10217322E+04</pdfrwt>
<pdfrwt beam="2">  1       -1 0.12133168E-01 0.10217322E+04</pdfrwt>
<totfact> 0.16789181E+01</totfact>
</mgrwt>
</event>
<event>
12    1  0.1599266E-007  0.2251907E+04  0.7818608E-02  0.8497129E-01
         -1   -1    0    0    0  501 -0.00000000000E+00  0.00000000000E+00  0.66538558092E+03  0.66538558092E+03  0.00000000000E+00 0.  1.
          1   -1    0    0  501    0  0.00000000000E+00 -0.00000000000E+00 -0.19053176757E+04  0.19053176757E+04  0.00000000000E+00 0. -1.
         23    2    1    2    0    0 -0.60354224856E+03 -0.60025149670E+03 -0.10155640541E+04  0.13282831615E+04  0.91655355659E+02 0.  0.
        254    2    1    2    0    0  0.60354224856E+03  0.60025149670E+03 -0.22436804069E+03  0.12424200951E+04  0.87675627734E+03 0.  0.
        -24    2    4    4    0    0  0.19839278874E+03  0.56331341759E+02 -0.46779000835E+03  0.51725498628E+03  0.78691233555E+02 0.  0.
         24    2    4    4    0    0  0.40514945982E+03  0.54392015494E+03  0.24342196766E+03  0.72516510878E+03  0.81332409978E+02 0.  0.
         11    1    3    3    0    0 -0.38199057081E+02 -0.17943462322E+02 -0.31210617814E+02  0.52490365462E+02  0.00000000000E+00 0.  1.
        -11    1    3    3    0    0 -0.56534319148E+03 -0.58230803438E+03 -0.98435343627E+03  0.12757927961E+04  0.00000000000E+00 0. -1.
          2    1    6    6  502    0  0.10716163576E+03  0.16463509559E+03  0.10801308423E+03  0.22417662064E+03  0.00000000000E+00 0. -1.
          3    1    5    5  503    0 -0.27549686572E+01  0.13130023629E+02 -0.46774319172E+02  0.48660294973E+02  0.00000000000E+00 0. -1.
         -4    1    5    5    0  503  0.20114775740E+03  0.43201318129E+02 -0.42101568917E+03  0.46859469131E+03  0.00000000000E+00 0.  1.
         -1    1    6    6    0  502  0.29798782406E+03  0.37928505935E+03  0.13540888343E+03  0.50098848814E+03  0.00000000000E+00 0.  1.
<mgrwt>
<rscale>  0 0.22519067E+04</rscale>
<asrwt>0</asrwt>
<pdfrwt beam="1">  1        1 0.29312580E+00 0.22519067E+04</pdfrwt>
<pdfrwt beam="2">  1       -1 0.10236701E+00 0.22519067E+04</pdfrwt>
<totfact> 0.28317811E+00</totfact>
</mgrwt>
</event>
<event>
12    1  0.1599266E-007  0.1192852E+04  0.7818608E-02  0.9119136E-01
         -1   -1    0    0    0  501 -0.00000000000E+00  0.00000000000E+00  0.40278999259E+03  0.40278999259E+03  0.00000000000E+00 0.  1.
          1   -1    0    0  501    0  0.00000000000E+00 -0.00000000000E+00 -0.88315062486E+03  0.88315062486E+03  0.00000000000E+00 0. -1.
         23    2    1    2    0    0  0.20504414847E+03 -0.80537930027E+02 -0.20620454709E+03  0.31568427320E+03  0.92772755220E+02 0.  0.
        254    2    1    2    0    0 -0.20504414847E+03  0.80537930027E+02 -0.27415608517E+03  0.97025634425E+03  0.90427117256E+03 0.  0.
        -24    2    4    4    0    0  0.11152654954E+03  0.18416116240E+03 -0.50662945847E+03  0.55633485551E+03  0.80508125591E+02 0.  0.
         24    2    4    4    0    0 -0.31657069800E+03 -0.10362323237E+03  0.23247337330E+03  0.41392148873E+03  0.79576054318E+02 0.  0.
         11    1    3    3    0    0  0.10850977863E+03 -0.82489245714E+02 -0.15495015589E+03  0.20636956783E+03  0.00000000000E+00 0. -1.
        -11    1    3    3    0    0  0.96534369836E+02  0.19513156873E+01 -0.51254391208E+02  0.10931470537E+03  0.00000000000E+00 0.  1.
          4    1    6    6  502    0 -0.18472732288E+03 -0.75858749529E+02  0.18154048555E+03  0.26988086556E+03  0.00000000000E+00 0. -1.
          3    1    5    5  503    0  0.11575703697E+03  0.18903650901E+03 -0.50069157829E+03  0.54756419707E+03  0.00000000000E+00 0. -1.
         -4    1    5    5    0  503 -0.42304874287E+01 -0.48753466142E+01 -0.59378801789E+01  0.87706584423E+01  0.00000000000E+00 0.  1.
         -3    1    6    6    0  502 -0.13184337512E+03 -0.27764482842E+02  0.50932887747E+02  0.14404062318E+03  0.00000000000E+00 0.  1.
<mgrwt>
<rscale>  0 0.11928524E+04</rscale>
<asrwt>0</asrwt>
<pdfrwt beam="1">  1        1 0.13586933E+00 0.11928524E+04</pdfrwt>
<pdfrwt beam="2">  1       -1 0.61967691E-01 0.11928524E+04</pdfrwt>
<totfact> 0.49146775E+01</totfact>
</mgrwt>
</event>
<event>
12    1  0.1599266E-007  0.2586508E+04  0.7818608E-02  0.8372799E-01
         -1   -1    0    0    0  501 -0.00000000000E+00  0.00000000000E+00  0.96867984321E+03  0.96867984321E+03  0.00000000000E+00 0.  1.
          1   -1    0    0  501    0  0.00000000000E+00 -0.00000000000E+00 -0.17265823918E+04  0.17265823918E+04  0.00000000000E+00 0. -1.
         23    2    1    2    0    0 -0.92072790374E+03  0.35134114656E+03 -0.91358845143E+03  0.13468089084E+04  0.89832640051E+02 0.  0.
        254    2    1    2    0    0  0.92072790374E+03 -0.35134114656E+03  0.15568590285E+03  0.13484533266E+04  0.90714265673E+03 0.  0.
        -24    2    4    4    0    0  0.83619305838E+03 -0.61660994294E+03  0.62046083915E+02  0.10439781091E+04  0.81326030417E+02 0.  0.
         24    2    4    4    0    0  0.84534845360E+02  0.26526879638E+03  0.93639818933E+02  0.30447521745E+03  0.80144044921E+02 0.  0.
         13    1    3    3    0    0 -0.26239757618E+02  0.26155788469E+02 -0.24825912580E+02  0.44597938133E+02  0.00000000000E+00 0. -1.
        -13    1    3    3    0    0 -0.89448814612E+03  0.32518535809E+03 -0.88876253885E+03  0.13022109703E+04  0.00000000000E+00 0.  1.
          2    1    6    6  502    0 -0.18884721155E+00  0.12050166955E+01 -0.87650725264E+01  0.88495324678E+01  0.00000000000E+00 0. -1.
          1    1    5    5  503    0  0.75428425853E+03 -0.53947588787E+03  0.76699472024E+02  0.93051694518E+03  0.00000000000E+00 0. -1.
         -2    1    5    5    0  503  0.81908799848E+02 -0.77134055071E+02 -0.14653388109E+02  0.11346116396E+03  0.00000000000E+00 0.  1.
         -1    1    6    6    0  502  0.84723692571E+02  0.26406377969E+03  0.10240489146E+03  0.29562568498E+03  0.00000000000E+00 0.  1.
<mgrwt>
<rscale>  0 0.25865077E+04</rscale>
<asrwt>0</asrwt>
<pdfrwt beam="1">  1        1 0.26562806E+00 0.25865077E+04</pdfrwt>
<pdfrwt beam="2">  1       -1 0.14902767E+00 0.25865077E+04</pdfrwt>
<totfact> 0.14311332E+00</totfact>
</mgrwt>
</event>
<event>
12    1  0.1599266E-007  0.1566362E+04  0.7818608E-02  0.8841484E-01
          1   -1    0    0  501    0  0.00000000000E+00  0.00000000000E+00  0.91029439524E+03  0.91029439524E+03  0.00000000000E+00 0. -1.
         -1   -1    0    0    0  501 -0.00000000000E+00 -0.00000000000E+00 -0.67381768049E+03  0.67381768049E+03  0.00000000000E+00 0.  1.
         23    2    1    2    0    0 -0.34988517843E+03 -0.18982194279E+03  0.42081500403E+03  0.58606722051E+03  0.89092711813E+02 0.  0.
        254    2    1    2    0    0  0.34988517843E+03  0.18982194279E+03 -0.18433828928E+03  0.99804485521E+03  0.89647137159E+03 0.  0.
        -24    2    4    4    0    0 -0.17621456865E+03  0.18030704409E+03 -0.35209042394E+03  0.44023876304E+03  0.79248328029E+02 0.  0.
         24    2    4    4    0    0  0.52609974708E+03  0.95148986977E+01  0.16775213466E+03  0.55780609217E+03  0.78328670394E+02 0.  0.
         13    1    3    3    0    0 -0.35212085342E+03 -0.19467296110E+03  0.41727370362E+03  0.57965852096E+03  0.00000000000E+00 0. -1.
        -13    1    3    3    0    0  0.22356749864E+01  0.48510183150E+01  0.35413004098E+01  0.64086995506E+01  0.00000000000E+00 0.  1.
          4    1    6    6  502    0  0.36014126629E+03  0.19325207198E+02  0.78456878664E+02  0.36909440137E+03  0.00000000000E+00 0. -1.
          1    1    5    5  503    0 -0.84712384090E+02  0.94188421806E+02 -0.11127223646E+03  0.16860948202E+03  0.00000000000E+00 0. -1.
         -2    1    5    5    0  503 -0.91502184560E+02  0.86118622283E+02 -0.24081818748E+03  0.27162928101E+03  0.00000000000E+00 0.  1.
         -3    1    6    6    0  502  0.16595848080E+03 -0.98103085004E+01  0.89295255999E+02  0.18871169080E+03  0.00000000000E+00 0.  1.
<mgrwt>
<rscale>  0 0.15663620E+04</rscale>
<asrwt>0</asrwt>
<pdfrwt beam="1">  1        1 0.14004529E+00 0.15663620E+04</pdfrwt>
<pdfrwt beam="2">  1       -1 0.10366426E+00 0.15663620E+04</pdfrwt>
<totfact> 0.15065817E+01</totfact>
</mgrwt>
</event>
<event>
12    1  0.1599266E-007  0.1597911E+04  0.7818608E-02  0.8821832E-01
         -1   -1    0    0    0  501 -0.00000000000E+00  0.00000000000E+00  0.44075048229E+03  0.44075048229E+03  0.00000000000E+00 0.  1.
          1   -1    0    0  501    0  0.00000000000E+00 -0.00000000000E+00 -0.14482799972E+04  0.14482799972E+04  0.00000000000E+00 0. -1.
         23    2    1    2    0    0 -0.11825155942E+02 -0.11948599600E+03  0.27574216640E+03  0.31479343632E+03  0.92975414302E+02 0.  0.
        254    2    1    2    0    0  0.11825155942E+02  0.11948599600E+03 -0.12832716813E+04  0.15742370432E+04  0.90389121164E+03 0.  0.
        -24    2    4    4    0    0  0.31399012077E+03  0.18680320391E+03 -0.16064851536E+03  0.40694219367E+03  0.79427769518E+02 0.  0.
         24    2    4    4    0    0 -0.30216496483E+03 -0.67317207910E+02 -0.11226231660E+04  0.11672948495E+04  0.80369275719E+02 0.  0.
         11    1    3    3    0    0 -0.23547150752E+02 -0.19094413083E+02  0.12459913533E+02  0.32776735115E+02  0.00000000000E+00 0. -1.
        -11    1    3    3    0    0  0.11721994810E+02 -0.10039158292E+03  0.26328225287E+03  0.28201670121E+03  0.00000000000E+00 0.  1.
          4    1    6    6  502    0 -0.18236855971E+03 -0.39268164384E+01 -0.58042065650E+03  0.60840927833E+03  0.00000000000E+00 0. -1.
          1    1    5    5  503    0  0.21654337660E+03  0.14072633078E+03 -0.74012446840E+02  0.26864991422E+03  0.00000000000E+00 0. -1.
         -2    1    5    5    0  503  0.97446744170E+02  0.46076873135E+02 -0.86636068523E+02  0.13829227945E+03  0.00000000000E+00 0.  1.
         -3    1    6    6    0  502 -0.11979640512E+03 -0.63390391472E+02 -0.54220250945E+03  0.55888557117E+03  0.00000000000E+00 0.  1.
<mgrwt>
<rscale>  0 0.15979113E+04</rscale>
<asrwt>0</asrwt>
<pdfrwt beam="1">  1        1 0.22281231E+00 0.15979113E+04</pdfrwt>
<pdfrwt beam="2">  1       -1 0.67807766E-01 0.15979113E+04</pdfrwt>
<totfact> 0.15020071E+01</totfact>
</mgrwt>
</event>
<event>
12    1  0.1599266E-007  0.1743596E+04  0.7818608E-02  0.8736883E-01
         -2   -1    0    0    0  501 -0.00000000000E+00  0.00000000000E+00  0.17532536338E+04  0.17532536338E+04  0.00000000000E+00 0.  1.
          2   -1    0    0  501    0  0.00000000000E+00 -0.00000000000E+00 -0.43349768475E+03  0.43349768475E+03  0.00000000000E+00 0. -1.
         23    2    1    2    0    0 -0.13536433094E+03 -0.62324430648E+03  0.49199874845E+03  0.81134648963E+03  0.97279957373E+02 0.  0.
        254    2    1    2    0    0  0.13536433094E+03  0.62324430648E+03  0.82775720065E+03  0.13754048290E+04  0.89431509696E+03 0.  0.
        -24    2    4    4    0    0 -0.15915606284E+03 -0.14334151087E+03  0.36908492450E+02  0.23243962657E+03  0.82392366785E+02 0.  0.
         24    2    4    4    0    0  0.29452039378E+03  0.76658581736E+03  0.79084870820E+03  0.11429652024E+04  0.80818914228E+02 0.  0.
         13    1    3    3    0    0 -0.10584417684E+03 -0.50939562084E+03  0.44523130750E+03  0.68477573371E+03  0.00000000000E+00 0. -1.
        -13    1    3    3    0    0 -0.29520154095E+02 -0.11384868565E+03  0.46767440945E+02  0.12657075592E+03  0.00000000000E+00 0.  1.
          4    1    6    6  502    0  0.32907642569E+02  0.56689068921E+02  0.38613444552E+02  0.76076024967E+02  0.00000000000E+00 0. -1.
          1    1    5    5  503    0  0.26102043305E+00 -0.81875744105E+01  0.21344380345E+02  0.22862350682E+02  0.00000000000E+00 0. -1.
         -2    1    5    5    0  503 -0.15941708328E+03 -0.13515393646E+03  0.15564112105E+02  0.20957727589E+03  0.00000000000E+00 0.  1.
         -3    1    6    6    0  502  0.26161275121E+03  0.70989674844E+03  0.75223526365E+03  0.10668891774E+04  0.00000000000E+00 0.  1.
<mgrwt>
<rscale>  0 0.17435956E+04</rscale>
<asrwt>0</asrwt>
<pdfrwt beam="1">  1        2 0.66691952E-01 0.17435956E+04</pdfrwt>
<pdfrwt beam="2">  1       -2 0.26973133E+00 0.17435956E+04</pdfrwt>
<totfact> 0.33509242E+00</totfact>
</mgrwt>
</event>
<event>
12    1  0.1599266E-007  0.4109462E+04  0.7818608E-02  0.7982821E-01
          1   -1    0    0  501    0  0.00000000000E+00  0.00000000000E+00  0.24604978484E+04  0.24604978484E+04  0.00000000000E+00 0. -1.
         -1   -1    0    0    0  501 -0.00000000000E+00 -0.00000000000E+00 -0.17158802946E+04  0.17158802946E+04  0.00000000000E+00 0.  1.
         23    2    1    2    0    0 -0.18284482295E+04  0.67707840661E+03  0.35904976285E+03  0.19844540101E+04  0.86503696346E+02 0.  0.
        254    2    1    2    0    0  0.18284482295E+04 -0.67707840661E+03  0.38556779101E+03  0.21919241329E+04  0.92423524400E+03 0.  0.
        -24    2    4    4    0    0  0.18197344354E+04 -0.50658114903E+03  0.15983634595E+03  0.18973634519E+04  0.79890769667E+02 0.  0.
         24    2    4    4    0    0  0.87137940475E+01 -0.17049725758E+03  0.22573144506E+03  0.29456068098E+03  0.81645970139E+02 0.  0.
         11    1    3    3    0    0 -0.45832651404E+03  0.16805513632E+03  0.51986760124E+02  0.49092600822E+03  0.00000000000E+00 0.  1.
        -11    1    3    3    0    0 -0.13701217154E+04  0.50902327029E+03  0.30706300273E+03  0.14935280019E+04  0.00000000000E+00 0. -1.
          4    1    6    6  502    0  0.24043368005E+02 -0.11503045847E+03  0.19900109096E+03  0.23110933370E+03  0.00000000000E+00 0. -1.
          1    1    5    5  503    0  0.14793057173E+04 -0.43776648120E+03  0.11215318581E+03  0.15467912705E+04  0.00000000000E+00 0. -1.
         -2    1    5    5    0  503  0.34042871809E+03 -0.68814667837E+02  0.47683160141E+02  0.35057218140E+03  0.00000000000E+00 0.  1.
         -3    1    6    6    0  502 -0.15329573958E+02 -0.55466799107E+02  0.26730354107E+02  0.63451347280E+02  0.00000000000E+00 0.  1.
<mgrwt>
<rscale>  0 0.41094621E+04</rscale>
<asrwt>0</asrwt>
<pdfrwt beam="1">  1        1 0.37853813E+00 0.41094621E+04</pdfrwt>
<pdfrwt beam="2">  1       -1 0.26398158E+00 0.41094621E+04</pdfrwt>
<totfact> 0.63277066E-02</totfact>
</mgrwt>
</event>
<event>
12    1  0.1599266E-007  0.1646425E+04  0.7818608E-02  0.8792524E-01
          2   -1    0    0  501    0  0.00000000000E+00  0.00000000000E+00  0.59855138073E+03  0.59855138073E+03  0.00000000000E+00 0.  1.
         -2   -1    0    0    0  501 -0.00000000000E+00 -0.00000000000E+00 -0.11321985456E+04  0.11321985456E+04  0.00000000000E+00 0. -1.
         23    2    1    2    0    0 -0.14557882580E+03 -0.36189527520E+03 -0.58889630622E+03  0.71165593550E+03  0.86567466868E+02 0.  0.
        254    2    1    2    0    0  0.14557882580E+03  0.36189527520E+03  0.55249141308E+02  0.10190939909E+04  0.93986100561E+03 0.  0.
        -24    2    4    4    0    0  0.52109700983E+03  0.12148937655E+03 -0.78805396726E+02  0.54664230818E+03  0.79408817348E+02 0.  0.
         24    2    4    4    0    0 -0.37551818403E+03  0.24040589865E+03  0.13405453803E+03  0.47245168268E+03  0.80193956535E+02 0.  0.
         13    1    3    3    0    0 -0.71776785872E+02 -0.16756682523E+03 -0.19944969816E+03  0.27020497776E+03  0.00000000000E+00 0.  1.
        -13    1    3    3    0    0 -0.73802039932E+02 -0.19432844997E+03 -0.38944660806E+03  0.44145095775E+03  0.00000000000E+00 0. -1.
          2    1    6    6  502    0 -0.10672859892E+03  0.63200432137E+02  0.86000671508E+00  0.12404042914E+03  0.00000000000E+00 0. -1.
          1    1    5    5  503    0  0.12853755905E+02  0.17445288021E+02  0.13113606228E+01  0.21708910191E+02  0.00000000000E+00 0. -1.
         -2    1    5    5    0  503  0.50824325393E+03  0.10404408853E+03 -0.80116757349E+02  0.52493339799E+03  0.00000000000E+00 0.  1.
         -1    1    6    6    0  502 -0.26878958511E+03  0.17720546651E+03  0.13319453132E+03  0.34841125354E+03  0.00000000000E+00 0.  1.
<mgrwt>
<rscale>  0 0.16464252E+04</rscale>
<asrwt>0</asrwt>
<pdfrwt beam="1">  1        2 0.92084827E-01 0.16464252E+04</pdfrwt>
<pdfrwt beam="2">  1       -2 0.17418439E+00 0.16464252E+04</pdfrwt>
<totfact> 0.94540594E+00</totfact>
</mgrwt>
</event>
<event>
12    1  0.1599266E-007  0.1964924E+04  0.7818608E-02  0.8623198E-01
          2   -1    0    0  501    0  0.00000000000E+00  0.00000000000E+00  0.13617884925E+04  0.13617884925E+04  0.00000000000E+00 0. -1.
         -2   -1    0    0    0  501 -0.00000000000E+00 -0.00000000000E+00 -0.70879720643E+03  0.70879720643E+03  0.00000000000E+00 0.  1.
         23    2    1    2    0    0  0.39265209056E+03 -0.16641517935E+03 -0.41998751768E+03  0.60533918292E+03  0.90423090175E+02 0.  0.
        254    2    1    2    0    0 -0.39265209056E+03  0.16641517935E+03  0.10729788038E+04  0.14652465161E+04  0.90210540584E+03 0.  0.
        -24    2    4    4    0    0 -0.64310906394E+03  0.28134491583E+03  0.83141484754E+03  0.10910690697E+04  0.80229897335E+02 0.  0.
         24    2    4    4    0    0  0.25045697339E+03 -0.11492973649E+03  0.24156395626E+03  0.37417744632E+03  0.75617964276E+02 0.  0.
         11    1    3    3    0    0  0.25258331523E+03 -0.60806794800E+02 -0.23348251652E+03  0.34929913104E+03  0.00000000000E+00 0. -1.
        -11    1    3    3    0    0  0.14006877533E+03 -0.10560838455E+03 -0.18650500117E+03  0.25604005188E+03  0.00000000000E+00 0.  1.
          2    1    6    6  502    0  0.15873593379E+03 -0.10343282556E+03  0.13243088575E+03  0.23115662565E+03  0.00000000000E+00 0. -1.
          3    1    5    5  503    0 -0.40859834596E+03  0.20875767496E+03  0.58187328344E+03  0.74101882105E+03  0.00000000000E+00 0. -1.
         -4    1    5    5    0  503 -0.23451071798E+03  0.72587240878E+02  0.24954156411E+03  0.35005024868E+03  0.00000000000E+00 0.  1.
         -1    1    6    6    0  502  0.91721039592E+02 -0.11496910921E+02  0.10913307052E+03  0.14302082067E+03  0.00000000000E+00 0.  1.
<mgrwt>
<rscale>  0 0.19649243E+04</rscale>
<asrwt>0</asrwt>
<pdfrwt beam="1">  1        2 0.20950592E+00 0.19649243E+04</pdfrwt>
<pdfrwt beam="2">  1       -2 0.10904572E+00 0.19649243E+04</pdfrwt>
<totfact> 0.95179773E+00</totfact>
</mgrwt>
</event>
<event>
12    1  0.1599266E-007  0.1212559E+04  0.7818608E-02  0.9101934E-01
         -1   -1    0    0    0  501 -0.00000000000E+00  0.00000000000E+00  0.15235450662E+04  0.15235450662E+04  0.00000000000E+00 0.  1.
          1   -1    0    0  501    0  0.00000000000E+00 -0.00000000000E+00 -0.24126296650E+03  0.24126296650E+03  0.00000000000E+00 0. -1.
         23    2    1    2    0    0 -0.65990887974E+02  0.24615297112E+03  0.23065497576E+03  0.35939341144E+03  0.10495629500E+03 0.  0.
        254    2    1    2    0    0  0.65990887974E+02 -0.24615297112E+03  0.10516271239E+04  0.14054146212E+04  0.89684143934E+03 0.  0.
        -24    2    4    4    0    0  0.37531844418E+03 -0.39874780686E+03  0.79205061448E+03  0.96630126251E+03  0.80809690159E+02 0.  0.
         24    2    4    4    0    0 -0.30932755621E+03  0.15259483575E+03  0.25957650944E+03  0.43911335871E+03  0.80447850311E+02 0.  0.
         13    1    3    3    0    0 -0.84281398726E+02  0.21627853587E+03  0.16437815530E+03  0.28442914265E+03  0.00000000000E+00 0.  1.
        -13    1    3    3    0    0  0.18290510753E+02  0.29874435247E+02  0.66276820465E+02  0.74964268794E+02  0.00000000000E+00 0. -1.
          2    1    6    6  502    0 -0.30819564989E+02 -0.90953782750E+01  0.23884127194E+02  0.40037769967E+02  0.00000000000E+00 0. -1.
          3    1    5    5  503    0  0.91743793626E+01  0.21285170093E+01  0.67094900124E+01  0.11563610058E+02  0.00000000000E+00 0. -1.
         -4    1    5    5    0  503  0.36614406482E+03 -0.40087632387E+03  0.78534112446E+03  0.95473765246E+03  0.00000000000E+00 0.  1.
         -1    1    6    6    0  502 -0.27850799122E+03  0.16169021402E+03  0.23569238225E+03  0.39907558874E+03  0.00000000000E+00 0.  1.
<mgrwt>
<rscale>  0 0.12125593E+04</rscale>
<asrwt>0</asrwt>
<pdfrwt beam="1">  1        1 0.37117380E-01 0.12125593E+04</pdfrwt>
<pdfrwt beam="2">  1       -1 0.23439154E+00 0.12125593E+04</pdfrwt>
<totfact> 0.10183478E+01</totfact>
</mgrwt>
</event>
<event>
12    1  0.1599266E-007  0.1446541E+04  0.7818608E-02  0.8920802E-01
         -2   -1    0    0    0  501 -0.00000000000E+00  0.00000000000E+00  0.15049273901E+04  0.15049273901E+04  0.00000000000E+00 0. -1.
          2   -1    0    0  501    0  0.00000000000E+00 -0.00000000000E+00 -0.34760517889E+03  0.34760517889E+03  0.00000000000E+00 0.  1.
         23    2    1    2    0    0 -0.19706848290E+03 -0.79277848100E+02  0.86430685917E+03  0.89482767265E+03  0.92570258605E+02 0.  0.
        254    2    1    2    0    0  0.19706848290E+03  0.79277848100E+02  0.29301535205E+03  0.95770489634E+03  0.88669031109E+03 0.  0.
        -24    2    4    4    0    0 -0.77896405301E+02  0.42903600650E+03  0.23512781161E+03  0.50169855802E+03  0.79225062237E+02 0.  0.
         24    2    4    4    0    0  0.27496488820E+03 -0.34975815840E+03  0.57887540437E+02  0.45600633832E+03  0.81574224734E+02 0.  0.
         11    1    3    3    0    0 -0.11425449008E+03 -0.52996672883E+02  0.67343665711E+03  0.68511288631E+03  0.00000000000E+00 0. -1.
        -11    1    3    3    0    0 -0.82813992816E+02 -0.26281175217E+02  0.19087020205E+03  0.20971478634E+03  0.00000000000E+00 0.  1.
          2    1    6    6  502    0  0.89371738332E+02 -0.17840416244E+03  0.31915958149E+02  0.20207419720E+03  0.00000000000E+00 0. -1.
          3    1    5    5  503    0 -0.88536897511E+02  0.36879284470E+03  0.22082101550E+03  0.43887226548E+03  0.00000000000E+00 0. -1.
         -4    1    5    5    0  503  0.10640492210E+02  0.60243161806E+02  0.14306796112E+02  0.62826292536E+02  0.00000000000E+00 0.  1.
         -1    1    6    6    0  502  0.18559314987E+03 -0.17135399596E+03  0.25971582287E+02  0.25393214113E+03  0.00000000000E+00 0.  1.
<mgrwt>
<rscale>  0 0.14465415E+04</rscale>
<asrwt>0</asrwt>
<pdfrwt beam="1">  1        2 0.53477721E-01 0.14465415E+04</pdfrwt>
<pdfrwt beam="2">  1       -2 0.23152729E+00 0.14465415E+04</pdfrwt>
<totfact> 0.75547690E+00</totfact>
</mgrwt>
</event>
<event>
12    1  0.1599266E-007  0.1094547E+04  0.7818608E-02  0.9210523E-01
         -2   -1    0    0    0  501 -0.00000000000E+00  0.00000000000E+00  0.66830058179E+02  0.66830058179E+02  0.00000000000E+00 0.  1.
          2   -1    0    0  501    0  0.00000000000E+00 -0.00000000000E+00 -0.44816430382E+04  0.44816430382E+04  0.00000000000E+00 0. -1.
         23    2    1    2    0    0  0.94892127641E+01 -0.10999305429E+03 -0.12076046291E+04  0.12163959685E+04  0.95507564807E+02 0.  0.
        254    2    1    2    0    0 -0.94892127641E+01  0.10999305429E+03 -0.32072083509E+04  0.33320771278E+04  0.89686345807E+03 0.  0.
        -24    2    4    4    0    0 -0.40914741428E+03 -0.80440495418E+02 -0.19823604492E+04  0.20271815201E+04  0.76417832759E+02 0.  0.
         24    2    4    4    0    0  0.39965820151E+03  0.19043354971E+03 -0.12248479017E+04  0.13048956077E+04  0.80675583036E+02 0.  0.
         13    1    3    3    0    0 -0.29391539692E+02 -0.87283691498E+02 -0.98414090219E+03  0.98844100521E+03  0.00000000000E+00 0. -1.
        -13    1    3    3    0    0  0.38880752456E+02 -0.22709362790E+02 -0.22346372687E+03  0.22795496331E+03  0.00000000000E+00 0.  1.
          4    1    6    6  502    0  0.23833583355E+03  0.11995574090E+03 -0.84734109621E+03  0.88835819502E+03  0.00000000000E+00 0. -1.
          1    1    5    5  503    0 -0.36528866452E+03 -0.52045303572E+02 -0.18029084703E+04  0.18402780970E+04  0.00000000000E+00 0. -1.
         -2    1    5    5    0  503 -0.43858749756E+02 -0.28395191847E+02 -0.17945197894E+03  0.18690342318E+03  0.00000000000E+00 0.  1.
         -3    1    6    6    0  502  0.16132236797E+03  0.70477808806E+02 -0.37750680554E+03  0.41653741269E+03  0.00000000000E+00 0.  1.
<mgrwt>
<rscale>  0 0.10945473E+04</rscale>
<asrwt>0</asrwt>
<pdfrwt beam="1">  1        2 0.68948392E+00 0.10945473E+04</pdfrwt>
<pdfrwt beam="2">  1       -2 0.10281542E-01 0.10945473E+04</pdfrwt>
<totfact> 0.89590073E+00</totfact>
</mgrwt>
</event>
<event>
12    1  0.1599266E-007  0.1378660E+04  0.7818608E-02  0.8969412E-01
         -1   -1    0    0    0  501 -0.00000000000E+00  0.00000000000E+00  0.13159522848E+04  0.13159522848E+04  0.00000000000E+00 0.  1.
          1   -1    0    0  501    0  0.00000000000E+00 -0.00000000000E+00 -0.36108875968E+03  0.36108875968E+03  0.00000000000E+00 0. -1.
         23    2    1    2    0    0  0.18507269633E+03 -0.18777900784E+03 -0.73734072527E+02  0.28891513332E+03  0.92316748766E+02 0.  0.
        254    2    1    2    0    0 -0.18507269633E+03  0.18777900784E+03  0.10285975976E+04  0.13881259111E+04  0.89407363713E+03 0.  0.
        -24    2    4    4    0    0 -0.16509994142E+03 -0.34246612179E+03  0.51410090302E+03  0.64461699611E+03  0.81794241584E+02 0.  0.
         24    2    4    4    0    0 -0.19972754908E+02  0.53024512963E+03  0.51449669459E+03  0.74350891501E+03  0.80869336122E+02 0.  0.
         11    1    3    3    0    0  0.15662266188E+03 -0.18744508405E+03 -0.44810492382E+02  0.24834310536E+03  0.00000000000E+00 0.  1.
        -11    1    3    3    0    0  0.28450034447E+02 -0.33392378373E+00 -0.28923580145E+02  0.40572027969E+02  0.00000000000E+00 0. -1.
          4    1    6    6  502    0 -0.42481650632E+02  0.21137581201E+03  0.23460451748E+03  0.31862784587E+03  0.00000000000E+00 0. -1.
          1    1    5    5  503    0 -0.39549024577E+01 -0.34265957245E+02  0.88527359435E+02  0.95009949205E+02  0.00000000000E+00 0. -1.
         -2    1    5    5    0  503 -0.16114503896E+03 -0.30820016455E+03  0.42557354359E+03  0.54960704691E+03  0.00000000000E+00 0.  1.
         -3    1    6    6    0  502  0.22508895724E+02  0.31886931762E+03  0.27989217710E+03  0.42488106914E+03  0.00000000000E+00 0.  1.
<mgrwt>
<rscale>  0 0.13786596E+04</rscale>
<asrwt>0</asrwt>
<pdfrwt beam="1">  1        1 0.55552118E-01 0.13786596E+04</pdfrwt>
<pdfrwt beam="2">  1       -1 0.20245419E+00 0.13786596E+04</pdfrwt>
<totfact> 0.97168580E+00</totfact>
</mgrwt>
</event>
<event>
12    1  0.1887486E-007  0.2486340E+04  0.7818608E-02  0.8407868E-01
         -2   -1    0    0    0  501 -0.00000000000E+00  0.00000000000E+00  0.79600988262E+03  0.79600988262E+03  0.00000000000E+00 0.  1.
          2   -1    0    0  501    0  0.00000000000E+00 -0.00000000000E+00 -0.19415229918E+04  0.19415229918E+04  0.00000000000E+00 0. -1.
         23    2    1    2    0    0  0.93491676565E+03 -0.51853569961E+03 -0.65201518163E+03  0.12554274839E+04  0.89586493770E+02 0.  0.
        254    2    1    2    0    0 -0.93491676565E+03  0.51853569961E+03 -0.49349792758E+03  0.14821053905E+04  0.90008197049E+03 0.  0.
        -24    2    4    4    0    0 -0.66199664573E+02 -0.13818792065E+03  0.13792454846E+03  0.22084209082E+03  0.79181759300E+02 0.  0.
         24    2    4    4    0    0 -0.86871710108E+03  0.65672362026E+03 -0.63142247604E+03  0.12612632997E+04  0.78329131138E+02 0.  0.
         13    1    3    3    0    0  0.60555962970E+02 -0.51961010222E+02 -0.69735813352E+02  0.10597195336E+03  0.00000000000E+00 0. -1.
        -13    1    3    3    0    0  0.87436080268E+03 -0.46657468939E+03 -0.58227936827E+03  0.11494555306E+04  0.00000000000E+00 0.  1.
          4    1    6    6  502    0 -0.14566027881E+03  0.12846680352E+03 -0.83079567215E+02  0.21124121501E+03  0.00000000000E+00 0. -1.
          1    1    5    5  503    0 -0.35972338545E+01 -0.72556257250E+01 -0.10496873903E+02  0.13257773486E+02  0.00000000000E+00 0. -1.
         -2    1    5    5    0  503 -0.62602430719E+02 -0.13093229492E+03  0.14842142237E+03  0.20758431733E+03  0.00000000000E+00 0.  1.
         -3    1    6    6    0  502 -0.72305682227E+03  0.52825681674E+03 -0.54834290883E+03  0.10500220847E+04  0.00000000000E+00 0.  1.
<mgrwt>
<rscale>  0 0.24863399E+04</rscale>
<asrwt>0</asrwt>
<pdfrwt beam="1">  1        2 0.29869584E+00 0.24863399E+04</pdfrwt>
<pdfrwt beam="2">  1       -2 0.12246306E+00 0.24863399E+04</pdfrwt>
<totfact> 0.32454322E+00</totfact>
</mgrwt>
</event>
<event>
12    1  0.1599266E-007  0.2575471E+04  0.7818608E-02  0.8376581E-01
          2   -1    0    0  501    0  0.00000000000E+00  0.00000000000E+00  0.14858103161E+04  0.14858103161E+04  0.00000000000E+00 0. -1.
         -2   -1    0    0    0  501 -0.00000000000E+00 -0.00000000000E+00 -0.11160661116E+04  0.11160661116E+04  0.00000000000E+00 0.  1.
         23    2    1    2    0    0 -0.49718051137E+03 -0.76968403532E+03  0.82220927366E+03  0.12344881969E+04  0.91274550266E+02 0.  0.
        254    2    1    2    0    0  0.49718051137E+03  0.76968403532E+03 -0.45246506909E+03  0.13673882308E+04  0.90852845844E+03 0.  0.
        -24    2    4    4    0    0  0.19902866169E+03  0.81573233913E+03 -0.58673224694E+03  0.10274724852E+04  0.80083213224E+02 0.  0.
         24    2    4    4    0    0  0.29815184968E+03 -0.46048303808E+02  0.13426717785E+03  0.33991574554E+03  0.80622994653E+02 0.  0.
         13    1    3    3    0    0 -0.38338942964E+03 -0.56657125037E+03  0.56213735440E+03  0.88543144383E+03  0.00000000000E+00 0. -1.
        -13    1    3    3    0    0 -0.11379108173E+03 -0.20311278495E+03  0.26007191926E+03  0.34905675309E+03  0.00000000000E+00 0.  1.
          4    1    6    6  502    0  0.28501696147E+03 -0.28882040686E+02  0.13799733857E+03  0.31798129827E+03  0.00000000000E+00 0. -1.
          3    1    5    5  503    0  0.89778798964E+02  0.22618128180E+03 -0.18613854031E+03  0.30637519672E+03  0.00000000000E+00 0. -1.
         -4    1    5    5    0  503  0.10924986273E+03  0.58955105733E+03 -0.40059370663E+03  0.72109728851E+03  0.00000000000E+00 0.  1.
         -3    1    6    6    0  502  0.13134888208E+02 -0.17166263122E+02 -0.37301607189E+01  0.21934447265E+02  0.00000000000E+00 0.  1.
<mgrwt>
<rscale>  0 0.25754709E+04</rscale>
<asrwt>0</asrwt>
<pdfrwt beam="1">  1        2 0.22858620E+00 0.25754709E+04</pdfrwt>
<pdfrwt beam="2">  1       -2 0.17170248E+00 0.25754709E+04</pdfrwt>
<totfact> 0.23760479E+00</totfact>
</mgrwt>
</event>
<event>
12    1  0.1599266E-007  0.2510677E+04  0.7818608E-02  0.8399192E-01
          1   -1    0    0  501    0  0.00000000000E+00  0.00000000000E+00  0.14567013337E+04  0.14567013337E+04  0.00000000000E+00 0. -1.
         -1   -1    0    0    0  501 -0.00000000000E+00 -0.00000000000E+00 -0.10818100836E+04  0.10818100836E+04  0.00000000000E+00 0.  1.
         23    2    1    2    0    0 -0.57899254499E+03  0.22924456165E+03 -0.74349789482E+03  0.97430834265E+03  0.93285533411E+02 0.  0.
        254    2    1    2    0    0  0.57899254499E+03 -0.22924456165E+03  0.11183891450E+04  0.15642030746E+04  0.89897249279E+03 0.  0.
        -24    2    4    4    0    0 -0.21949896396E+03 -0.49957687575E+02  0.42924984660E+03  0.49137195989E+03  0.80718067538E+02 0.  0.
         24    2    4    4    0    0  0.79849150896E+03 -0.17928687407E+03  0.68913929837E+03  0.10728311147E+04  0.79505691975E+02 0.  0.
         11    1    3    3    0    0 -0.16468957302E+03  0.80750658900E+02 -0.15970720999E+03  0.24320714894E+03  0.00000000000E+00 0. -1.
        -11    1    3    3    0    0 -0.41430297198E+03  0.14849390275E+03 -0.58379068483E+03  0.73110119371E+03  0.00000000000E+00 0.  1.
          4    1    6    6  502    0  0.37688608611E+03 -0.85370160535E+02  0.37736999196E+03  0.54012896335E+03  0.00000000000E+00 0. -1.
          3    1    5    5  503    0 -0.16024268459E+02 -0.18750096753E+02  0.15198606485E+02  0.28971381517E+02  0.00000000000E+00 0. -1.
         -4    1    5    5    0  503 -0.20347469550E+03 -0.31207590822E+02  0.41405124012E+03  0.46240057837E+03  0.00000000000E+00 0.  1.
         -3    1    6    6    0  502  0.42160542285E+03 -0.93916713540E+02  0.31176930641E+03  0.53270215137E+03  0.00000000000E+00 0.  1.
<mgrwt>
<rscale>  0 0.25106766E+04</rscale>
<asrwt>0</asrwt>
<pdfrwt beam="1">  1        1 0.22410790E+00 0.25106766E+04</pdfrwt>
<pdfrwt beam="2">  1       -1 0.16643232E+00 0.25106766E+04</pdfrwt>
<totfact> 0.16273671E+00</totfact>
</mgrwt>
</event>
<event>
12    1  0.1599266E-007  0.3047769E+04  0.7818608E-02  0.8230220E-01
         -2   -1    0    0    0  501 -0.00000000000E+00  0.00000000000E+00  0.17197944166E+04  0.17197944166E+04  0.00000000000E+00 0.  1.
          2   -1    0    0  501    0  0.00000000000E+00 -0.00000000000E+00 -0.13502912131E+04  0.13502912131E+04  0.00000000000E+00 0. -1.
         23    2    1    2    0    0  0.84254374362E+03  0.10275851508E+04 -0.27181782725E+03  0.13591167973E+04  0.86616023398E+02 0.  0.
        254    2    1    2    0    0 -0.84254374362E+03 -0.10275851508E+04  0.64132103078E+03  0.17109688324E+04  0.86620464021E+03 0.  0.
        -24    2    4    4    0    0 -0.66430282214E+02 -0.13791492345E+03  0.48835449531E+03  0.51776981607E+03  0.78498158220E+02 0.  0.
         24    2    4    4    0    0 -0.77611346140E+03 -0.88967022738E+03  0.15296653547E+03  0.11931990163E+04  0.80373584402E+02 0.  0.
         11    1    3    3    0    0  0.35666129467E+03  0.44867558838E+03 -0.16018655858E+03  0.59512754622E+03  0.00000000000E+00 0. -1.
        -11    1    3    3    0    0  0.48588244895E+03  0.57890956245E+03 -0.11163126867E+03  0.76398925113E+03  0.00000000000E+00 0.  1.
          2    1    6    6  502    0 -0.15328567979E+03 -0.19879128692E+03  0.62105801962E+02  0.25859544857E+03  0.00000000000E+00 0. -1.
          3    1    5    5  503    0  0.15532503186E+02 -0.76300747090E+01  0.66387118760E+02  0.68605584558E+02  0.00000000000E+00 0. -1.
         -4    1    5    5    0  503 -0.81962785401E+02 -0.13028484874E+03  0.42196737654E+03  0.44916423151E+03  0.00000000000E+00 0.  1.
         -1    1    6    6    0  502 -0.62282778161E+03 -0.69087894046E+03  0.90860733509E+02  0.93460356773E+03  0.00000000000E+00 0.  1.
<mgrwt>
<rscale>  0 0.30477686E+04</rscale>
<asrwt>0</asrwt>
<pdfrwt beam="1">  1        2 0.20773711E+00 0.30477686E+04</pdfrwt>
<pdfrwt beam="2">  1       -2 0.26458376E+00 0.30477686E+04</pdfrwt>
<totfact> 0.68931623E-01</totfact>
</mgrwt>
</event>
<event>
12    1  0.1599266E-007  0.1340503E+04  0.7818608E-02  0.8998048E-01
          1   -1    0    0  501    0  0.00000000000E+00  0.00000000000E+00  0.50180096704E+03  0.50180096704E+03  0.00000000000E+00 0. -1.
         -1   -1    0    0    0  501 -0.00000000000E+00 -0.00000000000E+00 -0.89524980051E+03  0.89524980051E+03  0.00000000000E+00 0.  1.
         23    2    1    2    0    0 -0.13780031288E+03  0.32319405047E+03 -0.63473555437E+02  0.36868659924E+03  0.91965187585E+02 0.  0.
        254    2    1    2    0    0  0.13780031288E+03 -0.32319405047E+03 -0.32997527803E+03  0.10283641683E+04  0.90840842030E+03 0.  0.
        -24    2    4    4    0    0  0.45936475844E+03 -0.42055687674E+03 -0.19947006664E+03  0.65893469247E+03  0.80762327695E+02 0.  0.
         24    2    4    4    0    0 -0.32156444556E+03  0.97362826273E+02 -0.13050521139E+03  0.36942947585E+03  0.81014287854E+02 0.  0.
         13    1    3    3    0    0 -0.14498874391E+03  0.27110615371E+03 -0.36531018644E+02  0.30960425993E+03  0.00000000000E+00 0.  1.
        -13    1    3    3    0    0  0.71884310328E+01  0.52087896759E+02 -0.26942536793E+02  0.59082339310E+02  0.00000000000E+00 0. -1.
          4    1    6    6  502    0 -0.61729800619E+02 -0.52251030626E+01 -0.21204010766E+01  0.61986821883E+02  0.00000000000E+00 0. -1.
          3    1    5    5  503    0  0.24047593706E+03 -0.21399978244E+03 -0.14511042078E+03  0.35310284254E+03  0.00000000000E+00 0. -1.
         -4    1    5    5    0  503  0.21888882138E+03 -0.20655709430E+03 -0.54359645866E+02  0.30583184993E+03  0.00000000000E+00 0.  1.
         -1    1    6    6    0  502 -0.25983464494E+03  0.10258792934E+03 -0.12838481031E+03  0.30744265397E+03  0.00000000000E+00 0.  1.
<mgrwt>
<rscale>  0 0.13405032E+04</rscale>
<asrwt>0</asrwt>
<pdfrwt beam="1">  1        1 0.77200149E-01 0.13405032E+04</pdfrwt>
<pdfrwt beam="2">  1       -1 0.13773074E+00 0.13405032E+04</pdfrwt>
<totfact> 0.18900331E+01</totfact>
</mgrwt>
</event>
<event>
12    1  0.1599266E-007  0.1449483E+04  0.7818608E-02  0.8918759E-01
         -1   -1    0    0    0  501 -0.00000000000E+00  0.00000000000E+00  0.15329216131E+04  0.15329216131E+04  0.00000000000E+00 0.  1.
          1   -1    0    0  501    0  0.00000000000E+00 -0.00000000000E+00 -0.34264637212E+03  0.34264637212E+03  0.00000000000E+00 0. -1.
         23    2    1    2    0    0 -0.47786724209E+02 -0.22842864481E+03  0.85911140910E+03  0.89488934742E+03  0.91056653188E+02 0.  0.
        254    2    1    2    0    0  0.47786724209E+02  0.22842864481E+03  0.33116383190E+03  0.98067863783E+03  0.89308336137E+03 0.  0.
        -24    2    4    4    0    0 -0.24272956395E+03  0.31671635161E+03  0.48331472092E+03  0.63188897803E+03  0.80396968193E+02 0.  0.
         24    2    4    4    0    0  0.29051628816E+03 -0.88287706797E+02 -0.15215088902E+03  0.34878965980E+03  0.79434884626E+02 0.  0.
         13    1    3    3    0    0 -0.58515564717E+02 -0.22602497067E+03  0.75698342959E+03  0.79217123866E+03  0.00000000000E+00 0.  1.
        -13    1    3    3    0    0  0.10728840508E+02 -0.24036741391E+01  0.10212797951E+03  0.10271810876E+03  0.00000000000E+00 0. -1.
          2    1    6    6  502    0  0.28874992474E+03 -0.77665076059E+02 -0.15611671731E+03  0.33731411548E+03  0.00000000000E+00 0. -1.
          3    1    5    5  503    0 -0.14986256156E+03  0.23760800329E+03  0.37641415127E+03  0.46968496235E+03  0.00000000000E+00 0. -1.
         -4    1    5    5    0  503 -0.92867002399E+02  0.79108348322E+02  0.10690056965E+03  0.16220401568E+03  0.00000000000E+00 0.  1.
         -1    1    6    6    0  502  0.17663634222E+01 -0.10622630738E+02  0.39658282879E+01  0.11475544325E+02  0.00000000000E+00 0.  1.
<mgrwt>
<rscale>  0 0.14494827E+04</rscale>
<asrwt>0</asrwt>
<pdfrwt beam="1">  1        1 0.52714827E-01 0.14494827E+04</pdfrwt>
<pdfrwt beam="2">  1       -1 0.23583409E+00 0.14494827E+04</pdfrwt>
<totfact> 0.61804984E+00</totfact>
</mgrwt>
</event>
<event>
12    1  0.1599266E-007  0.1646076E+04  0.7818608E-02  0.8792731E-01
         -1   -1    0    0    0  501 -0.00000000000E+00  0.00000000000E+00  0.33723366545E+03  0.33723366545E+03  0.00000000000E+00 0.  1.
          1   -1    0    0  501    0  0.00000000000E+00 -0.00000000000E+00 -0.20086716245E+04  0.20086716245E+04  0.00000000000E+00 0. -1.
         23    2    1    2    0    0  0.24452146802E+03  0.53047169414E+03 -0.10468165839E+04  0.12021327443E+04  0.90040036373E+02 0.  0.
        254    2    1    2    0    0 -0.24452146802E+03 -0.53047169414E+03 -0.62462137522E+03  0.11437725456E+04  0.75952143300E+03 0.  0.
        -24    2    4    4    0    0 -0.24295810052E+03  0.82097034026E+02 -0.47186334765E+01  0.26859712192E+03  0.79709389651E+02 0.  0.
         24    2    4    4    0    0 -0.15633674981E+01 -0.61256872817E+03 -0.61990274175E+03  0.87517542373E+03  0.80060740835E+02 0.  0.
         11    1    3    3    0    0  0.24152487190E+03  0.51535853166E+03 -0.10394216189E+04  0.11850426076E+04  0.00000000000E+00 0. -1.
        -11    1    3    3    0    0  0.29965961116E+01  0.15113162479E+02 -0.73949649814E+01  0.17090136789E+02  0.00000000000E+00 0.  1.
          4    1    6    6  502    0 -0.55106891863E+01 -0.10369584265E+03 -0.66233243863E+02  0.12316670845E+03  0.00000000000E+00 0. -1.
          3    1    5    5  503    0 -0.67385639874E+02  0.59699894949E+02 -0.15157438216E+02  0.91294303500E+02  0.00000000000E+00 0. -1.
         -4    1    5    5    0  503 -0.17557246064E+03  0.22397139077E+02  0.10438804740E+02  0.17730281842E+03  0.00000000000E+00 0.  1.
         -3    1    6    6    0  502  0.39473216881E+01 -0.50887288552E+03 -0.55366949788E+03  0.75200871528E+03  0.00000000000E+00 0.  1.
<mgrwt>
<rscale>  0 0.16460762E+04</rscale>
<asrwt>0</asrwt>
<pdfrwt beam="1">  1        1 0.30902641E+00 0.16460762E+04</pdfrwt>
<pdfrwt beam="2">  1       -1 0.51882101E-01 0.16460762E+04</pdfrwt>
<totfact> 0.10513634E+01</totfact>
</mgrwt>
</event>
<event>
12    1  0.1599266E-007  0.1741288E+04  0.7818608E-02  0.8738160E-01
          2   -1    0    0  501    0  0.00000000000E+00  0.00000000000E+00  0.14826643455E+04  0.14826643455E+04  0.00000000000E+00 0. -1.
         -2   -1    0    0    0  501 -0.00000000000E+00 -0.00000000000E+00 -0.51125593110E+03  0.51125593110E+03  0.00000000000E+00 0.  1.
         23    2    1    2    0    0  0.51632861895E+03  0.24165276316E+03  0.24066224960E+02  0.57583811972E+03  0.77582576996E+02 0.  0.
        254    2    1    2    0    0 -0.51632861895E+03 -0.24165276316E+03  0.94734218943E+03  0.14180821569E+04  0.88797999924E+03 0.  0.
        -24    2    4    4    0    0 -0.58148294230E+03 -0.50410508853E+03  0.69242790436E+03  0.10383713841E+04  0.80711685291E+02 0.  0.
         24    2    4    4    0    0  0.65154323349E+02  0.26245232537E+03  0.25491428507E+03  0.37971077275E+03  0.77927333250E+02 0.  0.
         13    1    3    3    0    0  0.34401388586E+03  0.20024592867E+03  0.12659081162E+02  0.39825147576E+03  0.00000000000E+00 0.  1.
        -13    1    3    3    0    0  0.17231473309E+03  0.41406834486E+02  0.11407143798E+02  0.17758664396E+03  0.00000000000E+00 0. -1.
          2    1    6    6  502    0  0.19789887533E+02  0.20726183477E+03  0.17038947756E+03  0.26903843938E+03  0.00000000000E+00 0. -1.
          1    1    5    5  503    0 -0.39984113409E+03 -0.33144492930E+03  0.51424899721E+03  0.73087666867E+03  0.00000000000E+00 0. -1.
         -2    1    5    5    0  503 -0.18164180821E+03 -0.17266015923E+03  0.17817890715E+03  0.30749471544E+03  0.00000000000E+00 0.  1.
         -3    1    6    6    0  502  0.45364435816E+02  0.55190490605E+02  0.84524807507E+02  0.11067233337E+03  0.00000000000E+00 0.  1.
<mgrwt>
<rscale>  0 0.17412880E+04</rscale>
<asrwt>0</asrwt>
<pdfrwt beam="1">  1        2 0.22810220E+00 0.17412880E+04</pdfrwt>
<pdfrwt beam="2">  1       -2 0.78654759E-01 0.17412880E+04</pdfrwt>
<totfact> 0.17683604E+01</totfact>
</mgrwt>
</event>
<event>
12    1  0.1599266E-007  0.2575346E+04  0.7818608E-02  0.8376624E-01
         -2   -1    0    0    0  501 -0.00000000000E+00  0.00000000000E+00  0.78793513774E+03  0.78793513774E+03  0.00000000000E+00 0.  1.
          2   -1    0    0  501    0  0.00000000000E+00 -0.00000000000E+00 -0.21043626408E+04  0.21043626408E+04  0.00000000000E+00 0. -1.
         23    2    1    2    0    0  0.54201418639E+03  0.21798576149E+03 -0.16646835275E+04  0.17664256688E+04  0.88267922573E+02 0.  0.
        254    2    1    2    0    0 -0.54201418639E+03 -0.21798576149E+03  0.34825602446E+03  0.11258721097E+04  0.89722270281E+03 0.  0.
        -24    2    4    4    0    0 -0.51563042321E+03 -0.10542182037E+03  0.62240246227E+03  0.81826347963E+03  0.71984744895E+02 0.  0.
         24    2    4    4    0    0 -0.26383763180E+02 -0.11256394112E+03 -0.27414643781E+03  0.30760863010E+03  0.78102856236E+02 0.  0.
         13    1    3    3    0    0  0.53743301227E+03  0.20221250936E+03 -0.16103712053E+04  0.17096840528E+04  0.00000000000E+00 0. -1.
        -13    1    3    3    0    0  0.45811741179E+01  0.15773252133E+02 -0.54312322254E+02  0.56741616013E+02  0.00000000000E+00 0.  1.
          4    1    6    6  502    0 -0.45125151658E+02 -0.93756845329E+02 -0.25334340320E+03  0.27387863243E+03  0.00000000000E+00 0. -1.
          1    1    5    5  503    0 -0.39516071951E+03 -0.11059425553E+03  0.49182989305E+03  0.64053081683E+03  0.00000000000E+00 0. -1.
         -2    1    5    5    0  503 -0.12046970369E+03  0.51724351521E+01  0.13057256922E+03  0.17773266280E+03  0.00000000000E+00 0.  1.
         -3    1    6    6    0  502  0.18741388478E+02 -0.18807095789E+02 -0.20803034612E+02  0.33729997675E+02  0.00000000000E+00 0.  1.
<mgrwt>
<rscale>  0 0.25753456E+04</rscale>
<asrwt>0</asrwt>
<pdfrwt beam="1">  1        2 0.32374810E+00 0.25753456E+04</pdfrwt>
<pdfrwt beam="2">  1       -2 0.12122079E+00 0.25753456E+04</pdfrwt>
<totfact> 0.26814568E+00</totfact>
</mgrwt>
</event>
<event>
12    1  0.1599266E-007  0.2401987E+04  0.7818608E-02  0.8438760E-01
          2   -1    0    0  501    0  0.00000000000E+00  0.00000000000E+00  0.21448392556E+04  0.21448392556E+04  0.00000000000E+00 0.  1.
         -2   -1    0    0    0  501 -0.00000000000E+00 -0.00000000000E+00 -0.67249095740E+03  0.67249095740E+03  0.00000000000E+00 0. -1.
         23    2    1    2    0    0 -0.59282919979E+03  0.54853328334E+03  0.13788470744E+04  0.16006445576E+04  0.92241651231E+02 0.  0.
        254    2    1    2    0    0  0.59282919979E+03 -0.54853328334E+03  0.93501223775E+02  0.12166856553E+04  0.90512224701E+03 0.  0.
        -24    2    4    4    0    0  0.75988609253E+03 -0.63999135637E+03  0.13603294760E+03  0.10061980002E+04  0.83148318486E+02 0.  0.
         24    2    4    4    0    0 -0.16705689274E+03  0.91458073033E+02 -0.42531723824E+02  0.21048765517E+03  0.78889295315E+02 0.  0.
         11    1    3    3    0    0 -0.57704269579E+03  0.50787886742E+03  0.12900338231E+04  0.15017011958E+04  0.00000000000E+00 0.  1.
        -11    1    3    3    0    0 -0.15786504006E+02  0.40654415919E+02  0.88813251330E+02  0.98943361850E+02  0.00000000000E+00 0. -1.
          2    1    6    6  502    0 -0.16405794105E+03  0.66012183542E+02 -0.23126230104E+02  0.17834640147E+03  0.00000000000E+00 0. -1.
          3    1    5    5  503    0  0.40623179723E+03 -0.31211886711E+03  0.10501815277E+03  0.52294480846E+03  0.00000000000E+00 0. -1.
         -4    1    5    5    0  503  0.35365429530E+03 -0.32787248926E+03  0.31014794827E+02  0.48325319171E+03  0.00000000000E+00 0.  1.
         -1    1    6    6    0  502 -0.29989516850E+01  0.25445889491E+02 -0.19405493719E+02  0.32141253705E+02  0.00000000000E+00 0.  1.
<mgrwt>
<rscale>  0 0.24019867E+04</rscale>
<asrwt>0</asrwt>
<pdfrwt beam="1">  1        2 0.32997527E+00 0.24019867E+04</pdfrwt>
<pdfrwt beam="2">  1       -2 0.10346015E+00 0.24019867E+04</pdfrwt>
<totfact> 0.37970547E+00</totfact>
</mgrwt>
</event>
<event>
12    1  0.1599266E-007  0.1602377E+04  0.7818608E-02  0.8819089E-01
         -2   -1    0    0    0  501 -0.00000000000E+00  0.00000000000E+00  0.16307198856E+04  0.16307198856E+04  0.00000000000E+00 0.  1.
          2   -1    0    0  501    0  0.00000000000E+00 -0.00000000000E+00 -0.39363188662E+03  0.39363188662E+03  0.00000000000E+00 0. -1.
         23    2    1    2    0    0  0.32449522464E+03 -0.36906016003E+03  0.15403291959E+03  0.52277815912E+03  0.89823776393E+02 0.  0.
        254    2    1    2    0    0 -0.32449522464E+03  0.36906016003E+03  0.10830550794E+04  0.15015736131E+04  0.91663103700E+03 0.  0.
        -24    2    4    4    0    0 -0.43154652041E+03  0.71018939240E+01  0.10206116021E+04  0.11110017402E+04  0.79962418511E+02 0.  0.
         24    2    4    4    0    0  0.10705129577E+03  0.36195826611E+03  0.62443477304E+02  0.39057187283E+03  0.78571201207E+02 0.  0.
         13    1    3    3    0    0  0.32845265973E+03 -0.36736968136E+03  0.15739732963E+03  0.51731571776E+03  0.00000000000E+00 0.  1.
        -13    1    3    3    0    0 -0.39574350944E+01 -0.16904786715E+01 -0.33644100476E+01  0.54624413620E+01  0.00000000000E+00 0. -1.
          4    1    6    6  502    0  0.98624679434E+02  0.24352388422E+03  0.69035261369E+02  0.27165525375E+03  0.00000000000E+00 0. -1.
          1    1    5    5  503    0 -0.26071900256E+03  0.33921760683E+02  0.54955118670E+03  0.60920570496E+03  0.00000000000E+00 0. -1.
         -2    1    5    5    0  503 -0.17082751785E+03 -0.26819866759E+02  0.47106041535E+03  0.50179603528E+03  0.00000000000E+00 0.  1.
         -3    1    6    6    0  502  0.84266163377E+01  0.11843438189E+03 -0.65917840648E+01  0.11891661908E+03  0.00000000000E+00 0.  1.
<mgrwt>
<rscale>  0 0.16023774E+04</rscale>
<asrwt>0</asrwt>
<pdfrwt beam="1">  1        2 0.60558752E-01 0.16023774E+04</pdfrwt>
<pdfrwt beam="2">  1       -2 0.25087998E+00 0.16023774E+04</pdfrwt>
<totfact> 0.49286687E+00</totfact>
</mgrwt>
</event>
<event>
12    1  0.1599266E-007  0.1277650E+04  0.7818608E-02  0.9047479E-01
          2   -1    0    0  501    0  0.00000000000E+00  0.00000000000E+00  0.37338586648E+03  0.37338586648E+03  0.00000000000E+00 0. -1.
         -2   -1    0    0    0  501 -0.00000000000E+00 -0.00000000000E+00 -0.10929645219E+04  0.10929645219E+04  0.00000000000E+00 0.  1.
         23    2    1    2    0    0 -0.78293529121E+02  0.37166392584E+02  0.15711749872E+03  0.19918542227E+03  0.86473733586E+02 0.  0.
        254    2    1    2    0    0  0.78293529121E+02 -0.37166392584E+02 -0.87669615413E+03  0.12671649661E+04  0.91082363123E+03 0.  0.
        -24    2    4    4    0    0 -0.24664809749E+03 -0.36360876319E+03 -0.45137933952E+03  0.63511012513E+03  0.81086042178E+02 0.  0.
         24    2    4    4    0    0  0.32494162661E+03  0.32644237060E+03 -0.42531681461E+03  0.63205484097E+03  0.80294751837E+02 0.  0.
         11    1    3    3    0    0  0.12923853477E+02  0.16579912298E+02  0.66883870568E+01  0.22060235763E+02  0.00000000000E+00 0.  1.
        -11    1    3    3    0    0 -0.91217382599E+02  0.20586480286E+02  0.15042911166E+03  0.17712518650E+03  0.00000000000E+00 0. -1.
          4    1    6    6  502    0  0.38820530333E+02  0.48299123131E+02 -0.98006752064E+02  0.11595327646E+03  0.00000000000E+00 0. -1.
          1    1    5    5  503    0 -0.11022457117E+03 -0.10042435346E+03 -0.17376450126E+03  0.22897294328E+03  0.00000000000E+00 0. -1.
         -2    1    5    5    0  503 -0.13642352632E+03 -0.26318440973E+03 -0.27761483826E+03  0.40613718185E+03  0.00000000000E+00 0.  1.
         -3    1    6    6    0  502  0.28612109628E+03  0.27814324747E+03 -0.32731006255E+03  0.51610156452E+03  0.00000000000E+00 0.  1.
<mgrwt>
<rscale>  0 0.12776502E+04</rscale>
<asrwt>0</asrwt>
<pdfrwt beam="1">  1        2 0.57443980E-01 0.12776502E+04</pdfrwt>
<pdfrwt beam="2">  1       -2 0.16814839E+00 0.12776502E+04</pdfrwt>
<totfact> 0.18513691E+01</totfact>
</mgrwt>
</event>
<event>
12    1  0.1599266E-007  0.1483919E+04  0.7818608E-02  0.8895217E-01
          1   -1    0    0  501    0  0.00000000000E+00  0.00000000000E+00  0.17104122182E+04  0.17104122182E+04  0.00000000000E+00 0. -1.
         -1   -1    0    0    0  501 -0.00000000000E+00 -0.00000000000E+00 -0.32185460964E+03  0.32185460964E+03  0.00000000000E+00 0.  1.
         23    2    1    2    0    0  0.30093764646E+03  0.27977686024E+03  0.72415942681E+03  0.83882067678E+03  0.10185624073E+03 0.  0.
        254    2    1    2    0    0 -0.30093764646E+03 -0.27977686024E+03  0.66439818178E+03  0.11934461511E+04  0.90224731255E+03 0.  0.
        -24    2    4    4    0    0 -0.46150281777E+03  0.16262713124E+03  0.45343220168E+03  0.67182716425E+03  0.79489260141E+02 0.  0.
         24    2    4    4    0    0  0.16056517131E+03 -0.44240399149E+03  0.21096598010E+03  0.52161898683E+03  0.77956762010E+02 0.  0.
         11    1    3    3    0    0  0.15789315654E+03  0.10705487828E+03  0.41640842028E+03  0.45802507391E+03  0.00000000000E+00 0.  1.
        -11    1    3    3    0    0  0.14304448992E+03  0.17272198196E+03  0.30775100652E+03  0.38079560287E+03  0.00000000000E+00 0. -1.
          4    1    6    6  502    0  0.13636313372E+03 -0.42054512743E+03  0.18234511489E+03  0.47822886715E+03  0.00000000000E+00 0. -1.
          3    1    5    5  503    0 -0.35090270721E+03  0.12360105474E+03  0.38792185336E+03  0.53748794867E+03  0.00000000000E+00 0. -1.
         -4    1    5    5    0  503 -0.11060011056E+03  0.39026076507E+02  0.65510348319E+02  0.13433921557E+03  0.00000000000E+00 0.  1.
         -3    1    6    6    0  502  0.24202037587E+02 -0.21858864053E+02  0.28620865210E+02  0.43390119687E+02  0.00000000000E+00 0.  1.
<mgrwt>
<rscale>  0 0.14839192E+04</rscale>
<asrwt>0</asrwt>
<pdfrwt beam="1">  1        1 0.26314034E+00 0.14839192E+04</pdfrwt>
<pdfrwt beam="2">  1       -1 0.49516095E-01 0.14839192E+04</pdfrwt>
<totfact> 0.18571317E+01</totfact>
</mgrwt>
</event>
<event>
12    1  0.1599266E-007  0.2745065E+04  0.7818608E-02  0.8320529E-01
          1   -1    0    0  501    0  0.00000000000E+00  0.00000000000E+00  0.10019411023E+04  0.10019411023E+04  0.00000000000E+00 0. -1.
         -1   -1    0    0    0  501 -0.00000000000E+00 -0.00000000000E+00 -0.18801957550E+04  0.18801957550E+04  0.00000000000E+00 0.  1.
         23    2    1    2    0    0  0.34675441859E+03  0.30737100515E+03  0.79656315035E+03  0.92577711587E+03  0.88514711498E+02 0.  0.
        254    2    1    2    0    0 -0.34675441859E+03 -0.30737100515E+03 -0.16748178030E+04  0.19563597415E+04  0.89867302343E+03 0.  0.
        -24    2    4    4    0    0 -0.37800135914E+03  0.20196286714E+03 -0.11009606406E+04  0.11842323000E+04  0.81349745097E+02 0.  0.
         24    2    4    4    0    0  0.31246940546E+02 -0.50933387230E+03 -0.57385716244E+03  0.77212744145E+03  0.80444876793E+02 0.  0.
         11    1    3    3    0    0 -0.24047650320E+01  0.89648086726E+00 -0.10111235497E+01  0.27584313726E+01  0.00000000000E+00 0.  1.
        -11    1    3    3    0    0  0.34915918363E+03  0.30647452429E+03  0.79757427390E+03  0.92301868450E+03  0.00000000000E+00 0. -1.
          2    1    6    6  502    0  0.49013294571E+02 -0.26977744643E+03 -0.27032498407E+03  0.38504255695E+03  0.00000000000E+00 0. -1.
          1    1    5    5  503    0 -0.31843070574E+03  0.14574361236E+03 -0.94982656187E+03  0.10123289053E+04  0.00000000000E+00 0. -1.
         -2    1    5    5    0  503 -0.59570653401E+02  0.56219254787E+02 -0.15113407872E+03  0.17190339469E+03  0.00000000000E+00 0.  1.
         -1    1    6    6    0  502 -0.17766354025E+02 -0.23955642586E+03 -0.30353217837E+03  0.38708488451E+03  0.00000000000E+00 0.  1.
<mgrwt>
<rscale>  0 0.27450650E+04</rscale>
<asrwt>0</asrwt>
<pdfrwt beam="1">  1        1 0.15414479E+00 0.27450650E+04</pdfrwt>
<pdfrwt beam="2">  1       -1 0.28926088E+00 0.27450650E+04</pdfrwt>
<totfact> 0.50838115E-01</totfact>
</mgrwt>
</event>
<event>
12    1  0.1599266E-007  0.2814528E+04  0.7818608E-02  0.8298772E-01
         -1   -1    0    0    0  501 -0.00000000000E+00  0.00000000000E+00  0.18601709664E+04  0.18601709664E+04  0.00000000000E+00 0.  1.
          1   -1    0    0  501    0  0.00000000000E+00 -0.00000000000E+00 -0.10646290451E+04  0.10646290451E+04  0.00000000000E+00 0. -1.
         23    2    1    2    0    0 -0.12681346139E+03  0.48021707839E+03 -0.83944121381E+03  0.97962594207E+03  0.91188478207E+02 0.  0.
        254    2    1    2    0    0  0.12681346139E+03 -0.48021707839E+03  0.16349831351E+04  0.19451740695E+04  0.92943112277E+03 0.  0.
        -24    2    4    4    0    0  0.23336073582E+03 -0.14997993905E+03  0.15542731410E+04  0.15807897148E+04  0.78612406015E+02 0.  0.
         24    2    4    4    0    0 -0.10654727443E+03 -0.33023713934E+03  0.80709994120E+02  0.36438435467E+03  0.76504672345E+02 0.  0.
         13    1    3    3    0    0 -0.95871307746E+02  0.23392110847E+03 -0.36239959543E+03  0.44186407345E+03  0.00000000000E+00 0. -1.
        -13    1    3    3    0    0 -0.30942153640E+02  0.24629596992E+03 -0.47704161838E+03  0.53776186862E+03  0.00000000000E+00 0.  1.
          2    1    6    6  502    0 -0.69789144105E+02 -0.27511527190E+03  0.40029084664E+02  0.28663786402E+03  0.00000000000E+00 0. -1.
          3    1    5    5  503    0  0.16182088209E+03 -0.10689472645E+03  0.12621692098E+04  0.12769822217E+04  0.00000000000E+00 0. -1.
         -4    1    5    5    0  503  0.71539853734E+02 -0.43085212601E+02  0.29210393123E+03  0.30380749309E+03  0.00000000000E+00 0.  1.
         -1    1    6    6    0  502 -0.36758130329E+02 -0.55121867434E+02  0.40680909456E+02  0.77746490653E+02  0.00000000000E+00 0.  1.
<mgrwt>
<rscale>  0 0.28145281E+04</rscale>
<asrwt>0</asrwt>
<pdfrwt beam="1">  1        1 0.16378908E+00 0.28145281E+04</pdfrwt>
<pdfrwt beam="2">  1       -1 0.28618015E+00 0.28145281E+04</pdfrwt>
<totfact> 0.47329317E-01</totfact>
</mgrwt>
</event>
<event>
12    1  0.1599266E-007  0.1897954E+04  0.7818608E-02  0.8655875E-01
          1   -1    0    0  501    0  0.00000000000E+00  0.00000000000E+00  0.11212479726E+04  0.11212479726E+04  0.00000000000E+00 0. -1.
         -1   -1    0    0    0  501 -0.00000000000E+00 -0.00000000000E+00 -0.80317449786E+03  0.80317449786E+03  0.00000000000E+00 0.  1.
         23    2    1    2    0    0  0.29340890121E+03  0.64298417259E+03 -0.64230296584E+02  0.71588698195E+03  0.94080871693E+02 0.  0.
        254    2    1    2    0    0 -0.29340890121E+03 -0.64298417259E+03  0.38230377129E+03  0.12085354885E+04  0.90270949030E+03 0.  0.
        -24    2    4    4    0    0 -0.51133640187E+03 -0.73098788432E+03  0.34014075290E+03  0.95811134195E+03  0.80457497455E+02 0.  0.
         24    2    4    4    0    0  0.21792750066E+03  0.88003711736E+02  0.42163018396E+02  0.25042414653E+03  0.75481681389E+02 0.  0.
         13    1    3    3    0    0  0.94259762588E+02  0.11901276082E+03 -0.26143935004E+02  0.15405338496E+03  0.00000000000E+00 0. -1.
        -13    1    3    3    0    0  0.19914913862E+03  0.52397141177E+03 -0.38086361580E+02  0.56183359699E+03  0.00000000000E+00 0.  1.
          4    1    6    6  502    0  0.13665224367E+02  0.32186306677E+02  0.88353240758E+01  0.36066045611E+02  0.00000000000E+00 0. -1.
          3    1    5    5  503    0 -0.11165733457E+03 -0.21969109189E+03  0.82781248059E+02  0.25996975064E+03  0.00000000000E+00 0. -1.
         -4    1    5    5    0  503 -0.39967906729E+03 -0.51129679244E+03  0.25735950484E+03  0.69814159131E+03  0.00000000000E+00 0.  1.
         -3    1    6    6    0  502  0.20426227629E+03  0.55817405059E+02  0.33327694320E+02  0.21435810092E+03  0.00000000000E+00 0.  1.
<mgrwt>
<rscale>  0 0.18979545E+04</rscale>
<asrwt>0</asrwt>
<pdfrwt beam="1">  1        1 0.17249969E+00 0.18979545E+04</pdfrwt>
<pdfrwt beam="2">  1       -1 0.12356531E+00 0.18979545E+04</pdfrwt>
<totfact> 0.65872318E+00</totfact>
</mgrwt>
</event>
<event>
12    1  0.1599266E-007  0.1607406E+04  0.7818608E-02  0.8816011E-01
          2   -1    0    0  501    0  0.00000000000E+00  0.00000000000E+00  0.61989736220E+03  0.61989736220E+03  0.00000000000E+00 0. -1.
         -2   -1    0    0    0  501 -0.00000000000E+00 -0.00000000000E+00 -0.10420091850E+04  0.10420091850E+04  0.00000000000E+00 0.  1.
         23    2    1    2    0    0  0.28324609763E+03  0.47494204413E+03 -0.80139963369E+02  0.56626503825E+03  0.91844339560E+02 0.  0.
        254    2    1    2    0    0 -0.28324609763E+03 -0.47494204413E+03 -0.34197185940E+03  0.10956415089E+04  0.88186578704E+03 0.  0.
        -24    2    4    4    0    0 -0.58850992546E+03 -0.31546706762E+03 -0.31135788369E+03  0.74111518338E+03  0.80278142688E+02 0.  0.
         24    2    4    4    0    0  0.30526382783E+03 -0.15947497651E+03 -0.30613975715E+02  0.35452632554E+03  0.78316200641E+02 0.  0.
         13    1    3    3    0    0  0.24072018501E+03  0.36438965583E+03 -0.94856964183E+02  0.44690476883E+03  0.00000000000E+00 0. -1.
        -13    1    3    3    0    0  0.42525912615E+02  0.11055238830E+03  0.14717000814E+02  0.11936026942E+03  0.00000000000E+00 0.  1.
          2    1    6    6  502    0  0.94831020237E+01 -0.13873936565E+01  0.13185949901E+02  0.16301023279E+02  0.00000000000E+00 0. -1.
          1    1    5    5  503    0 -0.31644572609E+02  0.15546413575E+01 -0.17023845901E+02  0.35966751516E+02  0.00000000000E+00 0. -1.
         -2    1    5    5    0  503 -0.55686535285E+03 -0.31702170898E+03 -0.29433403779E+03  0.70514843187E+03  0.00000000000E+00 0.  1.
         -1    1    6    6    0  502  0.29578072580E+03 -0.15808758285E+03 -0.43799925616E+02  0.33822530227E+03  0.00000000000E+00 0.  1.
<mgrwt>
<rscale>  0 0.16074063E+04</rscale>
<asrwt>0</asrwt>
<pdfrwt beam="1">  1        2 0.95368826E-01 0.16074063E+04</pdfrwt>
<pdfrwt beam="2">  1       -2 0.16030910E+00 0.16074063E+04</pdfrwt>
<totfact> 0.11437334E+01</totfact>
</mgrwt>
</event>
<event>
12    1  0.1599266E-007  0.3077392E+04  0.7818608E-02  0.8221970E-01
          1   -1    0    0  501    0  0.00000000000E+00  0.00000000000E+00  0.11550148858E+04  0.11550148858E+04  0.00000000000E+00 0. -1.
         -1   -1    0    0    0  501 -0.00000000000E+00 -0.00000000000E+00 -0.20498306597E+04  0.20498306597E+04  0.00000000000E+00 0.  1.
         23    2    1    2    0    0 -0.39591434956E+03 -0.11794251577E+04 -0.10868174742E+04  0.16543586366E+04  0.89097708085E+02 0.  0.
        254    2    1    2    0    0  0.39591434956E+03  0.11794251577E+04  0.19200170035E+03  0.15504869089E+04  0.90518126739E+03 0.  0.
        -24    2    4    4    0    0 -0.11128102039E+03  0.86555058224E+03 -0.99378480931E+02  0.88175582063E+03  0.77820105502E+02 0.  0.
         24    2    4    4    0    0  0.50719536995E+03  0.31387457547E+03  0.29138018128E+03  0.66873108825E+03  0.80836043492E+02 0.  0.
         13    1    3    3    0    0 -0.30442818600E+02 -0.41889613165E+02 -0.34601103015E+02  0.62279540985E+02  0.00000000000E+00 0. -1.
        -13    1    3    3    0    0 -0.36547153096E+03 -0.11375355445E+04 -0.10522163712E+04  0.15920790957E+04  0.00000000000E+00 0.  1.
          4    1    6    6  502    0  0.83752158725E+02  0.23085222474E+02  0.26769195842E+02  0.90906223295E+02  0.00000000000E+00 0. -1.
          1    1    5    5  503    0 -0.74105820330E+01  0.62239964173E+02  0.12957833865E+02  0.64004963282E+02  0.00000000000E+00 0. -1.
         -2    1    5    5    0  503 -0.10387043835E+03  0.80331061807E+03 -0.11233631480E+03  0.81775085735E+03  0.00000000000E+00 0.  1.
         -3    1    6    6    0  502  0.42344321122E+03  0.29078935299E+03  0.26461098544E+03  0.57782486495E+03  0.00000000000E+00 0.  1.
<mgrwt>
<rscale>  0 0.30773917E+04</rscale>
<asrwt>0</asrwt>
<pdfrwt beam="1">  1        1 0.17769460E+00 0.30773917E+04</pdfrwt>
<pdfrwt beam="2">  1       -1 0.31535856E+00 0.30773917E+04</pdfrwt>
<totfact> 0.25582872E-01</totfact>
</mgrwt>
</event>
<event>
12    1  0.1599266E-007  0.1997119E+04  0.7818608E-02  0.8607969E-01
         -1   -1    0    0    0  501 -0.00000000000E+00  0.00000000000E+00  0.74515251903E+03  0.74515251903E+03  0.00000000000E+00 0.  1.
          1   -1    0    0  501    0  0.00000000000E+00 -0.00000000000E+00 -0.13381434029E+04  0.13381434029E+04  0.00000000000E+00 0. -1.
         23    2    1    2    0    0 -0.71627826001E+03 -0.94811698780E+02  0.10223481399E+03  0.73523133220E+03  0.89829564593E+02 0.  0.
        254    2    1    2    0    0  0.71627826001E+03  0.94811698780E+02 -0.69522569789E+03  0.13480645898E+04  0.90105247525E+03 0.  0.
        -24    2    4    4    0    0  0.12724496338E+03 -0.29551027611E+03  0.29763970587E+02  0.33255910005E+03  0.78689625026E+02 0.  0.
         24    2    4    4    0    0  0.58903329663E+03  0.39032197489E+03 -0.72498966848E+03  0.10155054897E+04  0.79560741554E+02 0.  0.
         13    1    3    3    0    0 -0.67862092678E+03 -0.10894229613E+03  0.10310716473E+03  0.69500062847E+03  0.00000000000E+00 0.  1.
        -13    1    3    3    0    0 -0.37657333227E+02  0.14130597348E+02 -0.87235074498E+00  0.40230703735E+02  0.00000000000E+00 0. -1.
          4    1    6    6  502    0  0.36082523817E+03  0.25560773537E+03 -0.50371128474E+03  0.67026504105E+03  0.00000000000E+00 0. -1.
          1    1    5    5  503    0  0.10927801258E+03 -0.24483794068E+03  0.54137149545E+02  0.27352903355E+03  0.00000000000E+00 0. -1.
         -2    1    5    5    0  503  0.17966950795E+02 -0.50672335427E+02 -0.24373178957E+02  0.59030066500E+02  0.00000000000E+00 0.  1.
         -3    1    6    6    0  502  0.22820805847E+03  0.13471423952E+03 -0.22127838374E+03  0.34524044866E+03  0.00000000000E+00 0.  1.
<mgrwt>
<rscale>  0 0.19971189E+04</rscale>
<asrwt>0</asrwt>
<pdfrwt beam="1">  1        1 0.20586821E+00 0.19971189E+04</pdfrwt>
<pdfrwt beam="2">  1       -1 0.11463885E+00 0.19971189E+04</pdfrwt>
<totfact> 0.54526834E+00</totfact>
</mgrwt>
</event>
<event>
12    1  0.1599266E-007  0.1330362E+04  0.7818608E-02  0.9005829E-01
         -2   -1    0    0    0  501 -0.00000000000E+00  0.00000000000E+00  0.19963054262E+03  0.19963054262E+03  0.00000000000E+00 0.  1.
          2   -1    0    0  501    0  0.00000000000E+00 -0.00000000000E+00 -0.22164220937E+04  0.22164220937E+04  0.00000000000E+00 0. -1.
         23    2    1    2    0    0  0.36735466462E+02 -0.36743587578E+02  0.68151280313E+02  0.12637743030E+03  0.92882033548E+02 0.  0.
        254    2    1    2    0    0 -0.36735466462E+02  0.36743587578E+02 -0.20849428314E+04  0.22896752060E+04  0.94494780447E+03 0.  0.
        -24    2    4    4    0    0 -0.12200034608E+03 -0.37638183050E+03 -0.15603685793E+04  0.16118141073E+04  0.81530647506E+02 0.  0.
         24    2    4    4    0    0  0.85264879622E+02  0.41312541807E+03 -0.52457425209E+03  0.67786109871E+03  0.79842422515E+02 0.  0.
         11    1    3    3    0    0  0.47491894828E+01 -0.61977101568E+02  0.56507692111E+02  0.84004971205E+02  0.00000000000E+00 0.  1.
        -11    1    3    3    0    0  0.31986276979E+02  0.25233513990E+02  0.11643588202E+02  0.42372459092E+02  0.00000000000E+00 0. -1.
          2    1    6    6  502    0  0.55434476870E+02  0.34774950272E+03 -0.47169633932E+03  0.58864262027E+03  0.00000000000E+00 0. -1.
          3    1    5    5  503    0 -0.75360083273E+02 -0.29298054827E+03 -0.10561952216E+04  0.10986651400E+04  0.00000000000E+00 0. -1.
         -4    1    5    5    0  503 -0.46640262811E+02 -0.83401282231E+02 -0.50417335772E+03  0.51314896728E+03  0.00000000000E+00 0.  1.
         -1    1    6    6    0  502  0.29830402752E+02  0.65375915351E+02 -0.52877912770E+02  0.89218478441E+02  0.00000000000E+00 0.  1.
<mgrwt>
<rscale>  0 0.13303617E+04</rscale>
<asrwt>0</asrwt>
<pdfrwt beam="1">  1        2 0.34098802E+00 0.13303617E+04</pdfrwt>
<pdfrwt beam="2">  1       -2 0.30712390E-01 0.13303617E+04</pdfrwt>
<totfact> 0.48621895E+01</totfact>
</mgrwt>
</event>
<event>
12    1  0.1599266E-007  0.1643639E+04  0.7818608E-02  0.8794178E-01
          2   -1    0    0  501    0  0.00000000000E+00  0.00000000000E+00  0.15594554956E+04  0.15594554956E+04  0.00000000000E+00 0. -1.
         -2   -1    0    0    0  501 -0.00000000000E+00 -0.00000000000E+00 -0.43309172141E+03  0.43309172141E+03  0.00000000000E+00 0.  1.
         23    2    1    2    0    0 -0.33423317678E+03  0.13134097917E+03  0.90443839094E+03  0.97742881299E+03  0.91629756106E+02 0.  0.
        254    2    1    2    0    0  0.33423317678E+03 -0.13134097917E+03  0.22192538325E+03  0.10151184040E+04  0.92317508044E+03 0.  0.
        -24    2    4    4    0    0  0.42446220036E+03  0.20901777027E+03 -0.14418809617E+03  0.50092130993E+03  0.79217194075E+02 0.  0.
         24    2    4    4    0    0 -0.90229023586E+02 -0.34035874944E+03  0.36611347941E+03  0.51419709407E+03  0.79838691943E+02 0.  0.
         11    1    3    3    0    0 -0.21448909361E+03  0.38865156091E+02  0.49243253557E+03  0.53852193431E+03  0.00000000000E+00 0. -1.
        -11    1    3    3    0    0 -0.11974408316E+03  0.92475823077E+02  0.41200585536E+03  0.43890687869E+03  0.00000000000E+00 0.  1.
          4    1    6    6  502    0 -0.22591296889E+02 -0.13524337470E+03  0.91573336709E+02  0.16488424149E+03  0.00000000000E+00 0. -1.
          1    1    5    5  503    0  0.24745143459E+03  0.92739956123E+02 -0.11067819839E+03  0.28650056813E+03  0.00000000000E+00 0. -1.
         -2    1    5    5    0  503  0.17701076577E+03  0.11627781415E+03 -0.33509897780E+02  0.21442074180E+03  0.00000000000E+00 0.  1.
         -3    1    6    6    0  502 -0.67637726696E+02 -0.20511537474E+03  0.27454014270E+03  0.34931285259E+03  0.00000000000E+00 0.  1.
<mgrwt>
<rscale>  0 0.16436390E+04</rscale>
<asrwt>0</asrwt>
<pdfrwt beam="1">  1        2 0.23991623E+00 0.16436390E+04</pdfrwt>
<pdfrwt beam="2">  1       -2 0.66629496E-01 0.16436390E+04</pdfrwt>
<totfact> 0.23241126E+01</totfact>
</mgrwt>
</event>
<event>
12    1  0.1599266E-007  0.2091142E+04  0.7818608E-02  0.8565156E-01
         -2   -1    0    0    0  501 -0.00000000000E+00  0.00000000000E+00  0.14392249329E+04  0.14392249329E+04  0.00000000000E+00 0.  1.
          2   -1    0    0  501    0  0.00000000000E+00 -0.00000000000E+00 -0.75958838061E+03  0.75958838061E+03  0.00000000000E+00 0. -1.
         23    2    1    2    0    0  0.26339599738E+03  0.79858046487E+03  0.16668864945E+03  0.86218102062E+03  0.91993457164E+02 0.  0.
        254    2    1    2    0    0 -0.26339599738E+03 -0.79858046487E+03  0.51294790287E+03  0.13366322929E+04  0.90352760064E+03 0.  0.
        -24    2    4    4    0    0 -0.30346576681E+03 -0.59885683418E+03 -0.10084209315E+03  0.68465233003E+03  0.88649341754E+02 0.  0.
         24    2    4    4    0    0  0.40069769437E+02 -0.19972363069E+03  0.61378999602E+03  0.65197996289E+03  0.82732083964E+02 0.  0.
         13    1    3    3    0    0 -0.66305840750E+01  0.81306782855E+01  0.37250729219E+01  0.11133226973E+02  0.00000000000E+00 0. -1.
        -13    1    3    3    0    0  0.27002658145E+03  0.79044978658E+03  0.16296357653E+03  0.85104779365E+03  0.00000000000E+00 0.  1.
          2    1    6    6  502    0 -0.12001121849E+02 -0.66555984060E+02  0.29401610866E+03  0.30169388143E+03  0.00000000000E+00 0. -1.
          1    1    5    5  503    0  0.30459579243E+01 -0.31988911484E+02 -0.11142146806E+02  0.34010524152E+02  0.00000000000E+00 0. -1.
         -2    1    5    5    0  503 -0.30651172474E+03 -0.56686792269E+03 -0.89699946346E+02  0.65064180588E+03  0.00000000000E+00 0.  1.
         -1    1    6    6    0  502  0.52070891286E+02 -0.13316764663E+03  0.31977388736E+03  0.35028608146E+03  0.00000000000E+00 0.  1.
<mgrwt>
<rscale>  0 0.20911418E+04</rscale>
<asrwt>0</asrwt>
<pdfrwt beam="1">  1        2 0.11685975E+00 0.20911418E+04</pdfrwt>
<pdfrwt beam="2">  1       -2 0.22141922E+00 0.20911418E+04</pdfrwt>
<totfact> 0.32915759E+00</totfact>
</mgrwt>
</event>
<event>
12    1  0.1599266E-007  0.2014671E+04  0.7818608E-02  0.8599792E-01
         -1   -1    0    0    0  501 -0.00000000000E+00  0.00000000000E+00  0.13047034312E+04  0.13047034312E+04  0.00000000000E+00 0.  1.
          1   -1    0    0  501    0  0.00000000000E+00 -0.00000000000E+00 -0.77774383617E+03  0.77774383617E+03  0.00000000000E+00 0. -1.
         23    2    1    2    0    0  0.78617260244E+03 -0.36819738514E+02  0.40160621493E+02  0.79331316121E+03  0.91158336149E+02 0.  0.
        254    2    1    2    0    0 -0.78617260244E+03  0.36819738514E+02  0.48679897351E+03  0.12891341061E+04  0.89748005494E+03 0.  0.
        -24    2    4    4    0    0 -0.36983268019E+03 -0.17353225366E+03  0.66377540586E+03  0.78352589831E+03  0.80158527252E+02 0.  0.
         24    2    4    4    0    0 -0.41633992225E+03  0.21035199217E+03 -0.17697643235E+03  0.50560820783E+03  0.82049440853E+02 0.  0.
         11    1    3    3    0    0  0.72173134504E+03 -0.34351275640E+02  0.62057700809E+02  0.72520845471E+03  0.00000000000E+00 0.  1.
        -11    1    3    3    0    0  0.64441257405E+02 -0.24684628742E+01 -0.21897079316E+02  0.68104706500E+02  0.00000000000E+00 0. -1.
          4    1    6    6  502    0 -0.29284632106E+03  0.10998300372E+03 -0.97048509065E+02  0.32752655156E+03  0.00000000000E+00 0. -1.
          1    1    5    5  503    0 -0.33125949499E+03 -0.17611724655E+03  0.62371635202E+03  0.72785453583E+03  0.00000000000E+00 0. -1.
         -2    1    5    5    0  503 -0.38573185206E+02  0.25849928925E+01  0.40059053840E+02  0.55671362474E+02  0.00000000000E+00 0.  1.
         -3    1    6    6    0  502 -0.12349360119E+03  0.10036898845E+03 -0.79927923286E+02  0.17808165627E+03  0.00000000000E+00 0.  1.
<mgrwt>
<rscale>  0 0.20146712E+04</rscale>
<asrwt>0</asrwt>
<pdfrwt beam="1">  1        1 0.11965290E+00 0.20146712E+04</pdfrwt>
<pdfrwt beam="2">  1       -1 0.20072360E+00 0.20146712E+04</pdfrwt>
<totfact> 0.31879617E+00</totfact>
</mgrwt>
</event>
<event>
12    1  0.1599266E-007  0.1840573E+04  0.7818608E-02  0.8685016E-01
         -2   -1    0    0    0  501 -0.00000000000E+00  0.00000000000E+00  0.12319158423E+04  0.12319158423E+04  0.00000000000E+00 0.  1.
          2   -1    0    0  501    0  0.00000000000E+00 -0.00000000000E+00 -0.68748800290E+03  0.68748800290E+03  0.00000000000E+00 0. -1.
         23    2    1    2    0    0 -0.30564085714E+03 -0.46695220159E+03 -0.22555780894E+03  0.60904078519E+03  0.92701999600E+02 0.  0.
        254    2    1    2    0    0  0.30564085714E+03  0.46695220159E+03  0.76998564830E+03  0.13103630600E+04  0.90150582817E+03 0.  0.
        -24    2    4    4    0    0  0.32870431910E+03  0.93890752595E+02  0.85091982068E+03  0.92037459844E+03  0.78503868764E+02 0.  0.
         24    2    4    4    0    0 -0.23063461959E+02  0.37306144900E+03 -0.80934172385E+02  0.38998846153E+03  0.76379917909E+02 0.  0.
         13    1    3    3    0    0 -0.17388241720E+03 -0.21679657080E+03 -0.15256962249E+03  0.31703838542E+03  0.00000000000E+00 0.  1.
        -13    1    3    3    0    0 -0.13175843994E+03 -0.25015563080E+03 -0.72988186449E+02  0.29200239978E+03  0.00000000000E+00 0. -1.
          4    1    6    6  502    0  0.20706130908E+02  0.14289298835E+03 -0.53996531750E+02  0.15415179343E+03  0.00000000000E+00 0. -1.
          1    1    5    5  503    0  0.19483218412E+03  0.76532130242E+02  0.59970142911E+03  0.63518387180E+03  0.00000000000E+00 0. -1.
         -2    1    5    5    0  503  0.13387213498E+03  0.17358622354E+02  0.25121839158E+03  0.28519072664E+03  0.00000000000E+00 0.  1.
         -3    1    6    6    0  502 -0.43769592867E+02  0.23016846064E+03 -0.26937640635E+02  0.23583666809E+03  0.00000000000E+00 0.  1.
<mgrwt>
<rscale>  0 0.18405731E+04</rscale>
<asrwt>0</asrwt>
<pdfrwt beam="1">  1        2 0.10576738E+00 0.18405731E+04</pdfrwt>
<pdfrwt beam="2">  1       -2 0.18952551E+00 0.18405731E+04</pdfrwt>
<totfact> 0.61546463E+00</totfact>
</mgrwt>
</event>
<event>
12    1  0.1599266E-007  0.1382873E+04  0.7818608E-02  0.8966310E-01
          1   -1    0    0  501    0  0.00000000000E+00  0.00000000000E+00  0.11412447376E+04  0.11412447376E+04  0.00000000000E+00 0. -1.
         -1   -1    0    0    0  501 -0.00000000000E+00 -0.00000000000E+00 -0.41891464439E+03  0.41891464439E+03  0.00000000000E+00 0.  1.
         23    2    1    2    0    0 -0.25732573209E+03 -0.10765006673E+02 -0.13387244778E+03  0.30431603992E+03  0.91400230373E+02 0.  0.
        254    2    1    2    0    0  0.25732573209E+03  0.10765006673E+02  0.85620254100E+03  0.12558433421E+04  0.88188847983E+03 0.  0.
        -24    2    4    4    0    0  0.50624538519E+03 -0.13507952507E+03  0.26524734131E+03  0.59334316364E+03  0.84670476826E+02 0.  0.
         24    2    4    4    0    0 -0.24891965310E+03  0.14584453174E+03  0.59095519970E+03  0.66250017844E+03  0.80292074637E+02 0.  0.
         11    1    3    3    0    0 -0.15792137996E+03  0.27674773985E+02 -0.11184697834E+03  0.19548606582E+03  0.00000000000E+00 0.  1.
        -11    1    3    3    0    0 -0.99404352128E+02 -0.38439780658E+02 -0.22025469439E+02  0.10882997410E+03  0.00000000000E+00 0. -1.
          4    1    6    6  502    0 -0.12233495797E+03  0.26366552015E+02  0.23378157211E+03  0.26516949385E+03  0.00000000000E+00 0. -1.
          1    1    5    5  503    0  0.34354646499E+03 -0.67701187483E+02  0.13932215667E+03  0.37685313815E+03  0.00000000000E+00 0. -1.
         -2    1    5    5    0  503  0.16269892020E+03 -0.67378337588E+02  0.12592518463E+03  0.21649002549E+03  0.00000000000E+00 0.  1.
         -3    1    6    6    0  502 -0.12658469513E+03  0.11947797973E+03  0.35717362758E+03  0.39733068460E+03  0.00000000000E+00 0.  1.
<mgrwt>
<rscale>  0 0.13828726E+04</rscale>
<asrwt>0</asrwt>
<pdfrwt beam="1">  1        1 0.17557611E+00 0.13828726E+04</pdfrwt>
<pdfrwt beam="2">  1       -1 0.64448407E-01 0.13828726E+04</pdfrwt>
<totfact> 0.28146300E+01</totfact>
</mgrwt>
</event>
<event>
12    1  0.1599266E-007  0.1645519E+04  0.7818608E-02  0.8793062E-01
         -1   -1    0    0    0  501 -0.00000000000E+00  0.00000000000E+00  0.47871923038E+03  0.47871923038E+03  0.00000000000E+00 0.  1.
          1   -1    0    0  501    0  0.00000000000E+00 -0.00000000000E+00 -0.14140501751E+04  0.14140501751E+04  0.00000000000E+00 0. -1.
         23    2    1    2    0    0 -0.35483721076E+03  0.17093404019E+03 -0.80529503059E+03  0.90100187019E+03  0.90423401601E+02 0.  0.
        254    2    1    2    0    0  0.35483721076E+03 -0.17093404019E+03 -0.13003591414E+03  0.99176753530E+03  0.90086936504E+03 0.  0.
        -24    2    4    4    0    0  0.58442370781E+03 -0.18816663378E+03  0.13318307331E+03  0.63343096235E+03  0.80865942952E+02 0.  0.
         24    2    4    4    0    0 -0.22958649705E+03  0.17232593592E+02 -0.26321898745E+03  0.35833657295E+03  0.78191701917E+02 0.  0.
         13    1    3    3    0    0 -0.21777714482E+03  0.60805665406E+02 -0.40611544522E+03  0.46481605888E+03  0.00000000000E+00 0.  1.
        -13    1    3    3    0    0 -0.13706006595E+03  0.11012837478E+03 -0.39917958537E+03  0.43618581131E+03  0.00000000000E+00 0. -1.
          2    1    6    6  502    0 -0.20022556460E+03  0.37261009089E+02 -0.24434991136E+03  0.31809674425E+03  0.00000000000E+00 0. -1.
          3    1    5    5  503    0  0.37988196864E+03 -0.81265739592E+02  0.84314238336E+02  0.39752147277E+03  0.00000000000E+00 0. -1.
         -2    1    5    5    0  503  0.20454173917E+03 -0.10690089419E+03  0.48868834974E+02  0.23590948957E+03  0.00000000000E+00 0.  1.
         -1    1    6    6    0  502 -0.29360932447E+02 -0.20028415497E+02 -0.18869076092E+02  0.40239828702E+02  0.00000000000E+00 0.  1.
<mgrwt>
<rscale>  0 0.16455188E+04</rscale>
<asrwt>0</asrwt>
<pdfrwt beam="1">  1        1 0.21754618E+00 0.16455188E+04</pdfrwt>
<pdfrwt beam="2">  1       -1 0.73649112E-01 0.16455188E+04</pdfrwt>
<totfact> 0.13332654E+01</totfact>
</mgrwt>
</event>
<event>
12    1  0.1599266E-007  0.2239195E+04  0.7818608E-02  0.8502289E-01
          2   -1    0    0  501    0  0.00000000000E+00  0.00000000000E+00  0.15317876306E+04  0.15317876306E+04  0.00000000000E+00 0. -1.
         -2   -1    0    0    0  501 -0.00000000000E+00 -0.00000000000E+00 -0.81832364744E+03  0.81832364744E+03  0.00000000000E+00 0.  1.
         23    2    1    2    0    0 -0.13484447112E+03  0.77733608815E+03 -0.23043540793E+03  0.82674208164E+03  0.89261228958E+02 0.  0.
        254    2    1    2    0    0  0.13484447112E+03 -0.77733608815E+03  0.94389939104E+03  0.15233691964E+04  0.89848384665E+03 0.  0.
        -24    2    4    4    0    0  0.23033953494E+03 -0.67402935870E+03  0.17504986444E+03  0.73763881261E+03  0.78081272222E+02 0.  0.
         24    2    4    4    0    0 -0.95495063817E+02 -0.10330672944E+03  0.76884952660E+03  0.78573038376E+03  0.80318452686E+02 0.  0.
         13    1    3    3    0    0 -0.18034237473E+02  0.24185431962E+03 -0.35906673257E+02  0.24516940026E+03  0.00000000000E+00 0. -1.
        -13    1    3    3    0    0 -0.11681023365E+03  0.53548176852E+03 -0.19452873467E+03  0.58157268137E+03  0.00000000000E+00 0.  1.
          4    1    6    6  502    0 -0.68215546409E+02 -0.99593860296E+02  0.71635039340E+03  0.72645040017E+03  0.00000000000E+00 0. -1.
          3    1    5    5  503    0  0.12976455911E+03 -0.28300529310E+03  0.52776285374E+02  0.31577867728E+03  0.00000000000E+00 0. -1.
         -4    1    5    5    0  503  0.10057497583E+03 -0.39102406560E+03  0.12227357907E+03  0.42186013533E+03  0.00000000000E+00 0.  1.
         -3    1    6    6    0  502 -0.27279517408E+02 -0.37128691470E+01  0.52499133200E+02  0.59279983587E+02  0.00000000000E+00 0.  1.
<mgrwt>
<rscale>  0 0.22391945E+04</rscale>
<asrwt>0</asrwt>
<pdfrwt beam="1">  1        2 0.23565964E+00 0.22391945E+04</pdfrwt>
<pdfrwt beam="2">  1       -2 0.12589595E+00 0.22391945E+04</pdfrwt>
<totfact> 0.52272752E+00</totfact>
</mgrwt>
</event>
<event>
12    1  0.1599266E-007  0.2812323E+04  0.7818608E-02  0.8299453E-01
         -2   -1    0    0    0  501 -0.00000000000E+00  0.00000000000E+00  0.76759095797E+03  0.76759095797E+03  0.00000000000E+00 0. -1.
          2   -1    0    0  501    0  0.00000000000E+00 -0.00000000000E+00 -0.25759687205E+04  0.25759687205E+04  0.00000000000E+00 0.  1.
         23    2    1    2    0    0 -0.39248923080E+02 -0.49921004332E+03 -0.21897983808E+04  0.22481422662E+04  0.90418776603E+02 0.  0.
        254    2    1    2    0    0  0.39248923080E+02  0.49921004332E+03  0.38142061829E+03  0.10954174123E+04  0.89649677843E+03 0.  0.
        -24    2    4    4    0    0 -0.10741393348E+03  0.69532892543E+03  0.10125914534E+03  0.71498542867E+03  0.77010915116E+02 0.  0.
         24    2    4    4    0    0  0.14666285656E+03 -0.19611888211E+03  0.28016147294E+03  0.38043198360E+03  0.79154493269E+02 0.  0.
         13    1    3    3    0    0 -0.35453123155E+02 -0.47040740702E+03 -0.19341343217E+04  0.19908328978E+04  0.00000000000E+00 0.  1.
        -13    1    3    3    0    0 -0.37957999249E+01 -0.28802636304E+02 -0.25566405906E+03  0.25730936837E+03  0.00000000000E+00 0. -1.
          4    1    6    6  502    0  0.21470658030E+02 -0.29248909172E+02  0.73824288495E+01  0.37026856465E+02  0.00000000000E+00 0. -1.
          1    1    5    5  503    0 -0.57660588768E+02  0.17569580708E+03  0.11111354803E+02  0.18524908186E+03  0.00000000000E+00 0. -1.
         -2    1    5    5    0  503 -0.49753344716E+02  0.51963311835E+03  0.90147790538E+02  0.52973634682E+03  0.00000000000E+00 0.  1.
         -3    1    6    6    0  502  0.12519219853E+03 -0.16686997294E+03  0.27277904409E+03  0.34340512713E+03  0.00000000000E+00 0.  1.
<mgrwt>
<rscale>  0 0.28123231E+04</rscale>
<asrwt>0</asrwt>
<pdfrwt beam="1">  1        2 0.39630288E+00 0.28123231E+04</pdfrwt>
<pdfrwt beam="2">  1       -2 0.11809092E+00 0.28123231E+04</pdfrwt>
<totfact> 0.15095474E+00</totfact>
</mgrwt>
</event>
<event>
12    1  0.1599266E-007  0.1865613E+04  0.7818608E-02  0.8672165E-01
          2   -1    0    0  501    0  0.00000000000E+00  0.00000000000E+00  0.12248650055E+04  0.12248650055E+04  0.00000000000E+00 0. -1.
         -2   -1    0    0    0  501 -0.00000000000E+00 -0.00000000000E+00 -0.71038670653E+03  0.71038670653E+03  0.00000000000E+00 0.  1.
         23    2    1    2    0    0 -0.51557453546E+03  0.44416086314E+03  0.41365060556E+03  0.80175436232E+03  0.92775320263E+02 0.  0.
        254    2    1    2    0    0  0.51557453546E+03 -0.44416086314E+03  0.10082769344E+03  0.11334973497E+04  0.90086294416E+03 0.  0.
        -24    2    4    4    0    0 -0.12561410166E+03 -0.34447213458E+03 -0.18672121727E+03  0.41924318716E+03  0.80374641320E+02 0.  0.
         24    2    4    4    0    0  0.64118863712E+03 -0.99688728566E+02  0.28754891071E+03  0.71425416259E+03  0.80086963651E+02 0.  0.
         13    1    3    3    0    0 -0.46788053350E+03  0.39823882550E+03  0.40275617729E+03  0.73465562960E+03  0.00000000000E+00 0.  1.
        -13    1    3    3    0    0 -0.47694001966E+02  0.45922037637E+02  0.10894428269E+02  0.67098732712E+02  0.00000000000E+00 0. -1.
          4    1    6    6  502    0  0.22261409118E+03 -0.21375587310E+02  0.60539713328E+02  0.23168730266E+03  0.00000000000E+00 0. -1.
          1    1    5    5  503    0 -0.28832278280E+02 -0.58548285338E+02 -0.18866631256E+01  0.65289826808E+02  0.00000000000E+00 0. -1.
         -2    1    5    5    0  503 -0.96781823378E+02 -0.28592384924E+03 -0.18483455415E+03  0.35395336035E+03  0.00000000000E+00 0.  1.
         -3    1    6    6    0  502  0.41857454594E+03 -0.78313141255E+02  0.22700919738E+03  0.48256685993E+03  0.00000000000E+00 0.  1.
<mgrwt>
<rscale>  0 0.18656128E+04</rscale>
<asrwt>0</asrwt>
<pdfrwt beam="1">  1        2 0.18844077E+00 0.18656128E+04</pdfrwt>
<pdfrwt beam="2">  1       -2 0.10929026E+00 0.18656128E+04</pdfrwt>
<totfact> 0.11475224E+01</totfact>
</mgrwt>
</event>
<event>
12    1  0.1923320E-007  0.2061092E+04  0.7818608E-02  0.8578579E-01
         -1   -1    0    0    0  501 -0.00000000000E+00  0.00000000000E+00  0.97875201005E+03  0.97875201005E+03  0.00000000000E+00 0.  1.
          1   -1    0    0  501    0  0.00000000000E+00 -0.00000000000E+00 -0.10850805316E+04  0.10850805316E+04  0.00000000000E+00 0. -1.
         23    2    1    2    0    0  0.77061847151E+03 -0.19288135110E+03 -0.28445887318E+03  0.84897823645E+03  0.93761139072E+02 0.  0.
        254    2    1    2    0    0 -0.77061847151E+03  0.19288135110E+03  0.17813035160E+03  0.12148543052E+04  0.90171199200E+03 0.  0.
        -24    2    4    4    0    0  0.11969928617E+03  0.95386592719E+02  0.25991310792E+03  0.31195882124E+03  0.79605033146E+02 0.  0.
         24    2    4    4    0    0 -0.89031775768E+03  0.97494758382E+02 -0.81782756321E+02  0.90289548398E+03  0.79755239318E+02 0.  0.
         11    1    3    3    0    0  0.13963363625E+03 -0.29299098051E+02 -0.14377737382E+02  0.14339703222E+03  0.00000000000E+00 0.  1.
        -11    1    3    3    0    0  0.63098483526E+03 -0.16358225305E+03 -0.27008113579E+03  0.70558120422E+03  0.00000000000E+00 0. -1.
          4    1    6    6  502    0 -0.32228644858E+02 -0.32449455264E+01  0.10373640683E+02  0.34012169026E+02  0.00000000000E+00 0. -1.
          1    1    5    5  503    0  0.10318851267E+02  0.44076322707E+02  0.37226577542E+02  0.58609035057E+02  0.00000000000E+00 0. -1.
         -2    1    5    5    0  503  0.10938043491E+03  0.51310270012E+02  0.22268653038E+03  0.25334978619E+03  0.00000000000E+00 0.  1.
         -3    1    6    6    0  502 -0.85808911282E+03  0.10073970391E+03 -0.92156397004E+02  0.86888331495E+03  0.00000000000E+00 0.  1.
<mgrwt>
<rscale>  0 0.20610917E+04</rscale>
<asrwt>0</asrwt>
<pdfrwt beam="1">  1        1 0.16693547E+00 0.20610917E+04</pdfrwt>
<pdfrwt beam="2">  1       -1 0.15057723E+00 0.20610917E+04</pdfrwt>
<totfact> 0.41465136E+00</totfact>
</mgrwt>
</event>
<event>
12    1  0.1599266E-007  0.2157234E+04  0.7818608E-02  0.8536442E-01
          2   -1    0    0  501    0  0.00000000000E+00  0.00000000000E+00  0.30775952277E+04  0.30775952277E+04  0.00000000000E+00 0. -1.
         -2   -1    0    0    0  501 -0.00000000000E+00 -0.00000000000E+00 -0.37802724928E+03  0.37802724928E+03  0.00000000000E+00 0.  1.
         23    2    1    2    0    0 -0.29225023995E+03  0.14669505125E+03 -0.20149935404E+03  0.39522915966E+03  0.93136771256E+02 0.  0.
        254    2    1    2    0    0  0.29225023995E+03 -0.14669505125E+03  0.29010673324E+04  0.30603933173E+04  0.91808820294E+03 0.  0.
        -24    2    4    4    0    0  0.39256848227E+01 -0.21247152453E+03  0.26607985768E+04  0.26704651568E+04  0.79846903447E+02 0.  0.
         24    2    4    4    0    0  0.28832455512E+03  0.65776473286E+02  0.24026875566E+03  0.38992816045E+03  0.82808827078E+02 0.  0.
         11    1    3    3    0    0 -0.24108891839E+02 -0.82293132211E+00 -0.46017012301E+02  0.51956532821E+02  0.00000000000E+00 0. -1.
        -11    1    3    3    0    0 -0.26814134811E+03  0.14751798257E+03 -0.15548234173E+03  0.34327262684E+03  0.00000000000E+00 0.  1.
          2    1    6    6  502    0  0.23848337092E+03  0.31031185297E+02  0.15837658566E+03  0.28795901714E+03  0.00000000000E+00 0. -1.
          3    1    5    5  503    0 -0.19741855014E+02 -0.19417435017E+03  0.24095802007E+04  0.24174718536E+04  0.00000000000E+00 0. -1.
         -4    1    5    5    0  503  0.23667539837E+02 -0.18297174366E+02  0.25121837606E+03  0.25299330328E+03  0.00000000000E+00 0.  1.
         -1    1    6    6    0  502  0.49841184203E+02  0.34745287989E+02  0.81892170009E+02  0.10196914332E+03  0.00000000000E+00 0.  1.
<mgrwt>
<rscale>  0 0.21572342E+04</rscale>
<asrwt>0</asrwt>
<pdfrwt beam="1">  1        2 0.47347617E+00 0.21572342E+04</pdfrwt>
<pdfrwt beam="2">  1       -2 0.58158040E-01 0.21572342E+04</pdfrwt>
<totfact> 0.39529186E+00</totfact>
</mgrwt>
</event>
<event>
12    1  0.1599266E-007  0.1792426E+04  0.7818608E-02  0.8710337E-01
         -2   -1    0    0    0  501 -0.00000000000E+00  0.00000000000E+00  0.65014410305E+03  0.65014410305E+03  0.00000000000E+00 0.  1.
          2   -1    0    0  501    0  0.00000000000E+00 -0.00000000000E+00 -0.12354153221E+04  0.12354153221E+04  0.00000000000E+00 0. -1.
         23    2    1    2    0    0 -0.13867588363E+03  0.47022239961E+03 -0.69031079469E+03  0.85178123995E+03  0.93070842154E+02 0.  0.
        254    2    1    2    0    0  0.13867588363E+03 -0.47022239961E+03  0.10503957560E+03  0.10337781852E+04  0.90405968722E+03 0.  0.
        -24    2    4    4    0    0  0.14864452386E+03  0.80006742341E+02 -0.29429122712E+03  0.34854307263E+03  0.79866600171E+02 0.  0.
         24    2    4    4    0    0 -0.99686402262E+01 -0.55022914195E+03  0.39933080272E+03  0.68523511262E+03  0.85032859139E+02 0.  0.
         13    1    3    3    0    0  0.40651270399E+01  0.35215239362E+02 -0.22099582163E+02  0.41773554708E+02  0.00000000000E+00 0.  1.
        -13    1    3    3    0    0 -0.14274101067E+03  0.43500716025E+03 -0.66821121253E+03  0.81000768524E+03  0.00000000000E+00 0. -1.
          4    1    6    6  502    0  0.82869567279E+01 -0.80053949854E+01  0.20548768123E+02  0.23558689948E+02  0.00000000000E+00 0. -1.
          1    1    5    5  503    0  0.84271907861E+02  0.14391566930E+01 -0.11664046986E+03  0.14390561085E+03  0.00000000000E+00 0. -1.
         -2    1    5    5    0  503  0.64372615997E+02  0.78567585648E+02 -0.17765075726E+03  0.20463746177E+03  0.00000000000E+00 0.  1.
         -3    1    6    6    0  502 -0.18255596954E+02 -0.54222374696E+03  0.37878203459E+03  0.66167642267E+03  0.00000000000E+00 0.  1.
<mgrwt>
<rscale>  0 0.17924263E+04</rscale>
<asrwt>0</asrwt>
<pdfrwt beam="1">  1        2 0.19006389E+00 0.17924263E+04</pdfrwt>
<pdfrwt beam="2">  1       -2 0.10002217E+00 0.17924263E+04</pdfrwt>
<totfact> 0.14073509E+01</totfact>
</mgrwt>
</event>
<event>
12    1  0.1599266E-007  0.2195941E+04  0.7818608E-02  0.8520120E-01
         -2   -1    0    0    0  501 -0.00000000000E+00  0.00000000000E+00  0.13297093492E+04  0.13297093492E+04  0.00000000000E+00 0.  1.
          2   -1    0    0  501    0  0.00000000000E+00 -0.00000000000E+00 -0.90661833090E+03  0.90661833090E+03  0.00000000000E+00 0. -1.
         23    2    1    2    0    0  0.17273702405E+03 -0.63416628929E+03 -0.45563357315E+03  0.80480353350E+03  0.90010069486E+02 0.  0.
        254    2    1    2    0    0 -0.17273702405E+03  0.63416628929E+03  0.87872459145E+03  0.14315241466E+04  0.91929294176E+03 0.  0.
        -24    2    4    4    0    0 -0.39196776607E+03  0.67572904090E+03  0.36546598061E+03  0.86608797344E+03  0.79338063962E+02 0.  0.
         24    2    4    4    0    0  0.21923074202E+03 -0.41562751619E+02  0.51325861085E+03  0.56543617318E+03  0.80585878166E+02 0.  0.
         13    1    3    3    0    0 -0.56128214201E+01 -0.33665800360E+02 -0.42073014366E+02  0.54175902540E+02  0.00000000000E+00 0.  1.
        -13    1    3    3    0    0  0.17834984547E+03 -0.60050048892E+03 -0.41356055878E+03  0.75062763096E+03  0.00000000000E+00 0. -1.
          4    1    6    6  502    0  0.15032216990E+02  0.15316746207E+02  0.23789490895E+02  0.32039196917E+02  0.00000000000E+00 0. -1.
          3    1    5    5  503    0 -0.61596808077E+02  0.71450868828E+02  0.23755341365E+02  0.97281599828E+02  0.00000000000E+00 0. -1.
         -4    1    5    5    0  503 -0.33037095799E+03  0.60427817208E+03  0.34171063924E+03  0.76880637361E+03  0.00000000000E+00 0.  1.
         -3    1    6    6    0  502  0.20419852503E+03 -0.56879497826E+02  0.48946911995E+03  0.53339697626E+03  0.00000000000E+00 0.  1.
<mgrwt>
<rscale>  0 0.21959407E+04</rscale>
<asrwt>0</asrwt>
<pdfrwt beam="1">  1        2 0.13947974E+00 0.21959407E+04</pdfrwt>
<pdfrwt beam="2">  1       -2 0.20457067E+00 0.21959407E+04</pdfrwt>
<totfact> 0.32933613E+00</totfact>
</mgrwt>
</event>
<event>
12    1  0.1599266E-007  0.2528900E+04  0.7818608E-02  0.8392762E-01
         -2   -1    0    0    0  501 -0.00000000000E+00  0.00000000000E+00  0.15237999830E+04  0.15237999830E+04  0.00000000000E+00 0.  1.
          2   -1    0    0  501    0  0.00000000000E+00 -0.00000000000E+00 -0.10492412523E+04  0.10492412523E+04  0.00000000000E+00 0. -1.
         23    2    1    2    0    0  0.10121266977E+04  0.43857126906E+03  0.26068911484E+03  0.11372024943E+04  0.92333570703E+02 0.  0.
        254    2    1    2    0    0 -0.10121266977E+04 -0.43857126906E+03  0.21386961592E+03  0.14358387410E+04  0.89395048363E+03 0.  0.
        -24    2    4    4    0    0  0.97418139523E+02 -0.10866271348E+03 -0.14378934423E+03  0.22157341261E+03  0.84389113334E+02 0.  0.
         24    2    4    4    0    0 -0.11095448372E+04 -0.32990855558E+03  0.35765896016E+03  0.12142653283E+04  0.81184696887E+02 0.  0.
         13    1    3    3    0    0  0.41461474806E+03  0.21926735038E+03  0.82298487361E+02  0.47618966944E+03  0.00000000000E+00 0. -1.
        -13    1    3    3    0    0  0.59751194963E+03  0.21930391868E+03  0.17839062748E+03  0.66101282489E+03  0.00000000000E+00 0.  1.
          4    1    6    6  502    0 -0.15689301487E+03 -0.66466069707E+02  0.75536218354E+02  0.18638368175E+03  0.00000000000E+00 0. -1.
          3    1    5    5  503    0  0.79006975506E+02 -0.56355825988E+02 -0.42179000081E+02  0.10581658353E+03  0.00000000000E+00 0. -1.
         -4    1    5    5    0  503  0.18411164017E+02 -0.52306887495E+02 -0.10161034415E+03  0.11575682908E+03  0.00000000000E+00 0.  1.
         -1    1    6    6    0  502 -0.95265182234E+03 -0.26344248587E+03  0.28212274180E+03  0.10278816466E+04  0.00000000000E+00 0.  1.
<mgrwt>
<rscale>  0 0.25289000E+04</rscale>
<asrwt>0</asrwt>
<pdfrwt beam="1">  1        2 0.16142173E+00 0.25289000E+04</pdfrwt>
<pdfrwt beam="2">  1       -2 0.23443077E+00 0.25289000E+04</pdfrwt>
<totfact> 0.16724302E+00</totfact>
</mgrwt>
</event>
<event>
12    1  0.1599266E-007  0.1479356E+04  0.7818608E-02  0.8898298E-01
          2   -1    0    0  501    0  0.00000000000E+00  0.00000000000E+00  0.11304025605E+04  0.11304025605E+04  0.00000000000E+00 0. -1.
         -2   -1    0    0    0  501 -0.00000000000E+00 -0.00000000000E+00 -0.48400757011E+03  0.48400757011E+03  0.00000000000E+00 0.  1.
         23    2    1    2    0    0 -0.40171926946E+03  0.50352373480E+02  0.44508649785E+03  0.61338210796E+03  0.11925555258E+03 0.  0.
        254    2    1    2    0    0  0.40171926946E+03 -0.50352373480E+02  0.20130849252E+03  0.10010280226E+04  0.89309476539E+03 0.  0.
        -24    2    4    4    0    0  0.48275906182E+03 -0.31439121268E+03 -0.93888463782E+02  0.58888056865E+03  0.77891810375E+02 0.  0.
         24    2    4    4    0    0 -0.81039792360E+02  0.26403883920E+03  0.29519695630E+03  0.41214745398E+03  0.80251630872E+02 0.  0.
         13    1    3    3    0    0 -0.10562745128E+03 -0.28154818062E+02  0.73108523250E+02  0.13150934726E+03  0.00000000000E+00 0.  1.
        -13    1    3    3    0    0 -0.29609181818E+03  0.78507191542E+02  0.37197797460E+03  0.48187276070E+03  0.00000000000E+00 0. -1.
          4    1    6    6  502    0 -0.34691723998E+02  0.54553733952E+02  0.30687672432E+02  0.71563669843E+02  0.00000000000E+00 0. -1.
          3    1    5    5  503    0  0.45848651344E+03 -0.27396088152E+03 -0.83438132123E+02  0.54057966064E+03  0.00000000000E+00 0. -1.
         -4    1    5    5    0  503  0.24272548383E+02 -0.40430331163E+02 -0.10450331659E+02  0.48300908011E+02  0.00000000000E+00 0.  1.
         -3    1    6    6    0  502 -0.46348068362E+02  0.20948510525E+03  0.26450928387E+03  0.34058378414E+03  0.00000000000E+00 0.  1.
<mgrwt>
<rscale>  0 0.14793558E+04</rscale>
<asrwt>0</asrwt>
<pdfrwt beam="1">  1        2 0.17390809E+00 0.14793558E+04</pdfrwt>
<pdfrwt beam="2">  1       -2 0.74462703E-01 0.14793558E+04</pdfrwt>
<totfact> 0.32769467E+01</totfact>
</mgrwt>
</event>
<event>
12    1  0.1599266E-007  0.1561046E+04  0.7818608E-02  0.8844843E-01
         -2   -1    0    0    0  501 -0.00000000000E+00  0.00000000000E+00  0.24431966102E+03  0.24431966102E+03  0.00000000000E+00 0.  1.
          2   -1    0    0  501    0  0.00000000000E+00 -0.00000000000E+00 -0.24935201683E+04  0.24935201683E+04  0.00000000000E+00 0. -1.
         23    2    1    2    0    0 -0.38617346107E+03 -0.23626019100E+03 -0.32190985556E+03  0.56293364349E+03  0.91211358803E+02 0.  0.
        254    2    1    2    0    0  0.38617346107E+03  0.23626019100E+03 -0.19272906517E+04  0.21749061858E+04  0.90045479680E+03 0.  0.
        -24    2    4    4    0    0 -0.21738324360E+03  0.27234387133E+03 -0.10260191686E+04  0.10865446669E+04  0.80232911574E+02 0.  0.
         24    2    4    4    0    0  0.60355670467E+03 -0.36083680328E+02 -0.90127148313E+03  0.10883615189E+04  0.81595231236E+02 0.  0.
         11    1    3    3    0    0 -0.30104301848E+03 -0.15407131424E+03 -0.27409308027E+03  0.43530665685E+03  0.00000000000E+00 0.  1.
        -11    1    3    3    0    0 -0.85130442586E+02 -0.82188876756E+02 -0.47816775295E+02  0.12762698663E+03  0.00000000000E+00 0. -1.
          2    1    6    6  502    0  0.53991097957E+03 -0.52444326919E+02 -0.82874959598E+03  0.99049490969E+03  0.00000000000E+00 0. -1.
          3    1    5    5  503    0 -0.18356871100E+03  0.25882043959E+03 -0.96086974053E+03  0.10119071844E+04  0.00000000000E+00 0. -1.
         -4    1    5    5    0  503 -0.33814532604E+02  0.13523431740E+02 -0.65149428038E+02  0.74637482506E+02  0.00000000000E+00 0.  1.
         -1    1    6    6    0  502  0.63645725104E+02  0.16360646591E+02 -0.72521887147E+02  0.97866609200E+02  0.00000000000E+00 0.  1.
<mgrwt>
<rscale>  0 0.15610458E+04</rscale>
<asrwt>0</asrwt>
<pdfrwt beam="1">  1        2 0.38361847E+00 0.15610458E+04</pdfrwt>
<pdfrwt beam="2">  1       -2 0.37587641E-01 0.15610458E+04</pdfrwt>
<totfact> 0.22601434E+01</totfact>
</mgrwt>
</event>
<event>
12    1  0.1599266E-007  0.1735865E+04  0.7818608E-02  0.8741169E-01
         -2   -1    0    0    0  501 -0.00000000000E+00  0.00000000000E+00  0.44734086704E+03  0.44734086704E+03  0.00000000000E+00 0. -1.
          2   -1    0    0  501    0  0.00000000000E+00 -0.00000000000E+00 -0.16839663950E+04  0.16839663950E+04  0.00000000000E+00 0.  1.
         23    2    1    2    0    0 -0.50815403167E+03 -0.34276281967E+03 -0.26723347447E+03  0.67481717526E+03  0.90871446032E+02 0.  0.
        254    2    1    2    0    0  0.50815403167E+03  0.34276281967E+03 -0.96939205348E+03  0.14564900868E+04  0.89773913194E+03 0.  0.
        -24    2    4    4    0    0  0.16509698983E+03  0.56958265097E+03 -0.81303557552E+03  0.10094665024E+04  0.79462947395E+02 0.  0.
         24    2    4    4    0    0  0.34305704184E+03 -0.22681983130E+03 -0.15635647796E+03  0.44702358439E+03  0.79040287026E+02 0.  0.
         13    1    3    3    0    0 -0.39841309691E+03 -0.24190266738E+03 -0.23635398767E+03  0.52260224240E+03  0.00000000000E+00 0. -1.
        -13    1    3    3    0    0 -0.10974093476E+03 -0.10086015229E+03 -0.30879486805E+02  0.15221493286E+03  0.00000000000E+00 0.  1.
          2    1    6    6  502    0  0.82327952330E+02 -0.30827339262E+02 -0.61652777291E+02  0.10737449198E+03  0.00000000000E+00 0. -1.
          1    1    5    5  503    0  0.34271948292E+02  0.10369116699E+03 -0.10234528662E+03  0.14966957688E+03  0.00000000000E+00 0. -1.
         -4    1    5    5    0  503  0.13082504154E+03  0.46589148398E+03 -0.71069028890E+03  0.85979692549E+03  0.00000000000E+00 0.  1.
         -1    1    6    6    0  502  0.26072908951E+03 -0.19599249204E+03 -0.94703700665E+02  0.33964909240E+03  0.00000000000E+00 0.  1.
<mgrwt>
<rscale>  0 0.17358652E+04</rscale>
<asrwt>0</asrwt>
<pdfrwt beam="1">  1        2 0.25907175E+00 0.17358652E+04</pdfrwt>
<pdfrwt beam="2">  1       -2 0.68821673E-01 0.17358652E+04</pdfrwt>
<totfact> 0.18322240E+01</totfact>
</mgrwt>
</event>
<event>
12    1  0.1599266E-007  0.1430558E+04  0.7818608E-02  0.8931992E-01
          2   -1    0    0  501    0  0.00000000000E+00  0.00000000000E+00  0.10245371606E+04  0.10245371606E+04  0.00000000000E+00 0. -1.
         -2   -1    0    0    0  501 -0.00000000000E+00 -0.00000000000E+00 -0.49937076853E+03  0.49937076853E+03  0.00000000000E+00 0.  1.
         23    2    1    2    0    0  0.13463483937E+03  0.13569315426E+03  0.56237977886E+03  0.60089349572E+03  0.90899974937E+02 0.  0.
        254    2    1    2    0    0 -0.13463483937E+03 -0.13569315426E+03 -0.37213386787E+02  0.92301443340E+03  0.90223701766E+03 0.  0.
        -24    2    4    4    0    0  0.25836395958E+03  0.12119487839E+03  0.23222434336E+03  0.37567600639E+03  0.75922210016E+02 0.  0.
         24    2    4    4    0    0 -0.39299879895E+03 -0.25688803265E+03 -0.26943773014E+03  0.54733842701E+03  0.80889714843E+02 0.  0.
         11    1    3    3    0    0  0.28636272427E+02 -0.89005837284E+01  0.53164810910E+02  0.61038951567E+02  0.00000000000E+00 0.  1.
        -11    1    3    3    0    0  0.10599856694E+03  0.14459373799E+03  0.50921496795E+03  0.53985454416E+03  0.00000000000E+00 0. -1.
          2    1    6    6  502    0 -0.10030407755E+03 -0.32650866674E+02 -0.82652157786E+02  0.13400882902E+03  0.00000000000E+00 0. -1.
          1    1    5    5  503    0  0.17792566547E+03  0.42886469308E+02  0.14173178766E+03  0.23148367397E+03  0.00000000000E+00 0. -1.
         -2    1    5    5    0  503  0.80438294109E+02  0.78308409079E+02  0.90492555695E+02  0.14419233242E+03  0.00000000000E+00 0.  1.
         -3    1    6    6    0  502 -0.29269472139E+03 -0.22423716598E+03 -0.18678557236E+03  0.41332959799E+03  0.00000000000E+00 0.  1.
<mgrwt>
<rscale>  0 0.14305578E+04</rscale>
<asrwt>0</asrwt>
<pdfrwt beam="1">  1        2 0.15762110E+00 0.14305578E+04</pdfrwt>
<pdfrwt beam="2">  1       -2 0.76826272E-01 0.14305578E+04</pdfrwt>
<totfact> 0.35718177E+01</totfact>
</mgrwt>
</event>
<event>
12    1  0.1599266E-007  0.1415254E+04  0.7818608E-02  0.8942850E-01
         -1   -1    0    0    0  501 -0.00000000000E+00  0.00000000000E+00  0.79783918808E+03  0.79783918808E+03  0.00000000000E+00 0.  1.
          1   -1    0    0  501    0  0.00000000000E+00 -0.00000000000E+00 -0.62761516717E+03  0.62761516717E+03  0.00000000000E+00 0. -1.
         23    2    1    2    0    0  0.34608687762E+02 -0.36415438434E+03 -0.56802039366E+02  0.38125138911E+03  0.91213886650E+02 0.  0.
        254    2    1    2    0    0 -0.34608687762E+02  0.36415438434E+03  0.22702606027E+03  0.10442029661E+04  0.95132162046E+03 0.  0.
        -24    2    4    4    0    0  0.32582425740E+03  0.92478857401E+02 -0.21397622721E+03  0.40850284650E+03  0.79843371713E+02 0.  0.
         24    2    4    4    0    0 -0.36043294516E+03  0.27167552694E+03  0.44100228749E+03  0.63570011965E+03  0.76890341752E+02 0.  0.
         11    1    3    3    0    0  0.50343926629E+02 -0.26889014210E+03 -0.73497295204E+02  0.28326360845E+03  0.00000000000E+00 0. -1.
        -11    1    3    3    0    0 -0.15735238867E+02 -0.95264242234E+02  0.16695255838E+02  0.97987780657E+02  0.00000000000E+00 0.  1.
          2    1    6    6  502    0 -0.28561275265E+03  0.20752786883E+03  0.38491124365E+03  0.52230175790E+03  0.00000000000E+00 0. -1.
          3    1    5    5  503    0  0.55232745871E+02  0.26363223331E+02 -0.76216112285E+02  0.97747488626E+02  0.00000000000E+00 0. -1.
         -4    1    5    5    0  503  0.27059151153E+03  0.66115634069E+02 -0.13776011493E+03  0.31075535787E+03  0.00000000000E+00 0.  1.
         -1    1    6    6    0  502 -0.74820192514E+02  0.64147658108E+02  0.56091043842E+02  0.11339836175E+03  0.00000000000E+00 0.  1.
<mgrwt>
<rscale>  0 0.14152540E+04</rscale>
<asrwt>0</asrwt>
<pdfrwt beam="1">  1        1 0.96556180E-01 0.14152540E+04</pdfrwt>
<pdfrwt beam="2">  1       -1 0.12274449E+00 0.14152540E+04</pdfrwt>
<totfact> 0.18295617E+01</totfact>
</mgrwt>
</event>
<event>
12    1  0.1599266E-007  0.2416409E+04  0.7818608E-02  0.8433386E-01
          1   -1    0    0  501    0  0.00000000000E+00  0.00000000000E+00  0.24291731500E+04  0.24291731500E+04  0.00000000000E+00 0. -1.
         -1   -1    0    0    0  501 -0.00000000000E+00 -0.00000000000E+00 -0.60092820400E+03  0.60092820400E+03  0.00000000000E+00 0.  1.
         23    2    1    2    0    0 -0.71964199999E+03 -0.59757892109E+03  0.22073886401E+03  0.96597493078E+03  0.96936813049E+02 0.  0.
        254    2    1    2    0    0  0.71964199999E+03  0.59757892109E+03  0.16075060820E+04  0.20641264232E+04  0.89529710838E+03 0.  0.
        -24    2    4    4    0    0  0.56805650492E+03  0.82677753417E+03  0.12964954023E+04  0.16413463328E+04  0.82874436213E+02 0.  0.
         24    2    4    4    0    0  0.15158549507E+03 -0.22919861308E+03  0.31101067964E+03  0.42278009039E+03  0.80654791700E+02 0.  0.
         13    1    3    3    0    0 -0.50333869026E+03 -0.36889755144E+03  0.12005122882E+03  0.63548999843E+03  0.00000000000E+00 0.  1.
        -13    1    3    3    0    0 -0.21630330974E+03 -0.22868136965E+03  0.10068763519E+03  0.33048493235E+03  0.00000000000E+00 0. -1.
          4    1    6    6  502    0  0.12921190608E+03 -0.22888012181E+03  0.29592062507E+03  0.39579141372E+03  0.00000000000E+00 0. -1.
          3    1    5    5  503    0  0.44200178457E+03  0.68794220963E+03  0.10862844631E+04  0.13596484826E+04  0.00000000000E+00 0. -1.
         -4    1    5    5    0  503  0.12605472035E+03  0.13883532454E+03  0.21021093919E+03  0.28169785022E+03  0.00000000000E+00 0.  1.
         -3    1    6    6    0  502  0.22373588995E+02 -0.31849126109E+00  0.15090054577E+02  0.26988676669E+02  0.00000000000E+00 0.  1.
<mgrwt>
<rscale>  0 0.24164095E+04</rscale>
<asrwt>0</asrwt>
<pdfrwt beam="1">  1        1 0.37371894E+00 0.24164095E+04</pdfrwt>
<pdfrwt beam="2">  1       -1 0.92450494E-01 0.24164095E+04</pdfrwt>
<totfact> 0.15441663E+00</totfact>
</mgrwt>
</event>
<event>
12    1  0.1599266E-007  0.1803352E+04  0.7818608E-02  0.8704519E-01
          2   -1    0    0  501    0  0.00000000000E+00  0.00000000000E+00  0.42899025149E+03  0.42899025149E+03  0.00000000000E+00 0. -1.
         -2   -1    0    0    0  501 -0.00000000000E+00 -0.00000000000E+00 -0.18951941053E+04  0.18951941053E+04  0.00000000000E+00 0.  1.
         23    2    1    2    0    0 -0.62756940609E+03 -0.20920922997E+03 -0.70739732796E+03  0.97221968234E+03  0.84783664411E+02 0.  0.
        254    2    1    2    0    0  0.62756940609E+03  0.20920922997E+03 -0.75880652582E+03  0.13519646744E+04  0.90244627313E+03 0.  0.
        -24    2    4    4    0    0  0.30796681400E+03  0.17127420001E+03 -0.91646468889E+03  0.98475497964E+03  0.75209266872E+02 0.  0.
         24    2    4    4    0    0  0.31960259209E+03  0.37935029953E+02  0.15765816307E+03  0.36720969478E+03  0.80012375218E+02 0.  0.
         11    1    3    3    0    0 -0.47962526062E+03 -0.18146950223E+03 -0.58716315257E+03  0.77957176616E+03  0.00000000000E+00 0.  1.
        -11    1    3    3    0    0 -0.14794414547E+03 -0.27739727741E+02 -0.12023417540E+03  0.19264791618E+03  0.00000000000E+00 0. -1.
          2    1    6    6  502    0  0.68932573804E+02  0.19920774349E+01  0.99675674970E-01  0.68961424282E+02  0.00000000000E+00 0. -1.
          3    1    5    5  503    0  0.39541114118E+02  0.88549076050E+00 -0.14614002757E+03  0.15139746186E+03  0.00000000000E+00 0. -1.
         -4    1    5    5    0  503  0.26842569988E+03  0.17038870925E+03 -0.77032466132E+03  0.83335751778E+03  0.00000000000E+00 0.  1.
         -3    1    6    6    0  502  0.25067001828E+03  0.35942952518E+02  0.15755848740E+03  0.29824827050E+03  0.00000000000E+00 0.  1.
<mgrwt>
<rscale>  0 0.18033522E+04</rscale>
<asrwt>0</asrwt>
<pdfrwt beam="1">  1        2 0.65998500E-01 0.18033522E+04</pdfrwt>
<pdfrwt beam="2">  1       -2 0.29156832E+00 0.18033522E+04</pdfrwt>
<totfact> 0.24846078E+00</totfact>
</mgrwt>
</event>
<event>
12    1  0.1599266E-007  0.1694594E+04  0.7818608E-02  0.8764454E-01
         -2   -1    0    0    0  501 -0.00000000000E+00  0.00000000000E+00  0.84840684480E+03  0.84840684480E+03  0.00000000000E+00 0.  1.
          2   -1    0    0  501    0  0.00000000000E+00 -0.00000000000E+00 -0.84618870262E+03  0.84618870262E+03  0.00000000000E+00 0. -1.
         23    2    1    2    0    0  0.45718062853E+03 -0.21765493736E+03  0.37436410946E+03  0.63572985098E+03  0.87270602815E+02 0.  0.
        254    2    1    2    0    0 -0.45718062853E+03  0.21765493736E+03 -0.37214596728E+03  0.10588656964E+04  0.85224183381E+03 0.  0.
        -24    2    4    4    0    0 -0.54097607504E+03  0.46424645852E+03 -0.29818612671E+03  0.77655958438E+03  0.77135814754E+02 0.  0.
         24    2    4    4    0    0  0.83795446507E+02 -0.24659152116E+03 -0.73959840563E+02  0.28230611207E+03  0.79985171932E+02 0.  0.
         13    1    3    3    0    0  0.24448681330E+02  0.40959007383E+01  0.54558789337E+01  0.25382691673E+02  0.00000000000E+00 0. -1.
        -13    1    3    3    0    0  0.43273194720E+03 -0.22175083809E+03  0.36890823052E+03  0.61034715930E+03  0.00000000000E+00 0.  1.
          4    1    6    6  502    0  0.82061374131E+02 -0.18428484090E+03 -0.25462257744E+02  0.20333051488E+03  0.00000000000E+00 0. -1.
          1    1    5    5  503    0 -0.41879804376E+03  0.37921691006E+03 -0.26506803989E+03  0.62406596775E+03  0.00000000000E+00 0. -1.
         -2    1    5    5    0  503 -0.12217803127E+03  0.85029548456E+02 -0.33118086822E+02  0.15249361663E+03  0.00000000000E+00 0.  1.
         -3    1    6    6    0  502  0.17340723766E+01 -0.62306680260E+02 -0.48497582819E+02  0.78975597189E+02  0.00000000000E+00 0.  1.
<mgrwt>
<rscale>  0 0.16945941E+04</rscale>
<asrwt>0</asrwt>
<pdfrwt beam="1">  1        2 0.13018288E+00 0.16945941E+04</pdfrwt>
<pdfrwt beam="2">  1       -2 0.13052413E+00 0.16945941E+04</pdfrwt>
<totfact> 0.13066784E+01</totfact>
</mgrwt>
</event>
<event>
12    1  0.1599266E-007  0.1322930E+04  0.7818608E-02  0.9011576E-01
         -1   -1    0    0    0  501 -0.00000000000E+00  0.00000000000E+00  0.16519660185E+03  0.16519660185E+03  0.00000000000E+00 0.  1.
          1   -1    0    0  501    0  0.00000000000E+00 -0.00000000000E+00 -0.26485787442E+04  0.26485787442E+04  0.00000000000E+00 0. -1.
         23    2    1    2    0    0 -0.10282002106E+03  0.65548614045E+02  0.20868802256E+02  0.15437065382E+03  0.92337502243E+02 0.  0.
        254    2    1    2    0    0  0.10282002106E+03 -0.65548614045E+02 -0.25042509446E+04  0.26594046922E+04  0.88673104486E+03 0.  0.
        -24    2    4    4    0    0  0.42529533881E+02  0.94625496055E+00 -0.25349959036E+04  0.25366372232E+04  0.80712540552E+02 0.  0.
         24    2    4    4    0    0  0.60290487175E+02 -0.66494869006E+02  0.30744958944E+02  0.12276746907E+03  0.77910772770E+02 0.  0.
         11    1    3    3    0    0 -0.40469208189E+02 -0.13291538592E+02 -0.18474091943E+02  0.46429665977E+02  0.00000000000E+00 0. -1.
        -11    1    3    3    0    0 -0.62350812867E+02  0.78840152637E+02  0.39342894199E+02  0.10794098784E+03  0.00000000000E+00 0.  1.
          4    1    6    6  502    0  0.22000068766E+02 -0.73355350238E+02  0.33876567588E+02  0.83741460854E+02  0.00000000000E+00 0. -1.
          1    1    5    5  503    0  0.53128316283E+02  0.14318005227E+02 -0.23911306629E+04  0.23917636735E+04  0.00000000000E+00 0. -1.
         -2    1    5    5    0  503 -0.10598782402E+02 -0.13371750266E+02 -0.14386524072E+03  0.14487354963E+03  0.00000000000E+00 0.  1.
         -3    1    6    6    0  502  0.38290418409E+02  0.68604812327E+01 -0.31316086442E+01  0.39026008217E+02  0.00000000000E+00 0.  1.
<mgrwt>
<rscale>  0 0.13229304E+04</rscale>
<asrwt>0</asrwt>
<pdfrwt beam="1">  1        1 0.40747363E+00 0.13229304E+04</pdfrwt>
<pdfrwt beam="2">  1       -1 0.25414863E-01 0.13229304E+04</pdfrwt>
<totfact> 0.14328402E+01</totfact>
</mgrwt>
</event>
<event>
12    1  0.1599266E-007  0.2164731E+04  0.7818608E-02  0.8533253E-01
         -2   -1    0    0    0  501 -0.00000000000E+00  0.00000000000E+00  0.45743238677E+03  0.45743238677E+03  0.00000000000E+00 0.  1.
          2   -1    0    0  501    0  0.00000000000E+00 -0.00000000000E+00 -0.25610664104E+04  0.25610664104E+04  0.00000000000E+00 0. -1.
         23    2    1    2    0    0 -0.62225560958E+03 -0.58782315384E+03 -0.95780801646E+03  0.12878834650E+04  0.92247055761E+02 0.  0.
        254    2    1    2    0    0  0.62225560958E+03  0.58782315384E+03 -0.11458260072E+04  0.17306153322E+04  0.97435829409E+03 0.  0.
        -24    2    4    4    0    0  0.78059014665E+03  0.45508194576E+03 -0.11981007255E+04  0.15027488369E+04  0.79925990711E+02 0.  0.
         24    2    4    4    0    0 -0.15833453707E+03  0.13274120808E+03  0.52274718254E+02  0.22786649527E+03  0.80625303399E+02 0.  0.
         13    1    3    3    0    0 -0.33173231160E+03 -0.31222906770E+03 -0.44054215844E+03  0.63372763127E+03  0.00000000000E+00 0. -1.
        -13    1    3    3    0    0 -0.29052329798E+03 -0.27559408615E+03 -0.51726585802E+03  0.65415583377E+03  0.00000000000E+00 0.  1.
          2    1    6    6  502    0 -0.71874103716E+02  0.10468507559E+03  0.51322408515E+02  0.13696291999E+03  0.00000000000E+00 0. -1.
          3    1    5    5  503    0  0.71454932416E+03  0.40544436024E+03 -0.10506174605E+04  0.13337027083E+04  0.00000000000E+00 0. -1.
         -4    1    5    5    0  503  0.66040822485E+02  0.49637585521E+02 -0.14748326502E+03  0.16904612859E+03  0.00000000000E+00 0.  1.
         -1    1    6    6    0  502 -0.86460433352E+02  0.28056132495E+02  0.95230973917E+00  0.90903575287E+02  0.00000000000E+00 0.  1.
<mgrwt>
<rscale>  0 0.21647307E+04</rscale>
<asrwt>0</asrwt>
<pdfrwt beam="1">  1        2 0.39401022E+00 0.21647307E+04</pdfrwt>
<pdfrwt beam="2">  1       -2 0.70374213E-01 0.21647307E+04</pdfrwt>
<totfact> 0.54036487E+00</totfact>
</mgrwt>
</event>
<event>
12    1  0.1599266E-007  0.1948532E+04  0.7818608E-02  0.8631069E-01
          2   -1    0    0  501    0  0.00000000000E+00  0.00000000000E+00  0.35142543204E+04  0.35142543204E+04  0.00000000000E+00 0. -1.
         -2   -1    0    0    0  501 -0.00000000000E+00 -0.00000000000E+00 -0.27009844341E+03  0.27009844341E+03  0.00000000000E+00 0.  1.
         23    2    1    2    0    0 -0.76032198045E+03  0.82619436651E+02  0.13160040889E+04  0.15248551295E+04  0.91656525202E+02 0.  0.
        254    2    1    2    0    0  0.76032198045E+03 -0.82619436651E+02  0.19281517881E+04  0.22594976344E+04  0.89590443489E+03 0.  0.
        -24    2    4    4    0    0  0.90696135905E+03 -0.16667574566E+03  0.18247865383E+04  0.20460543278E+04  0.78311500537E+02 0.  0.
         24    2    4    4    0    0 -0.14663937861E+03  0.84056309005E+02  0.10336524985E+03  0.21344330656E+03  0.79404658533E+02 0.  0.
         13    1    3    3    0    0 -0.62225003588E+03  0.45492633598E+02  0.11227913158E+04  0.12844940738E+04  0.00000000000E+00 0. -1.
        -13    1    3    3    0    0 -0.13807194457E+03  0.37126803053E+02  0.19321277311E+03  0.24036105565E+03  0.00000000000E+00 0.  1.
          4    1    6    6  502    0 -0.55612451222E+02  0.77589064908E+02  0.51014229706E+02  0.10823705168E+03  0.00000000000E+00 0. -1.
          1    1    5    5  503    0  0.87561169333E+03 -0.17285806158E+03  0.17774021501E+04  0.19889027503E+04  0.00000000000E+00 0. -1.
         -2    1    5    5    0  503  0.31349665727E+02  0.61823159205E+01  0.47384388197E+02  0.57151577547E+02  0.00000000000E+00 0.  1.
         -3    1    6    6    0  502 -0.91026927384E+02  0.64672440969E+01  0.52351020142E+02  0.10520625488E+03  0.00000000000E+00 0.  1.
<mgrwt>
<rscale>  0 0.19485324E+04</rscale>
<asrwt>0</asrwt>
<pdfrwt beam="1">  1        2 0.54065448E+00 0.19485324E+04</pdfrwt>
<pdfrwt beam="2">  1       -2 0.41553609E-01 0.19485324E+04</pdfrwt>
<totfact> 0.40929099E+00</totfact>
</mgrwt>
</event>
<event>
12    1  0.1599266E-007  0.2750574E+04  0.7818608E-02  0.8318780E-01
          2   -1    0    0  501    0  0.00000000000E+00  0.00000000000E+00  0.28709676274E+04  0.28709676274E+04  0.00000000000E+00 0. -1.
         -2   -1    0    0    0  501 -0.00000000000E+00 -0.00000000000E+00 -0.65880726353E+03  0.65880726353E+03  0.00000000000E+00 0.  1.
         23    2    1    2    0    0 -0.80598853675E+01 -0.12252432468E+04  0.93263814741E+03  0.15431612330E+04  0.10122599209E+03 0.  0.
        254    2    1    2    0    0  0.80598853675E+01  0.12252432468E+04  0.12795222165E+04  0.19866136580E+04  0.89898317447E+03 0.  0.
        -24    2    4    4    0    0 -0.38349905137E+03  0.86279351442E+03  0.10002380806E+04  0.13777864257E+04  0.79593001501E+02 0.  0.
         24    2    4    4    0    0  0.39155893674E+03  0.36244973236E+03  0.27928413588E+03  0.60882723230E+03  0.89346297150E+02 0.  0.
         11    1    3    3    0    0  0.14242598605E+01 -0.19126104102E+02  0.34039651183E+02  0.39070887205E+02  0.00000000000E+00 0. -1.
        -11    1    3    3    0    0 -0.94841452280E+01 -0.12061171427E+04  0.89859849622E+03  0.15040903458E+04  0.00000000000E+00 0.  1.
          4    1    6    6  502    0 -0.43349547931E+01  0.63519330465E+01  0.32167766177E+00  0.76969060670E+01  0.00000000000E+00 0. -1.
          1    1    5    5  503    0 -0.20593748622E+03  0.53729080700E+03  0.64378739172E+03  0.86345461100E+03  0.00000000000E+00 0. -1.
         -2    1    5    5    0  503 -0.17756156515E+03  0.32550270742E+03  0.35645068889E+03  0.51433181466E+03  0.00000000000E+00 0.  1.
         -3    1    6    6    0  502  0.39589389153E+03  0.35609779931E+03  0.27896245821E+03  0.60113032624E+03  0.00000000000E+00 0.  1.
<mgrwt>
<rscale>  0 0.27505740E+04</rscale>
<asrwt>0</asrwt>
<pdfrwt beam="1">  1        2 0.44168732E+00 0.27505740E+04</pdfrwt>
<pdfrwt beam="2">  1       -2 0.10135497E+00 0.27505740E+04</pdfrwt>
<totfact> 0.14625151E+00</totfact>
</mgrwt>
</event>
<event>
12    1  0.1599266E-007  0.2289890E+04  0.7818608E-02  0.8481918E-01
          1   -1    0    0  501    0  0.00000000000E+00  0.00000000000E+00  0.59628657570E+03  0.59628657570E+03  0.00000000000E+00 0. -1.
         -1   -1    0    0    0  501 -0.00000000000E+00 -0.00000000000E+00 -0.21984385477E+04  0.21984385477E+04  0.00000000000E+00 0.  1.
         23    2    1    2    0    0  0.25294645229E+03 -0.37370865753E+03  0.31314671261E+03  0.55747918314E+03  0.95300092245E+02 0.  0.
        254    2    1    2    0    0 -0.25294645229E+03  0.37370865753E+03 -0.19152986846E+04  0.22372459402E+04  0.10645469823E+04 0.  0.
        -24    2    4    4    0    0  0.33774837245E+03  0.10583875226E+03 -0.22875571365E+03  0.42843066484E+03  0.77122327996E+02 0.  0.
         24    2    4    4    0    0 -0.59069482475E+03  0.26786990527E+03 -0.16865429709E+04  0.18088152754E+04  0.81919750743E+02 0.  0.
         13    1    3    3    0    0  0.20850830034E+03 -0.30412395671E+03  0.29672080620E+03  0.47329729472E+03  0.00000000000E+00 0. -1.
        -13    1    3    3    0    0  0.44438151957E+02 -0.69584700821E+02  0.16425906402E+02  0.84181888425E+02  0.00000000000E+00 0.  1.
          4    1    6    6  502    0 -0.30351214399E+03  0.95426317535E+02 -0.86060076477E+03  0.91752900769E+03  0.00000000000E+00 0. -1.
          1    1    5    5  503    0  0.83702465040E+02  0.34104320050E+02 -0.99773821444E+02  0.13462549070E+03  0.00000000000E+00 0. -1.
         -2    1    5    5    0  503  0.25404590741E+03  0.71734432208E+02 -0.12898189220E+03  0.29380517414E+03  0.00000000000E+00 0.  1.
         -3    1    6    6    0  502 -0.28718268076E+03  0.17244358774E+03 -0.82594220614E+03  0.89128626769E+03  0.00000000000E+00 0.  1.
<mgrwt>
<rscale>  0 0.22898903E+04</rscale>
<asrwt>0</asrwt>
<pdfrwt beam="1">  1        1 0.91736398E-01 0.22898903E+04</pdfrwt>
<pdfrwt beam="2">  1       -1 0.33822131E+00 0.22898903E+04</pdfrwt>
<totfact> 0.58150745E-01</totfact>
</mgrwt>
</event>
<event>
12    1  0.1599266E-007  0.1542399E+04  0.7818608E-02  0.8856737E-01
          1   -1    0    0  501    0  0.00000000000E+00  0.00000000000E+00  0.76236273594E+03  0.76236273594E+03  0.00000000000E+00 0. -1.
         -1   -1    0    0    0  501 -0.00000000000E+00 -0.00000000000E+00 -0.78013915224E+03  0.78013915224E+03  0.00000000000E+00 0.  1.
         23    2    1    2    0    0  0.43432277734E+02  0.14826891511E+03  0.47222172517E+03  0.50524139308E+03  0.91681370072E+02 0.  0.
        254    2    1    2    0    0 -0.43432277734E+02 -0.14826891511E+03 -0.48999814147E+03  0.10372604951E+04  0.90107775587E+03 0.  0.
        -24    2    4    4    0    0  0.49114887245E+00  0.33235454443E+02  0.25227573305E+03  0.26801027449E+03  0.84152392051E+02 0.  0.
         24    2    4    4    0    0 -0.43923426606E+02 -0.18150436955E+03 -0.74227387452E+03  0.76925022062E+03  0.76826385825E+02 0.  0.
         11    1    3    3    0    0 -0.97208345756E+01 -0.91539306659E+01  0.40832261060E+02  0.42960011811E+02  0.00000000000E+00 0.  1.
        -11    1    3    3    0    0  0.53153112310E+02  0.15742284577E+03  0.43138946411E+03  0.46228138127E+03  0.00000000000E+00 0. -1.
          2    1    6    6  502    0 -0.29708708976E+02 -0.12379839118E+02 -0.12267243652E+03  0.12682426616E+03  0.00000000000E+00 0. -1.
          1    1    5    5  503    0  0.10179072709E+02 -0.25324437876E+02  0.11940236711E+03  0.12248210459E+03  0.00000000000E+00 0. -1.
         -2    1    5    5    0  503 -0.96879238365E+01  0.58559892320E+02  0.13287336594E+03  0.14552816990E+03  0.00000000000E+00 0.  1.
         -1    1    6    6    0  502 -0.14214717631E+02 -0.16912453043E+03 -0.61960143800E+03  0.64242595446E+03  0.00000000000E+00 0.  1.
<mgrwt>
<rscale>  0 0.15423995E+04</rscale>
<asrwt>0</asrwt>
<pdfrwt beam="1">  1        1 0.11728657E+00 0.15423995E+04</pdfrwt>
<pdfrwt beam="2">  1       -1 0.12002141E+00 0.15423995E+04</pdfrwt>
<totfact> 0.14245355E+01</totfact>
</mgrwt>
</event>
<event>
12    1  0.1599266E-007  0.1916517E+04  0.7818608E-02  0.8646678E-01
         -2   -1    0    0    0  501 -0.00000000000E+00  0.00000000000E+00  0.12432327673E+04  0.12432327673E+04  0.00000000000E+00 0.  1.
          2   -1    0    0  501    0  0.00000000000E+00 -0.00000000000E+00 -0.73860630399E+03  0.73860630399E+03  0.00000000000E+00 0. -1.
         23    2    1    2    0    0 -0.59648149637E+02 -0.58745951009E+03  0.66593323439E+03  0.89445054209E+03  0.88927621288E+02 0.  0.
        254    2    1    2    0    0  0.59648149637E+02  0.58745951009E+03 -0.16130677107E+03  0.10873885292E+04  0.89873653610E+03 0.  0.
        -24    2    4    4    0    0  0.66352710763E+02  0.97730271380E+02  0.34799510558E+03  0.37616609586E+03  0.80289787606E+02 0.  0.
         24    2    4    4    0    0 -0.67045611259E+01  0.48972923871E+03 -0.50930187665E+03  0.71122243336E+03  0.81051031829E+02 0.  0.
         11    1    3    3    0    0  0.20663795020E+02 -0.19683949175E+03  0.20511787068E+03  0.28503704813E+03  0.00000000000E+00 0. -1.
        -11    1    3    3    0    0 -0.80311944657E+02 -0.39062001834E+03  0.46081536371E+03  0.60941349395E+03  0.00000000000E+00 0.  1.
          4    1    6    6  502    0  0.35356874782E+02  0.16038315706E+03 -0.15957840185E+03  0.22899373791E+03  0.00000000000E+00 0. -1.
          3    1    5    5  503    0  0.67633360407E+02  0.10544294635E+03  0.34616838400E+03  0.36813725220E+03  0.00000000000E+00 0. -1.
         -4    1    5    5    0  503 -0.12806496441E+01 -0.77126749731E+01  0.18267215825E+01  0.80288436584E+01  0.00000000000E+00 0.  1.
         -3    1    6    6    0  502 -0.42061435908E+02  0.32934608166E+03 -0.34972347480E+03  0.48222869545E+03  0.00000000000E+00 0.  1.
<mgrwt>
<rscale>  0 0.19165172E+04</rscale>
<asrwt>0</asrwt>
<pdfrwt beam="1">  1        2 0.11363174E+00 0.19165172E+04</pdfrwt>
<pdfrwt beam="2">  1       -2 0.19126658E+00 0.19165172E+04</pdfrwt>
<totfact> 0.54346890E+00</totfact>
</mgrwt>
</event>
<event>
12    1  0.1599266E-007  0.1574076E+04  0.7818608E-02  0.8836634E-01
         -1   -1    0    0    0  501 -0.00000000000E+00  0.00000000000E+00  0.10554652289E+04  0.10554652289E+04  0.00000000000E+00 0.  1.
          1   -1    0    0  501    0  0.00000000000E+00 -0.00000000000E+00 -0.58687762192E+03  0.58687762192E+03  0.00000000000E+00 0. -1.
         23    2    1    2    0    0 -0.34917191227E+03 -0.38360307095E+03  0.62347866692E+02  0.53038812374E+03  0.91389085555E+02 0.  0.
        254    2    1    2    0    0  0.34917191227E+03  0.38360307095E+03  0.40623974026E+03  0.11119547270E+04  0.89573447409E+03 0.  0.
        -24    2    4    4    0    0  0.17105216019E+03  0.47735713724E+03  0.62201599096E+03  0.80658353492E+03  0.80897637924E+02 0.  0.
         24    2    4    4    0    0  0.17811975208E+03 -0.93754066285E+02 -0.21577625070E+03  0.30537119213E+03  0.78585644921E+02 0.  0.
         11    1    3    3    0    0 -0.68117247204E+02 -0.12385113098E+03  0.40615793967E+02  0.14706700762E+03  0.00000000000E+00 0.  1.
        -11    1    3    3    0    0 -0.28105466507E+03 -0.25975193998E+03  0.21732072724E+02  0.38332111612E+03  0.00000000000E+00 0. -1.
          4    1    6    6  502    0  0.16001944259E+03 -0.78764034911E+02 -0.21811688345E+03  0.28175338515E+03  0.00000000000E+00 0. -1.
          1    1    5    5  503    0  0.60162940323E+02  0.90269522732E+02  0.16525189507E+03  0.19767740120E+03  0.00000000000E+00 0. -1.
         -2    1    5    5    0  503  0.11088921986E+03  0.38708761451E+03  0.45676409589E+03  0.60890613372E+03  0.00000000000E+00 0.  1.
         -3    1    6    6    0  502  0.18100309495E+02 -0.14990031374E+02  0.23406327494E+01  0.23617806970E+02  0.00000000000E+00 0.  1.
<mgrwt>
<rscale>  0 0.15740761E+04</rscale>
<asrwt>0</asrwt>
<pdfrwt beam="1">  1        1 0.90288865E-01 0.15740761E+04</pdfrwt>
<pdfrwt beam="2">  1       -1 0.16237927E+00 0.15740761E+04</pdfrwt>
<totfact> 0.95331498E+00</totfact>
</mgrwt>
</event>
<event>
12    1  0.1599266E-007  0.1226352E+04  0.7818608E-02  0.9090098E-01
         -2   -1    0    0    0  501 -0.00000000000E+00  0.00000000000E+00  0.25726450695E+03  0.25726450695E+03  0.00000000000E+00 0.  1.
          2   -1    0    0  501    0  0.00000000000E+00 -0.00000000000E+00 -0.14614723128E+04  0.14614723128E+04  0.00000000000E+00 0. -1.
         23    2    1    2    0    0 -0.94739116279E+02 -0.21689398389E+03 -0.34436181551E+03  0.42817140437E+03  0.93419436621E+02 0.  0.
        254    2    1    2    0    0  0.94739116279E+02  0.21689398389E+03 -0.85984599030E+03  0.12905654153E+04  0.93284803899E+03 0.  0.
        -24    2    4    4    0    0 -0.16319504046E+03 -0.53231679631E+02 -0.88849651182E+03  0.90854992417E+03  0.81059732639E+02 0.  0.
         24    2    4    4    0    0  0.25793415674E+03  0.27012566352E+03  0.28650521520E+02  0.38201549117E+03  0.74947180128E+02 0.  0.
         11    1    3    3    0    0 -0.29109387249E+02 -0.15950193134E+03 -0.26275437281E+03  0.30875246227E+03  0.00000000000E+00 0. -1.
        -11    1    3    3    0    0 -0.65629729030E+02 -0.57392052549E+02 -0.81607442702E+02  0.11941894210E+03  0.00000000000E+00 0.  1.
          2    1    6    6  502    0  0.19314611140E+03  0.24372072438E+03  0.22824003826E+02  0.31181107580E+03  0.00000000000E+00 0. -1.
          3    1    5    5  503    0 -0.16399052761E+03 -0.30221662174E+02 -0.77315524397E+03  0.79093316613E+03  0.00000000000E+00 0. -1.
         -4    1    5    5    0  503  0.79548715121E+00 -0.23010017456E+02 -0.11534126785E+03  0.11761675804E+03  0.00000000000E+00 0.  1.
         -1    1    6    6    0  502  0.64788045336E+02  0.26404939143E+02  0.58265176948E+01  0.70204415374E+02  0.00000000000E+00 0.  1.
<mgrwt>
<rscale>  0 0.12263522E+04</rscale>
<asrwt>0</asrwt>
<pdfrwt beam="1">  1        2 0.22484190E+00 0.12263522E+04</pdfrwt>
<pdfrwt beam="2">  1       -2 0.39579154E-01 0.12263522E+04</pdfrwt>
<totfact> 0.79349539E+01</totfact>
</mgrwt>
</event>
<event>
12    1  0.1599266E-007  0.2554783E+04  0.7818608E-02  0.8383725E-01
         -2   -1    0    0    0  501 -0.00000000000E+00  0.00000000000E+00  0.14586977918E+04  0.14586977918E+04  0.00000000000E+00 0.  1.
          2   -1    0    0  501    0  0.00000000000E+00 -0.00000000000E+00 -0.11186206539E+04  0.11186206539E+04  0.00000000000E+00 0. -1.
         23    2    1    2    0    0  0.77113260233E+03 -0.46097542986E+02 -0.66552011231E+03  0.10236893807E+04  0.90843020942E+02 0.  0.
        254    2    1    2    0    0 -0.77113260233E+03  0.46097542986E+02  0.10055972501E+04  0.15536290650E+04  0.89764523520E+03 0.  0.
        -24    2    4    4    0    0 -0.51831431538E+03 -0.68509887916E+02  0.22387249210E+02  0.52888675622E+03  0.76659491948E+02 0.  0.
         24    2    4    4    0    0 -0.25281828695E+03  0.11460743090E+03  0.98321000093E+03  0.10247423088E+04  0.79642601967E+02 0.  0.
         13    1    3    3    0    0  0.31101916959E+03 -0.43057807798E+02 -0.22141097142E+03  0.38420010011E+03  0.00000000000E+00 0.  1.
        -13    1    3    3    0    0  0.46011343274E+03 -0.30397351883E+01 -0.44410914089E+03  0.63948928060E+03  0.00000000000E+00 0. -1.
          2    1    6    6  502    0 -0.84744955115E+02  0.64502472517E+02  0.48525546082E+03  0.49680493016E+03  0.00000000000E+00 0. -1.
          1    1    5    5  503    0 -0.34218341474E+03 -0.55982273040E+02  0.49477278429E+02  0.35024492188E+03  0.00000000000E+00 0. -1.
         -2    1    5    5    0  503 -0.17613090063E+03 -0.12527614877E+02 -0.27090029219E+02  0.17864183434E+03  0.00000000000E+00 0.  1.
         -1    1    6    6    0  502 -0.16807333184E+03  0.50104958385E+02  0.49795454011E+03  0.52793737862E+03  0.00000000000E+00 0.  1.
<mgrwt>
<rscale>  0 0.25547833E+04</rscale>
<asrwt>0</asrwt>
<pdfrwt beam="1">  1        2 0.17209548E+00 0.25547833E+04</pdfrwt>
<pdfrwt beam="2">  1       -2 0.22441505E+00 0.25547833E+04</pdfrwt>
<totfact> 0.17459687E+00</totfact>
</mgrwt>
</event>
<event>
12    1  0.1599266E-007  0.1128456E+04  0.7818608E-02  0.9177892E-01
         -1   -1    0    0    0  501 -0.00000000000E+00  0.00000000000E+00  0.24162070979E+03  0.24162070979E+03  0.00000000000E+00 0.  1.
          1   -1    0    0  501    0  0.00000000000E+00 -0.00000000000E+00 -0.13175748311E+04  0.13175748311E+04  0.00000000000E+00 0. -1.
         23    2    1    2    0    0  0.76370983886E+02  0.47398454022E+02  0.30260259448E+02  0.12844064971E+03  0.86615105918E+02 0.  0.
        254    2    1    2    0    0 -0.76370983886E+02 -0.47398454022E+02 -0.11062143808E+04  0.14307548912E+04  0.90292312064E+03 0.  0.
        -24    2    4    4    0    0  0.21409173487E+03  0.33268486200E+03 -0.64845959903E+03  0.76378406972E+03  0.79697962583E+02 0.  0.
         24    2    4    4    0    0 -0.29046271876E+03 -0.38008331603E+03 -0.45775478172E+03  0.66697082145E+03  0.80490486173E+02 0.  0.
         11    1    3    3    0    0 -0.93605848388E+01  0.11637058928E+02 -0.18301423478E+02  0.23621680514E+02  0.00000000000E+00 0. -1.
        -11    1    3    3    0    0  0.85731568725E+02  0.35761395095E+02  0.48561682926E+02  0.10481896920E+03  0.00000000000E+00 0.  1.
          2    1    6    6  502    0 -0.28057105206E+03 -0.34830822308E+03 -0.44612820853E+03  0.63171917175E+03  0.00000000000E+00 0. -1.
          1    1    5    5  503    0  0.17160339139E+03  0.20024670612E+03 -0.44650182366E+03  0.51856566197E+03  0.00000000000E+00 0. -1.
         -2    1    5    5    0  503  0.42488343483E+02  0.13243815588E+03 -0.20195777538E+03  0.24521840775E+03  0.00000000000E+00 0.  1.
         -1    1    6    6    0  502 -0.98916666973E+01 -0.31775092947E+02 -0.11626573195E+02  0.35251649693E+02  0.00000000000E+00 0.  1.
<mgrwt>
<rscale>  0 0.11284562E+04</rscale>
<asrwt>0</asrwt>
<pdfrwt beam="1">  1        1 0.20270381E+00 0.11284562E+04</pdfrwt>
<pdfrwt beam="2">  1       -1 0.37172418E-01 0.11284562E+04</pdfrwt>
<totfact> 0.60809516E+01</totfact>
</mgrwt>
</event>
<event>
12    1  0.1599266E-007  0.1101112E+04  0.7818608E-02  0.9204109E-01
         -2   -1    0    0    0  501 -0.00000000000E+00  0.00000000000E+00  0.12544411320E+03  0.12544411320E+03  0.00000000000E+00 0.  1.
          2   -1    0    0  501    0  0.00000000000E+00 -0.00000000000E+00 -0.24163083249E+04  0.24163083249E+04  0.00000000000E+00 0. -1.
         23    2    1    2    0    0  0.14652116308E+03  0.39823165802E+02 -0.25467064476E+03  0.31044861672E+03  0.92015599528E+02 0.  0.
        254    2    1    2    0    0 -0.14652116308E+03 -0.39823165802E+02 -0.20361935669E+04  0.22313038213E+04  0.89976561699E+03 0.  0.
        -24    2    4    4    0    0  0.20542187632E+03 -0.30134313093E+03 -0.45420959439E+03  0.58782949902E+03  0.78938801952E+02 0.  0.
         24    2    4    4    0    0 -0.35194303939E+03  0.26151996513E+03 -0.15819839725E+04  0.16434743223E+04  0.77961296447E+02 0.  0.
         13    1    3    3    0    0  0.14101824864E+03  0.72515751959E+01 -0.22711011102E+03  0.26742799838E+03  0.00000000000E+00 0. -1.
        -13    1    3    3    0    0  0.55029144373E+01  0.32571590606E+02 -0.27560533742E+02  0.43020618337E+02  0.00000000000E+00 0.  1.
          4    1    6    6  502    0 -0.31250057362E+03  0.20590730901E+03 -0.12626581715E+04  0.13169510570E+04  0.00000000000E+00 0. -1.
          1    1    5    5  503    0  0.71565177118E+02 -0.85246697529E+02 -0.19660032417E+03  0.22592091864E+03  0.00000000000E+00 0. -1.
         -2    1    5    5    0  503  0.13385669920E+03 -0.21609643340E+03 -0.25760927022E+03  0.36190858038E+03  0.00000000000E+00 0.  1.
         -3    1    6    6    0  502 -0.39442465771E+02  0.55612656116E+02 -0.31932580099E+03  0.32652326533E+03  0.00000000000E+00 0.  1.
<mgrwt>
<rscale>  0 0.11011115E+04</rscale>
<asrwt>0</asrwt>
<pdfrwt beam="1">  1        2 0.37173972E+00 0.11011115E+04</pdfrwt>
<pdfrwt beam="2">  1       -2 0.19299096E-01 0.11011115E+04</pdfrwt>
<totfact> 0.88553607E+01</totfact>
</mgrwt>
</event>
<event>
12    1  0.1599266E-007  0.1830373E+04  0.7818608E-02  0.8690312E-01
          2   -1    0    0  501    0  0.00000000000E+00  0.00000000000E+00  0.23858110347E+04  0.23858110347E+04  0.00000000000E+00 0. -1.
         -2   -1    0    0    0  501 -0.00000000000E+00 -0.00000000000E+00 -0.35106150352E+03  0.35106150352E+03  0.00000000000E+00 0.  1.
         23    2    1    2    0    0 -0.41765310352E+03  0.29311110791E+03  0.77519117752E+02  0.52406486005E+03  0.91030365608E+02 0.  0.
        254    2    1    2    0    0  0.41765310352E+03 -0.29311110791E+03  0.19572304134E+04  0.22128076782E+04  0.89745122035E+03 0.  0.
        -24    2    4    4    0    0  0.66522410721E+03 -0.23904948550E+03  0.10574067915E+04  0.12747332128E+04  0.84663284745E+02 0.  0.
         24    2    4    4    0    0 -0.24757100370E+03 -0.54061622409E+02  0.89982362197E+03  0.93807446541E+03  0.78019812269E+02 0.  0.
         11    1    3    3    0    0 -0.14925654880E+03  0.12634783936E+03 -0.11159397777E+02  0.19587196336E+03  0.00000000000E+00 0. -1.
        -11    1    3    3    0    0 -0.26839655472E+03  0.16676326854E+03  0.88678515529E+02  0.32819289669E+03  0.00000000000E+00 0.  1.
          2    1    6    6  502    0 -0.15047942190E+03 -0.71090447179E+02  0.57988467326E+03  0.60329440771E+03  0.00000000000E+00 0. -1.
          3    1    5    5  503    0  0.16633985874E+03 -0.32260145171E+02  0.29944563002E+03  0.34406009782E+03  0.00000000000E+00 0. -1.
         -4    1    5    5    0  503  0.49888424848E+03 -0.20678934033E+03  0.75796116143E+03  0.93067311495E+03  0.00000000000E+00 0.  1.
         -1    1    6    6    0  502 -0.97091581799E+02  0.17028824770E+02  0.31993894872E+03  0.33478005770E+03  0.00000000000E+00 0.  1.
<mgrwt>
<rscale>  0 0.18303731E+04</rscale>
<asrwt>0</asrwt>
<pdfrwt beam="1">  1        2 0.36704784E+00 0.18303731E+04</pdfrwt>
<pdfrwt beam="2">  1       -2 0.54009464E-01 0.18303731E+04</pdfrwt>
<totfact> 0.12324964E+01</totfact>
</mgrwt>
</event>
<event>
12    1  0.1599266E-007  0.1263382E+04  0.7818608E-02  0.9059119E-01
         -1   -1    0    0    0  501 -0.00000000000E+00  0.00000000000E+00  0.24112008663E+04  0.24112008663E+04  0.00000000000E+00 0.  1.
          1   -1    0    0  501    0  0.00000000000E+00 -0.00000000000E+00 -0.16549156723E+03  0.16549156723E+03  0.00000000000E+00 0. -1.
         23    2    1    2    0    0 -0.77627372851E+01  0.17290321681E+03  0.48462371023E+02  0.19943839054E+03  0.86436611108E+02 0.  0.
        254    2    1    2    0    0  0.77627372851E+01 -0.17290321681E+03  0.21972469281E+04  0.23772540430E+04  0.89077883880E+03 0.  0.
        -24    2    4    4    0    0 -0.32733507618E+02  0.15947401308E+03  0.19375170746E+04  0.19459857136E+04  0.79903314740E+02 0.  0.
         24    2    4    4    0    0  0.40496244903E+02 -0.33237722989E+03  0.25972985348E+03  0.43126832945E+03  0.80113709174E+02 0.  0.
         13    1    3    3    0    0  0.32750689064E+00  0.17490961057E+03  0.27731614900E+02  0.17709466846E+03  0.00000000000E+00 0. -1.
        -13    1    3    3    0    0 -0.80902441757E+01 -0.20063937612E+01  0.20730756124E+02  0.22343722076E+02  0.00000000000E+00 0.  1.
          4    1    6    6  502    0 -0.19949749719E+02 -0.16606304775E+03  0.13057894425E+03  0.21219281096E+03  0.00000000000E+00 0. -1.
          3    1    5    5  503    0 -0.71410677200E+01  0.77767250828E+02  0.51428988845E+03  0.52018537995E+03  0.00000000000E+00 0. -1.
         -4    1    5    5    0  503 -0.25592439898E+02  0.81706762250E+02  0.14232271862E+04  0.14258003336E+04  0.00000000000E+00 0.  1.
         -3    1    6    6    0  502  0.60445994622E+02 -0.16631418214E+03  0.12915090923E+03  0.21907551849E+03  0.00000000000E+00 0.  1.
<mgrwt>
<rscale>  0 0.12633818E+04</rscale>
<asrwt>0</asrwt>
<pdfrwt beam="1">  1        1 0.25460243E-01 0.12633818E+04</pdfrwt>
<pdfrwt beam="2">  1       -1 0.37095395E+00 0.12633818E+04</pdfrwt>
<totfact> 0.21388851E+00</totfact>
</mgrwt>
</event>
<event>
12    1  0.1599266E-007  0.1378059E+04  0.7818608E-02  0.8969855E-01
         -1   -1    0    0    0  501 -0.00000000000E+00  0.00000000000E+00  0.51819967532E+03  0.51819967532E+03  0.00000000000E+00 0.  1.
          1   -1    0    0  501    0  0.00000000000E+00 -0.00000000000E+00 -0.91617562750E+03  0.91617562750E+03  0.00000000000E+00 0. -1.
         23    2    1    2    0    0 -0.65958583561E+02  0.22876092786E+03 -0.41093130465E+03  0.48304436413E+03  0.88233914766E+02 0.  0.
        254    2    1    2    0    0  0.65958583561E+02 -0.22876092786E+03  0.12955352478E+02  0.95133093869E+03  0.92096721814E+03 0.  0.
        -24    2    4    4    0    0 -0.13759042707E+03 -0.19454736729E+03  0.41911183916E+03  0.48881425216E+03  0.80652561360E+02 0.  0.
         24    2    4    4    0    0  0.20354901063E+03 -0.34213560570E+02 -0.40615648668E+03  0.46251668653E+03  0.79723435651E+02 0.  0.
         11    1    3    3    0    0 -0.75779542751E+02  0.23082553397E+03 -0.38507032610E+03  0.45530442812E+03  0.00000000000E+00 0. -1.
        -11    1    3    3    0    0  0.98209591897E+01 -0.20646061053E+01 -0.25860978557E+02  0.27739936008E+02  0.00000000000E+00 0.  1.
          2    1    6    6  502    0  0.15744213255E+03  0.30453534118E+01 -0.24970986041E+03  0.29521570701E+03  0.00000000000E+00 0. -1.
          1    1    5    5  503    0 -0.12475953972E+03 -0.12431652307E+03  0.33509553354E+03  0.37856116713E+03  0.00000000000E+00 0. -1.
         -2    1    5    5    0  503 -0.12830887352E+02 -0.70230844217E+02  0.84016305617E+02  0.11025308503E+03  0.00000000000E+00 0.  1.
         -1    1    6    6    0  502  0.46106878080E+02 -0.37258913982E+02 -0.15644662627E+03  0.16730097952E+03  0.00000000000E+00 0.  1.
<mgrwt>
<rscale>  0 0.13780594E+04</rscale>
<asrwt>0</asrwt>
<pdfrwt beam="1">  1        1 0.14095009E+00 0.13780594E+04</pdfrwt>
<pdfrwt beam="2">  1       -1 0.79723028E-01 0.13780594E+04</pdfrwt>
<totfact> 0.27100022E+01</totfact>
</mgrwt>
</event>
<event>
12    1  0.1599266E-007  0.1342011E+04  0.7818608E-02  0.8996898E-01
          2   -1    0    0  501    0  0.00000000000E+00  0.00000000000E+00  0.17705172945E+04  0.17705172945E+04  0.00000000000E+00 0. -1.
         -2   -1    0    0    0  501 -0.00000000000E+00 -0.00000000000E+00 -0.25430326135E+03  0.25430326135E+03  0.00000000000E+00 0.  1.
         23    2    1    2    0    0 -0.24535665735E+03 -0.26607315236E+03  0.70906257086E+03  0.80133670854E+03  0.91520376662E+02 0.  0.
        254    2    1    2    0    0  0.24535665735E+03  0.26607315236E+03  0.80715146226E+03  0.12234838473E+04  0.84523631595E+03 0.  0.
        -24    2    4    4    0    0 -0.25774723532E+03 -0.55630385148E+02  0.96468689262E+02  0.29181417044E+03  0.79504245118E+02 0.  0.
         24    2    4    4    0    0  0.50310389267E+03  0.32170353751E+03  0.71068277300E+03  0.93166967684E+03  0.79571917377E+02 0.  0.
         13    1    3    3    0    0 -0.19707029842E+03 -0.18397150793E+03  0.59142311343E+03  0.64997193582E+03  0.00000000000E+00 0. -1.
        -13    1    3    3    0    0 -0.48286358928E+02 -0.82101644430E+02  0.11763945743E+03  0.15136477272E+03  0.00000000000E+00 0.  1.
          2    1    6    6  502    0  0.34269543722E+03  0.21029183607E+03  0.53290387163E+03  0.66756973824E+03  0.00000000000E+00 0. -1.
          1    1    5    5  503    0 -0.57599631013E+02  0.20048170453E+02  0.28348306866E+02  0.67255283313E+02  0.00000000000E+00 0. -1.
         -2    1    5    5    0  503 -0.20014760431E+03 -0.75678555600E+02  0.68120382396E+02  0.22455888712E+03  0.00000000000E+00 0.  1.
         -1    1    6    6    0  502  0.16040845545E+03  0.11141170144E+03  0.17777890137E+03  0.26409993860E+03  0.00000000000E+00 0.  1.
<mgrwt>
<rscale>  0 0.13420109E+04</rscale>
<asrwt>0</asrwt>
<pdfrwt beam="1">  1        2 0.27238727E+00 0.13420109E+04</pdfrwt>
<pdfrwt beam="2">  1       -2 0.39123580E-01 0.13420109E+04</pdfrwt>
<totfact> 0.54086208E+01</totfact>
</mgrwt>
</event>
<event>
12    1  0.1599266E-007  0.1888770E+04  0.7818608E-02  0.8660467E-01
          2   -1    0    0  501    0  0.00000000000E+00  0.00000000000E+00  0.16765517763E+04  0.16765517763E+04  0.00000000000E+00 0. -1.
         -2   -1    0    0    0  501 -0.00000000000E+00 -0.00000000000E+00 -0.53196243735E+03  0.53196243735E+03  0.00000000000E+00 0.  1.
         23    2    1    2    0    0  0.22279173271E+03  0.18674616117E+03 -0.33421211353E+03  0.45266280551E+03  0.93250167779E+02 0.  0.
        254    2    1    2    0    0 -0.22279173271E+03 -0.18674616117E+03  0.14788014525E+04  0.17558514081E+04  0.90091628176E+03 0.  0.
        -24    2    4    4    0    0  0.32357088231E+03 -0.20239552441E+03  0.53088430530E+03  0.65875027935E+03  0.80322604246E+02 0.  0.
         24    2    4    4    0    0 -0.54636261501E+03  0.15649363239E+02  0.94791714719E+03  0.10971011288E+04  0.79542185192E+02 0.  0.
         11    1    3    3    0    0 -0.28671584157E+01  0.24688593899E+02 -0.13264536178E+02  0.28172596368E+02  0.00000000000E+00 0. -1.
        -11    1    3    3    0    0  0.22565889112E+03  0.16205756727E+03 -0.32094757735E+03  0.42449020915E+03  0.00000000000E+00 0.  1.
          4    1    6    6  502    0 -0.54126258076E+03  0.21390278536E+02  0.94425034493E+03  0.10885914933E+04  0.00000000000E+00 0. -1.
          3    1    5    5  503    0  0.30793078946E+03 -0.20895861046E+03  0.49725585760E+03  0.62108651563E+03  0.00000000000E+00 0. -1.
         -4    1    5    5    0  503  0.15640092851E+02  0.65630860506E+01  0.33628447698E+02  0.37663763719E+02  0.00000000000E+00 0.  1.
         -3    1    6    6    0  502 -0.51000342494E+01 -0.57409152973E+01  0.36668022589E+01  0.85096355153E+01  0.00000000000E+00 0.  1.
<mgrwt>
<rscale>  0 0.18887695E+04</rscale>
<asrwt>0</asrwt>
<pdfrwt beam="1">  1        2 0.25793104E+00 0.18887695E+04</pdfrwt>
<pdfrwt beam="2">  1       -2 0.81840376E-01 0.18887695E+04</pdfrwt>
<totfact> 0.12439645E+01</totfact>
</mgrwt>
</event>
<event>
12    1  0.1599266E-007  0.1478693E+04  0.7818608E-02  0.8898747E-01
          2   -1    0    0  501    0  0.00000000000E+00  0.00000000000E+00  0.51316647389E+03  0.51316647389E+03  0.00000000000E+00 0. -1.
         -2   -1    0    0    0  501 -0.00000000000E+00 -0.00000000000E+00 -0.10652160223E+04  0.10652160223E+04  0.00000000000E+00 0.  1.
         23    2    1    2    0    0  0.21851899398E+03 -0.67777885864E+02 -0.59325178717E+03  0.64215790332E+03  0.89859319337E+02 0.  0.
        254    2    1    2    0    0 -0.21851899398E+03  0.67777885864E+02  0.41202238770E+02  0.93622459286E+03  0.90690378279E+03 0.  0.
        -24    2    4    4    0    0 -0.49584322714E+03  0.17004684750E+03 -0.17894405617E+03  0.55937594221E+03  0.78128312630E+02 0.  0.
         24    2    4    4    0    0  0.27732423316E+03 -0.10226896164E+03  0.22014629494E+03  0.37684865065E+03  0.78631059414E+02 0.  0.
         13    1    3    3    0    0  0.41421150878E+02  0.10332939826E+01 -0.41641932512E+02  0.58743765455E+02  0.00000000000E+00 0. -1.
        -13    1    3    3    0    0  0.17709784311E+03 -0.68811179846E+02 -0.55160985466E+03  0.58341413787E+03  0.00000000000E+00 0.  1.
          4    1    6    6  502    0 -0.51794543863E+01 -0.35576868527E+01  0.22607740095E+01  0.66779474844E+01  0.00000000000E+00 0. -1.
          3    1    5    5  503    0 -0.83812983874E+02  0.59837118850E+02 -0.25423294446E+02  0.10607280971E+03  0.00000000000E+00 0. -1.
         -4    1    5    5    0  503 -0.41203024327E+03  0.11020972865E+03 -0.15352076173E+03  0.45330313250E+03  0.00000000000E+00 0.  1.
         -3    1    6    6    0  502  0.28250368754E+03 -0.98711274788E+02  0.21788552093E+03  0.37017070316E+03  0.00000000000E+00 0.  1.
<mgrwt>
<rscale>  0 0.14786929E+04</rscale>
<asrwt>0</asrwt>
<pdfrwt beam="1">  1        2 0.78948689E-01 0.14786929E+04</pdfrwt>
<pdfrwt beam="2">  1       -2 0.16387939E+00 0.14786929E+04</pdfrwt>
<totfact> 0.13623887E+01</totfact>
</mgrwt>
</event>
<event>
12    1  0.1599266E-007  0.1442185E+04  0.7818608E-02  0.8923836E-01
         -2   -1    0    0    0  501 -0.00000000000E+00  0.00000000000E+00  0.33736911829E+03  0.33736911829E+03  0.00000000000E+00 0.  1.
          2   -1    0    0  501    0  0.00000000000E+00 -0.00000000000E+00 -0.15412631253E+04  0.15412631253E+04  0.00000000000E+00 0. -1.
         23    2    1    2    0    0 -0.14701379111E+03 -0.41696373440E+03 -0.41995201253E+03  0.61669139750E+03  0.92069410453E+02 0.  0.
        254    2    1    2    0    0  0.14701379111E+03  0.41696373440E+03 -0.78394199448E+03  0.12619408461E+04  0.88456646883E+03 0.  0.
        -24    2    4    4    0    0 -0.35052906070E+03  0.11352262185E+03 -0.17687584266E+03  0.41634864655E+03  0.79392214310E+02 0.  0.
         24    2    4    4    0    0  0.49754285182E+03  0.30344111254E+03 -0.60706615182E+03  0.84559219956E+03  0.82894252459E+02 0.  0.
         13    1    3    3    0    0 -0.14624006514E+03 -0.38668270518E+03 -0.41539987719E+03  0.58606034596E+03  0.00000000000E+00 0. -1.
        -13    1    3    3    0    0 -0.77372597549E+00 -0.30281029215E+02 -0.45521353412E+01  0.30631051539E+02  0.00000000000E+00 0.  1.
          4    1    6    6  502    0  0.31062529241E+03  0.18309040525E+03 -0.43147470649E+03  0.56229937855E+03  0.00000000000E+00 0. -1.
          1    1    5    5  503    0 -0.19875532698E+03  0.87374956458E+02 -0.67189721888E+02  0.22727191148E+03  0.00000000000E+00 0. -1.
         -2    1    5    5    0  503 -0.15177373372E+03  0.26147665396E+02 -0.10968612077E+03  0.18907673507E+03  0.00000000000E+00 0.  1.
         -3    1    6    6    0  502  0.18691755940E+03  0.12035070729E+03 -0.17559144534E+03  0.28329282101E+03  0.00000000000E+00 0.  1.
<mgrwt>
<rscale>  0 0.14421853E+04</rscale>
<asrwt>0</asrwt>
<pdfrwt beam="1">  1        2 0.23711740E+00 0.14421853E+04</pdfrwt>
<pdfrwt beam="2">  1       -2 0.51902942E-01 0.14421853E+04</pdfrwt>
<totfact> 0.40914020E+01</totfact>
</mgrwt>
</event>
<event>
12    1  0.1599266E-007  0.1258983E+04  0.7818608E-02  0.9062740E-01
         -1   -1    0    0    0  501 -0.00000000000E+00  0.00000000000E+00  0.43314672821E+03  0.43314672821E+03  0.00000000000E+00 0.  1.
          1   -1    0    0  501    0  0.00000000000E+00 -0.00000000000E+00 -0.91483878912E+03  0.91483878912E+03  0.00000000000E+00 0. -1.
         23    2    1    2    0    0  0.74464996859E+02  0.15924893645E+03 -0.39300623489E+03  0.43995996571E+03  0.90584829002E+02 0.  0.
        254    2    1    2    0    0 -0.74464996859E+02 -0.15924893645E+03 -0.88685826012E+02  0.90802555162E+03  0.88641974659E+03 0.  0.
        -24    2    4    4    0    0 -0.35467938295E+03 -0.35589562862E+03  0.87029513729E+02  0.51584303638E+03  0.77850746708E+02 0.  0.
         24    2    4    4    0    0  0.28021438609E+03  0.19664669217E+03 -0.17571533974E+03  0.39218251524E+03  0.75770844853E+02 0.  0.
         11    1    3    3    0    0  0.81092342649E+02  0.11585306162E+03 -0.35413013726E+03  0.38132145761E+03  0.00000000000E+00 0. -1.
        -11    1    3    3    0    0 -0.66273457904E+01  0.43395874827E+02 -0.38876097634E+02  0.58638508094E+02  0.00000000000E+00 0.  1.
          2    1    6    6  502    0  0.34173508181E+02  0.26974970472E+02  0.35312895327E+01  0.43680060659E+02  0.00000000000E+00 0. -1.
          3    1    5    5  503    0 -0.12266052984E+03 -0.17090266623E+03  0.54602949883E+02  0.21733570586E+03  0.00000000000E+00 0. -1.
         -4    1    5    5    0  503 -0.23201885311E+03 -0.18499296239E+03  0.32426563846E+02  0.29850733052E+03  0.00000000000E+00 0.  1.
         -1    1    6    6    0  502  0.24604087791E+03  0.16967172169E+03 -0.17924662927E+03  0.34850245458E+03  0.00000000000E+00 0.  1.
<mgrwt>
<rscale>  0 0.12589828E+04</rscale>
<asrwt>0</asrwt>
<pdfrwt beam="1">  1        1 0.14074443E+00 0.12589828E+04</pdfrwt>
<pdfrwt beam="2">  1       -1 0.66637958E-01 0.12589828E+04</pdfrwt>
<totfact> 0.39796265E+01</totfact>
</mgrwt>
</event>
<event>
12    1  0.1599266E-007  0.1204598E+04  0.7818608E-02  0.9108841E-01
         -1   -1    0    0    0  501 -0.00000000000E+00  0.00000000000E+00  0.91181101562E+03  0.91181101562E+03  0.00000000000E+00 0.  1.
          1   -1    0    0  501    0  0.00000000000E+00 -0.00000000000E+00 -0.39785016826E+03  0.39785016826E+03  0.00000000000E+00 0. -1.
         23    2    1    2    0    0 -0.13683829882E+03 -0.22414180019E+03  0.12588377428E+03  0.30038259712E+03  0.73611910747E+02 0.  0.
        254    2    1    2    0    0  0.13683829882E+03  0.22414180019E+03  0.38807707307E+03  0.10092785868E+04  0.89391005388E+03 0.  0.
        -24    2    4    4    0    0 -0.23513013053E+03  0.35915836064E+02  0.50942752885E+03  0.56781621815E+03  0.79515563733E+02 0.  0.
         24    2    4    4    0    0  0.37196842935E+03  0.18822596413E+03 -0.12135045578E+03  0.44146236861E+03  0.79834602582E+02 0.  0.
         11    1    3    3    0    0 -0.14006491659E+03 -0.19485937914E+03  0.12574058118E+03  0.27092259458E+03  0.00000000000E+00 0. -1.
        -11    1    3    3    0    0  0.32266177709E+01 -0.29282421054E+02  0.14319309977E+00  0.29460002534E+02  0.00000000000E+00 0.  1.
          4    1    6    6  502    0  0.28137666871E+03  0.17738461160E+03 -0.85522527192E+02  0.34344174584E+03  0.00000000000E+00 0. -1.
          3    1    5    5  503    0 -0.12538619576E+03  0.46094934635E+01  0.18190260931E+03  0.22097851658E+03  0.00000000000E+00 0. -1.
         -4    1    5    5    0  503 -0.10974393477E+03  0.31306342601E+02  0.32752491955E+03  0.34683770157E+03  0.00000000000E+00 0.  1.
         -3    1    6    6    0  502  0.90591760641E+02  0.10841352530E+02 -0.35827928589E+02  0.98020622767E+02  0.00000000000E+00 0.  1.
<mgrwt>
<rscale>  0 0.12045981E+04</rscale>
<asrwt>0</asrwt>
<pdfrwt beam="1">  1        1 0.61207718E-01 0.12045981E+04</pdfrwt>
<pdfrwt beam="2">  1       -1 0.14027862E+00 0.12045981E+04</pdfrwt>
<totfact> 0.24934909E+01</totfact>
</mgrwt>
</event>
<event>
12    1  0.1599266E-007  0.2161046E+04  0.7818608E-02  0.8534819E-01
          2   -1    0    0  501    0  0.00000000000E+00  0.00000000000E+00  0.17283829920E+04  0.17283829920E+04  0.00000000000E+00 0. -1.
         -2   -1    0    0    0  501 -0.00000000000E+00 -0.00000000000E+00 -0.67550433306E+03  0.67550433306E+03  0.00000000000E+00 0.  1.
         23    2    1    2    0    0  0.35718725642E+02 -0.20359827909E+02 -0.55043308740E+03  0.55948588973E+03  0.91419511889E+02 0.  0.
        254    2    1    2    0    0 -0.35718725642E+02  0.20359827909E+02  0.16033117464E+04  0.18444014354E+04  0.91077864970E+03 0.  0.
        -24    2    4    4    0    0 -0.20865539413E+03  0.36191824800E+03  0.41866062560E+03  0.59680825150E+03  0.79884152938E+02 0.  0.
         24    2    4    4    0    0  0.17293666848E+03 -0.34155842009E+03  0.11846511208E+04  0.12475931839E+04  0.80754125907E+02 0.  0.
         11    1    3    3    0    0 -0.27797864314E+02 -0.21515237583E+02 -0.24567932629E+03  0.24818130082E+03  0.00000000000E+00 0. -1.
        -11    1    3    3    0    0  0.63516589956E+02  0.11554096733E+01 -0.30475376111E+03  0.31130458891E+03  0.00000000000E+00 0.  1.
          4    1    6    6  502    0  0.97156522179E+01 -0.15579747279E+02  0.13913172410E+03  0.14033801721E+03  0.00000000000E+00 0. -1.
          3    1    5    5  503    0 -0.81203812370E+02  0.92201466615E+02  0.16170896479E+03  0.20308854936E+03  0.00000000000E+00 0. -1.
         -4    1    5    5    0  503 -0.12745158176E+03  0.26971678138E+03  0.25695166081E+03  0.39371970213E+03  0.00000000000E+00 0.  1.
         -3    1    6    6    0  502  0.16322101627E+03 -0.32597867281E+03  0.10455193967E+04  0.11072551667E+04  0.00000000000E+00 0.  1.
<mgrwt>
<rscale>  0 0.21610462E+04</rscale>
<asrwt>0</asrwt>
<pdfrwt beam="1">  1        2 0.26590507E+00 0.21610462E+04</pdfrwt>
<pdfrwt beam="2">  1       -2 0.10392374E+00 0.21610462E+04</pdfrwt>
<totfact> 0.65341506E+00</totfact>
</mgrwt>
</event>
<event>
12    1  0.1599266E-007  0.1432260E+04  0.7818608E-02  0.8930792E-01
         -2   -1    0    0    0  501 -0.00000000000E+00  0.00000000000E+00  0.29686908092E+03  0.29686908092E+03  0.00000000000E+00 0.  1.
          2   -1    0    0  501    0  0.00000000000E+00 -0.00000000000E+00 -0.17275036171E+04  0.17275036171E+04  0.00000000000E+00 0. -1.
         23    2    1    2    0    0  0.23920595829E+03  0.23739098635E+03 -0.83254241140E+03  0.90286046509E+03  0.91957499795E+02 0.  0.
        254    2    1    2    0    0 -0.23920595829E+03 -0.23739098635E+03 -0.59809212483E+03  0.11215122330E+04  0.88684921382E+03 0.  0.
        -24    2    4    4    0    0  0.19295550288E+03 -0.81296950902E+02  0.12833139768E+03  0.25834540213E+03  0.80202112546E+02 0.  0.
         24    2    4    4    0    0 -0.43216146117E+03 -0.15609403545E+03 -0.72642352251E+03  0.86316683084E+03  0.78974473030E+02 0.  0.
         13    1    3    3    0    0  0.18992179905E+03  0.13205788923E+03 -0.59484515133E+03  0.63824002533E+03  0.00000000000E+00 0. -1.
        -13    1    3    3    0    0  0.49284159240E+02  0.10533309711E+03 -0.23769726006E+03  0.26462043976E+03  0.00000000000E+00 0.  1.
          4    1    6    6  502    0 -0.17594840878E+03 -0.27710714906E+02 -0.24502435072E+03  0.30292351959E+03  0.00000000000E+00 0. -1.
          3    1    5    5  503    0  0.41634311714E+02 -0.56312221395E+02  0.30185577465E+02  0.76260417500E+02  0.00000000000E+00 0. -1.
         -4    1    5    5    0  503  0.15132119116E+03 -0.24984729507E+02  0.98145820212E+02  0.18208498463E+03  0.00000000000E+00 0.  1.
         -3    1    6    6    0  502 -0.25621305238E+03 -0.12838332054E+03 -0.48139917179E+03  0.56024331125E+03  0.00000000000E+00 0.  1.
<mgrwt>
<rscale>  0 0.14322603E+04</rscale>
<asrwt>0</asrwt>
<pdfrwt beam="1">  1        2 0.26576978E+00 0.14322603E+04</pdfrwt>
<pdfrwt beam="2">  1       -2 0.45672167E-01 0.14322603E+04</pdfrwt>
<totfact> 0.41787876E+01</totfact>
</mgrwt>
</event>
<event>
12    1  0.1599266E-007  0.2432406E+04  0.7818608E-02  0.8427470E-01
          1   -1    0    0  501    0  0.00000000000E+00  0.00000000000E+00  0.74248659501E+03  0.74248659501E+03  0.00000000000E+00 0.  1.
         -1   -1    0    0    0  501 -0.00000000000E+00 -0.00000000000E+00 -0.19921574917E+04  0.19921574917E+04  0.00000000000E+00 0. -1.
         23    2    1    2    0    0 -0.41790948685E+03 -0.10925214277E+03 -0.16058273697E+04  0.16654386087E+04  0.91759731566E+02 0.  0.
        254    2    1    2    0    0  0.41790948685E+03  0.10925214277E+03  0.35615647301E+03  0.10692054780E+04  0.91091632488E+03 0.  0.
        -24    2    4    4    0    0  0.40882863751E+03 -0.26748731626E+03  0.45451603267E+03  0.67193348419E+03  0.78863578433E+02 0.  0.
         24    2    4    4    0    0  0.90808493358E+01  0.37673945903E+03 -0.98359559660E+02  0.39727199377E+03  0.78328489367E+02 0.  0.
         11    1    3    3    0    0 -0.37159711508E+03 -0.11905221926E+03 -0.13496621077E+04  0.14049361735E+04  0.00000000000E+00 0. -1.
        -11    1    3    3    0    0 -0.46312371768E+02  0.98000764928E+01 -0.25616526201E+03  0.26050243519E+03  0.00000000000E+00 0.  1.
          4    1    6    6  502    0  0.37905412558E+02  0.11537345818E+03 -0.40645330227E+02  0.12806208660E+03  0.00000000000E+00 0. -1.
          1    1    5    5  503    0  0.70905241771E+02 -0.57836851501E+02  0.12824730930E+03  0.15754373058E+03  0.00000000000E+00 0. -1.
         -2    1    5    5    0  503  0.33792339574E+03 -0.20965046476E+03  0.32626872337E+03  0.51438975361E+03  0.00000000000E+00 0.  1.
         -3    1    6    6    0  502 -0.28824563223E+02  0.26136600084E+03 -0.57714229433E+02  0.26920990718E+03  0.00000000000E+00 0.  1.
<mgrwt>
<rscale>  0 0.24324064E+04</rscale>
<asrwt>0</asrwt>
<pdfrwt beam="1">  1        1 0.11422871E+00 0.24324064E+04</pdfrwt>
<pdfrwt beam="2">  1       -1 0.30648576E+00 0.24324064E+04</pdfrwt>
<totfact> 0.66652965E-01</totfact>
</mgrwt>
</event>
<event>
12    1  0.1599266E-007  0.1487951E+04  0.7818608E-02  0.8892505E-01
         -1   -1    0    0    0  501 -0.00000000000E+00  0.00000000000E+00  0.71105195933E+03  0.71105195933E+03  0.00000000000E+00 0.  1.
          1   -1    0    0  501    0  0.00000000000E+00 -0.00000000000E+00 -0.77842313701E+03  0.77842313701E+03  0.00000000000E+00 0. -1.
         23    2    1    2    0    0 -0.15008018852E+03 -0.70164707501E+02 -0.45805372209E+03  0.49543461842E+03  0.90526789645E+02 0.  0.
        254    2    1    2    0    0  0.15008018852E+03  0.70164707501E+02  0.39068254441E+03  0.99404047793E+03  0.89890848927E+03 0.  0.
        -24    2    4    4    0    0  0.26497132555E+03  0.17284225088E+03  0.62334188313E+03  0.70351061043E+03  0.79295830074E+02 0.  0.
         24    2    4    4    0    0 -0.11489113703E+03 -0.10267754338E+03 -0.23265933872E+03  0.29052986750E+03  0.80836778346E+02 0.  0.
         11    1    3    3    0    0 -0.97914092884E+02 -0.42445059985E+02 -0.16512552390E+03  0.19660923515E+03  0.00000000000E+00 0. -1.
        -11    1    3    3    0    0 -0.52166095631E+02 -0.27719647516E+02 -0.29292819819E+03  0.29882538327E+03  0.00000000000E+00 0.  1.
          4    1    6    6  502    0 -0.10849731835E+03 -0.10091093366E+03 -0.16193073065E+03  0.21949087943E+03  0.00000000000E+00 0. -1.
          3    1    5    5  503    0  0.17869280243E+03  0.15180971417E+03  0.49130620553E+03  0.54438873477E+03  0.00000000000E+00 0. -1.
         -4    1    5    5    0  503  0.86278523118E+02  0.21032536709E+02  0.13203567760E+03  0.15912187565E+03  0.00000000000E+00 0.  1.
         -3    1    6    6    0  502 -0.63938186777E+01 -0.17666097205E+01 -0.70728608071E+02  0.71038988076E+02  0.00000000000E+00 0.  1.
<mgrwt>
<rscale>  0 0.14879507E+04</rscale>
<asrwt>0</asrwt>
<pdfrwt beam="1">  1        1 0.11975741E+00 0.14879507E+04</pdfrwt>
<pdfrwt beam="2">  1       -1 0.10939261E+00 0.14879507E+04</pdfrwt>
<totfact> 0.17300106E+01</totfact>
</mgrwt>
</event>
<event>
12    1  0.1599266E-007  0.1104300E+04  0.7818608E-02  0.9201011E-01
         -2   -1    0    0    0  501 -0.00000000000E+00  0.00000000000E+00  0.15711850255E+03  0.15711850255E+03  0.00000000000E+00 0.  1.
          2   -1    0    0  501    0  0.00000000000E+00 -0.00000000000E+00 -0.19403812576E+04  0.19403812576E+04  0.00000000000E+00 0. -1.
         23    2    1    2    0    0 -0.10689608176E+03 -0.44362828471E+02 -0.35811377678E+03  0.38729461877E+03  0.91415599142E+02 0.  0.
        254    2    1    2    0    0  0.10689608176E+03  0.44362828471E+02 -0.14251489783E+04  0.17102051414E+04  0.93827351155E+03 0.  0.
        -24    2    4    4    0    0  0.14632540235E+03  0.28105639856E+03 -0.73204853276E+02  0.33489387101E+03  0.79944554231E+02 0.  0.
         24    2    4    4    0    0 -0.39429320595E+02 -0.23669357009E+03 -0.13519441250E+04  0.13753112704E+04  0.78419741330E+02 0.  0.
         13    1    3    3    0    0 -0.14772929425E+02 -0.61074869500E+00 -0.19063660549E+03  0.19120912063E+03  0.00000000000E+00 0. -1.
        -13    1    3    3    0    0 -0.92123152334E+02 -0.43752079776E+02 -0.16747717129E+03  0.19608549815E+03  0.00000000000E+00 0.  1.
          2    1    6    6  502    0 -0.89984743932E+01 -0.21093697151E+03 -0.11859588969E+04  0.12046052813E+04  0.00000000000E+00 0. -1.
          3    1    5    5  503    0  0.13909345156E+03  0.27043191377E+03 -0.49749835178E+02  0.30814842909E+03  0.00000000000E+00 0. -1.
         -4    1    5    5    0  503  0.72319507971E+01  0.10624484790E+02 -0.23455018099E+02  0.26745441918E+02  0.00000000000E+00 0.  1.
         -1    1    6    6    0  502 -0.30430846202E+02 -0.25756598583E+02 -0.16598522807E+03  0.17070598908E+03  0.00000000000E+00 0.  1.
<mgrwt>
<rscale>  0 0.11043003E+04</rscale>
<asrwt>0</asrwt>
<pdfrwt beam="1">  1        2 0.29852020E+00 0.11043003E+04</pdfrwt>
<pdfrwt beam="2">  1       -2 0.24172077E-01 0.11043003E+04</pdfrwt>
<totfact> 0.10932273E+02</totfact>
</mgrwt>
</event>
<event>
12    1  0.1599266E-007  0.1572014E+04  0.7818608E-02  0.8837927E-01
          1   -1    0    0  501    0  0.00000000000E+00  0.00000000000E+00  0.75071385084E+03  0.75071385084E+03  0.00000000000E+00 0. -1.
         -1   -1    0    0    0  501 -0.00000000000E+00 -0.00000000000E+00 -0.82295988358E+03  0.82295988358E+03  0.00000000000E+00 0.  1.
         23    2    1    2    0    0  0.20839039702E+03 -0.22144654631E+03 -0.45352056072E+03  0.55381500884E+03  0.92547472041E+02 0.  0.
        254    2    1    2    0    0 -0.20839039702E+03  0.22144654631E+03  0.38127452797E+03  0.10198587256E+04  0.89569884672E+03 0.  0.
        -24    2    4    4    0    0 -0.46063855393E+03  0.40723991689E+03  0.28644957712E+03  0.68296541590E+03  0.79725603151E+02 0.  0.
         24    2    4    4    0    0  0.25224815691E+03 -0.18579337058E+03  0.94824950853E+02  0.33689330968E+03  0.79730932420E+02 0.  0.
         13    1    3    3    0    0  0.20372659801E+03 -0.16777916586E+03 -0.37249257334E+03  0.45651406597E+03  0.00000000000E+00 0.  1.
        -13    1    3    3    0    0  0.46637990123E+01 -0.53667380452E+02 -0.81027987383E+02  0.97300942879E+02  0.00000000000E+00 0. -1.
          2    1    6    6  502    0  0.15384219412E+03 -0.83121063745E+02  0.19456134874E+02  0.17594053857E+03  0.00000000000E+00 0. -1.
          3    1    5    5  503    0 -0.15382525956E+03  0.94774241853E+02  0.10479146770E+03  0.20886746779E+03  0.00000000000E+00 0. -1.
         -2    1    5    5    0  503 -0.30681329438E+03  0.31246567504E+03  0.18165810942E+03  0.47409794811E+03  0.00000000000E+00 0.  1.
         -1    1    6    6    0  502  0.98405962794E+02 -0.10267230684E+03  0.75368815979E+02  0.16095277111E+03  0.00000000000E+00 0.  1.
<mgrwt>
<rscale>  0 0.15720145E+04</rscale>
<asrwt>0</asrwt>
<pdfrwt beam="1">  1        1 0.11549444E+00 0.15720145E+04</pdfrwt>
<pdfrwt beam="2">  1       -1 0.12660921E+00 0.15720145E+04</pdfrwt>
<totfact> 0.12751718E+01</totfact>
</mgrwt>
</event>
<event>
12    1  0.1599266E-007  0.2067849E+04  0.7818608E-02  0.8575540E-01
          2   -1    0    0  501    0  0.00000000000E+00  0.00000000000E+00  0.10379263542E+04  0.10379263542E+04  0.00000000000E+00 0. -1.
         -2   -1    0    0    0  501 -0.00000000000E+00 -0.00000000000E+00 -0.10299383964E+04  0.10299383964E+04  0.00000000000E+00 0.  1.
         23    2    1    2    0    0  0.50507794941E+03  0.29528318592E+03 -0.56602682366E+03  0.81929820843E+03  0.92559680014E+02 0.  0.
        254    2    1    2    0    0 -0.50507794941E+03 -0.29528318592E+03  0.57401478147E+03  0.12485665422E+04  0.94187554702E+03 0.  0.
        -24    2    4    4    0    0 -0.67326677338E+03  0.72669215346E+02  0.25952315541E+03  0.72959557189E+03  0.79927888281E+02 0.  0.
         24    2    4    4    0    0  0.16818882397E+03 -0.36795240127E+03  0.31449162605E+03  0.51897097030E+03  0.82154945394E+02 0.  0.
         11    1    3    3    0    0  0.34289835288E+03  0.24855403855E+03 -0.39979408197E+03  0.58240338123E+03  0.00000000000E+00 0.  1.
        -11    1    3    3    0    0  0.16217959653E+03  0.46729147367E+02 -0.16623274170E+03  0.23689482720E+03  0.00000000000E+00 0. -1.
          2    1    6    6  502    0  0.21321305308E+01 -0.81103332065E+02  0.69111858487E+02  0.10657741523E+03  0.00000000000E+00 0. -1.
          3    1    5    5  503    0 -0.14450921930E+03  0.22108108577E+02  0.91588112449E+02  0.17251105840E+03  0.00000000000E+00 0. -1.
         -4    1    5    5    0  503 -0.52875755408E+03  0.50561106769E+02  0.16793504296E+03  0.55708451349E+03  0.00000000000E+00 0.  1.
         -1    1    6    6    0  502  0.16605669344E+03 -0.28684906920E+03  0.24537976757E+03  0.41239355508E+03  0.00000000000E+00 0.  1.
<mgrwt>
<rscale>  0 0.20678493E+04</rscale>
<asrwt>0</asrwt>
<pdfrwt beam="1">  1        2 0.15968098E+00 0.20678493E+04</pdfrwt>
<pdfrwt beam="2">  1       -2 0.15845206E+00 0.20678493E+04</pdfrwt>
<totfact> 0.56925938E+00</totfact>
</mgrwt>
</event>
<event>
12    1  0.1599266E-007  0.1423916E+04  0.7818608E-02  0.8936686E-01
         -2   -1    0    0    0  501 -0.00000000000E+00  0.00000000000E+00  0.29753985377E+03  0.29753985377E+03  0.00000000000E+00 0.  1.
          2   -1    0    0  501    0  0.00000000000E+00 -0.00000000000E+00 -0.17035848627E+04  0.17035848627E+04  0.00000000000E+00 0. -1.
         23    2    1    2    0    0 -0.10000009107E+03  0.47590468399E+02  0.14220591712E+03  0.20271437117E+03  0.92767033569E+02 0.  0.
        254    2    1    2    0    0  0.10000009107E+03 -0.47590468399E+02 -0.15482509261E+04  0.17984103454E+04  0.90825875675E+03 0.  0.
        -24    2    4    4    0    0  0.27350078919E+03  0.34692680508E+03 -0.99949018510E+03  0.10957911592E+04  0.81343375638E+02 0.  0.
         24    2    4    4    0    0 -0.17350069811E+03 -0.39451727348E+03 -0.54876074100E+03  0.70261918613E+03  0.82395379347E+02 0.  0.
         11    1    3    3    0    0 -0.65486410375E+02 -0.87274443499E+01  0.11211183380E+03  0.13012955662E+03  0.00000000000E+00 0. -1.
        -11    1    3    3    0    0 -0.34513680699E+02  0.56317912749E+02  0.30094083319E+02  0.72584814546E+02  0.00000000000E+00 0.  1.
          4    1    6    6  502    0 -0.92224531993E+02 -0.17524150316E+03 -0.31421043027E+03  0.37140697788E+03  0.00000000000E+00 0. -1.
          3    1    5    5  503    0  0.20368207440E+03  0.21959129549E+03 -0.59731773042E+03  0.66820295986E+03  0.00000000000E+00 0. -1.
         -4    1    5    5    0  503  0.69818714783E+02  0.12733550959E+03 -0.40217245468E+03  0.42758819937E+03  0.00000000000E+00 0.  1.
         -3    1    6    6    0  502 -0.81276166121E+02 -0.21927577032E+03 -0.23455031073E+03  0.33121220824E+03  0.00000000000E+00 0.  1.
<mgrwt>
<rscale>  0 0.14239163E+04</rscale>
<asrwt>0</asrwt>
<pdfrwt beam="1">  1        2 0.26208998E+00 0.14239163E+04</pdfrwt>
<pdfrwt beam="2">  1       -2 0.45775362E-01 0.14239163E+04</pdfrwt>
<totfact> 0.42918146E+01</totfact>
</mgrwt>
</event>
<event>
12    1  0.1599266E-007  0.2881434E+04  0.7818608E-02  0.8278423E-01
         -2   -1    0    0    0  501 -0.00000000000E+00  0.00000000000E+00  0.10057746333E+04  0.10057746333E+04  0.00000000000E+00 0.  1.
          2   -1    0    0  501    0  0.00000000000E+00 -0.00000000000E+00 -0.20637479587E+04  0.20637479587E+04  0.00000000000E+00 0. -1.
         23    2    1    2    0    0 -0.74629316518E+03 -0.10311892488E+04 -0.79461702227E+03  0.15034559813E+04  0.93053319392E+02 0.  0.
        254    2    1    2    0    0  0.74629316518E+03  0.10311892488E+04 -0.26335630314E+03  0.15660666108E+04  0.87344337644E+03 0.  0.
        -24    2    4    4    0    0  0.62494053524E+02 -0.84645101213E+02  0.14250824065E+03  0.19361708624E+03  0.78158029310E+02 0.  0.
         24    2    4    4    0    0  0.68379911165E+03  0.11158343500E+04 -0.40586454379E+03  0.13724495246E+04  0.78893268322E+02 0.  0.
         13    1    3    3    0    0 -0.37101145548E+03 -0.58165509066E+03 -0.40307557356E+03  0.79902569582E+03  0.00000000000E+00 0. -1.
        -13    1    3    3    0    0 -0.37528170970E+03 -0.44953415814E+03 -0.39154144872E+03  0.70443028543E+03  0.00000000000E+00 0.  1.
          2    1    6    6  502    0  0.51336623991E+03  0.77186190445E+03 -0.27630921136E+03  0.96729647787E+03  0.00000000000E+00 0. -1.
          3    1    5    5  503    0 -0.11663768701E+02 -0.45729446906E+02  0.47315287299E+02  0.66827855171E+02  0.00000000000E+00 0. -1.
         -4    1    5    5    0  503  0.74157822225E+02 -0.38915654307E+02  0.95192953356E+02  0.12678923107E+03  0.00000000000E+00 0.  1.
         -1    1    6    6    0  502  0.17043287174E+03  0.34397244557E+03 -0.12955533244E+03  0.40515304669E+03  0.00000000000E+00 0.  1.
<mgrwt>
<rscale>  0 0.28814339E+04</rscale>
<asrwt>0</asrwt>
<pdfrwt beam="1">  1        2 0.31749968E+00 0.28814339E+04</pdfrwt>
<pdfrwt beam="2">  1       -2 0.15473456E+00 0.28814339E+04</pdfrwt>
<totfact> 0.14676612E+00</totfact>
</mgrwt>
</event>
<event>
12    1  0.1599266E-007  0.1512024E+04  0.7818608E-02  0.8876496E-01
         -2   -1    0    0    0  501 -0.00000000000E+00  0.00000000000E+00  0.34841649171E+03  0.34841649171E+03  0.00000000000E+00 0.  1.
          2   -1    0    0  501    0  0.00000000000E+00 -0.00000000000E+00 -0.16404343539E+04  0.16404343539E+04  0.00000000000E+00 0. -1.
         23    2    1    2    0    0  0.44854794908E+03 -0.17552406964E+03 -0.42257062885E+03  0.64632106033E+03  0.84622780721E+02 0.  0.
        254    2    1    2    0    0 -0.44854794908E+03  0.17552406964E+03 -0.86944723334E+03  0.13425297853E+04  0.90246538503E+03 0.  0.
        -24    2    4    4    0    0 -0.19932921973E+01 -0.16594261680E+02 -0.84528985311E+03  0.84916889600E+03  0.79331805877E+02 0.  0.
         24    2    4    4    0    0 -0.44655465688E+03  0.19211833132E+03 -0.24157380235E+02  0.49336088929E+03  0.80627993004E+02 0.  0.
         11    1    3    3    0    0  0.19158628939E+02 -0.20391494847E+02 -0.48928384801E+02  0.56363578348E+02  0.00000000000E+00 0. -1.
        -11    1    3    3    0    0  0.42938932014E+03 -0.15513257479E+03 -0.37364224405E+03  0.58995748199E+03  0.00000000000E+00 0.  1.
          4    1    6    6  502    0 -0.10700692328E+03  0.84302571360E+02 -0.14254108497E+02  0.13696928406E+03  0.00000000000E+00 0. -1.
          3    1    5    5  503    0  0.26595271202E+02  0.11536517490E+01 -0.11249056772E+03  0.11559743591E+03  0.00000000000E+00 0. -1.
         -4    1    5    5    0  503 -0.28588563399E+02 -0.17747913429E+02 -0.73279928539E+03  0.73357146009E+03  0.00000000000E+00 0.  1.
         -3    1    6    6    0  502 -0.33954773360E+03  0.10781575996E+03 -0.99032717378E+01  0.35639160523E+03  0.00000000000E+00 0.  1.
<mgrwt>
<rscale>  0 0.15120243E+04</rscale>
<asrwt>0</asrwt>
<pdfrwt beam="1">  1        2 0.25237451E+00 0.15120243E+04</pdfrwt>
<pdfrwt beam="2">  1       -2 0.53602538E-01 0.15120243E+04</pdfrwt>
<totfact> 0.33509825E+01</totfact>
</mgrwt>
</event>
<event>
12    1  0.1599266E-007  0.1856016E+04  0.7818608E-02  0.8677065E-01
          1   -1    0    0  501    0  0.00000000000E+00  0.00000000000E+00  0.10553458230E+04  0.10553458230E+04  0.00000000000E+00 0. -1.
         -1   -1    0    0    0  501 -0.00000000000E+00 -0.00000000000E+00 -0.81603488824E+03  0.81603488824E+03  0.00000000000E+00 0.  1.
         23    2    1    2    0    0  0.61456600136E+03 -0.30696219025E+03  0.35490033601E+03  0.77871762480E+03  0.92356561180E+02 0.  0.
        254    2    1    2    0    0 -0.61456600136E+03  0.30696219025E+03 -0.11558940127E+03  0.10926630864E+04  0.84180434454E+03 0.  0.
        -24    2    4    4    0    0 -0.15592296899E+03  0.32959511277E+03 -0.39986531875E+03  0.54710919658E+03  0.80568537425E+02 0.  0.
         24    2    4    4    0    0 -0.45864303237E+03 -0.22632922513E+02  0.28427591748E+03  0.54555388985E+03  0.77139932294E+02 0.  0.
         11    1    3    3    0    0  0.57247437535E+03 -0.29370030107E+03  0.30483036444E+03  0.71197494926E+03  0.00000000000E+00 0. -1.
        -11    1    3    3    0    0  0.42091626009E+02 -0.13261889183E+02  0.50069971578E+02  0.66742675543E+02  0.00000000000E+00 0.  1.
          4    1    6    6  502    0 -0.35705532836E+03 -0.32883571021E+02  0.25275035972E+03  0.43869417717E+03  0.00000000000E+00 0. -1.
          3    1    5    5  503    0 -0.14435016382E+03  0.31610218970E+03 -0.39928166749E+03  0.52932354390E+03  0.00000000000E+00 0. -1.
         -4    1    5    5    0  503 -0.11572805171E+02  0.13492923065E+02 -0.58365125317E+00  0.17785652677E+02  0.00000000000E+00 0.  1.
         -3    1    6    6    0  502 -0.10158770401E+03  0.10250648508E+02  0.31525557760E+02  0.10685971268E+03  0.00000000000E+00 0.  1.
<mgrwt>
<rscale>  0 0.18560162E+04</rscale>
<asrwt>0</asrwt>
<pdfrwt beam="1">  1        1 0.16236090E+00 0.18560162E+04</pdfrwt>
<pdfrwt beam="2">  1       -1 0.12554383E+00 0.18560162E+04</pdfrwt>
<totfact> 0.71283819E+00</totfact>
</mgrwt>
</event>
<event>
12    1  0.2174186E-007  0.1595139E+04  0.7818608E-02  0.8823540E-01
         -1   -1    0    0    0  501 -0.00000000000E+00  0.00000000000E+00  0.39318973320E+03  0.39318973320E+03  0.00000000000E+00 0.  1.
          1   -1    0    0  501    0  0.00000000000E+00 -0.00000000000E+00 -0.16178378321E+04  0.16178378321E+04  0.00000000000E+00 0. -1.
         23    2    1    2    0    0 -0.27409306096E+02  0.26128466006E+03  0.17519494853E+03  0.32832836456E+03  0.89918303701E+02 0.  0.
        254    2    1    2    0    0  0.27409306096E+02 -0.26128466006E+03 -0.13998430474E+04  0.16826992007E+04  0.89604413904E+03 0.  0.
        -24    2    4    4    0    0  0.40164928923E+03  0.52909995974E+02 -0.44385365568E+03  0.60608625045E+03  0.78821672909E+02 0.  0.
         24    2    4    4    0    0 -0.37423998313E+03 -0.31419465604E+03 -0.95598939171E+03  0.10766129503E+04  0.80036746184E+02 0.  0.
         13    1    3    3    0    0  0.13623701638E+02  0.24997039171E+02 -0.42740793437E+01  0.28787583572E+02  0.00000000000E+00 0. -1.
        -13    1    3    3    0    0 -0.41033007734E+02  0.23628762089E+03  0.17946902787E+03  0.29954078099E+03  0.00000000000E+00 0.  1.
          2    1    6    6  502    0 -0.79271639750E+02 -0.89927831209E+02 -0.17428941329E+03  0.21153677524E+03  0.00000000000E+00 0. -1.
          3    1    5    5  503    0  0.50821151732E+01  0.10604404708E+02 -0.25571409344E+02  0.28145661649E+02  0.00000000000E+00 0. -1.
         -4    1    5    5    0  503  0.39656717406E+03  0.42305591266E+02 -0.41828224633E+03  0.57794058880E+03  0.00000000000E+00 0.  1.
         -1    1    6    6    0  502 -0.29496834338E+03 -0.22426682483E+03 -0.78169997842E+03  0.86507617501E+03  0.00000000000E+00 0.  1.
<mgrwt>
<rscale>  0 0.15951391E+04</rscale>
<asrwt>0</asrwt>
<pdfrwt beam="1">  1        1 0.24889813E+00 0.15951391E+04</pdfrwt>
<pdfrwt beam="2">  1       -1 0.60490727E-01 0.15951391E+04</pdfrwt>
<totfact> 0.14431338E+01</totfact>
</mgrwt>
</event>
<event>
12    1  0.1599266E-007  0.1191128E+04  0.7818608E-02  0.9120658E-01
         -2   -1    0    0    0  501 -0.00000000000E+00  0.00000000000E+00  0.33468475581E+03  0.33468475581E+03  0.00000000000E+00 0. -1.
          2   -1    0    0  501    0  0.00000000000E+00 -0.00000000000E+00 -0.10597921317E+04  0.10597921317E+04  0.00000000000E+00 0.  1.
         23    2    1    2    0    0  0.24200547786E+02  0.19359280449E+03 -0.31692194794E+03  0.38307839783E+03  0.90805822143E+02 0.  0.
        254    2    1    2    0    0 -0.24200547786E+02 -0.19359280449E+03 -0.40818542794E+03  0.10113984897E+04  0.90457046206E+03 0.  0.
        -24    2    4    4    0    0  0.40930871276E+03 -0.16937163330E+03 -0.72519210851E+02  0.45590785603E+03  0.79828345480E+02 0.  0.
         24    2    4    4    0    0 -0.43350926054E+03 -0.24221171191E+02 -0.33566621709E+03  0.55549063363E+03  0.85913273977E+02 0.  0.
         11    1    3    3    0    0  0.42489103301E+02  0.14316404613E+03 -0.28190905434E+03  0.31902034876E+03  0.00000000000E+00 0.  1.
        -11    1    3    3    0    0 -0.18288555515E+02  0.50428758361E+02 -0.35012893600E+02  0.64058049072E+02  0.00000000000E+00 0. -1.
          4    1    6    6  502    0 -0.52691683151E+02 -0.30601844048E+02 -0.58261828600E+02  0.84304964292E+02  0.00000000000E+00 0. -1.
          1    1    5    5  503    0  0.26156054490E+02  0.40476784648E+01  0.81004571663E+01  0.27679239400E+02  0.00000000000E+00 0. -1.
         -2    1    5    5    0  503  0.38315265827E+03 -0.17341931177E+03 -0.80619668018E+02  0.42822861663E+03  0.00000000000E+00 0.  1.
         -3    1    6    6    0  502 -0.38081757739E+03  0.63806728572E+01 -0.27740438849E+03  0.47118566934E+03  0.00000000000E+00 0.  1.
<mgrwt>
<rscale>  0 0.11911277E+04</rscale>
<asrwt>0</asrwt>
<pdfrwt beam="1">  1        2 0.16304494E+00 0.11911277E+04</pdfrwt>
<pdfrwt beam="2">  1       -2 0.51489963E-01 0.11911277E+04</pdfrwt>
<totfact> 0.81179524E+01</totfact>
</mgrwt>
</event>
<event>
12    1  0.1599266E-007  0.1211545E+04  0.7818608E-02  0.9102811E-01
          1   -1    0    0  501    0  0.00000000000E+00  0.00000000000E+00  0.13407500682E+03  0.13407500682E+03  0.00000000000E+00 0. -1.
         -1   -1    0    0    0  501 -0.00000000000E+00 -0.00000000000E+00 -0.27369768642E+04  0.27369768642E+04  0.00000000000E+00 0.  1.
         23    2    1    2    0    0 -0.48496691141E+02 -0.19880551573E+03 -0.24077310287E+03  0.33332973199E+03  0.10612003123E+03 0.  0.
        254    2    1    2    0    0  0.48496691141E+02  0.19880551573E+03 -0.23621287545E+04  0.25377221390E+04  0.90471312576E+03 0.  0.
        -24    2    4    4    0    0  0.22638881942E+03 -0.21790969526E+02 -0.21771630959E+04  0.21904300076E+04  0.78852570221E+02 0.  0.
         24    2    4    4    0    0 -0.17789212827E+03  0.22059648525E+03 -0.18496565858E+03  0.34729213147E+03  0.78045570786E+02 0.  0.
         11    1    3    3    0    0 -0.23699286711E+02 -0.14055318749E+03 -0.22777667054E+03  0.26869883950E+03  0.00000000000E+00 0.  1.
        -11    1    3    3    0    0 -0.24797404430E+02 -0.58252328234E+02 -0.12996432329E+02  0.64630892493E+02  0.00000000000E+00 0. -1.
          4    1    6    6  502    0  0.49164900532E+01 -0.16459677928E+01 -0.77795106834E+01  0.93488967740E+01  0.00000000000E+00 0. -1.
          3    1    5    5  503    0  0.50201283880E+02 -0.36094278883E+02 -0.44597144753E+03  0.45023715738E+03  0.00000000000E+00 0. -1.
         -4    1    5    5    0  503  0.17618753554E+03  0.14303309357E+02 -0.17311916484E+04  0.17401928502E+04  0.00000000000E+00 0.  1.
         -3    1    6    6    0  502 -0.18280861833E+03  0.22224245305E+03 -0.17718614789E+03  0.33794323469E+03  0.00000000000E+00 0.  1.
<mgrwt>
<rscale>  0 0.12115448E+04</rscale>
<asrwt>0</asrwt>
<pdfrwt beam="1">  1        1 0.20626926E-01 0.12115448E+04</pdfrwt>
<pdfrwt beam="2">  1       -1 0.42107333E+00 0.12115448E+04</pdfrwt>
<totfact> 0.12967536E+00</totfact>
</mgrwt>
</event>
<event>
12    1  0.1599266E-007  0.1697657E+04  0.7818608E-02  0.8762702E-01
          1   -1    0    0  501    0  0.00000000000E+00  0.00000000000E+00  0.29559458221E+04  0.29559458221E+04  0.00000000000E+00 0. -1.
         -1   -1    0    0    0  501 -0.00000000000E+00 -0.00000000000E+00 -0.24374921884E+03  0.24374921884E+03  0.00000000000E+00 0.  1.
         23    2    1    2    0    0  0.21530475225E+03  0.15187212954E+03  0.20091016661E+04  0.20285641712E+04  0.95717352305E+02 0.  0.
        254    2    1    2    0    0 -0.21530475225E+03 -0.15187212954E+03  0.70309493709E+03  0.11711308698E+04  0.89876790300E+03 0.  0.
        -24    2    4    4    0    0 -0.11701195220E+02  0.22843117924E+03  0.69096997761E+03  0.73228223675E+03  0.80498712291E+02 0.  0.
         24    2    4    4    0    0 -0.20360355703E+03 -0.38030330878E+03  0.12124959484E+02  0.43884863301E+03  0.79725108668E+02 0.  0.
         13    1    3    3    0    0  0.13682678289E+03  0.52217310548E+02  0.84789519725E+03  0.86045016216E+03  0.00000000000E+00 0.  1.
        -13    1    3    3    0    0  0.78477969361E+02  0.99654818989E+02  0.11612064689E+04  0.11681140090E+04  0.00000000000E+00 0. -1.
          4    1    6    6  502    0 -0.53375805374E+02 -0.11123561917E+03  0.39301925507E+02  0.12948737746E+03  0.00000000000E+00 0. -1.
          3    1    5    5  503    0  0.94804288522E+00  0.15894187276E+03  0.35484857611E+03  0.38881991933E+03  0.00000000000E+00 0. -1.
         -4    1    5    5    0  503 -0.12649238105E+02  0.69489306484E+02  0.33612140150E+03  0.34346231742E+03  0.00000000000E+00 0.  1.
         -3    1    6    6    0  502 -0.15022775166E+03 -0.26906768960E+03 -0.27176966023E+02  0.30936125556E+03  0.00000000000E+00 0.  1.
<mgrwt>
<rscale>  0 0.16976566E+04</rscale>
<asrwt>0</asrwt>
<pdfrwt beam="1">  1        1 0.45476087E+00 0.16976566E+04</pdfrwt>
<pdfrwt beam="2">  1       -1 0.37499882E-01 0.16976566E+04</pdfrwt>
<totfact> 0.42127355E+00</totfact>
</mgrwt>
</event>
<event>
12    1  0.1599266E-007  0.1435870E+04  0.7818608E-02  0.8928256E-01
          3   -1    0    0  501    0  0.00000000000E+00  0.00000000000E+00  0.19937894629E+04  0.19937894629E+04  0.00000000000E+00 0. -1.
         -3   -1    0    0    0  501 -0.00000000000E+00 -0.00000000000E+00 -0.25851792681E+03  0.25851792681E+03  0.00000000000E+00 0.  1.
         23    2    1    2    0    0  0.18525269620E+03 -0.35247021514E+03  0.27738174653E+03  0.49263595244E+03  0.84827674272E+02 0.  0.
        254    2    1    2    0    0 -0.18525269620E+03  0.35247021514E+03  0.14578897896E+04  0.17596714373E+04  0.90135848284E+03 0.  0.
        -24    2    4    4    0    0  0.15573694274E+03 -0.21995073158E+03  0.24083714902E+03  0.36991752838E+03  0.78766273209E+02 0.  0.
         24    2    4    4    0    0 -0.34098963895E+03  0.57242094672E+03  0.12170526405E+04  0.13897539089E+04  0.79114621215E+02 0.  0.
         11    1    3    3    0    0  0.18386970464E+03 -0.31633220919E+03  0.27234915805E+03  0.45612300835E+03  0.00000000000E+00 0. -1.
        -11    1    3    3    0    0  0.13829915636E+01 -0.36138005947E+02  0.50325884771E+01  0.36512944092E+02  0.00000000000E+00 0.  1.
          4    1    6    6  502    0 -0.93443831553E+02  0.21304521150E+03  0.47470187852E+03  0.52864154705E+03  0.00000000000E+00 0. -1.
          1    1    5    5  503    0  0.10722447900E+03 -0.20107026464E+03  0.18439619450E+03  0.29313528748E+03  0.00000000000E+00 0. -1.
         -2    1    5    5    0  503  0.48512463744E+02 -0.18880466943E+02  0.56440954525E+02  0.76782240903E+02  0.00000000000E+00 0.  1.
         -1    1    6    6    0  502 -0.24754580739E+03  0.35937573522E+03  0.74235076201E+03  0.86111236182E+03  0.00000000000E+00 0.  1.
<mgrwt>
<rscale>  0 0.14358695E+04</rscale>
<asrwt>0</asrwt>
<pdfrwt beam="1">  1        3 0.30673683E+00 0.14358695E+04</pdfrwt>
<pdfrwt beam="2">  1       -3 0.39771990E-01 0.14358695E+04</pdfrwt>
<totfact> 0.57124838E-01</totfact>
</mgrwt>
</event>
<event>
12    1  0.1599266E-007  0.2097351E+04  0.7818608E-02  0.8562411E-01
         -2   -1    0    0    0  501 -0.00000000000E+00  0.00000000000E+00  0.69932112798E+03  0.69932112798E+03  0.00000000000E+00 0.  1.
          2   -1    0    0  501    0  0.00000000000E+00 -0.00000000000E+00 -0.15725534137E+04  0.15725534137E+04  0.00000000000E+00 0. -1.
         23    2    1    2    0    0 -0.32305375281E+03  0.84742707806E+02 -0.12241642581E+04  0.12721726923E+04  0.91105293140E+02 0.  0.
        254    2    1    2    0    0  0.32305375281E+03 -0.84742707806E+02  0.35093197235E+03  0.99970184945E+03  0.87447440491E+03 0.  0.
        -24    2    4    4    0    0 -0.18319073518E+01 -0.30358263623E+03 -0.15892053755E+03  0.35192664196E+03  0.80192587929E+02 0.  0.
         24    2    4    4    0    0  0.32488566016E+03  0.21883992843E+03  0.50985250990E+03  0.64777520748E+03  0.78876683025E+02 0.  0.
         13    1    3    3    0    0 -0.68014117937E+02 -0.13807103822E+02 -0.18337242975E+03  0.19606632640E+03  0.00000000000E+00 0.  1.
        -13    1    3    3    0    0 -0.25503963487E+03  0.98549811629E+02 -0.10407918284E+04  0.10761063659E+04  0.00000000000E+00 0. -1.
          2    1    6    6  502    0  0.43812676382E+02  0.24529298612E+02  0.11571908050E+03  0.12614334185E+03  0.00000000000E+00 0. -1.
          3    1    5    5  503    0 -0.16195507227E+02 -0.24530712288E+02 -0.36498740568E+02  0.46863721179E+02  0.00000000000E+00 0. -1.
         -4    1    5    5    0  503  0.14363599875E+02 -0.27905192395E+03 -0.12242179699E+03  0.30506292078E+03  0.00000000000E+00 0.  1.
         -1    1    6    6    0  502  0.28107298378E+03  0.19431062982E+03  0.39413342940E+03  0.52163186563E+03  0.00000000000E+00 0.  1.
<mgrwt>
<rscale>  0 0.20973505E+04</rscale>
<asrwt>0</asrwt>
<pdfrwt beam="1">  1        2 0.24193129E+00 0.20973505E+04</pdfrwt>
<pdfrwt beam="2">  1       -2 0.10758787E+00 0.20973505E+04</pdfrwt>
<totfact> 0.73835954E+00</totfact>
</mgrwt>
</event>
<event>
12    1  0.1599266E-007  0.1740191E+04  0.7818608E-02  0.8738768E-01
          2   -1    0    0  501    0  0.00000000000E+00  0.00000000000E+00  0.24807960256E+04  0.24807960256E+04  0.00000000000E+00 0. -1.
         -2   -1    0    0    0  501 -0.00000000000E+00 -0.00000000000E+00 -0.30517078024E+03  0.30517078024E+03  0.00000000000E+00 0.  1.
         23    2    1    2    0    0 -0.28710036837E+03  0.10262140496E+03  0.17021681081E+04  0.17316013688E+04  0.90051419454E+02 0.  0.
        254    2    1    2    0    0  0.28710036837E+03 -0.10262140496E+03  0.47345713728E+03  0.10543654370E+04  0.89138489980E+03 0.  0.
        -24    2    4    4    0    0  0.54350289128E+03  0.15452582178E+03  0.28143336007E+03  0.63618627273E+03  0.79086124037E+02 0.  0.
         24    2    4    4    0    0 -0.25640252291E+03 -0.25714722674E+03  0.19202377721E+03  0.41817916426E+03  0.78318148809E+02 0.  0.
         13    1    3    3    0    0 -0.28787563903E+03  0.10611337613E+03  0.16999003226E+04  0.17273660698E+04  0.00000000000E+00 0. -1.
        -13    1    3    3    0    0  0.77527065295E+00 -0.34919711724E+01  0.22677854246E+01  0.42352990433E+01  0.00000000000E+00 0.  1.
          4    1    6    6  502    0 -0.22214608960E+03 -0.19312220167E+03  0.17870243034E+03  0.34435392913E+03  0.00000000000E+00 0. -1.
          1    1    5    5  503    0  0.53064023901E+03  0.13660064670E+03  0.26488599071E+03  0.60860774561E+03  0.00000000000E+00 0. -1.
         -2    1    5    5    0  503  0.12862652267E+02  0.17925175089E+02  0.16547369358E+02  0.27578527118E+02  0.00000000000E+00 0.  1.
         -3    1    6    6    0  502 -0.34256433310E+02 -0.64025025073E+02  0.13321346865E+02  0.73825235123E+02  0.00000000000E+00 0.  1.
<mgrwt>
<rscale>  0 0.17401913E+04</rscale>
<asrwt>0</asrwt>
<pdfrwt beam="1">  1        2 0.38166091E+00 0.17401913E+04</pdfrwt>
<pdfrwt beam="2">  1       -2 0.46949352E-01 0.17401913E+04</pdfrwt>
<totfact> 0.14588379E+01</totfact>
</mgrwt>
</event>
<event>
12    1  0.1599266E-007  0.1775272E+04  0.7818608E-02  0.8719561E-01
         -2   -1    0    0    0  501 -0.00000000000E+00  0.00000000000E+00  0.79808092331E+03  0.79808092331E+03  0.00000000000E+00 0.  1.
          2   -1    0    0  501    0  0.00000000000E+00 -0.00000000000E+00 -0.98723990018E+03  0.98723990018E+03  0.00000000000E+00 0. -1.
         23    2    1    2    0    0 -0.59846151200E+03 -0.16998788856E+02  0.20637812653E+03  0.64000857585E+03  0.92595388007E+02 0.  0.
        254    2    1    2    0    0  0.59846151200E+03  0.16998788856E+02 -0.39553710340E+03  0.11453122476E+04  0.89266197648E+03 0.  0.
        -24    2    4    4    0    0  0.38023232194E+03  0.39900143962E+03 -0.41996804871E+03  0.69755836840E+03  0.80223113436E+02 0.  0.
         24    2    4    4    0    0  0.21822919006E+03 -0.38200265077E+03  0.24430945305E+02  0.44775387923E+03  0.79603144998E+02 0.  0.
         13    1    3    3    0    0 -0.37610412567E+03 -0.82026932006E+01  0.17629389256E+03  0.41545292643E+03  0.00000000000E+00 0. -1.
        -13    1    3    3    0    0 -0.22235738632E+03 -0.87960956558E+01  0.30084233974E+02  0.22455564942E+03  0.00000000000E+00 0.  1.
          2    1    6    6  502    0  0.47277779266E+02 -0.71338202090E+02 -0.26339563073E+02  0.89543844415E+02  0.00000000000E+00 0. -1.
          3    1    5    5  503    0  0.17362430895E+02  0.22928963409E+02 -0.48521501362E+02  0.56405030485E+02  0.00000000000E+00 0. -1.
         -4    1    5    5    0  503  0.36286989104E+03  0.37607247621E+03 -0.37144654734E+03  0.64115333792E+03  0.00000000000E+00 0.  1.
         -1    1    6    6    0  502  0.17095141080E+03 -0.31066444868E+03  0.50770508378E+02  0.35821003482E+03  0.00000000000E+00 0.  1.
<mgrwt>
<rscale>  0 0.17752716E+04</rscale>
<asrwt>0</asrwt>
<pdfrwt beam="1">  1        2 0.15188306E+00 0.17752716E+04</pdfrwt>
<pdfrwt beam="2">  1       -2 0.12278168E+00 0.17752716E+04</pdfrwt>
<totfact> 0.12178096E+01</totfact>
</mgrwt>
</event>
<event>
12    1  0.1599266E-007  0.1638611E+04  0.7818608E-02  0.8797173E-01
          2   -1    0    0  501    0  0.00000000000E+00  0.00000000000E+00  0.78454754251E+03  0.78454754251E+03  0.00000000000E+00 0. -1.
         -2   -1    0    0    0  501 -0.00000000000E+00 -0.00000000000E+00 -0.85560353561E+03  0.85560353561E+03  0.00000000000E+00 0.  1.
         23    2    1    2    0    0  0.35922121719E+03 -0.28947678442E+03  0.32468532783E+03  0.57123850833E+03  0.89756223677E+02 0.  0.
        254    2    1    2    0    0 -0.35922121719E+03  0.28947678442E+03 -0.39574132093E+03  0.10689125698E+04  0.87927595051E+03 0.  0.
        -24    2    4    4    0    0  0.10397385176E+03  0.27074709736E+03 -0.50449094537E+03  0.58716360160E+03  0.78328976129E+02 0.  0.
         24    2    4    4    0    0 -0.46319506895E+03  0.18729687056E+02  0.10874962444E+03  0.48174896819E+03  0.73178647548E+02 0.  0.
         11    1    3    3    0    0  0.33810545282E+03 -0.24148435336E+03  0.30420941421E+03  0.51494985954E+03  0.00000000000E+00 0. -1.
        -11    1    3    3    0    0  0.21115764369E+02 -0.47992431057E+02  0.20475913625E+02  0.56288648788E+02  0.00000000000E+00 0.  1.
          2    1    6    6  502    0 -0.21804607878E+03  0.33022769114E+02  0.23383389544E+02  0.22176875041E+03  0.00000000000E+00 0. -1.
          3    1    5    5  503    0  0.88477687225E+02  0.20561285847E+03 -0.31689844982E+03  0.38798141219E+03  0.00000000000E+00 0. -1.
         -4    1    5    5    0  503  0.15496164533E+02  0.65134238889E+02 -0.18759249555E+03  0.19918218941E+03  0.00000000000E+00 0.  1.
         -1    1    6    6    0  502 -0.24514899017E+03 -0.14293082058E+02  0.85366234893E+02  0.25998021778E+03  0.00000000000E+00 0.  1.
<mgrwt>
<rscale>  0 0.16386112E+04</rscale>
<asrwt>0</asrwt>
<pdfrwt beam="1">  1        2 0.12069962E+00 0.16386112E+04</pdfrwt>
<pdfrwt beam="2">  1       -2 0.13163131E+00 0.16386112E+04</pdfrwt>
<totfact> 0.14217983E+01</totfact>
</mgrwt>
</event>
<event>
12    1  0.1599266E-007  0.1638329E+04  0.7818608E-02  0.8797341E-01
          2   -1    0    0  501    0  0.00000000000E+00  0.00000000000E+00  0.59966252531E+03  0.59966252531E+03  0.00000000000E+00 0. -1.
         -2   -1    0    0    0  501 -0.00000000000E+00 -0.00000000000E+00 -0.11190131269E+04  0.11190131269E+04  0.00000000000E+00 0.  1.
         23    2    1    2    0    0 -0.12517145974E+03 -0.54875001649E+03 -0.11642677364E+03  0.58195379228E+03  0.91217036763E+02 0.  0.
        254    2    1    2    0    0  0.12517145974E+03  0.54875001649E+03 -0.40292382799E+03  0.11367218600E+04  0.90166207685E+03 0.  0.
        -24    2    4    4    0    0  0.14775028665E+03  0.26184582777E+03  0.26238220591E+03  0.40753627062E+03  0.82752674714E+02 0.  0.
         24    2    4    4    0    0 -0.22578826909E+02  0.28690418873E+03 -0.66530603390E+03  0.72918558934E+03  0.79092907578E+02 0.  0.
         13    1    3    3    0    0 -0.11407316977E+03 -0.52160860453E+03 -0.13016287746E+03  0.54957310619E+03  0.00000000000E+00 0. -1.
        -13    1    3    3    0    0 -0.11098289968E+02 -0.27141411961E+02  0.13736103816E+02  0.32380686087E+02  0.00000000000E+00 0.  1.
          2    1    6    6  502    0  0.40546578480E+01  0.13333717303E+02 -0.95921051743E+02  0.96928202474E+02  0.00000000000E+00 0. -1.
          1    1    5    5  503    0  0.40592286492E+02  0.16799463536E+02  0.44940749035E+02  0.62846054940E+02  0.00000000000E+00 0. -1.
         -2    1    5    5    0  503  0.10715800016E+03  0.24504636423E+03  0.21744145687E+03  0.34469021568E+03  0.00000000000E+00 0.  1.
         -1    1    6    6    0  502 -0.26633484757E+02  0.27357047142E+03 -0.56938498216E+03  0.63225738687E+03  0.00000000000E+00 0.  1.
<mgrwt>
<rscale>  0 0.16383287E+04</rscale>
<asrwt>0</asrwt>
<pdfrwt beam="1">  1        2 0.92255774E-01 0.16383287E+04</pdfrwt>
<pdfrwt beam="2">  1       -2 0.17215586E+00 0.16383287E+04</pdfrwt>
<totfact> 0.97548845E+00</totfact>
</mgrwt>
</event>
<event>
12    1  0.1599266E-007  0.1220839E+04  0.7818608E-02  0.9094809E-01
          1   -1    0    0  501    0  0.00000000000E+00  0.00000000000E+00  0.64361582687E+03  0.64361582687E+03  0.00000000000E+00 0. -1.
         -1   -1    0    0    0  501 -0.00000000000E+00 -0.00000000000E+00 -0.57893573859E+03  0.57893573859E+03  0.00000000000E+00 0.  1.
         23    2    1    2    0    0 -0.60570369270E+02 -0.18493064439E+03  0.13408457771E+03  0.25376462501E+03  0.92464577297E+02 0.  0.
        254    2    1    2    0    0  0.60570369270E+02  0.18493064439E+03 -0.69404489444E+02  0.96878694045E+03  0.94650041731E+03 0.  0.
        -24    2    4    4    0    0  0.13364369060E+03 -0.25930964529E+03 -0.32589092294E+03  0.44455967854E+03  0.79537952871E+02 0.  0.
         24    2    4    4    0    0 -0.73073321330E+02  0.44424028968E+03  0.25648643350E+03  0.52422726192E+03  0.79622775014E+02 0.  0.
         13    1    3    3    0    0 -0.59010304937E+02 -0.12437126910E+03  0.13551227958E+03  0.19316833742E+03  0.00000000000E+00 0. -1.
        -13    1    3    3    0    0 -0.15600643337E+01 -0.60559375289E+02 -0.14277018621E+01  0.60596287582E+02  0.00000000000E+00 0.  1.
          2    1    6    6  502    0 -0.14589870503E+02  0.27377497863E+03  0.12601150152E+03  0.30173581451E+03  0.00000000000E+00 0. -1.
          3    1    5    5  503    0  0.13714769500E+03 -0.26335976746E+03 -0.31863246578E+03  0.43553932728E+03  0.00000000000E+00 0. -1.
         -4    1    5    5    0  503 -0.35040043952E+01  0.40501221706E+01 -0.72584571641E+01  0.90203512571E+01  0.00000000000E+00 0.  1.
         -1    1    6    6    0  502 -0.58483450827E+02  0.17046531105E+03  0.13047493198E+03  0.22249144740E+03  0.00000000000E+00 0.  1.
<mgrwt>
<rscale>  0 0.12208394E+04</rscale>
<asrwt>0</asrwt>
<pdfrwt beam="1">  1        1 0.99017820E-01 0.12208394E+04</pdfrwt>
<pdfrwt beam="2">  1       -1 0.89067036E-01 0.12208394E+04</pdfrwt>
<totfact> 0.37772098E+01</totfact>
</mgrwt>
</event>
<event>
12    1  0.1599266E-007  0.1544872E+04  0.7818608E-02  0.8855150E-01
         -1   -1    0    0    0  501 -0.00000000000E+00  0.00000000000E+00  0.33836297362E+03  0.33836297362E+03  0.00000000000E+00 0.  1.
          1   -1    0    0  501    0  0.00000000000E+00 -0.00000000000E+00 -0.17633648146E+04  0.17633648146E+04  0.00000000000E+00 0. -1.
         23    2    1    2    0    0 -0.63564118171E+02  0.51646970495E+02  0.20217252238E+03  0.23622224191E+03  0.90660973350E+02 0.  0.
        254    2    1    2    0    0  0.63564118171E+02 -0.51646970495E+02 -0.16271743633E+04  0.18655055463E+04  0.90868406381E+03 0.  0.
        -24    2    4    4    0    0 -0.12916860102E+03 -0.10233400388E+03  0.37535868925E+02  0.18691933430E+03  0.79831824730E+02 0.  0.
         24    2    4    4    0    0  0.19273271919E+03  0.50687033387E+02 -0.16647102323E+04  0.16785862120E+04  0.81709468573E+02 0.  0.
         11    1    3    3    0    0  0.15750848155E+02 -0.12544328798E+02  0.32532119884E+02  0.38259485448E+02  0.00000000000E+00 0. -1.
        -11    1    3    3    0    0 -0.79314966326E+02  0.64191299293E+02  0.16964040249E+03  0.19796275646E+03  0.00000000000E+00 0.  1.
          2    1    6    6  502    0  0.16800437934E+03  0.71048547877E+02 -0.13547253261E+04  0.13669506490E+04  0.00000000000E+00 0. -1.
          1    1    5    5  503    0 -0.50573918333E+02 -0.60170968723E+02 -0.19586021923E+02  0.81005425419E+02  0.00000000000E+00 0. -1.
         -2    1    5    5    0  503 -0.78594682688E+02 -0.42163035158E+02  0.57121890848E+02  0.10591390888E+03  0.00000000000E+00 0.  1.
         -1    1    6    6    0  502  0.24728339849E+02 -0.20361514491E+02 -0.30998490621E+03  0.31163556303E+03  0.00000000000E+00 0.  1.
<mgrwt>
<rscale>  0 0.15448720E+04</rscale>
<asrwt>0</asrwt>
<pdfrwt beam="1">  1        1 0.27128690E+00 0.15448720E+04</pdfrwt>
<pdfrwt beam="2">  1       -1 0.52055842E-01 0.15448720E+04</pdfrwt>
<totfact> 0.15455061E+01</totfact>
</mgrwt>
</event>
<event>
12    1  0.1599266E-007  0.2260579E+04  0.7818608E-02  0.8493629E-01
          1   -1    0    0  501    0  0.00000000000E+00  0.00000000000E+00  0.15626547434E+04  0.15626547434E+04  0.00000000000E+00 0. -1.
         -1   -1    0    0    0  501 -0.00000000000E+00 -0.00000000000E+00 -0.81755361956E+03  0.81755361956E+03  0.00000000000E+00 0.  1.
         23    2    1    2    0    0 -0.22040189878E+03  0.92204059386E+03  0.22501575710E+03  0.97857697254E+03  0.90801687956E+02 0.  0.
        254    2    1    2    0    0  0.22040189878E+03 -0.92204059386E+03  0.52008536671E+03  0.14016313904E+04  0.89182168179E+03 0.  0.
        -24    2    4    4    0    0 -0.89987699241E+02 -0.91233754623E+03  0.18571772713E+03  0.93885973164E+03  0.80677984842E+02 0.  0.
         24    2    4    4    0    0  0.31038959802E+03 -0.97030476283E+01  0.33436763958E+03  0.46277165874E+03  0.76941783455E+02 0.  0.
         13    1    3    3    0    0 -0.84429639127E+02  0.40731211013E+03  0.14327301163E+03  0.43995303713E+03  0.00000000000E+00 0. -1.
        -13    1    3    3    0    0 -0.13597225965E+03  0.51472848373E+03  0.81742745467E+02  0.53862393541E+03  0.00000000000E+00 0.  1.
          4    1    6    6  502    0  0.69806590643E+02  0.18032898779E+02  0.43189067413E+02  0.84044280469E+02  0.00000000000E+00 0. -1.
          3    1    5    5  503    0 -0.90526258872E+02 -0.89220345244E+03  0.16874842759E+03  0.91252289610E+03  0.00000000000E+00 0. -1.
         -4    1    5    5    0  503  0.53855963072E+00 -0.20134093792E+02  0.16969299537E+02  0.26336835537E+02  0.00000000000E+00 0.  1.
         -3    1    6    6    0  502  0.24058300738E+03 -0.27735946407E+02  0.29117857217E+03  0.37872737827E+03  0.00000000000E+00 0.  1.
<mgrwt>
<rscale>  0 0.22605787E+04</rscale>
<asrwt>0</asrwt>
<pdfrwt beam="1">  1        1 0.24040842E+00 0.22605787E+04</pdfrwt>
<pdfrwt beam="2">  1       -1 0.12577748E+00 0.22605787E+04</pdfrwt>
<totfact> 0.29587917E+00</totfact>
</mgrwt>
</event>
<event>
12    1  0.1599266E-007  0.1664295E+04  0.7818608E-02  0.8781994E-01
          2   -1    0    0  501    0  0.00000000000E+00  0.00000000000E+00  0.24614280088E+04  0.24614280088E+04  0.00000000000E+00 0. -1.
         -2   -1    0    0    0  501 -0.00000000000E+00 -0.00000000000E+00 -0.28132828665E+03  0.28132828665E+03  0.00000000000E+00 0.  1.
         23    2    1    2    0    0 -0.64182013369E+02 -0.57074039500E+03  0.97119653093E+03  0.11319668728E+04  0.90897580278E+02 0.  0.
        254    2    1    2    0    0  0.64182013369E+02  0.57074039500E+03  0.12089031912E+04  0.16107894226E+04  0.89628773787E+03 0.  0.
        -24    2    4    4    0    0  0.44973466229E+03  0.41365172803E+03  0.87938435595E+03  0.10740269195E+04  0.82752399648E+02 0.  0.
         24    2    4    4    0    0 -0.38555264892E+03  0.15708866697E+03  0.32951883524E+03  0.53676250317E+03  0.78763111004E+02 0.  0.
         13    1    3    3    0    0  0.16040925179E+02 -0.31705731775E+02  0.45032414125E+02  0.57362732064E+02  0.00000000000E+00 0. -1.
        -13    1    3    3    0    0 -0.80222938549E+02 -0.53903466322E+03  0.92616411681E+03  0.10746041407E+04  0.00000000000E+00 0.  1.
          2    1    6    6  502    0 -0.59984493478E+02  0.34748262400E+02  0.93706332586E+02  0.11656096244E+03  0.00000000000E+00 0. -1.
          3    1    5    5  503    0  0.41323372423E+02  0.39515281626E+02  0.46046820297E+02  0.73412452962E+02  0.00000000000E+00 0. -1.
         -4    1    5    5    0  503  0.40841128987E+03  0.37413644641E+03  0.83333753565E+03  0.10006144665E+04  0.00000000000E+00 0.  1.
         -1    1    6    6    0  502 -0.32556815545E+03  0.12234040457E+03  0.23581250265E+03  0.42020154073E+03  0.00000000000E+00 0.  1.
<mgrwt>
<rscale>  0 0.16642948E+04</rscale>
<asrwt>0</asrwt>
<pdfrwt beam="1">  1        2 0.37868122E+00 0.16642948E+04</pdfrwt>
<pdfrwt beam="2">  1       -2 0.43281277E-01 0.16642948E+04</pdfrwt>
<totfact> 0.17728815E+01</totfact>
</mgrwt>
</event>
<event>
12    1  0.1599266E-007  0.2194579E+04  0.7818608E-02  0.8520688E-01
          2   -1    0    0  501    0  0.00000000000E+00  0.00000000000E+00  0.77541958316E+03  0.77541958316E+03  0.00000000000E+00 0.  1.
         -2   -1    0    0    0  501 -0.00000000000E+00 -0.00000000000E+00 -0.15527645272E+04  0.15527645272E+04  0.00000000000E+00 0. -1.
         23    2    1    2    0    0 -0.83480259500E+02 -0.22335280222E+03 -0.12668456777E+04  0.12923622163E+04  0.91905924819E+02 0.  0.
        254    2    1    2    0    0  0.83480259500E+02  0.22335280222E+03  0.48950073364E+03  0.10358218941E+04  0.88117001766E+03 0.  0.
        -24    2    4    4    0    0 -0.20522581481E+02 -0.29885290784E+03  0.32421234961E+01  0.31027350860E+03  0.80776864896E+02 0.  0.
         24    2    4    4    0    0  0.10400284098E+03  0.52220571005E+03  0.48625861015E+03  0.72554838547E+03  0.80359375172E+02 0.  0.
         13    1    3    3    0    0  0.41152343007E+01 -0.86163166175E+01 -0.21682799544E+03  0.21703814336E+03  0.00000000000E+00 0.  1.
        -13    1    3    3    0    0 -0.87595493801E+02 -0.21473648560E+03 -0.10500176822E+04  0.10753240729E+04  0.00000000000E+00 0. -1.
          2    1    6    6  502    0  0.76278916676E+02  0.21227214086E+03  0.23352813906E+03  0.32467418537E+03  0.00000000000E+00 0. -1.
          1    1    5    5  503    0 -0.33222698934E+02 -0.29331806990E+03  0.88538418408E+01  0.29532630829E+03  0.00000000000E+00 0. -1.
         -2    1    5    5    0  503  0.12700117454E+02 -0.55348379376E+01 -0.56117183447E+01  0.14947200310E+02  0.00000000000E+00 0.  1.
         -1    1    6    6    0  502  0.27723924305E+02  0.30993356919E+03  0.25273047109E+03  0.40087420010E+03  0.00000000000E+00 0.  1.
<mgrwt>
<rscale>  0 0.21945788E+04</rscale>
<asrwt>0</asrwt>
<pdfrwt beam="1">  1        2 0.11929532E+00 0.21945788E+04</pdfrwt>
<pdfrwt beam="2">  1       -2 0.23888685E+00 0.21945788E+04</pdfrwt>
<totfact> 0.24700411E+00</totfact>
</mgrwt>
</event>
<event>
12    1  0.1599266E-007  0.1214375E+04  0.7818608E-02  0.9100366E-01
         -1   -1    0    0    0  501 -0.00000000000E+00  0.00000000000E+00  0.17316382001E+03  0.17316382001E+03  0.00000000000E+00 0.  1.
          1   -1    0    0  501    0  0.00000000000E+00 -0.00000000000E+00 -0.21290632377E+04  0.21290632377E+04  0.00000000000E+00 0. -1.
         23    2    1    2    0    0  0.78430584809E+02 -0.26188605628E+03 -0.31476279728E+03  0.42065869683E+03  0.56057627094E+02 0.  0.
        254    2    1    2    0    0 -0.78430584809E+02  0.26188605628E+03 -0.16411366204E+04  0.18815683609E+04  0.87876869920E+03 0.  0.
        -24    2    4    4    0    0  0.35684650691E+03  0.14420032012E+03 -0.11226232584E+04  0.11894408814E+04  0.79708645672E+02 0.  0.
         24    2    4    4    0    0 -0.43527709172E+03  0.11768573617E+03 -0.51851336202E+03  0.69212747951E+03  0.82874979445E+02 0.  0.
         11    1    3    3    0    0  0.21962465817E+02 -0.71518140153E+02 -0.51152185288E+02  0.90629687937E+02  0.00000000000E+00 0.  1.
        -11    1    3    3    0    0  0.56468118992E+02 -0.19036791613E+03 -0.26361061200E+03  0.33002900889E+03  0.00000000000E+00 0. -1.
          4    1    6    6  502    0 -0.30392035929E+03  0.12066740946E+03 -0.36441397233E+03  0.48961796508E+03  0.00000000000E+00 0. -1.
          3    1    5    5  503    0  0.20185158485E+03  0.46313593481E+02 -0.66365254935E+03  0.69521487147E+03  0.00000000000E+00 0. -1.
         -4    1    5    5    0  503  0.15499492206E+03  0.97886726634E+02 -0.45897070903E+03  0.49422600990E+03  0.00000000000E+00 0.  1.
         -3    1    6    6    0  502 -0.13135673243E+03 -0.29816732967E+01 -0.15409938969E+03  0.20250951442E+03  0.00000000000E+00 0.  1.
<mgrwt>
<rscale>  0 0.12143751E+04</rscale>
<asrwt>0</asrwt>
<pdfrwt beam="1">  1        1 0.32754818E+00 0.12143751E+04</pdfrwt>
<pdfrwt beam="2">  1       -1 0.26640588E-01 0.12143751E+04</pdfrwt>
<totfact> 0.30302730E+01</totfact>
</mgrwt>
</event>
<event>
12    1  0.1599266E-007  0.1143921E+04  0.7818608E-02  0.9163410E-01
          2   -1    0    0  501    0  0.00000000000E+00  0.00000000000E+00  0.72654238560E+03  0.72654238560E+03  0.00000000000E+00 0. -1.
         -2   -1    0    0    0  501 -0.00000000000E+00 -0.00000000000E+00 -0.45026793025E+03  0.45026793025E+03  0.00000000000E+00 0.  1.
         23    2    1    2    0    0  0.72845879002E+02  0.19995232474E+03 -0.17550884574E+02  0.23174350934E+03  0.90053130499E+02 0.  0.
        254    2    1    2    0    0 -0.72845879002E+02 -0.19995232474E+03  0.29382533992E+03  0.94506680652E+03  0.87265714008E+03 0.  0.
        -24    2    4    4    0    0  0.52530210995E+02  0.11880910061E+03  0.50923381960E+03  0.53194278027E+03  0.82274011722E+02 0.  0.
         24    2    4    4    0    0 -0.12537609000E+03 -0.31876142535E+03 -0.21540847967E+03  0.41312402625E+03  0.83322492252E+02 0.  0.
         13    1    3    3    0    0  0.43022424748E+02  0.15271949747E+03  0.26170247380E+02  0.16080751160E+03  0.00000000000E+00 0. -1.
        -13    1    3    3    0    0  0.29823454254E+02  0.47232827277E+02 -0.43721131954E+02  0.70935997741E+02  0.00000000000E+00 0.  1.
          2    1    6    6  502    0 -0.36470101203E+02 -0.10070333884E+03 -0.24244724459E+02  0.10981364851E+03  0.00000000000E+00 0. -1.
          1    1    5    5  503    0  0.15416886454E+02  0.10931476571E+02  0.13434701437E+02  0.23187685754E+02  0.00000000000E+00 0. -1.
         -2    1    5    5    0  503  0.37113324541E+02  0.10787762404E+03  0.49579911816E+03  0.50875509451E+03  0.00000000000E+00 0.  1.
         -3    1    6    6    0  502 -0.88905988794E+02 -0.21805808651E+03 -0.19116375521E+03  0.30331037774E+03  0.00000000000E+00 0.  1.
<mgrwt>
<rscale>  0 0.11439209E+04</rscale>
<asrwt>0</asrwt>
<pdfrwt beam="1">  1        2 0.11177575E+00 0.11439209E+04</pdfrwt>
<pdfrwt beam="2">  1       -2 0.69271989E-01 0.11439209E+04</pdfrwt>
<totfact> 0.73622809E+01</totfact>
</mgrwt>
</event>
<event>
12    1  0.1599266E-007  0.1759949E+04  0.7818608E-02  0.8727893E-01
          2   -1    0    0  501    0  0.00000000000E+00  0.00000000000E+00  0.11685349524E+04  0.11685349524E+04  0.00000000000E+00 0. -1.
         -2   -1    0    0    0  501 -0.00000000000E+00 -0.00000000000E+00 -0.66267192756E+03  0.66267192756E+03  0.00000000000E+00 0.  1.
         23    2    1    2    0    0  0.46200083057E+03  0.37421106239E+03 -0.80942255130E+02  0.60686065792E+03  0.90826883709E+02 0.  0.
        254    2    1    2    0    0 -0.46200083057E+03 -0.37421106239E+03  0.58680527994E+03  0.12243462220E+04  0.89510030061E+03 0.  0.
        -24    2    4    4    0    0 -0.14159945442E+03 -0.55487430891E+03  0.65348834162E+02  0.58197622144E+03  0.80560213579E+02 0.  0.
         24    2    4    4    0    0 -0.32040137615E+03  0.18066324653E+03  0.52145644578E+03  0.64237000058E+03  0.73662353500E+02 0.  0.
         11    1    3    3    0    0  0.48308747713E+02  0.80071480431E+02 -0.54292533934E+01  0.93673122487E+02  0.00000000000E+00 0. -1.
        -11    1    3    3    0    0  0.41369208285E+03  0.29413958195E+03 -0.75513001737E+02  0.51318753543E+03  0.00000000000E+00 0.  1.
          2    1    6    6  502    0 -0.10015780444E+03  0.96646193555E+02  0.18300151406E+03  0.22991656458E+03  0.00000000000E+00 0. -1.
          3    1    5    5  503    0 -0.88708168751E+02 -0.21794306046E+03  0.50093553096E+02  0.24057780627E+03  0.00000000000E+00 0. -1.
         -4    1    5    5    0  503 -0.52891285672E+02 -0.33693124845E+03  0.15255281066E+02  0.34139841517E+03  0.00000000000E+00 0.  1.
         -1    1    6    6    0  502 -0.22024357171E+03  0.84017052971E+02  0.33845493172E+03  0.41245343601E+03  0.00000000000E+00 0.  1.
<mgrwt>
<rscale>  0 0.17599492E+04</rscale>
<asrwt>0</asrwt>
<pdfrwt beam="1">  1        2 0.17977461E+00 0.17599492E+04</pdfrwt>
<pdfrwt beam="2">  1       -2 0.10194953E+00 0.17599492E+04</pdfrwt>
<totfact> 0.14783877E+01</totfact>
</mgrwt>
</event>
<event>
12    1  0.1599266E-007  0.2116639E+04  0.7818608E-02  0.8553949E-01
         -1   -1    0    0    0  501 -0.00000000000E+00  0.00000000000E+00  0.11015798131E+04  0.11015798131E+04  0.00000000000E+00 0.  1.
          1   -1    0    0  501    0  0.00000000000E+00 -0.00000000000E+00 -0.10167582280E+04  0.10167582280E+04  0.00000000000E+00 0. -1.
         23    2    1    2    0    0 -0.14660170136E+03 -0.64528998805E+03  0.60066769897E+03  0.89798016142E+03  0.87609692432E+02 0.  0.
        254    2    1    2    0    0  0.14660170136E+03  0.64528998805E+03 -0.51584611387E+03  0.12203578797E+04  0.88616302894E+03 0.  0.
        -24    2    4    4    0    0 -0.23668634222E+03 -0.90937353278E+02 -0.69484034146E+02  0.27462159219E+03  0.79365994492E+02 0.  0.
         24    2    4    4    0    0  0.38328804358E+03  0.73622734132E+03 -0.44636207972E+03  0.94573628752E+03  0.78978458135E+02 0.  0.
         11    1    3    3    0    0  0.10012822153E+02 -0.73340426143E+02  0.56260685104E+02  0.92974939649E+02  0.00000000000E+00 0. -1.
        -11    1    3    3    0    0 -0.15661452351E+03 -0.57194956190E+03  0.54440701386E+03  0.80500522177E+03  0.00000000000E+00 0.  1.
          4    1    6    6  502    0  0.19482509047E+03  0.32207195336E+03 -0.23744443881E+03  0.44504721159E+03  0.00000000000E+00 0. -1.
          1    1    5    5  503    0 -0.22725479980E+03 -0.62982353949E+02 -0.57170863470E+02  0.24265207308E+03  0.00000000000E+00 0. -1.
         -2    1    5    5    0  503 -0.94315424175E+01 -0.27954999328E+02 -0.12313170676E+02  0.31969519107E+02  0.00000000000E+00 0.  1.
         -3    1    6    6    0  502  0.18846295310E+03  0.41415538796E+03 -0.20891764092E+03  0.50068907593E+03  0.00000000000E+00 0.  1.
<mgrwt>
<rscale>  0 0.21166392E+04</rscale>
<asrwt>0</asrwt>
<pdfrwt beam="1">  1        1 0.15642434E+00 0.21166392E+04</pdfrwt>
<pdfrwt beam="2">  1       -1 0.16947382E+00 0.21166392E+04</pdfrwt>
<totfact> 0.33476541E+00</totfact>
</mgrwt>
</event>
<event>
12    1  0.1599266E-007  0.1200058E+04  0.7818608E-02  0.9112806E-01
          2   -1    0    0  501    0  0.00000000000E+00  0.00000000000E+00  0.11582952417E+04  0.11582952417E+04  0.00000000000E+00 0. -1.
         -2   -1    0    0    0  501 -0.00000000000E+00 -0.00000000000E+00 -0.31083174250E+03  0.31083174250E+03  0.00000000000E+00 0.  1.
         23    2    1    2    0    0 -0.77649755317E+01  0.61956333262E+02  0.46131322065E+03  0.47433352453E+03  0.91013860845E+02 0.  0.
        254    2    1    2    0    0  0.77649755317E+01 -0.61956333262E+02  0.38615027859E+03  0.99479345971E+03  0.91466010504E+03 0.  0.
        -24    2    4    4    0    0  0.13285161483E+03 -0.30776386313E+03  0.56114189368E+03  0.65863499343E+03  0.80942465476E+02 0.  0.
         24    2    4    4    0    0 -0.12508663930E+03  0.24580752987E+03 -0.17499161508E+03  0.33615846628E+03  0.79450865518E+02 0.  0.
         11    1    3    3    0    0  0.34426602264E+02  0.41981099048E+02  0.34075710369E+03  0.34505507870E+03  0.00000000000E+00 0. -1.
        -11    1    3    3    0    0 -0.42191577796E+02  0.19975234214E+02  0.12055611696E+03  0.12927844583E+03  0.00000000000E+00 0.  1.
          2    1    6    6  502    0 -0.43673825822E+01  0.36091687131E+02 -0.55340078499E+02  0.66213353629E+02  0.00000000000E+00 0. -1.
          1    1    5    5  503    0  0.23432563274E+01 -0.65723859026E+02  0.72131318154E+02  0.97611697834E+02  0.00000000000E+00 0. -1.
         -2    1    5    5    0  503  0.13050835850E+03 -0.24204000410E+03  0.48901057552E+03  0.56102329560E+03  0.00000000000E+00 0.  1.
         -1    1    6    6    0  502 -0.12071925672E+03  0.20971584274E+03 -0.11965153659E+03  0.26994511265E+03  0.00000000000E+00 0.  1.
<mgrwt>
<rscale>  0 0.12000582E+04</rscale>
<asrwt>0</asrwt>
<pdfrwt beam="1">  1        2 0.17819927E+00 0.12000582E+04</pdfrwt>
<pdfrwt beam="2">  1       -2 0.47820269E-01 0.12000582E+04</pdfrwt>
<totfact> 0.82022060E+01</totfact>
</mgrwt>
</event>
<event>
12    1  0.1599266E-007  0.1433507E+04  0.7818608E-02  0.8929916E-01
         -2   -1    0    0    0  501 -0.00000000000E+00  0.00000000000E+00  0.22258433633E+03  0.22258433633E+03  0.00000000000E+00 0.  1.
          2   -1    0    0  501    0  0.00000000000E+00 -0.00000000000E+00 -0.23080481240E+04  0.23080481240E+04  0.00000000000E+00 0. -1.
         23    2    1    2    0    0  0.30596517432E+02  0.35504069139E+03 -0.22491478232E+03  0.43082227953E+03  0.89616615689E+02 0.  0.
        254    2    1    2    0    0 -0.30596517432E+02 -0.35504069139E+03 -0.18605490054E+04  0.20998101808E+04  0.90585327435E+03 0.  0.
        -24    2    4    4    0    0 -0.26274576247E+03  0.21764537983E+03 -0.67631457658E+03  0.76113193882E+03  0.74266915563E+02 0.  0.
         24    2    4    4    0    0  0.23214924503E+03 -0.57268607122E+03 -0.11842344288E+04  0.13386782420E+04  0.88236302727E+02 0.  0.
         13    1    3    3    0    0  0.46345753886E+01  0.48570190364E+02 -0.72944634376E+02  0.87757976078E+02  0.00000000000E+00 0. -1.
        -13    1    3    3    0    0  0.25961942044E+02  0.30647050103E+03 -0.15197014795E+03  0.34306430345E+03  0.00000000000E+00 0.  1.
          2    1    6    6  502    0  0.17871460349E+03 -0.49885717625E+03 -0.10541793284E+04  0.11798692505E+04  0.00000000000E+00 0. -1.
          3    1    5    5  503    0 -0.16067482972E+03  0.17241071431E+03 -0.49423396492E+03  0.54754823294E+03  0.00000000000E+00 0. -1.
         -4    1    5    5    0  503 -0.10207093275E+03  0.45234665512E+02 -0.18208061166E+03  0.21358370588E+03  0.00000000000E+00 0.  1.
         -1    1    6    6    0  502  0.53434641545E+02 -0.73828894968E+02 -0.13005510040E+03  0.15880899153E+03  0.00000000000E+00 0.  1.
<mgrwt>
<rscale>  0 0.14335067E+04</rscale>
<asrwt>0</asrwt>
<pdfrwt beam="1">  1        2 0.35508435E+00 0.14335067E+04</pdfrwt>
<pdfrwt beam="2">  1       -2 0.34243741E-01 0.14335067E+04</pdfrwt>
<totfact> 0.34861925E+01</totfact>
</mgrwt>
</event>
<event>
12    1  0.1599266E-007  0.1692204E+04  0.7818608E-02  0.8765823E-01
          1   -1    0    0  501    0  0.00000000000E+00  0.00000000000E+00  0.28716851095E+04  0.28716851095E+04  0.00000000000E+00 0. -1.
         -1   -1    0    0    0  501 -0.00000000000E+00 -0.00000000000E+00 -0.24929222524E+03  0.24929222524E+03  0.00000000000E+00 0.  1.
         23    2    1    2    0    0 -0.25223190661E+03  0.48854323730E+03  0.92220337179E+03  0.10775221215E+04  0.91101229619E+02 0.  0.
        254    2    1    2    0    0  0.25223190661E+03 -0.48854323730E+03  0.17001895125E+04  0.20434552132E+04  0.99134726542E+03 0.  0.
        -24    2    4    4    0    0  0.53059034613E+03 -0.62951330946E+02  0.49599684850E+03  0.73341200441E+03  0.79945662883E+02 0.  0.
         24    2    4    4    0    0 -0.27835843952E+03 -0.42559190635E+03  0.12041926640E+04  0.13100432088E+04  0.86725690342E+02 0.  0.
         13    1    3    3    0    0 -0.20683830068E+03  0.44902924847E+03  0.85208159035E+03  0.98511541721E+03  0.00000000000E+00 0. -1.
        -13    1    3    3    0    0 -0.45393605925E+02  0.39513988823E+02  0.70121781434E+02  0.92406704319E+02  0.00000000000E+00 0.  1.
          2    1    6    6  502    0 -0.34776901389E+02 -0.12066842910E+03  0.29941799132E+03  0.32468667386E+03  0.00000000000E+00 0. -1.
          1    1    5    5  503    0  0.11812367504E+03  0.17087140484E+02  0.94108392238E+02  0.15199198158E+03  0.00000000000E+00 0. -1.
         -2    1    5    5    0  503  0.41246667108E+03 -0.80038471430E+02  0.40188845626E+03  0.58142002282E+03  0.00000000000E+00 0.  1.
         -1    1    6    6    0  502 -0.24358153813E+03 -0.30492347725E+03  0.90477467267E+03  0.98535653497E+03  0.00000000000E+00 0.  1.
<mgrwt>
<rscale>  0 0.16922042E+04</rscale>
<asrwt>0</asrwt>
<pdfrwt beam="1">  1        1 0.44179769E+00 0.16922042E+04</pdfrwt>
<pdfrwt beam="2">  1       -1 0.38352652E-01 0.16922042E+04</pdfrwt>
<totfact> 0.46528751E+00</totfact>
</mgrwt>
</event>
<event>
12    1  0.1599266E-007  0.1249251E+04  0.7818608E-02  0.9070806E-01
          1   -1    0    0  501    0  0.00000000000E+00  0.00000000000E+00  0.19558975793E+04  0.19558975793E+04  0.00000000000E+00 0. -1.
         -1   -1    0    0    0  501 -0.00000000000E+00 -0.00000000000E+00 -0.19947737868E+03  0.19947737868E+03  0.00000000000E+00 0.  1.
         23    2    1    2    0    0  0.15996494685E+03  0.14708113872E+03  0.76113705964E+03  0.79673773672E+03  0.90773079584E+02 0.  0.
        254    2    1    2    0    0 -0.15996494685E+03 -0.14708113872E+03  0.99528314102E+03  0.13586372213E+04  0.89893543855E+03 0.  0.
        -24    2    4    4    0    0  0.33615411284E+03 -0.23033909914E+03  0.45927223436E+03  0.61904620989E+03  0.78940082062E+02 0.  0.
         24    2    4    4    0    0 -0.49611905969E+03  0.83257960418E+02  0.53601090667E+03  0.73959101140E+03  0.81370527295E+02 0.  0.
         13    1    3    3    0    0  0.83834098135E+02  0.53455853740E+02  0.48961566461E+03  0.49960903048E+03  0.00000000000E+00 0.  1.
        -13    1    3    3    0    0  0.76130848717E+02  0.93625284984E+02  0.27152139503E+03  0.29712870624E+03  0.00000000000E+00 0. -1.
          2    1    6    6  502    0 -0.19820953105E+03  0.28953682566E+02  0.27229038350E+03  0.33803459421E+03  0.00000000000E+00 0. -1.
          3    1    5    5  503    0  0.17775486716E+02 -0.18146197025E+02  0.64333248352E+02  0.69166604933E+02  0.00000000000E+00 0. -1.
         -4    1    5    5    0  503  0.31837862613E+03 -0.21219290212E+03  0.39493898600E+03  0.54987960496E+03  0.00000000000E+00 0.  1.
         -1    1    6    6    0  502 -0.29790952864E+03  0.54304277852E+02  0.26372052316E+03  0.40155641719E+03  0.00000000000E+00 0.  1.
<mgrwt>
<rscale>  0 0.12492515E+04</rscale>
<asrwt>0</asrwt>
<pdfrwt beam="1">  1        1 0.30090731E+00 0.12492515E+04</pdfrwt>
<pdfrwt beam="2">  1       -1 0.30688829E-01 0.12492515E+04</pdfrwt>
<totfact> 0.30909856E+01</totfact>
</mgrwt>
</event>
<event>
12    1  0.1599266E-007  0.2377669E+04  0.7818608E-02  0.8447911E-01
          2   -1    0    0  501    0  0.00000000000E+00  0.00000000000E+00  0.28790503126E+04  0.28790503126E+04  0.00000000000E+00 0. -1.
         -2   -1    0    0    0  501 -0.00000000000E+00 -0.00000000000E+00 -0.49090078556E+03  0.49090078556E+03  0.00000000000E+00 0.  1.
         23    2    1    2    0    0 -0.78864962967E+03  0.61469129985E+03  0.12747036858E+04  0.16227142488E+04  0.92295255953E+02 0.  0.
        254    2    1    2    0    0  0.78864962967E+03 -0.61469129985E+03  0.11134458412E+04  0.17472368493E+04  0.90181003194E+03 0.  0.
        -24    2    4    4    0    0  0.69074494716E+03 -0.73707686547E+03  0.54116726544E+03  0.11485378725E+04  0.76592087444E+02 0.  0.
         24    2    4    4    0    0  0.97904682512E+02  0.12238556562E+03  0.57227857578E+03  0.59869897675E+03  0.79838229758E+02 0.  0.
         11    1    3    3    0    0 -0.50667677591E+03  0.38691600880E+03  0.74020379926E+03  0.97689662583E+03  0.00000000000E+00 0.  1.
        -11    1    3    3    0    0 -0.28197285376E+03  0.22777529105E+03  0.53449988652E+03  0.64581762299E+03  0.00000000000E+00 0. -1.
          4    1    6    6  502    0 -0.33964010360E+01  0.15123315053E+01 -0.12183967435E+01  0.39124387795E+01  0.00000000000E+00 0. -1.
          3    1    5    5  503    0  0.14797799715E+03 -0.20340491159E+03  0.12180461234E+03  0.27947702819E+03  0.00000000000E+00 0. -1.
         -4    1    5    5    0  503  0.54276695001E+03 -0.53367195388E+03  0.41936265310E+03  0.86906084436E+03  0.00000000000E+00 0.  1.
         -3    1    6    6    0  502  0.10130108355E+03  0.12087323411E+03  0.57349697253E+03  0.59478653797E+03  0.00000000000E+00 0.  1.
<mgrwt>
<rscale>  0 0.23776695E+04</rscale>
<asrwt>0</asrwt>
<pdfrwt beam="1">  1        2 0.44293080E+00 0.23776695E+04</pdfrwt>
<pdfrwt beam="2">  1       -2 0.75523200E-01 0.23776695E+04</pdfrwt>
<totfact> 0.29323821E+00</totfact>
</mgrwt>
</event>
<event>
12    1  0.1599266E-007  0.1895857E+04  0.7818608E-02  0.8656922E-01
         -2   -1    0    0    0  501 -0.00000000000E+00  0.00000000000E+00  0.33064343181E+03  0.33064343181E+03  0.00000000000E+00 0.  1.
          2   -1    0    0  501    0  0.00000000000E+00 -0.00000000000E+00 -0.27176345725E+04  0.27176345725E+04  0.00000000000E+00 0. -1.
         23    2    1    2    0    0  0.57893637496E+03 -0.21999478871E+03 -0.30504800845E+03  0.69675163738E+03  0.94040009686E+02 0.  0.
        254    2    1    2    0    0 -0.57893637496E+03  0.21999478871E+03 -0.20819431322E+04  0.23515263669E+04  0.90090177889E+03 0.  0.
        -24    2    4    4    0    0 -0.19880685785E+03 -0.12183446202E+03 -0.16755652253E+04  0.16935540928E+04  0.78986316301E+02 0.  0.
         24    2    4    4    0    0 -0.38012951711E+03  0.34182925072E+03 -0.40637790698E+03  0.65797227417E+03  0.80242282286E+02 0.  0.
         11    1    3    3    0    0  0.57104858249E+03 -0.22089631017E+03 -0.28534598282E+03  0.67551017263E+03  0.00000000000E+00 0.  1.
        -11    1    3    3    0    0  0.78877924722E+01  0.90152146246E+00 -0.19702025629E+02  0.21241464755E+02  0.00000000000E+00 0. -1.
          2    1    6    6  502    0 -0.97929823160E+01  0.29774571728E+02 -0.12520035813E+02  0.33751724711E+02  0.00000000000E+00 0. -1.
          3    1    5    5  503    0 -0.15853741744E+03 -0.61866161623E+02 -0.10305839197E+04  0.10445404493E+04  0.00000000000E+00 0. -1.
         -4    1    5    5    0  503 -0.40269440415E+02 -0.59968300394E+02 -0.64498130552E+03  0.64901364343E+03  0.00000000000E+00 0.  1.
         -1    1    6    6    0  502 -0.37033653479E+03  0.31205467899E+03 -0.39385787117E+03  0.62422054946E+03  0.00000000000E+00 0.  1.
<mgrwt>
<rscale>  0 0.18958566E+04</rscale>
<asrwt>0</asrwt>
<pdfrwt beam="1">  1        2 0.41809764E+00 0.18958566E+04</pdfrwt>
<pdfrwt beam="2">  1       -2 0.50868219E-01 0.18958566E+04</pdfrwt>
<totfact> 0.88858025E+00</totfact>
</mgrwt>
</event>
<event>
12    1  0.1599266E-007  0.1426036E+04  0.7818608E-02  0.8935185E-01
         -1   -1    0    0    0  501 -0.00000000000E+00  0.00000000000E+00  0.12469986298E+04  0.12469986298E+04  0.00000000000E+00 0.  1.
          1   -1    0    0  501    0  0.00000000000E+00 -0.00000000000E+00 -0.40769441702E+03  0.40769441702E+03  0.00000000000E+00 0. -1.
         23    2    1    2    0    0  0.15024458339E+03  0.11393506369E+03 -0.17831701771E+03  0.28620096327E+03  0.12066233461E+03 0.  0.
        254    2    1    2    0    0 -0.15024458339E+03 -0.11393506369E+03  0.10176212305E+04  0.13684920835E+04  0.89535634270E+03 0.  0.
        -24    2    4    4    0    0 -0.42226996707E+03 -0.20807531372E+03  0.94795127997E+03  0.10617801838E+04  0.84606549939E+02 0.  0.
         24    2    4    4    0    0  0.27202538368E+03  0.94140250025E+02  0.69669950489E+02  0.30671189970E+03  0.79737640914E+02 0.  0.
         11    1    3    3    0    0  0.15190024157E+03  0.50318933145E+02 -0.13305155768E+03  0.20810669241E+03  0.00000000000E+00 0. -1.
        -11    1    3    3    0    0 -0.16556581781E+01  0.63616130548E+02 -0.45265460021E+02  0.78094270858E+02  0.00000000000E+00 0.  1.
          4    1    6    6  502    0  0.16295503186E+03  0.82028808967E+02  0.74030193475E+02  0.19688457902E+03  0.00000000000E+00 0. -1.
          3    1    5    5  503    0 -0.17230694431E+03 -0.92981015812E+02  0.30530242478E+03  0.36269094686E+03  0.00000000000E+00 0. -1.
         -4    1    5    5    0  503 -0.24996302276E+03 -0.11509429791E+03  0.64264885519E+03  0.69908923696E+03  0.00000000000E+00 0.  1.
         -3    1    6    6    0  502  0.10907035181E+03  0.12111441058E+02 -0.43602429862E+01  0.10982732068E+03  0.00000000000E+00 0.  1.
<mgrwt>
<rscale>  0 0.14260356E+04</rscale>
<asrwt>0</asrwt>
<pdfrwt beam="1">  1        1 0.62722219E-01 0.14260356E+04</pdfrwt>
<pdfrwt beam="2">  1       -1 0.19184594E+00 0.14260356E+04</pdfrwt>
<totfact> 0.97598418E+00</totfact>
</mgrwt>
</event>
<event>
12    1  0.1599266E-007  0.1658116E+04  0.7818608E-02  0.8785620E-01
          2   -1    0    0  501    0  0.00000000000E+00  0.00000000000E+00  0.25441305408E+04  0.25441305408E+04  0.00000000000E+00 0.  1.
         -2   -1    0    0    0  501 -0.00000000000E+00 -0.00000000000E+00 -0.27016570495E+03  0.27016570495E+03  0.00000000000E+00 0. -1.
         23    2    1    2    0    0  0.53123537604E+03  0.20743338284E+03  0.66564050095E+03  0.88164236338E+03  0.94743587254E+02 0.  0.
        254    2    1    2    0    0 -0.53123537604E+03 -0.20743338284E+03  0.16083243349E+04  0.19326538824E+04  0.90730602873E+03 0.  0.
        -24    2    4    4    0    0 -0.60550508395E+03 -0.18425987920E+03  0.16821663679E+04  0.17990326007E+04  0.79034799193E+02 0.  0.
         24    2    4    4    0    0  0.74269707908E+02 -0.23173503640E+02 -0.73842032923E+02  0.13362128170E+03  0.79680614418E+02 0.  0.
         13    1    3    3    0    0  0.47352623629E+03  0.19361901415E+03  0.54675197336E+03  0.74876774734E+03  0.00000000000E+00 0. -1.
        -13    1    3    3    0    0  0.57709139754E+02  0.13814368689E+02  0.11888852759E+03  0.13287461603E+03  0.00000000000E+00 0.  1.
          4    1    6    6  502    0  0.64797109499E+02 -0.45787946892E+02 -0.74857782640E+02  0.10908202923E+03  0.00000000000E+00 0. -1.
          3    1    5    5  503    0 -0.43181657792E+03 -0.16815172626E+03  0.12235105707E+04  0.13083266705E+04  0.00000000000E+00 0. -1.
         -4    1    5    5    0  503 -0.17368850603E+03 -0.16108152943E+02  0.45865579716E+03  0.49070593026E+03  0.00000000000E+00 0.  1.
         -3    1    6    6    0  502  0.94725984094E+01  0.22614443252E+02  0.10157497175E+01  0.24539252469E+02  0.00000000000E+00 0.  1.
<mgrwt>
<rscale>  0 0.16581156E+04</rscale>
<asrwt>0</asrwt>
<pdfrwt beam="1">  1        2 0.39140468E+00 0.16581156E+04</pdfrwt>
<pdfrwt beam="2">  1       -2 0.41563956E-01 0.16581156E+04</pdfrwt>
<totfact> 0.17215763E+01</totfact>
</mgrwt>
</event>
<event>
12    1  0.1599266E-007  0.1976608E+04  0.7818608E-02  0.8617636E-01
         -1   -1    0    0    0  501 -0.00000000000E+00  0.00000000000E+00  0.61209152044E+03  0.61209152044E+03  0.00000000000E+00 0.  1.
          1   -1    0    0  501    0  0.00000000000E+00 -0.00000000000E+00 -0.15957500516E+04  0.15957500516E+04  0.00000000000E+00 0. -1.
         23    2    1    2    0    0 -0.25151945500E+03 -0.72802210059E+03 -0.48419833742E+03  0.91440299561E+03  0.91687475879E+02 0.  0.
        254    2    1    2    0    0  0.25151945500E+03  0.72802210059E+03 -0.49946019377E+03  0.12934385765E+04  0.91117761756E+03 0.  0.
        -24    2    4    4    0    0 -0.70408882504E+00 -0.20574647455E+03 -0.12044623872E+03  0.25151250695E+03  0.80119518217E+02 0.  0.
         24    2    4    4    0    0  0.25222354382E+03  0.93376857514E+03 -0.37901395505E+03  0.10419260695E+04  0.80111723547E+02 0.  0.
         13    1    3    3    0    0 -0.25452204329E+03 -0.66104441700E+03 -0.43518208624E+03  0.83135109307E+03  0.00000000000E+00 0.  1.
        -13    1    3    3    0    0  0.30025882963E+01 -0.66977683584E+02 -0.49016251178E+02  0.83051902533E+02  0.00000000000E+00 0. -1.
          2    1    6    6  502    0 -0.81018929202E+00  0.72399918113E+02 -0.36038860335E+02  0.80877710179E+02  0.00000000000E+00 0. -1.
          1    1    5    5  503    0  0.24372616248E+02 -0.11725235563E+03 -0.10285953557E+03  0.15786774015E+03  0.00000000000E+00 0. -1.
         -2    1    5    5    0  503 -0.25076705073E+02 -0.88494118916E+02 -0.17586703149E+02  0.93644766793E+02  0.00000000000E+00 0.  1.
         -1    1    6    6    0  502  0.25303373311E+03  0.86136865702E+03 -0.34297509472E+03  0.96104835934E+03  0.00000000000E+00 0.  1.
<mgrwt>
<rscale>  0 0.19766083E+04</rscale>
<asrwt>0</asrwt>
<pdfrwt beam="1">  1        1 0.24550001E+00 0.19766083E+04</pdfrwt>
<pdfrwt beam="2">  1       -1 0.94167927E-01 0.19766083E+04</pdfrwt>
<totfact> 0.57024642E+00</totfact>
</mgrwt>
</event>
<event>
12    1  0.1599266E-007  0.1388537E+04  0.7818608E-02  0.8962158E-01
          2   -1    0    0  501    0  0.00000000000E+00  0.00000000000E+00  0.20716907643E+04  0.20716907643E+04  0.00000000000E+00 0. -1.
         -2   -1    0    0    0  501 -0.00000000000E+00 -0.00000000000E+00 -0.23266450761E+03  0.23266450761E+03  0.00000000000E+00 0.  1.
         23    2    1    2    0    0 -0.53234278557E+02 -0.32824103092E+03  0.36544598861E+03  0.50258261490E+03  0.91991583410E+02 0.  0.
        254    2    1    2    0    0  0.53234278557E+02  0.32824103092E+03  0.14735802681E+04  0.18017726570E+04  0.98202333896E+03 0.  0.
        -24    2    4    4    0    0  0.17933785268E+03  0.19448275410E+03  0.15594001997E+04  0.15833265418E+04  0.72168886335E+02 0.  0.
         24    2    4    4    0    0 -0.12610357412E+03  0.13375827682E+03 -0.85819931596E+02  0.21844611521E+03  0.80995410783E+02 0.  0.
         11    1    3    3    0    0 -0.20797211402E+02 -0.15546298905E+03  0.23964560835E+03  0.28641103779E+03  0.00000000000E+00 0. -1.
        -11    1    3    3    0    0 -0.32437067155E+02 -0.17277804187E+03  0.12580038026E+03  0.21617157711E+03  0.00000000000E+00 0.  1.
          4    1    6    6  502    0  0.65667651689E+01  0.23590905186E+02  0.26462655572E+01  0.24630386389E+02  0.00000000000E+00 0. -1.
          3    1    5    5  503    0  0.72821260422E+02  0.13178855495E+03  0.84160870842E+03  0.85497156519E+03  0.00000000000E+00 0. -1.
         -4    1    5    5    0  503  0.10651659226E+03  0.62694199153E+02  0.71779149125E+03  0.72835497661E+03  0.00000000000E+00 0.  1.
         -3    1    6    6    0  502 -0.13267033929E+03  0.11016737163E+03 -0.88466197153E+02  0.19381572882E+03  0.00000000000E+00 0.  1.
<mgrwt>
<rscale>  0 0.13885372E+04</rscale>
<asrwt>0</asrwt>
<pdfrwt beam="1">  1        2 0.31872164E+00 0.13885372E+04</pdfrwt>
<pdfrwt beam="2">  1       -2 0.35794541E-01 0.13885372E+04</pdfrwt>
<totfact> 0.43598364E+01</totfact>
</mgrwt>
</event>
<event>
12    1  0.1599266E-007  0.2030809E+04  0.7818608E-02  0.8592351E-01
         -2   -1    0    0    0  501 -0.00000000000E+00  0.00000000000E+00  0.47479854713E+03  0.47479854713E+03  0.00000000000E+00 0.  1.
          2   -1    0    0  501    0  0.00000000000E+00 -0.00000000000E+00 -0.21715441041E+04  0.21715441041E+04  0.00000000000E+00 0. -1.
         23    2    1    2    0    0 -0.57034744673E+03  0.15484535606E+03 -0.13737350228E+04  0.14982787852E+04  0.91750264340E+02 0.  0.
        254    2    1    2    0    0  0.57034744673E+03 -0.15484535606E+03 -0.32301053413E+03  0.11480638660E+04  0.92975348398E+03 0.  0.
        -24    2    4    4    0    0 -0.61574424333E+02 -0.29537850596E+03  0.14573098604E+03  0.34489782848E+03  0.81713648043E+02 0.  0.
         24    2    4    4    0    0  0.63192187107E+03  0.14053314991E+03 -0.46874152018E+03  0.80316603753E+03  0.79260669577E+02 0.  0.
         13    1    3    3    0    0 -0.20230948599E+03  0.63567841059E+02 -0.38877120981E+03  0.44284653337E+03  0.00000000000E+00 0.  1.
        -13    1    3    3    0    0 -0.36803796074E+03  0.91277514998E+02 -0.98496381304E+03  0.10554322519E+04  0.00000000000E+00 0. -1.
          2    1    6    6  502    0  0.38658399038E+03  0.11443501038E+03 -0.25763393930E+03  0.47845355040E+03  0.00000000000E+00 0. -1.
          1    1    5    5  503    0 -0.47414893975E+02 -0.15366609362E+03  0.11884565551E+03  0.19996432265E+03  0.00000000000E+00 0. -1.
         -4    1    5    5    0  503 -0.14159530358E+02 -0.14171241235E+03  0.26885330528E+02  0.14493350583E+03  0.00000000000E+00 0.  1.
         -3    1    6    6    0  502  0.24533788069E+03  0.26098139530E+02 -0.21110758088E+03  0.32471248712E+03  0.00000000000E+00 0.  1.
<mgrwt>
<rscale>  0 0.20308087E+04</rscale>
<asrwt>0</asrwt>
<pdfrwt beam="1">  1        2 0.33408371E+00 0.20308087E+04</pdfrwt>
<pdfrwt beam="2">  1       -2 0.73045930E-01 0.20308087E+04</pdfrwt>
<totfact> 0.84052691E+00</totfact>
</mgrwt>
</event>
<event>
12    1  0.1599266E-007  0.3094914E+04  0.7818608E-02  0.8217135E-01
         -2   -1    0    0    0  501 -0.00000000000E+00  0.00000000000E+00  0.92406243384E+03  0.92406243384E+03  0.00000000000E+00 0.  1.
          2   -1    0    0  501    0  0.00000000000E+00 -0.00000000000E+00 -0.25914085379E+04  0.25914085379E+04  0.00000000000E+00 0. -1.
         23    2    1    2    0    0  0.11588731411E+04 -0.80985383710E+03 -0.68367485918E+03  0.15731528931E+04  0.92458192530E+02 0.  0.
        254    2    1    2    0    0 -0.11588731411E+04  0.80985383710E+03 -0.98367124483E+03  0.19423180786E+04  0.89785310923E+03 0.  0.
        -24    2    4    4    0    0 -0.86629453142E+03  0.31923843406E+03 -0.16552582855E+03  0.94139641208E+03  0.80305739646E+02 0.  0.
         24    2    4    4    0    0 -0.29257860971E+03  0.49061540304E+03 -0.81814541628E+03  0.10009216665E+04  0.78590990020E+02 0.  0.
         13    1    3    3    0    0  0.35712210053E+03 -0.19953816342E+03 -0.20689898710E+03  0.45843087178E+03  0.00000000000E+00 0. -1.
        -13    1    3    3    0    0  0.80175104060E+03 -0.61031567369E+03 -0.47677587208E+03  0.11147220213E+04  0.00000000000E+00 0.  1.
          2    1    6    6  502    0 -0.10171829278E+03  0.11200140377E+03 -0.24581082533E+03  0.28864145125E+03  0.00000000000E+00 0. -1.
          1    1    5    5  503    0 -0.81704109602E+03  0.31152350101E+03 -0.14056182587E+03  0.88564138971E+03  0.00000000000E+00 0. -1.
         -2    1    5    5    0  503 -0.49253435398E+02  0.77149330514E+01 -0.24964002684E+02  0.55755022379E+02  0.00000000000E+00 0.  1.
         -1    1    6    6    0  502 -0.19086031693E+03  0.37861399927E+03 -0.57233459095E+03  0.71228021524E+03  0.00000000000E+00 0.  1.
<mgrwt>
<rscale>  0 0.30949141E+04</rscale>
<asrwt>0</asrwt>
<pdfrwt beam="1">  1        2 0.39867823E+00 0.30949141E+04</pdfrwt>
<pdfrwt beam="2">  1       -2 0.14216345E+00 0.30949141E+04</pdfrwt>
<totfact> 0.90216227E-01</totfact>
</mgrwt>
</event>
<event>
12    1  0.1599266E-007  0.3360838E+04  0.7818608E-02  0.8147585E-01
         -2   -1    0    0    0  501 -0.00000000000E+00  0.00000000000E+00  0.11371089414E+04  0.11371089414E+04  0.00000000000E+00 0.  1.
          2   -1    0    0  501    0  0.00000000000E+00 -0.00000000000E+00 -0.24833226452E+04  0.24833226452E+04  0.00000000000E+00 0. -1.
         23    2    1    2    0    0  0.35991031611E+03  0.99352386093E+03  0.61468451142E+03  0.12258134104E+04  0.90312627875E+02 0.  0.
        254    2    1    2    0    0 -0.35991031611E+03 -0.99352386093E+03 -0.19608982152E+04  0.23946181762E+04  0.87889094971E+03 0.  0.
        -24    2    4    4    0    0 -0.28804777751E+03 -0.40891222935E+03 -0.16452995115E+04  0.17217344421E+04  0.84724689779E+02 0.  0.
         24    2    4    4    0    0 -0.71862538600E+02 -0.58461163159E+03 -0.31559870368E+03  0.67288373410E+03  0.78961975712E+02 0.  0.
         11    1    3    3    0    0  0.25758542075E+03  0.78872598332E+03  0.45093754885E+03  0.94434294549E+03  0.00000000000E+00 0. -1.
        -11    1    3    3    0    0  0.10232489536E+03  0.20479787762E+03  0.16374696257E+03  0.28147046495E+03  0.00000000000E+00 0.  1.
          4    1    6    6  502    0  0.82940660553E+01 -0.23753560961E+03 -0.11442134325E+03  0.26378817479E+03  0.00000000000E+00 0. -1.
          1    1    5    5  503    0 -0.35871204991E+01 -0.26431247389E+02 -0.49035513472E+02  0.55820783347E+02  0.00000000000E+00 0. -1.
         -2    1    5    5    0  503 -0.28446065701E+03 -0.38248098196E+03 -0.15962639980E+04  0.16659136587E+04  0.00000000000E+00 0.  1.
         -3    1    6    6    0  502 -0.80156604656E+02 -0.34707602198E+03 -0.20117736043E+03  0.40909555931E+03  0.00000000000E+00 0.  1.
<mgrwt>
<rscale>  0 0.33608382E+04</rscale>
<asrwt>0</asrwt>
<pdfrwt beam="1">  1        2 0.38204964E+00 0.33608382E+04</pdfrwt>
<pdfrwt beam="2">  1       -2 0.17493984E+00 0.33608382E+04</pdfrwt>
<totfact> 0.58171015E-01</totfact>
</mgrwt>
</event>
<event>
12    1  0.1599266E-007  0.2532362E+04  0.7818608E-02  0.8391546E-01
          1   -1    0    0  501    0  0.00000000000E+00  0.00000000000E+00  0.15391416094E+04  0.15391416094E+04  0.00000000000E+00 0. -1.
         -1   -1    0    0    0  501 -0.00000000000E+00 -0.00000000000E+00 -0.10416292337E+04  0.10416292337E+04  0.00000000000E+00 0.  1.
         23    2    1    2    0    0 -0.55384740324E+03 -0.46303894194E+03 -0.59121111865E+03  0.93782667034E+03  0.94001430634E+02 0.  0.
        254    2    1    2    0    0  0.55384740324E+03  0.46303894194E+03  0.10887234943E+04  0.16429441727E+04  0.99639083683E+03 0.  0.
        -24    2    4    4    0    0  0.19571804893E+03 -0.85770732254E+02 -0.12496012732E+03  0.26141815422E+03  0.84037162888E+02 0.  0.
         24    2    4    4    0    0  0.35812935431E+03  0.54880967419E+03  0.12136836217E+04  0.13815260185E+04  0.78342283628E+02 0.  0.
         11    1    3    3    0    0 -0.47959510810E+03 -0.43555385463E+03 -0.54131883819E+03  0.84424209359E+03  0.00000000000E+00 0.  1.
        -11    1    3    3    0    0 -0.74252295135E+02 -0.27485087306E+02 -0.49892280462E+02  0.93584576757E+02  0.00000000000E+00 0. -1.
          2    1    6    6  502    0  0.19447118639E+03  0.24701683370E+03  0.63783971878E+03  0.71110889836E+03  0.00000000000E+00 0. -1.
          3    1    5    5  503    0  0.58889671970E+02 -0.26302854135E+02 -0.85494196674E+02  0.10709384327E+03  0.00000000000E+00 0. -1.
         -4    1    5    5    0  503  0.13682837696E+03 -0.59467878119E+02 -0.39465930649E+02  0.15432431095E+03  0.00000000000E+00 0.  1.
         -1    1    6    6    0  502  0.16365816792E+03  0.30179284050E+03  0.57584390287E+03  0.67041712014E+03  0.00000000000E+00 0.  1.
<mgrwt>
<rscale>  0 0.25323625E+04</rscale>
<asrwt>0</asrwt>
<pdfrwt beam="1">  1        1 0.23679102E+00 0.25323625E+04</pdfrwt>
<pdfrwt beam="2">  1       -1 0.16025065E+00 0.25323625E+04</pdfrwt>
<totfact> 0.15842903E+00</totfact>
</mgrwt>
</event>
<event>
12    1  0.1599266E-007  0.2097943E+04  0.7818608E-02  0.8562150E-01
         -2   -1    0    0    0  501 -0.00000000000E+00  0.00000000000E+00  0.19385913301E+04  0.19385913301E+04  0.00000000000E+00 0.  1.
          2   -1    0    0  501    0  0.00000000000E+00 -0.00000000000E+00 -0.56759815040E+03  0.56759815040E+03  0.00000000000E+00 0. -1.
         23    2    1    2    0    0  0.80790111042E+03  0.27491026488E+03  0.57232430691E+03  0.10317288060E+04  0.92894342167E+02 0.  0.
        254    2    1    2    0    0 -0.80790111042E+03 -0.27491026488E+03  0.79866887280E+03  0.14744606746E+04  0.89882281596E+03 0.  0.
        -24    2    4    4    0    0 -0.95147048010E+03 -0.10228042262E+03  0.47103907339E+03  0.10696478974E+04  0.80693595918E+02 0.  0.
         24    2    4    4    0    0  0.14356936968E+03 -0.17262984226E+03  0.32762979941E+03  0.40481277715E+03  0.78223223730E+02 0.  0.
         11    1    3    3    0    0  0.63715732286E+03  0.23080852477E+03  0.49482724505E+03  0.83910430318E+03  0.00000000000E+00 0. -1.
        -11    1    3    3    0    0  0.17074378756E+03  0.44101740111E+02  0.77497061863E+02  0.19262450277E+03  0.00000000000E+00 0.  1.
          2    1    6    6  502    0  0.12020894994E+03 -0.13730825458E+03  0.30829717513E+03  0.35826093370E+03  0.00000000000E+00 0. -1.
          3    1    5    5  503    0 -0.47856360660E+03 -0.18221015341E+02  0.20937121036E+03  0.52267718019E+03  0.00000000000E+00 0. -1.
         -4    1    5    5    0  503 -0.47290687350E+03 -0.84059407281E+02  0.26166786303E+03  0.54697071722E+03  0.00000000000E+00 0.  1.
         -1    1    6    6    0  502  0.23360419743E+02 -0.35321587682E+02  0.19332624279E+02  0.46551843448E+02  0.00000000000E+00 0.  1.
<mgrwt>
<rscale>  0 0.20979427E+04</rscale>
<asrwt>0</asrwt>
<pdfrwt beam="1">  1        2 0.87322793E-01 0.20979427E+04</pdfrwt>
<pdfrwt beam="2">  1       -2 0.29824482E+00 0.20979427E+04</pdfrwt>
<totfact> 0.15934349E+00</totfact>
</mgrwt>
</event>
<event>
12    1  0.1599266E-007  0.1759274E+04  0.7818608E-02  0.8728262E-01
         -1   -1    0    0    0  501 -0.00000000000E+00  0.00000000000E+00  0.42380649835E+03  0.42380649835E+03  0.00000000000E+00 0.  1.
          1   -1    0    0  501    0  0.00000000000E+00 -0.00000000000E+00 -0.18257420058E+04  0.18257420058E+04  0.00000000000E+00 0. -1.
         23    2    1    2    0    0  0.31726160243E+03  0.30517121988E+03 -0.11396042049E+04  0.12251595871E+04  0.92378959288E+02 0.  0.
        254    2    1    2    0    0 -0.31726160243E+03 -0.30517121988E+03 -0.26233130257E+03  0.10243889171E+04  0.88700087000E+03 0.  0.
        -24    2    4    4    0    0  0.27019246839E+03 -0.10485622122E+03  0.78859493977E+02  0.31110212269E+03  0.81036497019E+02 0.  0.
         24    2    4    4    0    0 -0.58745407082E+03 -0.20031499866E+03 -0.34119079655E+03  0.71328679443E+03  0.84489688350E+02 0.  0.
         13    1    3    3    0    0  0.17155269726E+03  0.18633609307E+03 -0.76813468600E+03  0.80881540746E+03  0.00000000000E+00 0. -1.
        -13    1    3    3    0    0  0.14570890517E+03  0.11883512680E+03 -0.37146951890E+03  0.41634417959E+03  0.00000000000E+00 0.  1.
          2    1    6    6  502    0 -0.33227507693E+02 -0.19861525767E+02 -0.16717507505E+01  0.38747157623E+02  0.00000000000E+00 0. -1.
          3    1    5    5  503    0  0.32560556749E+02 -0.45104418592E+02  0.19881336817E+02  0.59075087693E+02  0.00000000000E+00 0. -1.
         -4    1    5    5    0  503  0.23763191164E+03 -0.59751802625E+02  0.58978157160E+02  0.25202703500E+03  0.00000000000E+00 0.  1.
         -1    1    6    6    0  502 -0.55422656313E+03 -0.18045347289E+03 -0.33951904580E+03  0.67453963680E+03  0.00000000000E+00 0.  1.
<mgrwt>
<rscale>  0 0.17592741E+04</rscale>
<asrwt>0</asrwt>
<pdfrwt beam="1">  1        1 0.28088338E+00 0.17592741E+04</pdfrwt>
<pdfrwt beam="2">  1       -1 0.65201001E-01 0.17592741E+04</pdfrwt>
<totfact> 0.88361825E+00</totfact>
</mgrwt>
</event>
<event>
12    1  0.1599266E-007  0.1413194E+04  0.7818608E-02  0.8944323E-01
         -2   -1    0    0    0  501 -0.00000000000E+00  0.00000000000E+00  0.33199916029E+03  0.33199916029E+03  0.00000000000E+00 0.  1.
          2   -1    0    0  501    0  0.00000000000E+00 -0.00000000000E+00 -0.15038564557E+04  0.15038564557E+04  0.00000000000E+00 0. -1.
         23    2    1    2    0    0 -0.30881583359E+03 -0.89678562940E+02 -0.89315829353E+02  0.34587672991E+03  0.90796096792E+02 0.  0.
        254    2    1    2    0    0  0.30881583359E+03  0.89678562940E+02 -0.10825414660E+04  0.14899788860E+04  0.97197304051E+03 0.  0.
        -24    2    4    4    0    0  0.31853356102E+03 -0.13296854746E+03  0.26561282449E+02  0.35539658892E+03  0.80355271031E+02 0.  0.
         24    2    4    4    0    0 -0.97177274338E+01  0.22264711040E+03 -0.11091027485E+04  0.11345822971E+04  0.86613580328E+02 0.  0.
         13    1    3    3    0    0 -0.27766846222E+03 -0.75111538934E+02 -0.47180969855E+02  0.29149195891E+03  0.00000000000E+00 0.  1.
        -13    1    3    3    0    0 -0.31147371368E+02 -0.14567024006E+02 -0.42134859498E+02  0.54384770998E+02  0.00000000000E+00 0. -1.
          4    1    6    6  502    0  0.17659124492E+02  0.18314931949E+03 -0.97298455578E+03  0.99022950052E+03  0.00000000000E+00 0. -1.
          3    1    5    5  503    0  0.30125441867E+03 -0.11162326297E+03  0.41819954744E+02  0.32397976205E+03  0.00000000000E+00 0. -1.
         -4    1    5    5    0  503  0.17279142347E+02 -0.21345284490E+02 -0.15258672295E+02  0.31416826868E+02  0.00000000000E+00 0.  1.
         -3    1    6    6    0  502 -0.27376851926E+02  0.39497790910E+02 -0.13611819267E+03  0.14435279659E+03  0.00000000000E+00 0.  1.
<mgrwt>
<rscale>  0 0.14131937E+04</rscale>
<asrwt>0</asrwt>
<pdfrwt beam="1">  1        2 0.23136253E+00 0.14131937E+04</pdfrwt>
<pdfrwt beam="2">  1       -2 0.51076794E-01 0.14131937E+04</pdfrwt>
<totfact> 0.44482666E+01</totfact>
</mgrwt>
</event>
<event>
12    1  0.1599266E-007  0.2048107E+04  0.7818608E-02  0.8584454E-01
         -2   -1    0    0    0  501 -0.00000000000E+00  0.00000000000E+00  0.46809629416E+03  0.46809629416E+03  0.00000000000E+00 0.  1.
          2   -1    0    0  501    0  0.00000000000E+00 -0.00000000000E+00 -0.22403196084E+04  0.22403196084E+04  0.00000000000E+00 0. -1.
         23    2    1    2    0    0  0.29139367804E+03 -0.70219179942E+02 -0.17222667798E+04  0.17503514142E+04  0.87670997275E+02 0.  0.
        254    2    1    2    0    0 -0.29139367804E+03  0.70219179942E+02 -0.49956534413E+02  0.95806448827E+03  0.90859831583E+03 0.  0.
        -24    2    4    4    0    0 -0.44166180714E+03  0.10961990527E+03 -0.37206242753E+03  0.59237699055E+03  0.73473624064E+02 0.  0.
         24    2    4    4    0    0  0.15026812910E+03 -0.39400725326E+02  0.32210589311E+03  0.36568749772E+03  0.76434362894E+02 0.  0.
         11    1    3    3    0    0  0.25999482603E+03 -0.42783034843E+02 -0.15894826045E+04  0.16111743071E+04  0.00000000000E+00 0. -1.
        -11    1    3    3    0    0  0.31398852012E+02 -0.27436145100E+02 -0.13278417525E+03  0.13917710718E+03  0.00000000000E+00 0.  1.
          4    1    6    6  502    0  0.11602250340E+03 -0.42590517133E+02  0.17266773581E+03  0.21234246027E+03  0.00000000000E+00 0. -1.
          1    1    5    5  503    0 -0.29334075737E+03  0.67058666883E+02 -0.20027950880E+03  0.36146583018E+03  0.00000000000E+00 0. -1.
         -2    1    5    5    0  503 -0.14832104977E+03  0.42561238386E+02 -0.17178291872E+03  0.23091116037E+03  0.00000000000E+00 0.  1.
         -3    1    6    6    0  502  0.34245625702E+02  0.31897918065E+01  0.14943815731E+03  0.15334503745E+03  0.00000000000E+00 0.  1.
<mgrwt>
<rscale>  0 0.20481067E+04</rscale>
<asrwt>0</asrwt>
<pdfrwt beam="1">  1        2 0.34466456E+00 0.20481067E+04</pdfrwt>
<pdfrwt beam="2">  1       -2 0.72014814E-01 0.20481067E+04</pdfrwt>
<totfact> 0.79218691E+00</totfact>
</mgrwt>
</event>
<event>
12    1  0.1599266E-007  0.1291354E+04  0.7818608E-02  0.9036450E-01
          1   -1    0    0  501    0  0.00000000000E+00  0.00000000000E+00  0.62904161929E+03  0.62904161929E+03  0.00000000000E+00 0. -1.
         -1   -1    0    0    0  501 -0.00000000000E+00 -0.00000000000E+00 -0.66275220776E+03  0.66275220776E+03  0.00000000000E+00 0.  1.
         23    2    1    2    0    0 -0.12785881492E+03  0.16847505367E+03  0.22695483742E+03  0.32779560274E+03  0.10587605340E+03 0.  0.
        254    2    1    2    0    0  0.12785881492E+03 -0.16847505367E+03 -0.26066542589E+03  0.96399822432E+03  0.90366719093E+03 0.  0.
        -24    2    4    4    0    0  0.94091978396E+02  0.31801260949E+03 -0.31709040444E+03  0.46684483045E+03  0.86095591870E+02 0.  0.
         24    2    4    4    0    0  0.33766836523E+02 -0.48648766315E+03  0.56424978557E+02  0.49715339386E+03  0.78531988227E+02 0.  0.
         13    1    3    3    0    0 -0.11982593452E+03  0.94061453630E+02  0.19227132786E+03  0.24530404636E+03  0.00000000000E+00 0. -1.
        -13    1    3    3    0    0 -0.80328803941E+01  0.74413600035E+02  0.34683509561E+02  0.82491556375E+02  0.00000000000E+00 0.  1.
          2    1    6    6  502    0  0.21363134219E+02 -0.11929924317E+03  0.45922550046E+02  0.12960545331E+03  0.00000000000E+00 0. -1.
          1    1    5    5  503    0 -0.15022218100E+02  0.59950055073E+02 -0.46632926339E+02  0.77422903323E+02  0.00000000000E+00 0. -1.
         -2    1    5    5    0  503  0.10911419650E+03  0.25806255441E+03 -0.27045747810E+03  0.38942192713E+03  0.00000000000E+00 0.  1.
         -3    1    6    6    0  502  0.12403702303E+02 -0.36718841999E+03  0.10502428510E+02  0.36754794056E+03  0.00000000000E+00 0.  1.
<mgrwt>
<rscale>  0 0.12913539E+04</rscale>
<asrwt>0</asrwt>
<pdfrwt beam="1">  1        1 0.96775634E-01 0.12913539E+04</pdfrwt>
<pdfrwt beam="2">  1       -1 0.10196188E+00 0.12913539E+04</pdfrwt>
<totfact> 0.28659231E+01</totfact>
</mgrwt>
</event>
<event>
12    1  0.1599266E-007  0.1757796E+04  0.7818608E-02  0.8729071E-01
          1   -1    0    0  501    0  0.00000000000E+00  0.00000000000E+00  0.84842753659E+03  0.84842753659E+03  0.00000000000E+00 0. -1.
         -1   -1    0    0    0  501 -0.00000000000E+00 -0.00000000000E+00 -0.91046236849E+03  0.91046236849E+03  0.00000000000E+00 0.  1.
         23    2    1    2    0    0 -0.26954761800E+03  0.29487900923E+03 -0.52815318529E+03  0.66859377389E+03  0.91990754467E+02 0.  0.
        254    2    1    2    0    0  0.26954761800E+03 -0.29487900923E+03  0.46611835339E+03  0.10902961312E+04  0.90103817115E+03 0.  0.
        -24    2    4    4    0    0  0.26188079020E+03 -0.11513234116E+03 -0.22461254485E+03  0.37208708175E+03  0.78492017712E+02 0.  0.
         24    2    4    4    0    0  0.76668278042E+01 -0.17974666806E+03  0.69073089823E+03  0.71820904944E+03  0.79670697220E+02 0.  0.
         11    1    3    3    0    0 -0.80076264730E+02  0.14462881650E+03 -0.17659369367E+03  0.24189881228E+03  0.00000000000E+00 0. -1.
        -11    1    3    3    0    0 -0.18947135327E+03  0.15025019272E+03 -0.35155949161E+03  0.42669496161E+03  0.00000000000E+00 0.  1.
          4    1    6    6  502    0 -0.10599250432E+02 -0.26829217277E+02  0.24354585456E+03  0.24524831148E+03  0.00000000000E+00 0. -1.
          1    1    5    5  503    0  0.19519491450E+03 -0.11839944763E+03 -0.15704108241E+03  0.27709454237E+03  0.00000000000E+00 0. -1.
         -2    1    5    5    0  503  0.66685875699E+02  0.32671064633E+01 -0.67571462436E+02  0.94992539382E+02  0.00000000000E+00 0.  1.
         -3    1    6    6    0  502  0.18266078237E+02 -0.15291745079E+03  0.44718504368E+03  0.47296073797E+03  0.00000000000E+00 0.  1.
<mgrwt>
<rscale>  0 0.17577956E+04</rscale>
<asrwt>0</asrwt>
<pdfrwt beam="1">  1        1 0.13052731E+00 0.17577956E+04</pdfrwt>
<pdfrwt beam="2">  1       -1 0.14007113E+00 0.17577956E+04</pdfrwt>
<totfact> 0.79647193E+00</totfact>
</mgrwt>
</event>
<event>
12    1  0.1599266E-007  0.1591140E+04  0.7818608E-02  0.8826009E-01
          2   -1    0    0  501    0  0.00000000000E+00  0.00000000000E+00  0.88905398001E+03  0.88905398001E+03  0.00000000000E+00 0.  1.
         -2   -1    0    0    0  501 -0.00000000000E+00 -0.00000000000E+00 -0.71191605239E+03  0.71191605239E+03  0.00000000000E+00 0. -1.
         23    2    1    2    0    0 -0.73987478405E+02 -0.37908733340E+03 -0.32280544869E+03  0.51152834266E+03  0.90975460084E+02 0.  0.
        254    2    1    2    0    0  0.73987478405E+02  0.37908733340E+03  0.49994337631E+03  0.10894416897E+04  0.88755758265E+03 0.  0.
        -24    2    4    4    0    0 -0.94882769356E+01  0.25036091559E+03  0.74483728603E+03  0.78995647503E+03  0.80486236859E+02 0.  0.
         24    2    4    4    0    0  0.83475755340E+02  0.12872641781E+03 -0.24489390972E+03  0.29948521471E+03  0.78610905360E+02 0.  0.
         11    1    3    3    0    0 -0.25241930484E+02 -0.16802916563E+02 -0.15970008424E+02  0.34271478355E+02  0.00000000000E+00 0.  1.
        -11    1    3    3    0    0 -0.48745547921E+02 -0.36228441684E+03 -0.30683544027E+03  0.47725686431E+03  0.00000000000E+00 0. -1.
          2    1    6    6  502    0  0.62098889404E+02  0.10734378721E+03 -0.12593663944E+03  0.17674557384E+03  0.00000000000E+00 0. -1.
          3    1    5    5  503    0 -0.34975467795E+01  0.58936142862E+02  0.29821298478E+03  0.30400112839E+03  0.00000000000E+00 0. -1.
         -4    1    5    5    0  503 -0.59907301561E+01  0.19142477273E+03  0.44662430124E+03  0.48595534664E+03  0.00000000000E+00 0.  1.
         -1    1    6    6    0  502  0.21376865936E+02  0.21382630593E+02 -0.11895727028E+03  0.12273964087E+03  0.00000000000E+00 0.  1.
<mgrwt>
<rscale>  0 0.15911402E+04</rscale>
<asrwt>0</asrwt>
<pdfrwt beam="1">  1        2 0.13677754E+00 0.15911402E+04</pdfrwt>
<pdfrwt beam="2">  1       -2 0.10952555E+00 0.15911402E+04</pdfrwt>
<totfact> 0.19005830E+01</totfact>
</mgrwt>
</event>
<event>
12    1  0.1599266E-007  0.2095578E+04  0.7818608E-02  0.8563194E-01
         -2   -1    0    0    0  501 -0.00000000000E+00  0.00000000000E+00  0.15883944092E+04  0.15883944092E+04  0.00000000000E+00 0.  1.
          2   -1    0    0  501    0  0.00000000000E+00 -0.00000000000E+00 -0.69117684338E+03  0.69117684338E+03  0.00000000000E+00 0. -1.
         23    2    1    2    0    0  0.58854447768E+03 -0.30791779682E+03 -0.20443247472E+03  0.70284204127E+03  0.10486337036E+03 0.  0.
        254    2    1    2    0    0 -0.58854447768E+03  0.30791779682E+03  0.11016500405E+04  0.15767292113E+04  0.91172595780E+03 0.  0.
        -24    2    4    4    0    0 -0.72690273772E+03 -0.45816404655E+02  0.80199878468E+03  0.10863006093E+04  0.79751050918E+02 0.  0.
         24    2    4    4    0    0  0.13835826003E+03  0.35373420147E+03  0.29965125581E+03  0.49042860196E+03  0.80364451680E+02 0.  0.
         13    1    3    3    0    0  0.37901824046E+03 -0.25295124270E+03 -0.13130559769E+03  0.47421547610E+03  0.00000000000E+00 0. -1.
        -13    1    3    3    0    0  0.20952623723E+03 -0.54966554114E+02 -0.73126877023E+02  0.22862656517E+03  0.00000000000E+00 0.  1.
          2    1    6    6  502    0  0.80436963926E+02  0.22288807108E+03  0.13667720891E+03  0.27355046487E+03  0.00000000000E+00 0. -1.
          1    1    5    5  503    0 -0.37372952598E+03 -0.95873915801E+01  0.46661686829E+03  0.59791051040E+03  0.00000000000E+00 0. -1.
         -2    1    5    5    0  503 -0.35317321174E+03 -0.36229013074E+02  0.33538191638E+03  0.48839009891E+03  0.00000000000E+00 0.  1.
         -1    1    6    6    0  502  0.57921296108E+02  0.13084613039E+03  0.16297404690E+03  0.21687813708E+03  0.00000000000E+00 0.  1.
<mgrwt>
<rscale>  0 0.20955777E+04</rscale>
<asrwt>0</asrwt>
<pdfrwt beam="1">  1        2 0.10633490E+00 0.20955777E+04</pdfrwt>
<pdfrwt beam="2">  1       -2 0.24436837E+00 0.20955777E+04</pdfrwt>
<totfact> 0.26711087E+00</totfact>
</mgrwt>
</event>
<event>
12    1  0.1599266E-007  0.1694755E+04  0.7818608E-02  0.8764362E-01
         -1   -1    0    0    0  501 -0.00000000000E+00  0.00000000000E+00  0.14691064027E+04  0.14691064027E+04  0.00000000000E+00 0.  1.
          1   -1    0    0  501    0  0.00000000000E+00 -0.00000000000E+00 -0.48876531245E+03  0.48876531245E+03  0.00000000000E+00 0. -1.
         23    2    1    2    0    0 -0.83627278247E+02  0.58443925623E+03  0.52213690061E+03  0.79309413355E+03  0.88366259420E+02 0.  0.
        254    2    1    2    0    0  0.83627278247E+02 -0.58443925623E+03  0.45820418964E+03  0.11647775816E+04  0.89341645906E+03 0.  0.
        -24    2    4    4    0    0  0.38829863718E+03  0.10032703793E+02  0.19949596302E+03  0.44399708103E+03  0.80363436431E+02 0.  0.
         24    2    4    4    0    0 -0.30467135894E+03 -0.59447196002E+03  0.25870822662E+03  0.72078050058E+03  0.79831292636E+02 0.  0.
         13    1    3    3    0    0 -0.90747761812E+02  0.57763714260E+03  0.52103727898E+03  0.78318559159E+03  0.00000000000E+00 0. -1.
        -13    1    3    3    0    0  0.71204835659E+01  0.68021136282E+01  0.10996216273E+01  0.99085419587E+01  0.00000000000E+00 0.  1.
          4    1    6    6  502    0 -0.56047407928E+02 -0.17985829962E+03  0.55780949695E+02  0.19647349497E+03  0.00000000000E+00 0. -1.
          3    1    5    5  503    0  0.13578991232E+02  0.11608479698E+01  0.29355041063E+02  0.32364409568E+02  0.00000000000E+00 0. -1.
         -4    1    5    5    0  503  0.37471964595E+03  0.88718558232E+01  0.17014092195E+03  0.41163267146E+03  0.00000000000E+00 0.  1.
         -3    1    6    6    0  502 -0.24862395101E+03 -0.41461366040E+03  0.20292727693E+03  0.52430700560E+03  0.00000000000E+00 0.  1.
<mgrwt>
<rscale>  0 0.16947546E+04</rscale>
<asrwt>0</asrwt>
<pdfrwt beam="1">  1        1 0.75194664E-01 0.16947546E+04</pdfrwt>
<pdfrwt beam="2">  1       -1 0.22601637E+00 0.16947546E+04</pdfrwt>
<totfact> 0.43678667E+00</totfact>
</mgrwt>
</event>
<event>
12    1  0.1599266E-007  0.1812001E+04  0.7818608E-02  0.8699944E-01
         -2   -1    0    0    0  501 -0.00000000000E+00  0.00000000000E+00  0.12305717198E+04  0.12305717198E+04  0.00000000000E+00 0.  1.
          2   -1    0    0  501    0  0.00000000000E+00 -0.00000000000E+00 -0.66703679969E+03  0.66703679969E+03  0.00000000000E+00 0. -1.
         23    2    1    2    0    0 -0.29488464288E+03  0.56758079348E+03  0.80304546733E+02  0.65121653831E+03  0.92353937716E+02 0.  0.
        254    2    1    2    0    0  0.29488464288E+03 -0.56758079348E+03  0.48323037334E+03  0.12463919811E+04  0.95439848450E+03 0.  0.
        -24    2    4    4    0    0  0.26716382140E+02 -0.48388217400E+03 -0.17896043800E+03  0.52267407976E+03  0.79408008964E+02 0.  0.
         24    2    4    4    0    0  0.26816826074E+03 -0.83698619473E+02  0.66219081134E+03  0.72371790139E+03  0.79694762669E+02 0.  0.
         13    1    3    3    0    0 -0.28569998467E+03  0.56659128551E+03  0.71687803725E+02  0.63858382947E+03  0.00000000000E+00 0. -1.
        -13    1    3    3    0    0 -0.91846582119E+01  0.98950796100E+00  0.86167430082E+01  0.12632708836E+02  0.00000000000E+00 0.  1.
          2    1    6    6  502    0  0.37033372174E+02 -0.26609020349E+02  0.54549149290E+02  0.71099369243E+02  0.00000000000E+00 0. -1.
          3    1    5    5  503    0  0.11471911684E+02 -0.22305245855E+03 -0.40537845281E+02  0.22699630157E+03  0.00000000000E+00 0. -1.
         -4    1    5    5    0  503  0.15244470456E+02 -0.26082971545E+03 -0.13842259272E+03  0.29567777819E+03  0.00000000000E+00 0.  1.
         -1    1    6    6    0  502  0.23113488857E+03 -0.57089599124E+02  0.60764166205E+03  0.65261853215E+03  0.00000000000E+00 0.  1.
<mgrwt>
<rscale>  0 0.18120007E+04</rscale>
<asrwt>0</asrwt>
<pdfrwt beam="1">  1        2 0.10262105E+00 0.18120007E+04</pdfrwt>
<pdfrwt beam="2">  1       -2 0.18931873E+00 0.18120007E+04</pdfrwt>
<totfact> 0.64273397E+00</totfact>
</mgrwt>
</event>
<event>
12    1  0.1599266E-007  0.1318183E+04  0.7818608E-02  0.9015269E-01
          1   -1    0    0  501    0  0.00000000000E+00  0.00000000000E+00  0.10338581870E+04  0.10338581870E+04  0.00000000000E+00 0. -1.
         -1   -1    0    0    0  501 -0.00000000000E+00 -0.00000000000E+00 -0.42017496681E+03  0.42017496681E+03  0.00000000000E+00 0.  1.
         23    2    1    2    0    0 -0.18486375495E+03 -0.27212559816E+03  0.39029156905E+02  0.34314429383E+03  0.89430320539E+02 0.  0.
        254    2    1    2    0    0  0.18486375495E+03  0.27212559816E+03  0.57465406329E+03  0.11108888600E+04  0.89197523380E+03 0.  0.
        -24    2    4    4    0    0  0.37714872747E+03  0.74168845034E+02  0.69605683988E+03  0.79903911715E+03  0.78906312707E+02 0.  0.
         24    2    4    4    0    0 -0.19228497252E+03  0.19795675313E+03 -0.12140277659E+03  0.31184974284E+03  0.79694674726E+02 0.  0.
         13    1    3    3    0    0 -0.13934802377E+03 -0.24677257265E+03  0.54927509655E+02  0.28867214216E+03  0.00000000000E+00 0.  1.
        -13    1    3    3    0    0 -0.45515731188E+02 -0.25353025508E+02 -0.15898352750E+02  0.54472151675E+02  0.00000000000E+00 0. -1.
          2    1    6    6  502    0 -0.18811803227E+02  0.46352279249E+02 -0.49820910009E+02  0.70601280487E+02  0.00000000000E+00 0. -1.
          1    1    5    5  503    0  0.51736989131E+02  0.37599576210E+02  0.13570988188E+03  0.15002538524E+03  0.00000000000E+00 0. -1.
         -2    1    5    5    0  503  0.32541173834E+03  0.36569268824E+02  0.56034695800E+03  0.64901373191E+03  0.00000000000E+00 0.  1.
         -1    1    6    6    0  502 -0.17347316929E+03  0.15160447388E+03 -0.71581866578E+02  0.24124846235E+03  0.00000000000E+00 0.  1.
<mgrwt>
<rscale>  0 0.13181826E+04</rscale>
<asrwt>0</asrwt>
<pdfrwt beam="1">  1        1 0.15905511E+00 0.13181826E+04</pdfrwt>
<pdfrwt beam="2">  1       -1 0.64642303E-01 0.13181826E+04</pdfrwt>
<totfact> 0.33909433E+01</totfact>
</mgrwt>
</event>
<event>
12    1  0.1599266E-007  0.1384116E+04  0.7818608E-02  0.8965397E-01
         -1   -1    0    0    0  501 -0.00000000000E+00  0.00000000000E+00  0.41619197936E+03  0.41619197936E+03  0.00000000000E+00 0.  1.
          1   -1    0    0  501    0  0.00000000000E+00 -0.00000000000E+00 -0.11507780455E+04  0.11507780455E+04  0.00000000000E+00 0. -1.
         23    2    1    2    0    0 -0.35973251597E+03  0.72291272455E+02 -0.37349300697E+03  0.53144980470E+03  0.91150192225E+02 0.  0.
        254    2    1    2    0    0  0.35973251597E+03 -0.72291272455E+02 -0.36109305919E+03  0.10355202202E+04  0.89848785071E+03 0.  0.
        -24    2    4    4    0    0  0.35681387638E+03  0.36268415493E+03 -0.10726680688E+03  0.52576751837E+03  0.77906205783E+02 0.  0.
         24    2    4    4    0    0  0.29186395944E+01 -0.43497542739E+03 -0.25382625231E+03  0.50975270180E+03  0.78790289622E+02 0.  0.
         13    1    3    3    0    0 -0.26702180038E+03  0.13605213613E+02 -0.28182854692E+03  0.38847531913E+03  0.00000000000E+00 0. -1.
        -13    1    3    3    0    0 -0.92710715594E+02  0.58686058842E+02 -0.91664460046E+02  0.14297448557E+03  0.00000000000E+00 0.  1.
          4    1    6    6  502    0  0.26533513472E+02 -0.95473095140E+02 -0.81420199181E+02  0.12825126926E+03  0.00000000000E+00 0. -1.
          1    1    5    5  503    0  0.26421932118E+02  0.35578671945E+02  0.11752230438E+02  0.45848394896E+02  0.00000000000E+00 0. -1.
         -2    1    5    5    0  503  0.33039194426E+03  0.32710548299E+03 -0.11901903731E+03  0.47991912348E+03  0.00000000000E+00 0.  1.
         -3    1    6    6    0  502 -0.23614873878E+02 -0.33950233225E+03 -0.17240605313E+03  0.38150143254E+03  0.00000000000E+00 0.  1.
<mgrwt>
<rscale>  0 0.13841165E+04</rscale>
<asrwt>0</asrwt>
<pdfrwt beam="1">  1        1 0.17704278E+00 0.13841165E+04</pdfrwt>
<pdfrwt beam="2">  1       -1 0.64029536E-01 0.13841165E+04</pdfrwt>
<totfact> 0.28053877E+01</totfact>
</mgrwt>
</event>
<event>
12    1  0.1599266E-007  0.1211399E+04  0.7818608E-02  0.9102937E-01
          1   -1    0    0  501    0  0.00000000000E+00  0.00000000000E+00  0.81946883669E+03  0.81946883669E+03  0.00000000000E+00 0. -1.
         -1   -1    0    0    0  501 -0.00000000000E+00 -0.00000000000E+00 -0.44769446337E+03  0.44769446337E+03  0.00000000000E+00 0.  1.
         23    2    1    2    0    0 -0.23672234735E+03 -0.90922871888E+02  0.11849631637E+03  0.29484966742E+03  0.92685009666E+02 0.  0.
        254    2    1    2    0    0  0.23672234735E+03  0.90922871888E+02  0.25327805695E+03  0.97231363265E+03  0.90384710418E+03 0.  0.
        -24    2    4    4    0    0  0.60831086520E+02 -0.35090040013E+03 -0.95239219811E+02  0.37724748726E+03  0.80085240553E+02 0.  0.
         24    2    4    4    0    0  0.17589126083E+03  0.44182327202E+03  0.34851727676E+03  0.59506614538E+03  0.80584650191E+02 0.  0.
         13    1    3    3    0    0 -0.18853264449E+03 -0.55154074733E+02  0.12746951685E+03  0.23416875907E+03  0.00000000000E+00 0. -1.
        -13    1    3    3    0    0 -0.48189702862E+02 -0.35768797154E+02 -0.89732004763E+01  0.60680908353E+02  0.00000000000E+00 0.  1.
          4    1    6    6  502    0  0.13555278144E+03  0.28100476069E+03  0.26537245442E+03  0.40958609797E+03  0.00000000000E+00 0. -1.
          1    1    5    5  503    0 -0.14094900968E+01 -0.10788976977E+03 -0.61330845161E+02  0.12411148880E+03  0.00000000000E+00 0. -1.
         -2    1    5    5    0  503  0.62240576617E+02 -0.24301063037E+03 -0.33908374650E+02  0.25313599847E+03  0.00000000000E+00 0.  1.
         -1    1    6    6    0  502  0.40338479391E+02  0.16081851133E+03  0.83144822340E+02  0.18548004741E+03  0.00000000000E+00 0.  1.
<mgrwt>
<rscale>  0 0.12113986E+04</rscale>
<asrwt>0</asrwt>
<pdfrwt beam="1">  1        1 0.12607213E+00 0.12113986E+04</pdfrwt>
<pdfrwt beam="2">  1       -1 0.68876071E-01 0.12113986E+04</pdfrwt>
<totfact> 0.44869244E+01</totfact>
</mgrwt>
</event>
<event>
12    1  0.1599266E-007  0.1428263E+04  0.7818608E-02  0.8933611E-01
         -1   -1    0    0    0  501 -0.00000000000E+00  0.00000000000E+00  0.13135704861E+04  0.13135704861E+04  0.00000000000E+00 0.  1.
          1   -1    0    0  501    0  0.00000000000E+00 -0.00000000000E+00 -0.38824237767E+03  0.38824237767E+03  0.00000000000E+00 0. -1.
         23    2    1    2    0    0  0.33464332430E+02  0.23992693044E+03 -0.18742773140E+03  0.31979564290E+03  0.91952733647E+02 0.  0.
        254    2    1    2    0    0 -0.33464332430E+02 -0.23992693044E+03  0.11127558399E+04  0.13820172209E+04  0.78298227710E+03 0.  0.
        -24    2    4    4    0    0 -0.27909622058E+03  0.16794167271E+03  0.43425157658E+03  0.54930326313E+03  0.84027003727E+02 0.  0.
         24    2    4    4    0    0  0.24563188815E+03 -0.40786860315E+03  0.67850426329E+03  0.83271395778E+03  0.79703690432E+02 0.  0.
         13    1    3    3    0    0  0.46415699642E+02  0.24037943650E+03 -0.18437580389E+03  0.30648185546E+03  0.00000000000E+00 0. -1.
        -13    1    3    3    0    0 -0.12951367212E+02 -0.45250606531E+00 -0.30519275078E+01  0.13313787437E+02  0.00000000000E+00 0.  1.
          2    1    6    6  502    0  0.34409860702E+02 -0.19502371969E+02  0.72557482496E+02  0.82637577966E+02  0.00000000000E+00 0. -1.
          1    1    5    5  503    0 -0.94968865134E+02  0.10409888869E+03  0.16616081148E+03  0.21786481873E+03  0.00000000000E+00 0. -1.
         -2    1    5    5    0  503 -0.18412735545E+03  0.63842784025E+02  0.26809076510E+03  0.33143844440E+03  0.00000000000E+00 0.  1.
         -1    1    6    6    0  502  0.21122202745E+03 -0.38836623118E+03  0.60594678080E+03  0.75007637982E+03  0.00000000000E+00 0.  1.
<mgrwt>
<rscale>  0 0.14282629E+04</rscale>
<asrwt>0</asrwt>
<pdfrwt beam="1">  1        1 0.59729597E-01 0.14282629E+04</pdfrwt>
<pdfrwt beam="2">  1       -1 0.20208776E+00 0.14282629E+04</pdfrwt>
<totfact> 0.88427445E+00</totfact>
</mgrwt>
</event>
<event>
12    1  0.1599266E-007  0.1235879E+04  0.7818608E-02  0.9082018E-01
          1   -1    0    0  501    0  0.00000000000E+00  0.00000000000E+00  0.87520540194E+03  0.87520540194E+03  0.00000000000E+00 0. -1.
         -1   -1    0    0    0  501 -0.00000000000E+00 -0.00000000000E+00 -0.43629698167E+03  0.43629698167E+03  0.00000000000E+00 0.  1.
         23    2    1    2    0    0  0.23419830686E+03  0.15565654070E+03  0.59976339853E+02  0.30112447743E+03  0.89448219493E+02 0.  0.
        254    2    1    2    0    0 -0.23419830686E+03 -0.15565654070E+03  0.37893208042E+03  0.10103779062E+04  0.89341825935E+03 0.  0.
        -24    2    4    4    0    0 -0.55310882902E+03 -0.19108831666E+03  0.15353826277E+03  0.61017277300E+03  0.79326497839E+02 0.  0.
         24    2    4    4    0    0  0.31891052217E+03  0.35431775969E+02  0.22539381764E+03  0.40020513319E+03  0.80015271695E+02 0.  0.
         11    1    3    3    0    0  0.22028289833E+03  0.16656646893E+03  0.62798654942E+02  0.28321831673E+03  0.00000000000E+00 0.  1.
        -11    1    3    3    0    0  0.13915408529E+02 -0.10909928236E+02 -0.28223150893E+01  0.17906160703E+02  0.00000000000E+00 0. -1.
          2    1    6    6  502    0  0.23346726864E+03  0.10555294610E+02  0.12147825410E+03  0.26339200062E+03  0.00000000000E+00 0. -1.
          1    1    5    5  503    0 -0.28940087656E+03 -0.82172752648E+02  0.11586479257E+03  0.32238157328E+03  0.00000000000E+00 0. -1.
         -2    1    5    5    0  503 -0.26370795247E+03 -0.10891556402E+03  0.37673470202E+02  0.28779119972E+03  0.00000000000E+00 0.  1.
         -1    1    6    6    0  502  0.85443253528E+02  0.24876481359E+02  0.10391556355E+03  0.13681313258E+03  0.00000000000E+00 0.  1.
<mgrwt>
<rscale>  0 0.12358794E+04</rscale>
<asrwt>0</asrwt>
<pdfrwt beam="1">  1        1 0.13464698E+00 0.12358794E+04</pdfrwt>
<pdfrwt beam="2">  1       -1 0.67122613E-01 0.12358794E+04</pdfrwt>
<totfact> 0.42347996E+01</totfact>
</mgrwt>
</event>
<event>
12    1  0.1599266E-007  0.1711197E+04  0.7818608E-02  0.8755004E-01
         -2   -1    0    0    0  501 -0.00000000000E+00  0.00000000000E+00  0.31323225815E+03  0.31323225815E+03  0.00000000000E+00 0.  1.
          2   -1    0    0  501    0  0.00000000000E+00 -0.00000000000E+00 -0.23370788581E+04  0.23370788581E+04  0.00000000000E+00 0. -1.
         23    2    1    2    0    0  0.47416326252E+03 -0.19478011983E+03 -0.21303043927E+03  0.56196784739E+03  0.87497421866E+02 0.  0.
        254    2    1    2    0    0 -0.47416326252E+03  0.19478011983E+03 -0.18108161607E+04  0.20883432689E+04  0.90518083620E+03 0.  0.
        -24    2    4    4    0    0 -0.39154265082E+03 -0.28188121817E+03 -0.55257012214E+03  0.73789426090E+03  0.79947056354E+02 0.  0.
         24    2    4    4    0    0 -0.82620611706E+02  0.47666133801E+03 -0.12582460385E+04  0.13504490080E+04  0.80605415318E+02 0.  0.
         13    1    3    3    0    0  0.45858777074E+03 -0.16870019107E+03 -0.19190218846E+03  0.52496566352E+03  0.00000000000E+00 0.  1.
        -13    1    3    3    0    0  0.15575491779E+02 -0.26079928765E+02 -0.21128250805E+02  0.37002183863E+02  0.00000000000E+00 0. -1.
          2    1    6    6  502    0 -0.91484381524E+02  0.32086520950E+03 -0.89111309427E+03  0.95152846595E+03  0.00000000000E+00 0. -1.
          1    1    5    5  503    0 -0.36730912491E+03 -0.23917246086E+03 -0.51358434861E+03  0.67519504028E+03  0.00000000000E+00 0. -1.
         -2    1    5    5    0  503 -0.24233525903E+02 -0.42708757310E+02 -0.38985773525E+02  0.62699220617E+02  0.00000000000E+00 0.  1.
         -1    1    6    6    0  502  0.88637698183E+01  0.15579612851E+03 -0.36713294427E+03  0.39892054202E+03  0.00000000000E+00 0.  1.
<mgrwt>
<rscale>  0 0.17111966E+04</rscale>
<asrwt>0</asrwt>
<pdfrwt beam="1">  1        2 0.35955059E+00 0.17111966E+04</pdfrwt>
<pdfrwt beam="2">  1       -2 0.48189578E-01 0.17111966E+04</pdfrwt>
<totfact> 0.16764622E+01</totfact>
</mgrwt>
</event>
<event>
12    1  0.1599266E-007  0.1787936E+04  0.7818608E-02  0.8712742E-01
          2   -1    0    0  501    0  0.00000000000E+00  0.00000000000E+00  0.13987165838E+04  0.13987165838E+04  0.00000000000E+00 0. -1.
         -2   -1    0    0    0  501 -0.00000000000E+00 -0.00000000000E+00 -0.57136560410E+03  0.57136560410E+03  0.00000000000E+00 0.  1.
         23    2    1    2    0    0 -0.51329872038E+03  0.37611426501E+03  0.51800978964E+03  0.82662598297E+03  0.10019409604E+03 0.  0.
        254    2    1    2    0    0  0.51329872038E+03 -0.37611426501E+03  0.30934119003E+03  0.11434562049E+04  0.89825531115E+03 0.  0.
        -24    2    4    4    0    0  0.37184090519E+03 -0.32507792224E+03  0.61549886872E+03  0.79319872764E+03  0.79900249245E+02 0.  0.
         24    2    4    4    0    0  0.14145781519E+03 -0.51036342763E+02 -0.30615767869E+03  0.35025747727E+03  0.79578605161E+02 0.  0.
         11    1    3    3    0    0 -0.91583045932E+02  0.68990734603E+02  0.14712530361E+03  0.18652890051E+03  0.00000000000E+00 0. -1.
        -11    1    3    3    0    0 -0.42171567445E+03  0.30712353040E+03  0.37088448604E+03  0.64009708247E+03  0.00000000000E+00 0.  1.
          4    1    6    6  502    0  0.40777981517E+02 -0.29804229299E+02 -0.18264951302E+03  0.18950456582E+03  0.00000000000E+00 0. -1.
          1    1    5    5  503    0  0.33871961313E+03 -0.31333835487E+03  0.54257372157E+03  0.71224865342E+03  0.00000000000E+00 0. -1.
         -2    1    5    5    0  503  0.33121292054E+02 -0.11739567370E+02  0.72925147155E+02  0.80950074224E+02  0.00000000000E+00 0.  1.
         -3    1    6    6    0  502  0.10067983368E+03 -0.21232113465E+02 -0.12350816567E+03  0.16075291144E+03  0.00000000000E+00 0.  1.
<mgrwt>
<rscale>  0 0.17879357E+04</rscale>
<asrwt>0</asrwt>
<pdfrwt beam="1">  1        2 0.21518717E+00 0.17879357E+04</pdfrwt>
<pdfrwt beam="2">  1       -2 0.87902401E-01 0.17879357E+04</pdfrwt>
<totfact> 0.15284924E+01</totfact>
</mgrwt>
</event>
<event>
12    1  0.1599266E-007  0.1782344E+04  0.7818608E-02  0.8715745E-01
         -2   -1    0    0    0  501 -0.00000000000E+00  0.00000000000E+00  0.65537428976E+03  0.65537428976E+03  0.00000000000E+00 0.  1.
          2   -1    0    0  501    0  0.00000000000E+00 -0.00000000000E+00 -0.12118080886E+04  0.12118080886E+04  0.00000000000E+00 0. -1.
         23    2    1    2    0    0 -0.30002577118E+03  0.57397133191E+03 -0.36254682389E+03  0.74781466889E+03  0.91258020276E+02 0.  0.
        254    2    1    2    0    0  0.30002577118E+03 -0.57397133191E+03 -0.19388697499E+03  0.11193677095E+04  0.89215097197E+03 0.  0.
        -24    2    4    4    0    0  0.19891030240E+03 -0.79444057778E+03 -0.44015444883E+02  0.82400817188E+03  0.79692960288E+02 0.  0.
         24    2    4    4    0    0  0.10111546878E+03  0.22046924587E+03 -0.14987153011E+03  0.29535953762E+03  0.77102234270E+02 0.  0.
         11    1    3    3    0    0 -0.23117369150E+03  0.50110932754E+03 -0.32690917755E+03  0.64142142477E+03  0.00000000000E+00 0.  1.
        -11    1    3    3    0    0 -0.68852079679E+02  0.72862004370E+02 -0.35637646340E+02  0.10639324412E+03  0.00000000000E+00 0. -1.
          4    1    6    6  502    0  0.10091311444E+03  0.21993350838E+03 -0.12850423108E+03  0.27398456559E+03  0.00000000000E+00 0. -1.
          3    1    5    5  503    0  0.13802018214E+03 -0.49236497632E+03 -0.63336124334E+02  0.51525169115E+03  0.00000000000E+00 0. -1.
         -4    1    5    5    0  503  0.60890120262E+02 -0.30207560146E+03  0.19320679451E+02  0.30875648074E+03  0.00000000000E+00 0.  1.
         -3    1    6    6    0  502  0.20235434345E+00  0.53573748260E+00 -0.21367299021E+02  0.21374972033E+02  0.00000000000E+00 0.  1.
<mgrwt>
<rscale>  0 0.17823444E+04</rscale>
<asrwt>0</asrwt>
<pdfrwt beam="1">  1        2 0.18643201E+00 0.17823444E+04</pdfrwt>
<pdfrwt beam="2">  1       -2 0.10082681E+00 0.17823444E+04</pdfrwt>
<totfact> 0.14272843E+01</totfact>
</mgrwt>
</event>
<event>
12    1  0.1599266E-007  0.2160059E+04  0.7818608E-02  0.8535239E-01
          1   -1    0    0  501    0  0.00000000000E+00  0.00000000000E+00  0.20240019859E+04  0.20240019859E+04  0.00000000000E+00 0. -1.
         -1   -1    0    0    0  501 -0.00000000000E+00 -0.00000000000E+00 -0.57631548815E+03  0.57631548815E+03  0.00000000000E+00 0.  1.
         23    2    1    2    0    0 -0.76529376968E+03 -0.30512992208E+03  0.18543729632E+03  0.84933266373E+03  0.90554732387E+02 0.  0.
        254    2    1    2    0    0  0.76529376968E+03  0.30512992208E+03  0.12622492014E+04  0.17509848103E+04  0.89100838166E+03 0.  0.
        -24    2    4    4    0    0  0.36063515851E+03  0.22408382831E+03  0.12587408802E+04  0.13304151865E+04  0.72833270482E+02 0.  0.
         24    2    4    4    0    0  0.40465861116E+03  0.81046093770E+02  0.35083211997E+01  0.42056962381E+03  0.80928605849E+02 0.  0.
         11    1    3    3    0    0 -0.54790366443E+03 -0.17369419915E+03  0.12524692391E+03  0.58826430477E+03  0.00000000000E+00 0.  1.
        -11    1    3    3    0    0 -0.21739010525E+03 -0.13143572292E+03  0.60190372409E+02  0.26106835896E+03  0.00000000000E+00 0. -1.
          4    1    6    6  502    0  0.88874032316E+02  0.52683310791E+02  0.62135629108E+01  0.10350233437E+03  0.00000000000E+00 0. -1.
          3    1    5    5  503    0  0.22876311042E+03  0.11557326009E+03  0.83860291627E+03  0.87689485705E+03  0.00000000000E+00 0. -1.
         -4    1    5    5    0  503  0.13187204810E+03  0.10851056821E+03  0.42013796391E+03  0.45352032943E+03  0.00000000000E+00 0.  1.
         -3    1    6    6    0  502  0.31578457885E+03  0.28362782980E+02 -0.27052417111E+01  0.31706728944E+03  0.00000000000E+00 0.  1.
<mgrwt>
<rscale>  0 0.21600590E+04</rscale>
<asrwt>0</asrwt>
<pdfrwt beam="1">  1        1 0.31138492E+00 0.21600590E+04</pdfrwt>
<pdfrwt beam="2">  1       -1 0.88663922E-01 0.21600590E+04</pdfrwt>
<totfact> 0.32778920E+00</totfact>
</mgrwt>
</event>
<event>
12    1  0.1599266E-007  0.1141860E+04  0.7818608E-02  0.9165326E-01
          1   -1    0    0  501    0  0.00000000000E+00  0.00000000000E+00  0.25906488924E+04  0.25906488924E+04  0.00000000000E+00 0. -1.
         -1   -1    0    0    0  501 -0.00000000000E+00 -0.00000000000E+00 -0.12582219544E+03  0.12582219544E+03  0.00000000000E+00 0.  1.
         23    2    1    2    0    0 -0.21895590509E+03 -0.36664183604E+02  0.48702306662E+03  0.54313842538E+03  0.92314305367E+02 0.  0.
        254    2    1    2    0    0  0.21895590509E+03  0.36664183604E+02  0.19778036303E+04  0.21733326625E+04  0.87314472502E+03 0.  0.
        -24    2    4    4    0    0  0.40879254146E+03  0.18384211979E+03  0.18169745185E+04  0.18731427096E+04  0.79736708453E+02 0.  0.
         24    2    4    4    0    0 -0.18983663638E+03 -0.14717793619E+03  0.16082911181E+03  0.30018995283E+03  0.80924107454E+02 0.  0.
         11    1    3    3    0    0 -0.19565588905E+03 -0.51059247270E+02  0.35725036387E+03  0.41050712069E+03  0.00000000000E+00 0.  1.
        -11    1    3    3    0    0 -0.23300016035E+02  0.14395063666E+02  0.12977270275E+03  0.13263130469E+03  0.00000000000E+00 0. -1.
          4    1    6    6  502    0 -0.15798974796E+02 -0.30360479705E+02 -0.27094492371E+01  0.34332309093E+02  0.00000000000E+00 0. -1.
          3    1    5    5  503    0  0.83759684791E+01 -0.75012901244E+01  0.36378456044E+02  0.38076479166E+02  0.00000000000E+00 0. -1.
         -4    1    5    5    0  503  0.40041657299E+03  0.19134340991E+03  0.17805960625E+04  0.18350662305E+04  0.00000000000E+00 0.  1.
         -3    1    6    6    0  502 -0.17403766158E+03 -0.11681745648E+03  0.16353856104E+03  0.26585764374E+03  0.00000000000E+00 0.  1.
<mgrwt>
<rscale>  0 0.11418601E+04</rscale>
<asrwt>0</asrwt>
<pdfrwt beam="1">  1        1 0.39856133E+00 0.11418601E+04</pdfrwt>
<pdfrwt beam="2">  1       -1 0.19357263E-01 0.11418601E+04</pdfrwt>
<totfact> 0.25372783E+01</totfact>
</mgrwt>
</event>
<event>
12    1  0.1599266E-007  0.1901110E+04  0.7818608E-02  0.8654304E-01
          1   -1    0    0  501    0  0.00000000000E+00  0.00000000000E+00  0.89557682599E+03  0.89557682599E+03  0.00000000000E+00 0. -1.
         -1   -1    0    0    0  501 -0.00000000000E+00 -0.00000000000E+00 -0.10089086600E+04  0.10089086600E+04  0.00000000000E+00 0.  1.
         23    2    1    2    0    0 -0.50895100541E+03  0.54654666052E+03  0.19902269812E+01  0.75249511610E+03  0.92198485392E+02 0.  0.
        254    2    1    2    0    0  0.50895100541E+03 -0.54654666052E+03 -0.11532206100E+03  0.11519903699E+04  0.86950460411E+03 0.  0.
        -24    2    4    4    0    0  0.10819009265E+02 -0.40903133889E+03  0.27526524231E+03  0.49924890217E+03  0.77812759494E+02 0.  0.
         24    2    4    4    0    0  0.49813199615E+03 -0.13751532164E+03 -0.39058730331E+03  0.65274146774E+03  0.80417864470E+02 0.  0.
         13    1    3    3    0    0 -0.11864313813E+03  0.14349430815E+03 -0.37928134674E+02  0.19001408921E+03  0.00000000000E+00 0.  1.
        -13    1    3    3    0    0 -0.39030786729E+03  0.40305235237E+03  0.39918361656E+02  0.56248102689E+03  0.00000000000E+00 0. -1.
          2    1    6    6  502    0  0.21885821711E+03 -0.20066700588E+02 -0.15442067469E+03  0.26860256224E+03  0.00000000000E+00 0. -1.
          3    1    5    5  503    0 -0.88945049346E+01 -0.20131836272E+03  0.91907875177E+02  0.22148420464E+03  0.00000000000E+00 0. -1.
         -4    1    5    5    0  503  0.19713514200E+02 -0.20771297616E+03  0.18335736713E+03  0.27776469753E+03  0.00000000000E+00 0.  1.
         -1    1    6    6    0  502  0.27927377903E+03 -0.11744862105E+03 -0.23616662862E+03  0.38413890550E+03  0.00000000000E+00 0.  1.
<mgrwt>
<rscale>  0 0.19011104E+04</rscale>
<asrwt>0</asrwt>
<pdfrwt beam="1">  1        1 0.13778105E+00 0.19011104E+04</pdfrwt>
<pdfrwt beam="2">  1       -1 0.15521672E+00 0.19011104E+04</pdfrwt>
<totfact> 0.54576604E+00</totfact>
</mgrwt>
</event>
<event>
12    1  0.1599266E-007  0.1030593E+04  0.7818608E-02  0.9275613E-01
          2   -1    0    0  501    0  0.00000000000E+00  0.00000000000E+00  0.95862415013E+03  0.95862415013E+03  0.00000000000E+00 0. -1.
         -2   -1    0    0    0  501 -0.00000000000E+00 -0.00000000000E+00 -0.27699107692E+03  0.27699107692E+03  0.00000000000E+00 0.  1.
         23    2    1    2    0    0  0.35590501702E+02 -0.79928380760E+02  0.96180828423E+02  0.15587881859E+03  0.85978046415E+02 0.  0.
        254    2    1    2    0    0 -0.35590501702E+02  0.79928380760E+02  0.58545224479E+03  0.10797364085E+04  0.90300672808E+03 0.  0.
        -24    2    4    4    0    0 -0.42656034643E+03  0.20345614876E+02  0.50890912164E+03  0.66904975531E+03  0.79192220580E+02 0.  0.
         24    2    4    4    0    0  0.39096984473E+03  0.59582765883E+02  0.76543123153E+02  0.41068665315E+03  0.79982197407E+02 0.  0.
         11    1    3    3    0    0 -0.41966185630E+01 -0.73169775384E+02  0.88310685570E+02  0.11476151281E+03  0.00000000000E+00 0. -1.
        -11    1    3    3    0    0  0.39787120265E+02 -0.67586053760E+01  0.78701428536E+01  0.41117305774E+02  0.00000000000E+00 0.  1.
          4    1    6    6  502    0  0.17768543892E+03  0.63491287418E+02  0.18392286717E+02  0.18958252818E+03  0.00000000000E+00 0. -1.
          1    1    5    5  503    0 -0.25538774010E+02  0.21112535792E+02  0.34060867875E+02  0.47519584025E+02  0.00000000000E+00 0. -1.
         -2    1    5    5    0  503 -0.40102157242E+03 -0.76692091552E+00  0.47484825376E+03  0.62153017128E+03  0.00000000000E+00 0.  1.
         -3    1    6    6    0  502  0.21328440581E+03 -0.39085215342E+01  0.58150836436E+02  0.22110412497E+03  0.00000000000E+00 0.  1.
<mgrwt>
<rscale>  0 0.10305927E+04</rscale>
<asrwt>0</asrwt>
<pdfrwt beam="1">  1        2 0.14748064E+00 0.10305927E+04</pdfrwt>
<pdfrwt beam="2">  1       -2 0.42614012E-01 0.10305927E+04</pdfrwt>
<totfact> 0.13935070E+02</totfact>
</mgrwt>
</event>
<event>
12    1  0.1599266E-007  0.1728567E+04  0.7818608E-02  0.8745237E-01
          1   -1    0    0  501    0  0.00000000000E+00  0.00000000000E+00  0.75158670284E+03  0.75158670284E+03  0.00000000000E+00 0. -1.
         -1   -1    0    0    0  501 -0.00000000000E+00 -0.00000000000E+00 -0.99387879854E+03  0.99387879854E+03  0.00000000000E+00 0.  1.
         23    2    1    2    0    0  0.59772680419E+03 -0.59735219376E+02  0.96967399052E+02  0.61760222870E+03  0.10575541371E+03 0.  0.
        254    2    1    2    0    0 -0.59772680419E+03  0.59735219376E+02 -0.33925949476E+03  0.11278632727E+04  0.89226281342E+03 0.  0.
        -24    2    4    4    0    0 -0.61679920533E+03 -0.25413262881E+03 -0.18722656903E+02  0.67181921487E+03  0.77239024283E+02 0.  0.
         24    2    4    4    0    0  0.19072401132E+02  0.31386784818E+03 -0.32053683786E+03  0.45604405782E+03  0.79721613382E+02 0.  0.
         11    1    3    3    0    0  0.14684160519E+03 -0.29624443329E+02  0.68776980769E+02  0.16483427357E+03  0.00000000000E+00 0.  1.
        -11    1    3    3    0    0  0.45088519900E+03 -0.30110776048E+02  0.28190418283E+02  0.45276795513E+03  0.00000000000E+00 0. -1.
          4    1    6    6  502    0  0.10635373784E+02  0.31134293535E+03 -0.32088551693E+03  0.44723042109E+03  0.00000000000E+00 0. -1.
          1    1    5    5  503    0 -0.40166761180E+03 -0.13207391700E+03 -0.32639649604E+02  0.42408222864E+03  0.00000000000E+00 0. -1.
         -2    1    5    5    0  503 -0.21513159352E+03 -0.12205871181E+03  0.13916992700E+02  0.24773698623E+03  0.00000000000E+00 0.  1.
         -3    1    6    6    0  502  0.84370273484E+01  0.25249128304E+01  0.34867907867E+00  0.88136367283E+01  0.00000000000E+00 0.  1.
<mgrwt>
<rscale>  0 0.17285671E+04</rscale>
<asrwt>0</asrwt>
<pdfrwt beam="1">  1        1 0.11562872E+00 0.17285671E+04</pdfrwt>
<pdfrwt beam="2">  1       -1 0.15290443E+00 0.17285671E+04</pdfrwt>
<totfact> 0.76764179E+00</totfact>
</mgrwt>
</event>
<event>
12    1  0.1599266E-007  0.1448698E+04  0.7818608E-02  0.8919304E-01
         -2   -1    0    0    0  501 -0.00000000000E+00  0.00000000000E+00  0.55893274312E+03  0.55893274312E+03  0.00000000000E+00 0.  1.
          2   -1    0    0  501    0  0.00000000000E+00 -0.00000000000E+00 -0.93871973928E+03  0.93871973928E+03  0.00000000000E+00 0. -1.
         23    2    1    2    0    0 -0.38075266488E+03  0.16760408323E+03 -0.27026150852E+03  0.50439928661E+03  0.91179146802E+02 0.  0.
        254    2    1    2    0    0  0.38075266488E+03 -0.16760408323E+03 -0.10952548765E+03  0.99325319579E+03  0.89526105577E+03 0.  0.
        -24    2    4    4    0    0  0.34317630927E+03 -0.50242832844E+03 -0.18086901427E+03  0.63999145080E+03  0.81677734436E+02 0.  0.
         24    2    4    4    0    0  0.37576355609E+02  0.33482424521E+03  0.71343526624E+02  0.35326174500E+03  0.78642889078E+02 0.  0.
         11    1    3    3    0    0 -0.11196765123E+03  0.70756993635E+02 -0.13202443518E+03  0.18701272298E+03  0.00000000000E+00 0.  1.
        -11    1    3    3    0    0 -0.26878501365E+03  0.96847089590E+02 -0.13823707334E+03  0.31738656363E+03  0.00000000000E+00 0. -1.
          4    1    6    6  502    0 -0.10829890598E+02  0.19265036045E+03  0.17634600278E+02  0.19375868249E+03  0.00000000000E+00 0. -1.
          3    1    5    5  503    0  0.25378674850E+03 -0.42323230902E+03 -0.13108115418E+03  0.51060314344E+03  0.00000000000E+00 0. -1.
         -4    1    5    5    0  503  0.89389560771E+02 -0.79196019419E+02 -0.49787860091E+02  0.12938830735E+03  0.00000000000E+00 0.  1.
         -3    1    6    6    0  502  0.48406246207E+02  0.14217388476E+03  0.53708926346E+02  0.15950306251E+03  0.00000000000E+00 0.  1.
<mgrwt>
<rscale>  0 0.14486976E+04</rscale>
<asrwt>0</asrwt>
<pdfrwt beam="1">  1        2 0.14441842E+00 0.14486976E+04</pdfrwt>
<pdfrwt beam="2">  1       -2 0.85989653E-01 0.14486976E+04</pdfrwt>
<totfact> 0.31444510E+01</totfact>
</mgrwt>
</event>
<event>
12    1  0.1599266E-007  0.1933666E+04  0.7818608E-02  0.8638278E-01
         -2   -1    0    0    0  501 -0.00000000000E+00  0.00000000000E+00  0.29705356058E+03  0.29705356058E+03  0.00000000000E+00 0.  1.
          2   -1    0    0  501    0  0.00000000000E+00 -0.00000000000E+00 -0.31467941396E+04  0.31467941396E+04  0.00000000000E+00 0. -1.
         23    2    1    2    0    0 -0.11289098215E+03 -0.18576020436E+03 -0.21964266613E+04  0.22090092924E+04  0.90447487859E+02 0.  0.
        254    2    1    2    0    0  0.11289098215E+03  0.18576020436E+03 -0.65331391770E+03  0.12348384078E+04  0.10250637009E+04 0.  0.
        -24    2    4    4    0    0 -0.44441272099E+03 -0.97799171659E+01 -0.28665255815E+03  0.53507087051E+03  0.80825948901E+02 0.  0.
         24    2    4    4    0    0  0.55730370314E+03  0.19554012153E+03 -0.36666135955E+03  0.69976753724E+03  0.80066827912E+02 0.  0.
         11    1    3    3    0    0 -0.12504670298E+03 -0.15763470193E+03 -0.20141567620E+04  0.20241820173E+04  0.00000000000E+00 0. -1.
        -11    1    3    3    0    0  0.12155720835E+02 -0.28125502438E+02 -0.18226989934E+03  0.18482727515E+03  0.00000000000E+00 0.  1.
          2    1    6    6  502    0  0.14830114027E+03  0.69237968696E+02 -0.14013459357E+03  0.21546421705E+03  0.00000000000E+00 0. -1.
          3    1    5    5  503    0 -0.36849563454E+03 -0.13673406528E+02 -0.19890053601E+03  0.41897185818E+03  0.00000000000E+00 0. -1.
         -4    1    5    5    0  503 -0.75917086449E+02  0.38934893617E+01 -0.87752022136E+02  0.11609901233E+03  0.00000000000E+00 0.  1.
         -1    1    6    6    0  502  0.40900256287E+03  0.12630215283E+03 -0.22652676598E+03  0.48430332019E+03  0.00000000000E+00 0.  1.
<mgrwt>
<rscale>  0 0.19336664E+04</rscale>
<asrwt>0</asrwt>
<pdfrwt beam="1">  1        2 0.48412217E+00 0.19336664E+04</pdfrwt>
<pdfrwt beam="2">  1       -2 0.45700548E-01 0.19336664E+04</pdfrwt>
<totfact> 0.59769899E+00</totfact>
</mgrwt>
</event>
<event>
12    1  0.1599266E-007  0.3242865E+04  0.7818608E-02  0.8177588E-01
          2   -1    0    0  501    0  0.00000000000E+00  0.00000000000E+00  0.21859066620E+04  0.21859066620E+04  0.00000000000E+00 0. -1.
         -2   -1    0    0    0  501 -0.00000000000E+00 -0.00000000000E+00 -0.12027241129E+04  0.12027241129E+04  0.00000000000E+00 0.  1.
         23    2    1    2    0    0  0.13527278180E+04 -0.61423892878E+03  0.26487808746E+03  0.15119075397E+04  0.92422919302E+02 0.  0.
        254    2    1    2    0    0 -0.13527278180E+04  0.61423892878E+03  0.71830446164E+03  0.18767232353E+04  0.89384942298E+03 0.  0.
        -24    2    4    4    0    0 -0.17614423225E+03 -0.14748748594E+03  0.34894570079E+03  0.42525630980E+03  0.79375549525E+02 0.  0.
         24    2    4    4    0    0 -0.11765835858E+04  0.76172641472E+03  0.36935876086E+03  0.14514669255E+04  0.75856946751E+02 0.  0.
         13    1    3    3    0    0  0.22492598719E+03 -0.13954651724E+03  0.37736234416E+02  0.26737418270E+03  0.00000000000E+00 0. -1.
        -13    1    3    3    0    0  0.11278018308E+04 -0.47469241154E+03  0.22714185304E+03  0.12445333570E+04  0.00000000000E+00 0.  1.
          2    1    6    6  502    0 -0.31304529323E+03  0.18808680446E+03  0.64414190116E+02  0.37084119177E+03  0.00000000000E+00 0. -1.
          3    1    5    5  503    0 -0.11063308486E+03 -0.70798851507E+02  0.25771697833E+03  0.28925801244E+03  0.00000000000E+00 0. -1.
         -4    1    5    5    0  503 -0.65511147397E+02 -0.76688634435E+02  0.91228722457E+02  0.13599829736E+03  0.00000000000E+00 0.  1.
         -1    1    6    6    0  502 -0.86353829254E+03  0.57363961027E+03  0.30494457074E+03  0.10806257337E+04  0.00000000000E+00 0.  1.
<mgrwt>
<rscale>  0 0.32428646E+04</rscale>
<asrwt>0</asrwt>
<pdfrwt beam="1">  1        2 0.33629333E+00 0.32428646E+04</pdfrwt>
<pdfrwt beam="2">  1       -2 0.18503448E+00 0.32428646E+04</pdfrwt>
<totfact> 0.73898198E-01</totfact>
</mgrwt>
</event>
<event>
12    1  0.1599266E-007  0.2132492E+04  0.7818608E-02  0.8547064E-01
          1   -1    0    0  501    0  0.00000000000E+00  0.00000000000E+00  0.92703424299E+03  0.92703424299E+03  0.00000000000E+00 0. -1.
         -1   -1    0    0    0  501 -0.00000000000E+00 -0.00000000000E+00 -0.12263625015E+04  0.12263625015E+04  0.00000000000E+00 0.  1.
         23    2    1    2    0    0 -0.39413661025E+03  0.18202440395E+03 -0.88757096479E+03  0.99204330661E+03  0.88832164632E+02 0.  0.
        254    2    1    2    0    0  0.39413661025E+03 -0.18202440395E+03  0.58824270631E+03  0.11613534379E+04  0.90235013987E+03 0.  0.
        -24    2    4    4    0    0  0.63794806710E+03  0.44904896698E+02  0.28732830160E+03  0.70538121445E+03  0.77530114996E+02 0.  0.
         24    2    4    4    0    0 -0.24381145685E+03 -0.22692930065E+03  0.30091440471E+03  0.45597222341E+03  0.80126497297E+02 0.  0.
         11    1    3    3    0    0 -0.68794103841E+01  0.17456282753E+02 -0.70985400395E+02  0.73423260375E+02  0.00000000000E+00 0. -1.
        -11    1    3    3    0    0 -0.38725719987E+03  0.16456812120E+03 -0.81658556440E+03  0.91862004623E+03  0.00000000000E+00 0.  1.
          4    1    6    6  502    0 -0.10406746936E+03 -0.11059244400E+03  0.86228188779E+02  0.17463111804E+03  0.00000000000E+00 0. -1.
          3    1    5    5  503    0  0.56023698816E+03  0.62849959267E+02  0.24062288201E+03  0.61295592960E+03  0.00000000000E+00 0. -1.
         -4    1    5    5    0  503  0.77711078943E+02 -0.17945062569E+02  0.46705419584E+02  0.92425284850E+02  0.00000000000E+00 0.  1.
         -3    1    6    6    0  502 -0.13974398749E+03 -0.11633685665E+03  0.21468621593E+03  0.28134110536E+03  0.00000000000E+00 0.  1.
<mgrwt>
<rscale>  0 0.21324915E+04</rscale>
<asrwt>0</asrwt>
<pdfrwt beam="1">  1        1 0.14262065E+00 0.21324915E+04</pdfrwt>
<pdfrwt beam="2">  1       -1 0.18867115E+00 0.21324915E+04</pdfrwt>
<totfact> 0.28636738E+00</totfact>
</mgrwt>
</event>
<event>
12    1  0.1599266E-007  0.1901319E+04  0.7818608E-02  0.8654200E-01
          2   -1    0    0  501    0  0.00000000000E+00  0.00000000000E+00  0.90145935791E+03  0.90145935791E+03  0.00000000000E+00 0.  1.
         -2   -1    0    0    0  501 -0.00000000000E+00 -0.00000000000E+00 -0.10025454229E+04  0.10025454229E+04  0.00000000000E+00 0. -1.
         23    2    1    2    0    0 -0.43467236867E+03  0.18214494961E+03 -0.60032183592E+03  0.76879038364E+03  0.92387751062E+02 0.  0.
        254    2    1    2    0    0  0.43467236867E+03 -0.18214494961E+03  0.49923577088E+03  0.11352143972E+04  0.90407882508E+03 0.  0.
        -24    2    4    4    0    0 -0.25640248137E+03  0.68445818725E+02  0.17476531018E+03  0.32769442528E+03  0.80085330530E+02 0.  0.
         24    2    4    4    0    0  0.69107485004E+03 -0.25059076833E+03  0.32447046070E+03  0.80751997193E+03  0.80170092110E+02 0.  0.
         11    1    3    3    0    0 -0.33886687729E+03  0.12186764355E+03 -0.39633290443E+03  0.53550187133E+03  0.00000000000E+00 0. -1.
        -11    1    3    3    0    0 -0.95805491378E+02  0.60277306060E+02 -0.20398893149E+03  0.23328851231E+03  0.00000000000E+00 0.  1.
          2    1    6    6  502    0  0.67869705089E+03 -0.24254069987E+03  0.32871776985E+03  0.79215595068E+03  0.00000000000E+00 0. -1.
          3    1    5    5  503    0 -0.22212814593E+03  0.72042601305E+02  0.17720929682E+03  0.29314533000E+03  0.00000000000E+00 0. -1.
         -4    1    5    5    0  503 -0.34274335434E+02 -0.35967825802E+01 -0.24439866406E+01  0.34549095286E+02  0.00000000000E+00 0.  1.
         -1    1    6    6    0  502  0.12377799149E+02 -0.80500684621E+01 -0.42473091489E+01  0.15364021252E+02  0.00000000000E+00 0.  1.
<mgrwt>
<rscale>  0 0.19013195E+04</rscale>
<asrwt>0</asrwt>
<pdfrwt beam="1">  1        2 0.13868606E+00 0.19013195E+04</pdfrwt>
<pdfrwt beam="2">  1       -2 0.15423776E+00 0.19013195E+04</pdfrwt>
<totfact> 0.76189480E+00</totfact>
</mgrwt>
</event>
<event>
12    1  0.1599266E-007  0.1414275E+04  0.7818608E-02  0.8943550E-01
          2   -1    0    0  501    0  0.00000000000E+00  0.00000000000E+00  0.15094415170E+04  0.15094415170E+04  0.00000000000E+00 0. -1.
         -2   -1    0    0    0  501 -0.00000000000E+00 -0.00000000000E+00 -0.33127695975E+03  0.33127695975E+03  0.00000000000E+00 0.  1.
         23    2    1    2    0    0  0.25797461801E+03  0.67323679169E+02  0.76496505362E+03  0.81534466711E+03  0.92368888772E+02 0.  0.
        254    2    1    2    0    0 -0.25797461801E+03 -0.67323679169E+02  0.41319950366E+03  0.10253738097E+04  0.89976343468E+03 0.  0.
        -24    2    4    4    0    0  0.31206032691E+03  0.44639891637E+02  0.32597506532E+02  0.32632373068E+03  0.77783110091E+02 0.  0.
         24    2    4    4    0    0 -0.57003494492E+03 -0.11196357081E+03  0.38060199713E+03  0.69905007898E+03  0.79608121956E+02 0.  0.
         11    1    3    3    0    0  0.14320660101E+02 -0.74586683584E+01  0.11187751053E+02  0.19643798335E+02  0.00000000000E+00 0.  1.
        -11    1    3    3    0    0  0.24365395791E+03  0.74782347528E+02  0.75377730257E+03  0.79570086878E+03  0.00000000000E+00 0. -1.
          4    1    6    6  502    0 -0.41330967046E+03 -0.45461495987E+02  0.28014915750E+03  0.50137329582E+03  0.00000000000E+00 0. -1.
          3    1    5    5  503    0  0.30979821457E+03  0.40603527273E+02  0.20210440060E+02  0.31310068998E+03  0.00000000000E+00 0. -1.
         -4    1    5    5    0  503  0.22621123377E+01  0.40363643649E+01  0.12387066472E+02  0.13223040698E+02  0.00000000000E+00 0.  1.
         -3    1    6    6    0  502 -0.15672527446E+03 -0.66502074820E+02  0.10045283963E+03  0.19767678316E+03  0.00000000000E+00 0.  1.
<mgrwt>
<rscale>  0 0.14142747E+04</rscale>
<asrwt>0</asrwt>
<pdfrwt beam="1">  1        2 0.23222177E+00 0.14142747E+04</pdfrwt>
<pdfrwt beam="2">  1       -2 0.50965687E-01 0.14142747E+04</pdfrwt>
<totfact> 0.44354962E+01</totfact>
</mgrwt>
</event>
<event>
12    1  0.1599266E-007  0.1473622E+04  0.7818608E-02  0.8902186E-01
         -2   -1    0    0    0  501 -0.00000000000E+00  0.00000000000E+00  0.90231656265E+03  0.90231656265E+03  0.00000000000E+00 0.  1.
          2   -1    0    0  501    0  0.00000000000E+00 -0.00000000000E+00 -0.60166312067E+03  0.60166312067E+03  0.00000000000E+00 0. -1.
         23    2    1    2    0    0  0.99341060625E+02 -0.39433153640E+03 -0.10435955758E+03  0.43079217164E+03  0.96565889248E+02 0.  0.
        254    2    1    2    0    0 -0.99341060625E+02  0.39433153640E+03  0.40501299956E+03  0.10731875117E+04  0.90682407251E+03 0.  0.
        -24    2    4    4    0    0  0.55720785853E+02  0.16943092829E+03 -0.27385557449E+03  0.33702272988E+03  0.82315243630E+02 0.  0.
         24    2    4    4    0    0 -0.15506184648E+03  0.22490060810E+03  0.67886857405E+03  0.73616478180E+03  0.80321761455E+02 0.  0.
         13    1    3    3    0    0  0.40528627515E+02 -0.35147631755E+02 -0.19350396000E+02  0.57029496680E+02  0.00000000000E+00 0.  1.
        -13    1    3    3    0    0  0.58812433110E+02 -0.35918390464E+03 -0.85009161581E+02  0.37376267496E+03  0.00000000000E+00 0. -1.
          2    1    6    6  502    0 -0.45338973679E+02  0.34617912030E+02  0.22237864727E+03  0.22957849448E+03  0.00000000000E+00 0. -1.
          3    1    5    5  503    0  0.51717729254E+02  0.77994883650E+02 -0.19467843879E+03  0.21600374979E+03  0.00000000000E+00 0. -1.
         -4    1    5    5    0  503  0.40030565991E+01  0.91436044644E+02 -0.79177135702E+02  0.12101898008E+03  0.00000000000E+00 0.  1.
         -1    1    6    6    0  502 -0.10972287280E+03  0.19028269607E+03  0.45648992678E+03  0.50658628732E+03  0.00000000000E+00 0.  1.
<mgrwt>
<rscale>  0 0.14736222E+04</rscale>
<asrwt>0</asrwt>
<pdfrwt beam="1">  1        2 0.92563557E-01 0.14736222E+04</pdfrwt>
<pdfrwt beam="2">  1       -2 0.13881793E+00 0.14736222E+04</pdfrwt>
<totfact> 0.17559652E+01</totfact>
</mgrwt>
</event>
<event>
12    1  0.1599266E-007  0.1411199E+04  0.7818608E-02  0.8945752E-01
         -2   -1    0    0    0  501 -0.00000000000E+00  0.00000000000E+00  0.37773799430E+03  0.37773799430E+03  0.00000000000E+00 0.  1.
          2   -1    0    0  501    0  0.00000000000E+00 -0.00000000000E+00 -0.13180309424E+04  0.13180309424E+04  0.00000000000E+00 0. -1.
         23    2    1    2    0    0  0.52286017604E+01  0.40570134962E+03 -0.19284126144E+03  0.45827395393E+03  0.90588859021E+02 0.  0.
        254    2    1    2    0    0 -0.52286017604E+01 -0.40570134962E+03 -0.74745168667E+03  0.12374949828E+04  0.89893764252E+03 0.  0.
        -24    2    4    4    0    0  0.37825623429E+03  0.28940264289E+02 -0.40472807786E+03  0.55976873687E+03  0.74972689047E+02 0.  0.
         24    2    4    4    0    0 -0.38348483605E+03 -0.43464161391E+03 -0.34272360882E+03  0.67772624590E+03  0.76677508632E+02 0.  0.
         13    1    3    3    0    0 -0.10367625388E+02  0.37842202988E+02  0.62064814789E+01  0.39724556580E+02  0.00000000000E+00 0. -1.
        -13    1    3    3    0    0  0.15596227149E+02  0.36785914663E+03 -0.19904774292E+03  0.41854939735E+03  0.00000000000E+00 0.  1.
          4    1    6    6  502    0 -0.93516644688E+02 -0.13494763444E+03 -0.13102848847E+03  0.21005878145E+03  0.00000000000E+00 0. -1.
          1    1    5    5  503    0  0.32470638716E+02  0.53980709209E+01 -0.98390610576E+01  0.34355329584E+02  0.00000000000E+00 0. -1.
         -2    1    5    5    0  503  0.34578559557E+03  0.23542193369E+02 -0.39488901680E+03  0.52541340729E+03  0.00000000000E+00 0.  1.
         -3    1    6    6    0  502 -0.28996819136E+03 -0.29969397946E+03 -0.21169512035E+03  0.46766746445E+03  0.00000000000E+00 0.  1.
<mgrwt>
<rscale>  0 0.14111986E+04</rscale>
<asrwt>0</asrwt>
<pdfrwt beam="1">  1        2 0.20277399E+00 0.14111986E+04</pdfrwt>
<pdfrwt beam="2">  1       -2 0.58113538E-01 0.14111986E+04</pdfrwt>
<totfact> 0.43473729E+01</totfact>
</mgrwt>
</event>
<event>
12    1  0.1599266E-007  0.1478053E+04  0.7818608E-02  0.8899180E-01
          2   -1    0    0  501    0  0.00000000000E+00  0.00000000000E+00  0.36233339063E+04  0.36233339063E+04  0.00000000000E+00 0. -1.
         -2   -1    0    0    0  501 -0.00000000000E+00 -0.00000000000E+00 -0.15073423944E+03  0.15073423944E+03  0.00000000000E+00 0.  1.
         23    2    1    2    0    0  0.38085648868E+03  0.17618707880E+03  0.62890670092E+03  0.76157209217E+03  0.91514268858E+02 0.  0.
        254    2    1    2    0    0 -0.38085648868E+03 -0.17618707880E+03  0.28436929660E+04  0.30124960536E+04  0.90135965994E+03 0.  0.
        -24    2    4    4    0    0 -0.61545188437E+02 -0.48641150227E+03  0.19303884272E+04  0.19932530810E+04  0.79211145340E+02 0.  0.
         24    2    4    4    0    0 -0.31931130024E+03  0.31022442347E+03  0.91330453882E+03  0.10192429726E+04  0.80821761650E+02 0.  0.
         11    1    3    3    0    0  0.22118527857E+01  0.87114121851E+01  0.45978132655E+00  0.89995774274E+01  0.00000000000E+00 0. -1.
        -11    1    3    3    0    0  0.37864463590E+03  0.16747566661E+03  0.62844691959E+03  0.75257251474E+03  0.00000000000E+00 0.  1.
          2    1    6    6  502    0 -0.51195748255E+02  0.20921416264E+02  0.15343550850E+03  0.16309863753E+03  0.00000000000E+00 0. -1.
          1    1    5    5  503    0  0.10900799760E+02 -0.14535066942E+03  0.48673821222E+03  0.50809421545E+03  0.00000000000E+00 0. -1.
         -2    1    5    5    0  503 -0.72445988197E+02 -0.34106083285E+03  0.14436502149E+04  0.14851588656E+04  0.00000000000E+00 0.  1.
         -3    1    6    6    0  502 -0.26811555199E+03  0.28930300721E+03  0.75986903032E+03  0.85614433505E+03  0.00000000000E+00 0.  1.
<mgrwt>
<rscale>  0 0.14780534E+04</rscale>
<asrwt>0</asrwt>
<pdfrwt beam="1">  1        2 0.55743592E+00 0.14780534E+04</pdfrwt>
<pdfrwt beam="2">  1       -2 0.23189886E-01 0.14780534E+04</pdfrwt>
<totfact> 0.10742252E+01</totfact>
</mgrwt>
</event>
<event>
12    1  0.1599266E-007  0.1475510E+04  0.7818608E-02  0.8900904E-01
         -1   -1    0    0    0  501 -0.00000000000E+00  0.00000000000E+00  0.23048894942E+03  0.23048894942E+03  0.00000000000E+00 0.  1.
          1   -1    0    0  501    0  0.00000000000E+00 -0.00000000000E+00 -0.23614263272E+04  0.23614263272E+04  0.00000000000E+00 0. -1.
         23    2    1    2    0    0 -0.10492717741E+03  0.11760355915E+03 -0.14414835802E+04  0.14528439983E+04  0.89668622140E+02 0.  0.
        254    2    1    2    0    0  0.10492717741E+03 -0.11760355915E+03 -0.68945379761E+03  0.11390712783E+04  0.89291462547E+03 0.  0.
        -24    2    4    4    0    0 -0.64382365262E+02  0.11752998092E+02  0.19861981787E+03  0.22260192000E+03  0.76279491457E+02 0.  0.
         24    2    4    4    0    0  0.16930954267E+03 -0.12935655724E+03 -0.88807361548E+03  0.91646935833E+03  0.76436235570E+02 0.  0.
         11    1    3    3    0    0 -0.42615379783E+02  0.88965120119E+02 -0.55392471863E+03  0.56263972229E+03  0.00000000000E+00 0.  1.
        -11    1    3    3    0    0 -0.62311797628E+02  0.28638439027E+02 -0.88755886159E+03  0.89020427605E+03  0.00000000000E+00 0. -1.
          2    1    6    6  502    0  0.85792472205E+02 -0.70248652465E+02 -0.61374189970E+03  0.62367807473E+03  0.00000000000E+00 0. -1.
          1    1    5    5  503    0 -0.22486932045E+02 -0.19561482191E+02  0.14370624695E+03  0.14676443408E+03  0.00000000000E+00 0. -1.
         -4    1    5    5    0  503 -0.41895433217E+02  0.31314480283E+02  0.54913570920E+02  0.75837485922E+02  0.00000000000E+00 0.  1.
         -1    1    6    6    0  502  0.83517070467E+02 -0.59107904773E+02 -0.27433171578E+03  0.29279128360E+03  0.00000000000E+00 0.  1.
<mgrwt>
<rscale>  0 0.14755103E+04</rscale>
<asrwt>0</asrwt>
<pdfrwt beam="1">  1        1 0.36329633E+00 0.14755103E+04</pdfrwt>
<pdfrwt beam="2">  1       -1 0.35459841E-01 0.14755103E+04</pdfrwt>
<totfact> 0.12434228E+01</totfact>
</mgrwt>
</event>
<event>
12    1  0.1599266E-007  0.1425288E+04  0.7818608E-02  0.8935714E-01
          1   -1    0    0  501    0  0.00000000000E+00  0.00000000000E+00  0.66795581147E+03  0.66795581147E+03  0.00000000000E+00 0. -1.
         -1   -1    0    0    0  501 -0.00000000000E+00 -0.00000000000E+00 -0.76032243231E+03  0.76032243231E+03  0.00000000000E+00 0.  1.
         23    2    1    2    0    0  0.39092758492E+03  0.13006758489E+03  0.85212994130E+02  0.43066401881E+03  0.92023309178E+02 0.  0.
        254    2    1    2    0    0 -0.39092758492E+03 -0.13006758489E+03 -0.17757961497E+03  0.99761422498E+03  0.89104302305E+03 0.  0.
        -24    2    4    4    0    0 -0.53175725731E+02  0.31826978036E+03  0.12396790416E+03  0.35550770134E+03  0.83032364474E+02 0.  0.
         24    2    4    4    0    0 -0.33775185919E+03 -0.44833736525E+03 -0.30154751914E+03  0.64210652364E+03  0.79291676311E+02 0.  0.
         13    1    3    3    0    0  0.27451860963E+03  0.46101428062E+02  0.49114143487E+02  0.28266235652E+03  0.00000000000E+00 0. -1.
        -13    1    3    3    0    0  0.11640897529E+03  0.83966156832E+02  0.36098850643E+02  0.14800166228E+03  0.00000000000E+00 0.  1.
          2    1    6    6  502    0 -0.31713155662E+03 -0.43780654990E+03 -0.30142187450E+03  0.61895245840E+03  0.00000000000E+00 0. -1.
          1    1    5    5  503    0 -0.29667749639E+02  0.25113446871E+03  0.12959362639E+03  0.28415348800E+03  0.00000000000E+00 0. -1.
         -2    1    5    5    0  503 -0.23507976092E+02  0.67135311651E+02 -0.56257222251E+01  0.71354213337E+02  0.00000000000E+00 0.  1.
         -1    1    6    6    0  502 -0.20620302578E+02 -0.10530815350E+02 -0.12564463998E+00  0.23154065235E+02  0.00000000000E+00 0.  1.
<mgrwt>
<rscale>  0 0.14252884E+04</rscale>
<asrwt>0</asrwt>
<pdfrwt beam="1">  1        1 0.10276243E+00 0.14252884E+04</pdfrwt>
<pdfrwt beam="2">  1       -1 0.11697268E+00 0.14252884E+04</pdfrwt>
<totfact> 0.18755631E+01</totfact>
</mgrwt>
</event>
<event>
12    1  0.1599266E-007  0.2679330E+04  0.7818608E-02  0.8341743E-01
         -1   -1    0    0    0  501 -0.00000000000E+00  0.00000000000E+00  0.75036345875E+03  0.75036345875E+03  0.00000000000E+00 0.  1.
          1   -1    0    0  501    0  0.00000000000E+00 -0.00000000000E+00 -0.23917765097E+04  0.23917765097E+04  0.00000000000E+00 0. -1.
         23    2    1    2    0    0  0.71119592047E+03  0.27161787497E+03 -0.17914120146E+04  0.19489707070E+04  0.98761851545E+02 0.  0.
        254    2    1    2    0    0 -0.71119592047E+03 -0.27161787497E+03  0.14999896369E+03  0.11931692614E+04  0.90640900813E+03 0.  0.
        -24    2    4    4    0    0 -0.20853148843E+03 -0.34205310577E+03 -0.30272699497E+03  0.50837528691E+03  0.79473832275E+02 0.  0.
         24    2    4    4    0    0 -0.50266443204E+03  0.70435230803E+02  0.45272595866E+03  0.68479397452E+03  0.79682751694E+02 0.  0.
         13    1    3    3    0    0  0.53433072946E+03  0.16487586723E+03 -0.13670999031E+04  0.14770428311E+04  0.00000000000E+00 0. -1.
        -13    1    3    3    0    0  0.17686519101E+03  0.10674200775E+03 -0.42431211157E+03  0.47192787588E+03  0.00000000000E+00 0.  1.
          2    1    6    6  502    0 -0.13907865000E+03  0.50691375501E+02  0.10664980451E+03  0.18244634071E+03  0.00000000000E+00 0. -1.
          1    1    5    5  503    0 -0.14814600481E+02 -0.85891975032E+02 -0.60238239471E+02  0.10595069257E+03  0.00000000000E+00 0. -1.
         -4    1    5    5    0  503 -0.19371688795E+03 -0.25616113074E+03 -0.24248875550E+03  0.40242459433E+03  0.00000000000E+00 0.  1.
         -1    1    6    6    0  502 -0.36358578204E+03  0.19743855301E+02  0.34607615416E+03  0.50234763382E+03  0.00000000000E+00 0.  1.
<mgrwt>
<rscale>  0 0.26793295E+04</rscale>
<asrwt>0</asrwt>
<pdfrwt beam="1">  1        1 0.36796562E+00 0.26793295E+04</pdfrwt>
<pdfrwt beam="2">  1       -1 0.11544053E+00 0.26793295E+04</pdfrwt>
<totfact> 0.95717439E-01</totfact>
</mgrwt>
</event>
<event>
12    1  0.1599266E-007  0.1343173E+04  0.7818608E-02  0.8996012E-01
          2   -1    0    0  501    0  0.00000000000E+00  0.00000000000E+00  0.35225401453E+03  0.35225401453E+03  0.00000000000E+00 0.  1.
         -2   -1    0    0    0  501 -0.00000000000E+00 -0.00000000000E+00 -0.12804072582E+04  0.12804072582E+04  0.00000000000E+00 0. -1.
         23    2    1    2    0    0 -0.29463768083E+03 -0.17524236691E+03 -0.12761464586E+03  0.37680549992E+03  0.90419228066E+02 0.  0.
        254    2    1    2    0    0  0.29463768083E+03  0.17524236691E+03 -0.80053859781E+03  0.12558557728E+04  0.90487039151E+03 0.  0.
        -24    2    4    4    0    0  0.10080517061E+03 -0.32592188191E+03 -0.90654410835E+02  0.36192758180E+03  0.79916185682E+02 0.  0.
         24    2    4    4    0    0  0.19383251022E+03  0.50116424882E+03 -0.70988418698E+03  0.89392819102E+03  0.80220979009E+02 0.  0.
         13    1    3    3    0    0 -0.28445188791E+03 -0.18367775814E+03 -0.13115543267E+03  0.36311450383E+03  0.00000000000E+00 0. -1.
        -13    1    3    3    0    0 -0.10185792918E+02  0.84353912339E+01  0.35407868066E+01  0.13690996086E+02  0.00000000000E+00 0.  1.
          4    1    6    6  502    0  0.67009634884E+01  0.91126501213E+02 -0.14300290350E+03  0.16970201102E+03  0.00000000000E+00 0. -1.
          3    1    5    5  503    0  0.70844811905E+02 -0.10805769835E+03 -0.18797463762E+02  0.13057104652E+03  0.00000000000E+00 0. -1.
         -4    1    5    5    0  503  0.29960358705E+02 -0.21786418356E+03 -0.71856947073E+02  0.23135653528E+03  0.00000000000E+00 0.  1.
         -3    1    6    6    0  502  0.18713154673E+03  0.41003774761E+03 -0.56688128347E+03  0.72422618000E+03  0.00000000000E+00 0.  1.
<mgrwt>
<rscale>  0 0.13431733E+04</rscale>
<asrwt>0</asrwt>
<pdfrwt beam="1">  1        2 0.54192924E-01 0.13431733E+04</pdfrwt>
<pdfrwt beam="2">  1       -2 0.19698574E+00 0.13431733E+04</pdfrwt>
<totfact> 0.12471082E+01</totfact>
</mgrwt>
</event>
<event>
12    1  0.1599266E-007  0.1623550E+04  0.7818608E-02  0.8806210E-01
         -2   -1    0    0    0  501 -0.00000000000E+00  0.00000000000E+00  0.39875729679E+03  0.39875729679E+03  0.00000000000E+00 0.  1.
          2   -1    0    0  501    0  0.00000000000E+00 -0.00000000000E+00 -0.16525808307E+04  0.16525808307E+04  0.00000000000E+00 0. -1.
         23    2    1    2    0    0 -0.27956470382E+02  0.31914305363E+03  0.15808276600E+03  0.36921975906E+03  0.93269591316E+02 0.  0.
        254    2    1    2    0    0  0.27956470382E+02 -0.31914305363E+03 -0.14119062999E+04  0.16821183684E+04  0.85639298965E+03 0.  0.
        -24    2    4    4    0    0  0.35846147881E+03 -0.40404469747E+03 -0.10149188283E+04  0.11524819034E+04  0.80047237988E+02 0.  0.
         24    2    4    4    0    0 -0.33050500843E+03  0.84901643841E+02 -0.39698747161E+03  0.52963646501E+03  0.80460442009E+02 0.  0.
         13    1    3    3    0    0 -0.51918801289E+02  0.25413824163E+03  0.97239680380E+02  0.27701509566E+03  0.00000000000E+00 0. -1.
        -13    1    3    3    0    0  0.23962330907E+02  0.65004812000E+02  0.60843085620E+02  0.92204663404E+02  0.00000000000E+00 0.  1.
          4    1    6    6  502    0 -0.23881874248E+03  0.56076889051E+02 -0.33520487594E+03  0.41538093132E+03  0.00000000000E+00 0. -1.
          1    1    5    5  503    0  0.30002442026E+03 -0.35422474052E+03 -0.80916953279E+03  0.93286931150E+03  0.00000000000E+00 0. -1.
         -2    1    5    5    0  503  0.58437058552E+02 -0.49819956947E+02 -0.20574929549E+03  0.21961259189E+03  0.00000000000E+00 0.  1.
         -3    1    6    6    0  502 -0.91686265945E+02  0.28824754790E+02 -0.61782595671E+02  0.11425553369E+03  0.00000000000E+00 0.  1.
<mgrwt>
<rscale>  0 0.16235500E+04</rscale>
<asrwt>0</asrwt>
<pdfrwt beam="1">  1        2 0.25424321E+00 0.16235500E+04</pdfrwt>
<pdfrwt beam="2">  1       -2 0.61347276E-01 0.16235500E+04</pdfrwt>
<totfact> 0.24645508E+01</totfact>
</mgrwt>
</event>
<event>
12    1  0.1599266E-007  0.1175517E+04  0.7818608E-02  0.9134561E-01
         -1   -1    0    0    0  501 -0.00000000000E+00  0.00000000000E+00  0.22261572919E+04  0.22261572919E+04  0.00000000000E+00 0.  1.
          1   -1    0    0  501    0  0.00000000000E+00 -0.00000000000E+00 -0.15518220764E+03  0.15518220764E+03  0.00000000000E+00 0. -1.
         23    2    1    2    0    0 -0.22794676733E+03 -0.54073294213E+02  0.49450527438E+03  0.55470631615E+03  0.90994400397E+02 0.  0.
        254    2    1    2    0    0  0.22794676733E+03  0.54073294213E+02  0.15764698099E+04  0.18266331834E+04  0.89243939587E+03 0.  0.
        -24    2    4    4    0    0  0.52023545377E+03  0.93132954217E+02  0.60086370867E+03  0.80425539926E+03  0.80441757326E+02 0.  0.
         24    2    4    4    0    0 -0.29228868644E+03 -0.39059660004E+02  0.97560610120E+03  0.10223777841E+04  0.80565100996E+02 0.  0.
         13    1    3    3    0    0 -0.53404522300E+02 -0.21334226771E+02  0.22288473912E+03  0.23018427219E+03  0.00000000000E+00 0.  1.
        -13    1    3    3    0    0 -0.17454224503E+03 -0.32739067442E+02  0.27162053526E+03  0.32452204395E+03  0.00000000000E+00 0. -1.
          4    1    6    6  502    0 -0.12218976075E+03 -0.46182029173E+02  0.33591323241E+03  0.36041755945E+03  0.00000000000E+00 0. -1.
          3    1    5    5  503    0  0.12522642488E+03  0.39085984144E+02  0.19758423190E+03  0.23716850622E+03  0.00000000000E+00 0. -1.
         -4    1    5    5    0  503  0.39500902889E+03  0.54046970072E+02  0.40327947677E+03  0.56708689304E+03  0.00000000000E+00 0.  1.
         -3    1    6    6    0  502 -0.17009892569E+03  0.71223691692E+01  0.63969286879E+03  0.66196022467E+03  0.00000000000E+00 0.  1.
<mgrwt>
<rscale>  0 0.11755169E+04</rscale>
<asrwt>0</asrwt>
<pdfrwt beam="1">  1        1 0.23874187E-01 0.11755169E+04</pdfrwt>
<pdfrwt beam="2">  1       -1 0.34248571E+00 0.11755169E+04</pdfrwt>
<totfact> 0.36264347E+00</totfact>
</mgrwt>
</event>
<event>
12    1  0.1599266E-007  0.2376661E+04  0.7818608E-02  0.8448293E-01
         -2   -1    0    0    0  501 -0.00000000000E+00  0.00000000000E+00  0.92976219216E+03  0.92976219216E+03  0.00000000000E+00 0.  1.
          2   -1    0    0  501    0  0.00000000000E+00 -0.00000000000E+00 -0.15188065596E+04  0.15188065596E+04  0.00000000000E+00 0. -1.
         23    2    1    2    0    0 -0.64086398294E+03 -0.49466553464E+02 -0.10625092586E+04  0.12451235734E+04  0.90847145668E+02 0.  0.
        254    2    1    2    0    0  0.64086398294E+03  0.49466553464E+02  0.47346489119E+03  0.12034451783E+04  0.90053190367E+03 0.  0.
        -24    2    4    4    0    0  0.58445194652E+03  0.96490984648E+02  0.71907727324E+03  0.93510341193E+03  0.80322339463E+02 0.  0.
         24    2    4    4    0    0  0.56412036424E+02 -0.47024431184E+02 -0.24561238205E+03  0.26834176640E+03  0.79298464038E+02 0.  0.
         11    1    3    3    0    0 -0.50748860914E+03 -0.43342755255E+02 -0.76524263932E+03  0.91924946553E+03  0.00000000000E+00 0. -1.
        -11    1    3    3    0    0 -0.13337537380E+03 -0.61237982091E+01 -0.29726661930E+03  0.32587410789E+03  0.00000000000E+00 0.  1.
          4    1    6    6  502    0  0.22037666551E+02 -0.49772195036E+02 -0.21642057267E+03  0.22316091598E+03  0.00000000000E+00 0. -1.
          1    1    5    5  503    0  0.47783392559E+03  0.51709367413E+02  0.60488922262E+03  0.77258662347E+03  0.00000000000E+00 0. -1.
         -2    1    5    5    0  503  0.10661802093E+03  0.44781617235E+02  0.11418805062E+03  0.16251678847E+03  0.00000000000E+00 0.  1.
         -3    1    6    6    0  502  0.34374369872E+02  0.27477638512E+01 -0.29191809381E+02  0.45180850426E+02  0.00000000000E+00 0.  1.
<mgrwt>
<rscale>  0 0.23766606E+04</rscale>
<asrwt>0</asrwt>
<pdfrwt beam="1">  1        2 0.23366255E+00 0.23766606E+04</pdfrwt>
<pdfrwt beam="2">  1       -2 0.14304034E+00 0.23766606E+04</pdfrwt>
<totfact> 0.37904703E+00</totfact>
</mgrwt>
</event>
<event>
12    1  0.1599266E-007  0.1405604E+04  0.7818608E-02  0.8949772E-01
          1   -1    0    0  501    0  0.00000000000E+00  0.00000000000E+00  0.11360347726E+04  0.11360347726E+04  0.00000000000E+00 0. -1.
         -1   -1    0    0    0  501 -0.00000000000E+00 -0.00000000000E+00 -0.43478508444E+03  0.43478508444E+03  0.00000000000E+00 0.  1.
         23    2    1    2    0    0 -0.31387069885E+03  0.82386241447E+02  0.45329788529E+03  0.56492421477E+03  0.91422575126E+02 0.  0.
        254    2    1    2    0    0  0.31387069885E+03 -0.82386241447E+02  0.24795180284E+03  0.10058956422E+04  0.91926255127E+03 0.  0.
        -24    2    4    4    0    0 -0.10812510962E+03 -0.56111072904E+02  0.49105487388E+03  0.51160880543E+03  0.75955176298E+02 0.  0.
         24    2    4    4    0    0  0.42199580848E+03 -0.26275168544E+02 -0.24310307103E+03  0.49428683681E+03  0.80308947462E+02 0.  0.
         13    1    3    3    0    0 -0.16812029035E+03  0.74977303337E+02  0.19439543552E+03  0.26772301619E+03  0.00000000000E+00 0.  1.
        -13    1    3    3    0    0 -0.14575040850E+03  0.74089381097E+01  0.25890244977E+03  0.29720119858E+03  0.00000000000E+00 0. -1.
          4    1    6    6  502    0  0.37230105865E+03 -0.46691039811E+02 -0.22543251216E+03  0.43773045245E+03  0.00000000000E+00 0. -1.
          3    1    5    5  503    0 -0.10991359363E+03 -0.29525903941E+02  0.43340812342E+03  0.44810197334E+03  0.00000000000E+00 0. -1.
         -2    1    5    5    0  503  0.17884840108E+01 -0.26585168963E+02  0.57646750457E+02  0.63506832090E+02  0.00000000000E+00 0.  1.
         -3    1    6    6    0  502  0.49694749830E+02  0.20415871267E+02 -0.17670558875E+02  0.56556384354E+02  0.00000000000E+00 0.  1.
<mgrwt>
<rscale>  0 0.14056045E+04</rscale>
<asrwt>0</asrwt>
<pdfrwt beam="1">  1        1 0.17477458E+00 0.14056045E+04</pdfrwt>
<pdfrwt beam="2">  1       -1 0.66890014E-01 0.14056045E+04</pdfrwt>
<totfact> 0.26293433E+01</totfact>
</mgrwt>
</event>
<event>
12    1  0.1599266E-007  0.1461900E+04  0.7818608E-02  0.8910192E-01
         -2   -1    0    0    0  501 -0.00000000000E+00  0.00000000000E+00  0.90044651433E+03  0.90044651433E+03  0.00000000000E+00 0.  1.
          2   -1    0    0  501    0  0.00000000000E+00 -0.00000000000E+00 -0.59335888107E+03  0.59335888107E+03  0.00000000000E+00 0. -1.
         23    2    1    2    0    0 -0.21490729617E+03 -0.29517793555E+03  0.35801272782E+03  0.51951443003E+03  0.91689531244E+02 0.  0.
        254    2    1    2    0    0  0.21490729617E+03  0.29517793555E+03 -0.50925094564E+02  0.97429096538E+03  0.90185051997E+03 0.  0.
        -24    2    4    4    0    0 -0.18467252549E+03 -0.58889777265E+01 -0.33637017646E+03  0.39216722716E+03  0.80694589134E+02 0.  0.
         24    2    4    4    0    0  0.39957982166E+03  0.30106691328E+03  0.28544508190E+03  0.58212373822E+03  0.84165501685E+02 0.  0.
         13    1    3    3    0    0 -0.13370850972E+03 -0.25005428723E+03  0.27108372219E+03  0.39229006688E+03  0.00000000000E+00 0.  1.
        -13    1    3    3    0    0 -0.81198786449E+02 -0.45123648323E+02  0.86929005631E+02  0.12722436315E+03  0.00000000000E+00 0. -1.
          4    1    6    6  502    0  0.23001593622E+03  0.12579356933E+03  0.16865433318E+03  0.31173007090E+03  0.00000000000E+00 0. -1.
          3    1    5    5  503    0 -0.12768827680E+03  0.27422684448E+02 -0.26188896141E+03  0.29264676278E+03  0.00000000000E+00 0. -1.
         -4    1    5    5    0  503 -0.56984248686E+02 -0.33311662175E+02 -0.74481215046E+02  0.99520464377E+02  0.00000000000E+00 0.  1.
         -3    1    6    6    0  502  0.16956388543E+03  0.17527334395E+03  0.11679074871E+03  0.27039366732E+03  0.00000000000E+00 0.  1.
<mgrwt>
<rscale>  0 0.14619000E+04</rscale>
<asrwt>0</asrwt>
<pdfrwt beam="1">  1        2 0.91285982E-01 0.14619000E+04</pdfrwt>
<pdfrwt beam="2">  1       -2 0.13853023E+00 0.14619000E+04</pdfrwt>
<totfact> 0.17969438E+01</totfact>
</mgrwt>
</event>
<event>
12    1  0.1599266E-007  0.2065668E+04  0.7818608E-02  0.8576519E-01
         -1   -1    0    0    0  501 -0.00000000000E+00  0.00000000000E+00  0.86658873538E+03  0.86658873538E+03  0.00000000000E+00 0.  1.
          1   -1    0    0  501    0  0.00000000000E+00 -0.00000000000E+00 -0.12309715997E+04  0.12309715997E+04  0.00000000000E+00 0. -1.
         23    2    1    2    0    0 -0.59760571444E+03  0.18209754274E+03 -0.61898992423E+03  0.88412141493E+03  0.90719595679E+02 0.  0.
        254    2    1    2    0    0  0.59760571444E+03 -0.18209754274E+03  0.25460705995E+03  0.12134389201E+04  0.10086214121E+04 0.  0.
        -24    2    4    4    0    0  0.87227777730E+03 -0.84765239811E+02  0.14130967989E+03  0.89170307430E+03  0.84334337210E+02 0.  0.
         24    2    4    4    0    0 -0.27467206286E+03 -0.97332302926E+02  0.11329738006E+03  0.32173584582E+03  0.75890307996E+02 0.  0.
         11    1    3    3    0    0 -0.49813382756E+02 -0.89869321631E+00 -0.79349507215E+02  0.93693783392E+02  0.00000000000E+00 0.  1.
        -11    1    3    3    0    0 -0.54779233168E+03  0.18299623595E+03 -0.53964041701E+03  0.79042763153E+03  0.00000000000E+00 0. -1.
          4    1    6    6  502    0 -0.13216716207E+03 -0.22880545838E+02  0.84119944936E+02  0.15832827683E+03  0.00000000000E+00 0. -1.
          3    1    5    5  503    0  0.51410447265E+03 -0.82298208671E+02  0.57236305634E+02  0.52378659646E+03  0.00000000000E+00 0. -1.
         -4    1    5    5    0  503  0.35817330465E+03 -0.24670311402E+01  0.84073374255E+02  0.36791647784E+03  0.00000000000E+00 0.  1.
         -3    1    6    6    0  502 -0.14250490079E+03 -0.74451757088E+02  0.29177435121E+02  0.16340756899E+03  0.00000000000E+00 0.  1.
<mgrwt>
<rscale>  0 0.20656680E+04</rscale>
<asrwt>0</asrwt>
<pdfrwt beam="1">  1        1 0.18938025E+00 0.20656680E+04</pdfrwt>
<pdfrwt beam="2">  1       -1 0.13332134E+00 0.20656680E+04</pdfrwt>
<totfact> 0.44509426E+00</totfact>
</mgrwt>
</event>
<event>
12    1  0.1599266E-007  0.2138914E+04  0.7818608E-02  0.8544293E-01
          2   -1    0    0  501    0  0.00000000000E+00  0.00000000000E+00  0.10690608582E+04  0.10690608582E+04  0.00000000000E+00 0.  1.
         -2   -1    0    0    0  501 -0.00000000000E+00 -0.00000000000E+00 -0.10698532608E+04  0.10698532608E+04  0.00000000000E+00 0. -1.
         23    2    1    2    0    0  0.10327169737E+03  0.62530548517E+02 -0.86288445840E+03  0.87904870026E+03  0.11654147717E+03 0.  0.
        254    2    1    2    0    0 -0.10327169737E+03 -0.62530548517E+02  0.86209205581E+03  0.12598654187E+04  0.91075959923E+03 0.  0.
        -24    2    4    4    0    0  0.37031526502E+03  0.95374372332E+02  0.52062604829E+03  0.64969135169E+03  0.69409681578E+02 0.  0.
         24    2    4    4    0    0 -0.47358696238E+03 -0.15790492085E+03  0.34146600752E+03  0.61017406702E+03  0.80590215331E+02 0.  0.
         13    1    3    3    0    0  0.16592899066E+02 -0.15223164761E+02 -0.43561215991E+03  0.43619379054E+03  0.00000000000E+00 0. -1.
        -13    1    3    3    0    0  0.86678798302E+02  0.77753713278E+02 -0.42727229849E+03  0.44285490972E+03  0.00000000000E+00 0.  1.
          4    1    6    6  502    0 -0.20837738812E+03 -0.51447637187E+02  0.10347646303E+03  0.23827583523E+03  0.00000000000E+00 0. -1.
          1    1    5    5  503    0  0.30564995218E+03  0.56691123709E+02  0.44593593282E+03  0.54359418039E+03  0.00000000000E+00 0. -1.
         -2    1    5    5    0  503  0.64665312833E+02  0.38683248622E+02  0.74690115477E+02  0.10609717130E+03  0.00000000000E+00 0.  1.
         -3    1    6    6    0  502 -0.26520957426E+03 -0.10645728366E+03  0.23798954449E+03  0.37189823179E+03  0.00000000000E+00 0.  1.
<mgrwt>
<rscale>  0 0.21389140E+04</rscale>
<asrwt>0</asrwt>
<pdfrwt beam="1">  1        2 0.16447090E+00 0.21389140E+04</pdfrwt>
<pdfrwt beam="2">  1       -2 0.16459281E+00 0.21389140E+04</pdfrwt>
<totfact> 0.48758970E+00</totfact>
</mgrwt>
</event>
<event>
12    1  0.1599266E-007  0.2014037E+04  0.7818608E-02  0.8600086E-01
         -2   -1    0    0    0  501 -0.00000000000E+00  0.00000000000E+00  0.39128689402E+03  0.39128689402E+03  0.00000000000E+00 0. -1.
          2   -1    0    0  501    0  0.00000000000E+00 -0.00000000000E+00 -0.25916702414E+04  0.25916702414E+04  0.00000000000E+00 0.  1.
         23    2    1    2    0    0  0.76880468259E+03  0.62704969598E+02 -0.11237477021E+04  0.13663059825E+04  0.94818703618E+02 0.  0.
        254    2    1    2    0    0 -0.76880468259E+03 -0.62704969598E+02 -0.10766356453E+04  0.16166511530E+04  0.92705128472E+03 0.  0.
        -24    2    4    4    0    0 -0.66278886608E+03  0.34377476377E+03 -0.84485875893E+03  0.11304568462E+04  0.81707951160E+02 0.  0.
         24    2    4    4    0    0 -0.10601581651E+03 -0.40647973337E+03 -0.23177688635E+03  0.48619430680E+03  0.78735328333E+02 0.  0.
         11    1    3    3    0    0  0.71473272063E+03  0.41866074124E+02 -0.10688531881E+04  0.12864846551E+04  0.00000000000E+00 0.  1.
        -11    1    3    3    0    0  0.54071961961E+02  0.20838895475E+02 -0.54894514017E+02  0.79821327376E+02  0.00000000000E+00 0. -1.
          2    1    6    6  502    0 -0.98280457394E+02 -0.40126125681E+03 -0.23618895830E+03  0.47587274407E+03  0.00000000000E+00 0. -1.
          1    1    5    5  503    0 -0.57494502045E+03  0.31986925752E+03 -0.76822212948E+03  0.10114560587E+04  0.00000000000E+00 0. -1.
         -2    1    5    5    0  503 -0.87843845623E+02  0.23905506251E+02 -0.76636629452E+02  0.11900078746E+03  0.00000000000E+00 0.  1.
         -1    1    6    6    0  502 -0.77353591192E+01 -0.52184765625E+01  0.44120719550E+01  0.10321562734E+02  0.00000000000E+00 0.  1.
<mgrwt>
<rscale>  0 0.20140373E+04</rscale>
<asrwt>0</asrwt>
<pdfrwt beam="1">  1        2 0.39871851E+00 0.20140373E+04</pdfrwt>
<pdfrwt beam="2">  1       -2 0.60197983E-01 0.20140373E+04</pdfrwt>
<totfact> 0.73513167E+00</totfact>
</mgrwt>
</event>
<event>
12    1  0.1599266E-007  0.1763924E+04  0.7818608E-02  0.8725723E-01
         -1   -1    0    0    0  501 -0.00000000000E+00  0.00000000000E+00  0.19317421936E+04  0.19317421936E+04  0.00000000000E+00 0.  1.
          1   -1    0    0  501    0  0.00000000000E+00 -0.00000000000E+00 -0.40267114631E+03  0.40267114631E+03  0.00000000000E+00 0. -1.
         23    2    1    2    0    0  0.13481913909E+03  0.10769968633E+03 -0.26234107774E+03  0.32670754168E+03  0.90219476919E+02 0.  0.
        254    2    1    2    0    0 -0.13481913909E+03 -0.10769968633E+03  0.17914121250E+04  0.20077057982E+04  0.88991558468E+03 0.  0.
        -24    2    4    4    0    0  0.34188400703E+03 -0.10362808921E+03  0.11371062839E+04  0.11943413150E+04  0.76269395802E+02 0.  0.
         24    2    4    4    0    0 -0.47670314611E+03 -0.40715971241E+01  0.65430584109E+03  0.81336448319E+03  0.78633208021E+02 0.  0.
         11    1    3    3    0    0  0.91417399192E+02  0.74899864203E+02 -0.24072077881E+03  0.26816715661E+03  0.00000000000E+00 0. -1.
        -11    1    3    3    0    0  0.43401739895E+02  0.32799822132E+02 -0.21620298933E+02  0.58540385067E+02  0.00000000000E+00 0.  1.
          2    1    6    6  502    0 -0.18045301810E+03 -0.96017160047E+01  0.31269335475E+03  0.36115456358E+03  0.00000000000E+00 0. -1.
          1    1    5    5  503    0  0.20970020182E+03 -0.38053758577E+02  0.57623278419E+03  0.61438301145E+03  0.00000000000E+00 0. -1.
         -2    1    5    5    0  503  0.13218380521E+03 -0.65574330633E+02  0.56087349970E+03  0.57995830356E+03  0.00000000000E+00 0.  1.
         -1    1    6    6    0  502 -0.29625012801E+03  0.55301188807E+01  0.34161248634E+03  0.45220991960E+03  0.00000000000E+00 0.  1.
<mgrwt>
<rscale>  0 0.17639239E+04</rscale>
<asrwt>0</asrwt>
<pdfrwt beam="1">  1        1 0.61949408E-01 0.17639239E+04</pdfrwt>
<pdfrwt beam="2">  1       -1 0.29719110E+00 0.17639239E+04</pdfrwt>
<totfact> 0.19407359E+00</totfact>
</mgrwt>
</event>
<event>
12    1  0.1599266E-007  0.2231750E+04  0.7818608E-02  0.8505328E-01
         -1   -1    0    0    0  501 -0.00000000000E+00  0.00000000000E+00  0.72229842612E+03  0.72229842612E+03  0.00000000000E+00 0.  1.
          1   -1    0    0  501    0  0.00000000000E+00 -0.00000000000E+00 -0.17239094233E+04  0.17239094233E+04  0.00000000000E+00 0. -1.
         23    2    1    2    0    0 -0.16526229715E+03  0.34111933215E+03 -0.13446119678E+04  0.13999170364E+04  0.90068524461E+02 0.  0.
        254    2    1    2    0    0  0.16526229715E+03 -0.34111933215E+03  0.34300097068E+03  0.10462908130E+04  0.91290786713E+03 0.  0.
        -24    2    4    4    0    0 -0.31712409379E+03 -0.35300965806E+03  0.70649184916E+02  0.48645383055E+03  0.80389752970E+02 0.  0.
         24    2    4    4    0    0  0.48238639094E+03  0.11890325911E+02  0.27235178576E+03  0.55983698246E+03  0.80024631858E+02 0.  0.
         13    1    3    3    0    0 -0.50833564120E+02  0.20749131799E+03 -0.74770837289E+03  0.77762748741E+03  0.00000000000E+00 0. -1.
        -13    1    3    3    0    0 -0.11442873303E+03  0.13362801416E+03 -0.59690359495E+03  0.62228954898E+03  0.00000000000E+00 0.  1.
          4    1    6    6  502    0  0.32817344752E+03 -0.17940844889E+02  0.15281638476E+03  0.36245349085E+03  0.00000000000E+00 0. -1.
          1    1    5    5  503    0 -0.19438559493E+03 -0.16249462290E+03  0.55181094172E+02  0.25929754172E+03  0.00000000000E+00 0. -1.
         -2    1    5    5    0  503 -0.12273849886E+03 -0.19051503516E+03  0.15468090744E+02  0.22715628884E+03  0.00000000000E+00 0.  1.
         -1    1    6    6    0  502  0.15421294342E+03  0.29831170800E+02  0.11953540100E+03  0.19738349161E+03  0.00000000000E+00 0.  1.
<mgrwt>
<rscale>  0 0.22317500E+04</rscale>
<asrwt>0</asrwt>
<pdfrwt beam="1">  1        1 0.26521683E+00 0.22317500E+04</pdfrwt>
<pdfrwt beam="2">  1       -1 0.11112283E+00 0.22317500E+04</pdfrwt>
<totfact> 0.31090234E+00</totfact>
</mgrwt>
</event>
<event>
12    1  0.1599266E-007  0.1534738E+04  0.7818608E-02  0.8861675E-01
         -1   -1    0    0    0  501 -0.00000000000E+00  0.00000000000E+00  0.46099711559E+03  0.46099711559E+03  0.00000000000E+00 0.  1.
          1   -1    0    0  501    0  0.00000000000E+00 -0.00000000000E+00 -0.12773514975E+04  0.12773514975E+04  0.00000000000E+00 0. -1.
         23    2    1    2    0    0 -0.31252319648E+03  0.37185814503E+03 -0.40431743956E+03  0.63890710455E+03  0.93704151198E+02 0.  0.
        254    2    1    2    0    0  0.31252319648E+03 -0.37185814503E+03 -0.41203694235E+03  0.10994415085E+04  0.89612943288E+03 0.  0.
        -24    2    4    4    0    0  0.69668126166E+02 -0.80792808346E+02 -0.63732024362E+03  0.65117261412E+03  0.80421108968E+02 0.  0.
         24    2    4    4    0    0  0.24285507031E+03 -0.29106533668E+03  0.22528330127E+03  0.44826889442E+03  0.80590449059E+02 0.  0.
         13    1    3    3    0    0 -0.29888656138E+03  0.36837254050E+03 -0.40643124533E+03  0.62467420496E+03  0.00000000000E+00 0. -1.
        -13    1    3    3    0    0 -0.13636635097E+02  0.34856045267E+01  0.21138057719E+01  0.14232899583E+02  0.00000000000E+00 0.  1.
          4    1    6    6  502    0  0.18489089852E+03 -0.20071110042E+03  0.19901730367E+03  0.33775357488E+03  0.00000000000E+00 0. -1.
          3    1    5    5  503    0  0.43962888653E+02 -0.93500189754E+02 -0.53628682547E+03  0.54614886271E+03  0.00000000000E+00 0. -1.
         -4    1    5    5    0  503  0.25705237513E+02  0.12707381408E+02 -0.10103341815E+03  0.10502375141E+03  0.00000000000E+00 0.  1.
         -3    1    6    6    0  502  0.57964171790E+02 -0.90354236267E+02  0.26265997602E+02  0.11051531954E+03  0.00000000000E+00 0.  1.
<mgrwt>
<rscale>  0 0.15347382E+04</rscale>
<asrwt>0</asrwt>
<pdfrwt beam="1">  1        1 0.19651562E+00 0.15347382E+04</pdfrwt>
<pdfrwt beam="2">  1       -1 0.70922633E-01 0.15347382E+04</pdfrwt>
<totfact> 0.18192199E+01</totfact>
</mgrwt>
</event>
<event>
12    1  0.1599266E-007  0.1954050E+04  0.7818608E-02  0.8628410E-01
         -2   -1    0    0    0  501 -0.00000000000E+00  0.00000000000E+00  0.81468074429E+03  0.81468074429E+03  0.00000000000E+00 0.  1.
          2   -1    0    0  501    0  0.00000000000E+00 -0.00000000000E+00 -0.11717196918E+04  0.11717196918E+04  0.00000000000E+00 0. -1.
         23    2    1    2    0    0 -0.80781154353E+02 -0.27250397480E+03  0.58570878262E+03  0.65529650883E+03  0.74664082908E+02 0.  0.
        254    2    1    2    0    0  0.80781154353E+02  0.27250397480E+03 -0.94274773014E+03  0.13311039273E+04  0.89570105019E+03 0.  0.
        -24    2    4    4    0    0 -0.23477768787E+03 -0.22888873990E+02  0.41990736591E+02  0.25304770851E+03  0.81396913622E+02 0.  0.
         24    2    4    4    0    0  0.31555884222E+03  0.29539284879E+03 -0.98473846673E+03  0.10780562188E+04  0.75239915680E+02 0.  0.
         13    1    3    3    0    0 -0.95206465241E+02 -0.23542465584E+03  0.49937388219E+03  0.56023505229E+03  0.00000000000E+00 0.  1.
        -13    1    3    3    0    0  0.14425310887E+02 -0.37079318960E+02  0.86334900429E+02  0.95061456547E+02  0.00000000000E+00 0. -1.
          2    1    6    6  502    0  0.24432557591E+02  0.75340493363E+00 -0.49980667344E+02  0.55637978015E+02  0.00000000000E+00 0. -1.
          1    1    5    5  503    0  0.65529902851E+00  0.11568221320E+02  0.24632900187E+01  0.11845714797E+02  0.00000000000E+00 0. -1.
         -2    1    5    5    0  503 -0.23543298690E+03 -0.34457095311E+02  0.39527446572E+02  0.24120199371E+03  0.00000000000E+00 0.  1.
         -3    1    6    6    0  502  0.29112628463E+03  0.29463944386E+03 -0.93475779938E+03  0.10224182407E+04  0.00000000000E+00 0.  1.
<mgrwt>
<rscale>  0 0.19540496E+04</rscale>
<asrwt>0</asrwt>
<pdfrwt beam="1">  1        2 0.18026457E+00 0.19540496E+04</pdfrwt>
<pdfrwt beam="2">  1       -2 0.12533550E+00 0.19540496E+04</pdfrwt>
<totfact> 0.87489505E+00</totfact>
</mgrwt>
</event>
<event>
12    1  0.1599266E-007  0.1779618E+04  0.7818608E-02  0.8717214E-01
         -1   -1    0    0    0  501 -0.00000000000E+00  0.00000000000E+00  0.51643702141E+03  0.51643702141E+03  0.00000000000E+00 0.  1.
          1   -1    0    0  501    0  0.00000000000E+00 -0.00000000000E+00 -0.15331205931E+04  0.15331205931E+04  0.00000000000E+00 0. -1.
         23    2    1    2    0    0 -0.35267994357E+03 -0.53369260139E+03 -0.56260394810E+03  0.85672714528E+03  0.90814446396E+02 0.  0.
        254    2    1    2    0    0  0.35267994357E+03  0.53369260139E+03 -0.45407962362E+03  0.11928304693E+04  0.89857959494E+03 0.  0.
        -24    2    4    4    0    0 -0.92696858817E+02 -0.39661015543E+02  0.18245211459E+03  0.22335124953E+03  0.80195403608E+02 0.  0.
         24    2    4    4    0    0  0.44537680239E+03  0.57335361693E+03 -0.63653173821E+03  0.96947921973E+03  0.87306572467E+02 0.  0.
         13    1    3    3    0    0 -0.23691030933E+02 -0.64018613787E+01 -0.23722971470E+02  0.34132508714E+02  0.00000000000E+00 0.  1.
        -13    1    3    3    0    0 -0.32898891264E+03 -0.52729074001E+03 -0.53888097663E+03  0.82259463657E+03  0.00000000000E+00 0. -1.
          2    1    6    6  502    0  0.15261912031E+03  0.13291617580E+03 -0.17654779641E+03  0.26856736602E+03  0.00000000000E+00 0. -1.
          1    1    5    5  503    0 -0.38023865294E+02  0.21991604812E+02  0.43608811237E+02  0.61896473499E+02  0.00000000000E+00 0. -1.
         -2    1    5    5    0  503 -0.54672993522E+02 -0.61652620355E+02  0.13884330335E+03  0.16145477603E+03  0.00000000000E+00 0.  1.
         -3    1    6    6    0  502  0.29275768208E+03  0.44043744113E+03 -0.45998394180E+03  0.70091185371E+03  0.00000000000E+00 0.  1.
<mgrwt>
<rscale>  0 0.17796182E+04</rscale>
<asrwt>0</asrwt>
<pdfrwt beam="1">  1        1 0.23586471E+00 0.17796182E+04</pdfrwt>
<pdfrwt beam="2">  1       -1 0.79451850E-01 0.17796182E+04</pdfrwt>
<totfact> 0.92838144E+00</totfact>
</mgrwt>
</event>
<event>
12    1  0.1599266E-007  0.1299890E+04  0.7818608E-02  0.9029652E-01
          2   -1    0    0  501    0  0.00000000000E+00  0.00000000000E+00  0.88118027761E+03  0.88118027761E+03  0.00000000000E+00 0. -1.
         -2   -1    0    0    0  501 -0.00000000000E+00 -0.00000000000E+00 -0.47938956575E+03  0.47938956575E+03  0.00000000000E+00 0.  1.
         23    2    1    2    0    0 -0.29012876392E+01 -0.45530946281E+02  0.44948438370E+03  0.46008880210E+03  0.86971317631E+02 0.  0.
        254    2    1    2    0    0  0.29012876392E+01  0.45530946281E+02 -0.47693671837E+02  0.90048104126E+03  0.89805898180E+03 0.  0.
        -24    2    4    4    0    0  0.67116367222E+02 -0.33772311900E+03 -0.26904584981E+03  0.44457553319E+03  0.81854893294E+02 0.  0.
         24    2    4    4    0    0 -0.64215079583E+02  0.38325406528E+03  0.22135217797E+03  0.45590550807E+03  0.88576467504E+02 0.  0.
         11    1    3    3    0    0 -0.18476282428E+02 -0.52479488247E+01  0.36214875097E+03  0.36265773369E+03  0.00000000000E+00 0. -1.
        -11    1    3    3    0    0  0.15574994788E+02 -0.40282997457E+02  0.87335632729E+02  0.97431068407E+02  0.00000000000E+00 0.  1.
          4    1    6    6  502    0 -0.58327994035E+02  0.35542401178E+03  0.17245450733E+03  0.39933562343E+03  0.00000000000E+00 0. -1.
          3    1    5    5  503    0  0.83173153313E+02 -0.30319449202E+03 -0.25167092983E+03  0.40271941888E+03  0.00000000000E+00 0. -1.
         -4    1    5    5    0  503 -0.16056786091E+02 -0.34528626982E+02 -0.17374919978E+02  0.41856114309E+02  0.00000000000E+00 0.  1.
         -3    1    6    6    0  502 -0.58870855475E+01  0.27830053496E+02  0.48897670647E+02  0.56569884643E+02  0.00000000000E+00 0.  1.
<mgrwt>
<rscale>  0 0.12998902E+04</rscale>
<asrwt>0</asrwt>
<pdfrwt beam="1">  1        2 0.13556620E+00 0.12998902E+04</pdfrwt>
<pdfrwt beam="2">  1       -2 0.73752241E-01 0.12998902E+04</pdfrwt>
<totfact> 0.49076242E+01</totfact>
</mgrwt>
</event>
<event>
12    1  0.1599266E-007  0.1831633E+04  0.7818608E-02  0.8689656E-01
         -2   -1    0    0    0  501 -0.00000000000E+00  0.00000000000E+00  0.32322990113E+03  0.32322990113E+03  0.00000000000E+00 0.  1.
          2   -1    0    0  501    0  0.00000000000E+00 -0.00000000000E+00 -0.25948086844E+04  0.25948086844E+04  0.00000000000E+00 0. -1.
         23    2    1    2    0    0  0.41863215761E+03  0.15498411686E+03 -0.16938575080E+04  0.17545180038E+04  0.99534961293E+02 0.  0.
        254    2    1    2    0    0 -0.41863215761E+03 -0.15498411686E+03 -0.57772127528E+03  0.11635205817E+04  0.90594995020E+03 0.  0.
        -24    2    4    4    0    0 -0.61004272914E+03 -0.36033895176E+03 -0.45638135398E+03  0.84644298015E+03  0.78647866127E+02 0.  0.
         24    2    4    4    0    0  0.19141057153E+03  0.20535483490E+03 -0.12133992130E+03  0.31707760155E+03  0.83703128943E+02 0.  0.
         11    1    3    3    0    0  0.12094756921E+03  0.12972210836E+02 -0.59142829634E+03  0.60380793507E+03  0.00000000000E+00 0.  1.
        -11    1    3    3    0    0  0.29768458840E+03  0.14201190602E+03 -0.11024292116E+04  0.11507100687E+04  0.00000000000E+00 0. -1.
          4    1    6    6  502    0  0.87362781644E+01  0.52810182700E+02 -0.34775231384E+02  0.63832238491E+02  0.00000000000E+00 0. -1.
          3    1    5    5  503    0 -0.32453574956E+02 -0.39194186086E+02 -0.20985259520E+02  0.55043617863E+02  0.00000000000E+00 0. -1.
         -4    1    5    5    0  503 -0.57758915418E+03 -0.32114476567E+03 -0.43539609446E+03  0.79139936228E+03  0.00000000000E+00 0.  1.
         -3    1    6    6    0  502  0.18267429337E+03  0.15254465220E+03 -0.86564689912E+02  0.25324536306E+03  0.00000000000E+00 0.  1.
<mgrwt>
<rscale>  0 0.18316329E+04</rscale>
<asrwt>0</asrwt>
<pdfrwt beam="1">  1        2 0.39920134E+00 0.18316329E+04</pdfrwt>
<pdfrwt beam="2">  1       -2 0.49727676E-01 0.18316329E+04</pdfrwt>
<totfact> 0.11059326E+01</totfact>
</mgrwt>
</event>
<event>
12    1  0.1599266E-007  0.2124711E+04  0.7818608E-02  0.8550436E-01
         -2   -1    0    0    0  501 -0.00000000000E+00  0.00000000000E+00  0.14219387640E+04  0.14219387640E+04  0.00000000000E+00 0.  1.
          2   -1    0    0  501    0  0.00000000000E+00 -0.00000000000E+00 -0.79370423004E+03  0.79370423004E+03  0.00000000000E+00 0. -1.
         23    2    1    2    0    0 -0.46495015984E+03 -0.71628210814E+03  0.40606862784E+03  0.95059870819E+03  0.97506225051E+02 0.  0.
        254    2    1    2    0    0  0.46495015984E+03  0.71628210814E+03  0.22216590612E+03  0.12650442858E+04  0.90649911512E+03 0.  0.
        -24    2    4    4    0    0  0.26218074836E+02 -0.97277621591E+01 -0.26887066272E+03  0.28172808316E+03  0.79355294510E+02 0.  0.
         24    2    4    4    0    0  0.43873208500E+03  0.72600987030E+03  0.49103656883E+03  0.98331620267E+03  0.78852192956E+02 0.  0.
         13    1    3    3    0    0 -0.20057025554E+02 -0.62754130747E+01  0.46418494130E+01  0.21522356964E+02  0.00000000000E+00 0. -1.
        -13    1    3    3    0    0 -0.44489313428E+03 -0.71000669506E+03  0.40142677842E+03  0.92907635122E+03  0.00000000000E+00 0.  1.
          2    1    6    6  502    0  0.30067177334E+03  0.49729431922E+03  0.29330959140E+03  0.65094982266E+03  0.00000000000E+00 0. -1.
          3    1    5    5  503    0  0.61028564240E+01 -0.30998347646E+02 -0.39900394656E+02  0.50893849403E+02  0.00000000000E+00 0. -1.
         -4    1    5    5    0  503  0.20115218412E+02  0.21270585487E+02 -0.22897026806E+03  0.23083423376E+03  0.00000000000E+00 0.  1.
         -1    1    6    6    0  502  0.13806031166E+03  0.22871555108E+03  0.19772697744E+03  0.33236638002E+03  0.00000000000E+00 0.  1.
<mgrwt>
<rscale>  0 0.21247106E+04</rscale>
<asrwt>0</asrwt>
<pdfrwt beam="1">  1        2 0.12210834E+00 0.21247106E+04</pdfrwt>
<pdfrwt beam="2">  1       -2 0.21875981E+00 0.21247106E+04</pdfrwt>
<totfact> 0.32206763E+00</totfact>
</mgrwt>
</event>
<event>
12    1  0.1599266E-007  0.1380188E+04  0.7818608E-02  0.8968286E-01
         -1   -1    0    0    0  501 -0.00000000000E+00  0.00000000000E+00  0.37922886482E+03  0.37922886482E+03  0.00000000000E+00 0.  1.
          1   -1    0    0  501    0  0.00000000000E+00 -0.00000000000E+00 -0.12557841210E+04  0.12557841210E+04  0.00000000000E+00 0. -1.
         23    2    1    2    0    0  0.70439284480E+02 -0.21786507375E+03 -0.62827332927E+03  0.67515466755E+03  0.93164186717E+02 0.  0.
        254    2    1    2    0    0 -0.70439284480E+02  0.21786507375E+03 -0.24828192690E+03  0.95985831825E+03  0.89847492605E+03 0.  0.
        -24    2    4    4    0    0 -0.28706126881E+02  0.40913729553E+03 -0.48648721539E+03  0.64130523033E+03  0.79907567850E+02 0.  0.
         24    2    4    4    0    0 -0.41733157599E+02 -0.19127222178E+03  0.23820528849E+03  0.31855308792E+03  0.80047430265E+02 0.  0.
         13    1    3    3    0    0  0.58597808164E+02 -0.18453437618E+03 -0.40271856475E+03  0.44684324042E+03  0.00000000000E+00 0. -1.
        -13    1    3    3    0    0  0.11841476316E+02 -0.33330697570E+02 -0.22555476452E+03  0.22831142713E+03  0.00000000000E+00 0.  1.
          2    1    6    6  502    0  0.44982745540E+01  0.48386652448E+01  0.59069456861E-01  0.66068634400E+01  0.00000000000E+00 0. -1.
          1    1    5    5  503    0 -0.96306682494E+00 -0.35365751706E+01 -0.16580371760E+01  0.40229279044E+01  0.00000000000E+00 0. -1.
         -2    1    5    5    0  503 -0.27743060056E+02  0.41267387070E+03 -0.48482917821E+03  0.63728230243E+03  0.00000000000E+00 0.  1.
         -1    1    6    6    0  502 -0.46231432153E+02 -0.19611088703E+03  0.23814621903E+03  0.31194622448E+03  0.00000000000E+00 0.  1.
<mgrwt>
<rscale>  0 0.13801878E+04</rscale>
<asrwt>0</asrwt>
<pdfrwt beam="1">  1        1 0.19319755E+00 0.13801878E+04</pdfrwt>
<pdfrwt beam="2">  1       -1 0.58342903E-01 0.13801878E+04</pdfrwt>
<totfact> 0.28291304E+01</totfact>
</mgrwt>
</event>
<event>
12    1  0.1599266E-007  0.3548357E+04  0.7818608E-02  0.8102425E-01
         -2   -1    0    0    0  501 -0.00000000000E+00  0.00000000000E+00  0.17845826223E+04  0.17845826223E+04  0.00000000000E+00 0.  1.
          2   -1    0    0  501    0  0.00000000000E+00 -0.00000000000E+00 -0.17638348725E+04  0.17638348725E+04  0.00000000000E+00 0. -1.
         23    2    1    2    0    0 -0.52982572466E+03  0.11269584274E+04 -0.10746795782E+04  0.16474797620E+04  0.92210491856E+02 0.  0.
        254    2    1    2    0    0  0.52982572466E+03 -0.11269584274E+04  0.10954273280E+04  0.19009377328E+04  0.92889861522E+03 0.  0.
        -24    2    4    4    0    0 -0.36126617029E+02 -0.20890569289E+03  0.72255260232E+03  0.75710898093E+03  0.78644929313E+02 0.  0.
         24    2    4    4    0    0  0.56595234169E+03 -0.91805273449E+03  0.37287472566E+03  0.11438287518E+04  0.78649704922E+02 0.  0.
         13    1    3    3    0    0 -0.39487478582E+02  0.64496786282E+02 -0.94563378011E+02  0.12108397444E+03  0.00000000000E+00 0.  1.
        -13    1    3    3    0    0 -0.49033824608E+03  0.10624616411E+04 -0.98011620016E+03  0.15263957875E+04  0.00000000000E+00 0. -1.
          4    1    6    6  502    0  0.48931310111E+03 -0.77559997735E+03  0.34435944363E+03  0.97957442913E+03  0.00000000000E+00 0. -1.
          3    1    5    5  503    0 -0.49590642133E+01 -0.18125325058E+03  0.53189500400E+03  0.56195162465E+03  0.00000000000E+00 0. -1.
         -4    1    5    5    0  503 -0.31167552815E+02 -0.27652442309E+02  0.19065759832E+03  0.19515735629E+03  0.00000000000E+00 0.  1.
         -3    1    6    6    0  502  0.76639240583E+02 -0.14245275715E+03  0.28515282026E+02  0.16425432270E+03  0.00000000000E+00 0.  1.
<mgrwt>
<rscale>  0 0.35483568E+04</rscale>
<asrwt>0</asrwt>
<pdfrwt beam="1">  1        2 0.27135921E+00 0.35483568E+04</pdfrwt>
<pdfrwt beam="2">  1       -2 0.27455117E+00 0.35483568E+04</pdfrwt>
<totfact> 0.33628171E-01</totfact>
</mgrwt>
</event>
<event>
12    1  0.1599266E-007  0.1973617E+04  0.7818608E-02  0.8619056E-01
         -2   -1    0    0    0  501 -0.00000000000E+00  0.00000000000E+00  0.86096515223E+03  0.86096515223E+03  0.00000000000E+00 0.  1.
          2   -1    0    0  501    0  0.00000000000E+00 -0.00000000000E+00 -0.11310456421E+04  0.11310456421E+04  0.00000000000E+00 0. -1.
         23    2    1    2    0    0  0.50543334568E+03 -0.42807362649E+03 -0.52014238326E+03  0.84711444304E+03  0.91350337220E+02 0.  0.
        254    2    1    2    0    0 -0.50543334568E+03  0.42807362649E+03  0.25006189340E+03  0.11448963513E+04  0.89974819148E+03 0.  0.
        -24    2    4    4    0    0 -0.32419251547E+03  0.56135139279E+03  0.48184688070E+03  0.81203295115E+03  0.83695424179E+02 0.  0.
         24    2    4    4    0    0 -0.18124083021E+03 -0.13327776630E+03 -0.23178498731E+03  0.33286340015E+03  0.80390057183E+02 0.  0.
         11    1    3    3    0    0  0.41015582348E+03 -0.35847282407E+03 -0.46781467379E+03  0.71803978591E+03  0.00000000000E+00 0. -1.
        -11    1    3    3    0    0  0.95277522202E+02 -0.69600802417E+02 -0.52327709472E+02  0.12907465713E+03  0.00000000000E+00 0.  1.
          4    1    6    6  502    0 -0.59637268748E+02 -0.53698491004E+01 -0.38819862618E+02  0.71361199799E+02  0.00000000000E+00 0. -1.
          3    1    5    5  503    0 -0.72914674956E+02  0.76154727221E+02  0.56689925160E+02  0.11970730937E+03  0.00000000000E+00 0. -1.
         -4    1    5    5    0  503 -0.25127784052E+03  0.48519666557E+03  0.42515695554E+03  0.69232564178E+03  0.00000000000E+00 0.  1.
         -3    1    6    6    0  502 -0.12160356146E+03 -0.12790791720E+03 -0.19296512469E+03  0.26150220035E+03  0.00000000000E+00 0.  1.
<mgrwt>
<rscale>  0 0.19736169E+04</rscale>
<asrwt>0</asrwt>
<pdfrwt beam="1">  1        2 0.17400702E+00 0.19736169E+04</pdfrwt>
<pdfrwt beam="2">  1       -2 0.13245618E+00 0.19736169E+04</pdfrwt>
<totfact> 0.80399208E+00</totfact>
</mgrwt>
</event>
<event>
12    1  0.1599266E-007  0.1511879E+04  0.7818608E-02  0.8876592E-01
          1   -1    0    0  501    0  0.00000000000E+00  0.00000000000E+00  0.24052257442E+04  0.24052257442E+04  0.00000000000E+00 0. -1.
         -1   -1    0    0    0  501 -0.00000000000E+00 -0.00000000000E+00 -0.23758450720E+03  0.23758450720E+03  0.00000000000E+00 0.  1.
         23    2    1    2    0    0  0.10746870633E+03  0.46388882894E+03  0.84181049170E+03  0.97101889044E+03  0.86547173219E+02 0.  0.
        254    2    1    2    0    0 -0.10746870633E+03 -0.46388882894E+03  0.13258307452E+04  0.16717913609E+04  0.90017599441E+03 0.  0.
        -24    2    4    4    0    0  0.33503563095E+02 -0.70971568729E+03  0.10363037444E+04  0.12590340440E+04  0.80140051039E+02 0.  0.
         24    2    4    4    0    0 -0.14097226942E+03  0.24582685835E+03  0.28952700083E+03  0.41275731688E+03  0.78985399928E+02 0.  0.
         11    1    3    3    0    0  0.36725311937E+02  0.22615658335E+03  0.48585623502E+03  0.53717020564E+03  0.00000000000E+00 0. -1.
        -11    1    3    3    0    0  0.70743394388E+02  0.23773224559E+03  0.35595425669E+03  0.43384868479E+03  0.00000000000E+00 0.  1.
          2    1    6    6  502    0 -0.17738922372E+01  0.22537652287E+02  0.15297830875E+01  0.22659053391E+02  0.00000000000E+00 0. -1.
          3    1    5    5  503    0  0.45183646658E+01 -0.17164767959E+01  0.16690037326E+02  0.17375823945E+02  0.00000000000E+00 0. -1.
         -4    1    5    5    0  503  0.28985198429E+02 -0.70799921050E+03  0.10196137071E+04  0.12416582201E+04  0.00000000000E+00 0.  1.
         -1    1    6    6    0  502 -0.13919837718E+03  0.22328920606E+03  0.28799721774E+03  0.39009826349E+03  0.00000000000E+00 0.  1.
<mgrwt>
<rscale>  0 0.15118788E+04</rscale>
<asrwt>0</asrwt>
<pdfrwt beam="1">  1        1 0.37003471E+00 0.15118788E+04</pdfrwt>
<pdfrwt beam="2">  1       -1 0.36551464E-01 0.15118788E+04</pdfrwt>
<totfact> 0.10950391E+01</totfact>
</mgrwt>
</event>
<event>
12    1  0.1599266E-007  0.3130850E+04  0.7818608E-02  0.8207322E-01
          2   -1    0    0  501    0  0.00000000000E+00  0.00000000000E+00  0.95698595693E+03  0.95698595693E+03  0.00000000000E+00 0. -1.
         -2   -1    0    0    0  501 -0.00000000000E+00 -0.00000000000E+00 -0.25607021239E+04  0.25607021239E+04  0.00000000000E+00 0.  1.
         23    2    1    2    0    0 -0.10825441109E+04  0.35015043669E+03  0.26929415837E+03  0.11728663682E+04  0.92677363149E+02 0.  0.
        254    2    1    2    0    0  0.10825441109E+04 -0.35015043669E+03 -0.18730103254E+04  0.23448217126E+04  0.83397488260E+03 0.  0.
        -24    2    4    4    0    0  0.20147607924E+02 -0.26351819032E+03 -0.72682677733E+03  0.77753216100E+03  0.80195601006E+02 0.  0.
         24    2    4    4    0    0  0.10623965030E+04 -0.86632246371E+02 -0.11461835480E+04  0.15672895516E+04  0.80425973775E+02 0.  0.
         13    1    3    3    0    0 -0.74363790529E+03  0.26714921674E+03  0.22193972681E+03  0.82074556381E+03  0.00000000000E+00 0. -1.
        -13    1    3    3    0    0 -0.33890620559E+03  0.83001219947E+02  0.47354431559E+02  0.35212080440E+03  0.00000000000E+00 0.  1.
          4    1    6    6  502    0  0.47458869034E+03 -0.23621445146E+02 -0.45674124417E+03  0.65909404624E+03  0.00000000000E+00 0. -1.
          1    1    5    5  503    0  0.44266644383E+02 -0.13721410137E+03 -0.44459097330E+03  0.46738461567E+03  0.00000000000E+00 0. -1.
         -2    1    5    5    0  503 -0.24119036459E+02 -0.12630408895E+03 -0.28223580402E+03  0.31014754533E+03  0.00000000000E+00 0.  1.
         -3    1    6    6    0  502  0.58780781262E+03 -0.63010801225E+02 -0.68944230386E+03  0.90819550538E+03  0.00000000000E+00 0.  1.
<mgrwt>
<rscale>  0 0.31308503E+04</rscale>
<asrwt>0</asrwt>
<pdfrwt beam="1">  1        2 0.14722861E+00 0.31308503E+04</pdfrwt>
<pdfrwt beam="2">  1       -2 0.39395417E+00 0.31308503E+04</pdfrwt>
<totfact> 0.18478992E-01</totfact>
</mgrwt>
</event>
<event>
12    1  0.1599266E-007  0.2315554E+04  0.7818608E-02  0.8471813E-01
          1   -1    0    0  501    0  0.00000000000E+00  0.00000000000E+00  0.66544725630E+03  0.66544725630E+03  0.00000000000E+00 0. -1.
         -1   -1    0    0    0  501 -0.00000000000E+00 -0.00000000000E+00 -0.20143564808E+04  0.20143564808E+04  0.00000000000E+00 0.  1.
         23    2    1    2    0    0  0.21288795945E+03 -0.64356709769E+03 -0.13986638306E+04  0.15568318739E+04  0.89247296799E+02 0.  0.
        254    2    1    2    0    0 -0.21288795945E+03  0.64356709769E+03  0.49754606147E+02  0.11229718632E+04  0.89391856014E+03 0.  0.
        -24    2    4    4    0    0 -0.18909566587E+03  0.82783872289E+03 -0.11634457900E+03  0.86103353125E+03  0.82271252037E+02 0.  0.
         24    2    4    4    0    0 -0.23792293581E+02 -0.18427162519E+03  0.16609918515E+03  0.26193833194E+03  0.80626579640E+02 0.  0.
         13    1    3    3    0    0  0.18687132502E+03 -0.54400621067E+03 -0.12503712224E+04  0.13763327516E+04  0.00000000000E+00 0. -1.
        -13    1    3    3    0    0  0.26016634433E+02 -0.99560887025E+02 -0.14829260822E+03  0.18049912229E+03  0.00000000000E+00 0.  1.
          4    1    6    6  502    0  0.22495259021E+02 -0.52844721493E+02  0.22039843452E+02  0.61517119304E+02  0.00000000000E+00 0. -1.
          1    1    5    5  503    0 -0.26986614243E+02  0.17431710421E+03 -0.55707524421E+02  0.18498123809E+03  0.00000000000E+00 0. -1.
         -2    1    5    5    0  503 -0.16210905163E+03  0.65352161868E+03 -0.60637054584E+02  0.67605229316E+03  0.00000000000E+00 0.  1.
         -3    1    6    6    0  502 -0.46287552602E+02 -0.13142690370E+03  0.14405934170E+03  0.20042121263E+03  0.00000000000E+00 0.  1.
<mgrwt>
<rscale>  0 0.23155544E+04</rscale>
<asrwt>0</asrwt>
<pdfrwt beam="1">  1        1 0.10237650E+00 0.23155544E+04</pdfrwt>
<pdfrwt beam="2">  1       -1 0.30990099E+00 0.23155544E+04</pdfrwt>
<totfact> 0.75625427E-01</totfact>
</mgrwt>
</event>
<event>
12    1  0.1599266E-007  0.1417105E+04  0.7818608E-02  0.8941530E-01
         -2   -1    0    0    0  501 -0.00000000000E+00  0.00000000000E+00  0.24437228179E+03  0.24437228179E+03  0.00000000000E+00 0.  1.
          2   -1    0    0  501    0  0.00000000000E+00 -0.00000000000E+00 -0.20544328624E+04  0.20544328624E+04  0.00000000000E+00 0. -1.
         23    2    1    2    0    0 -0.13439156868E+03 -0.33319494639E+03 -0.16947037978E+03  0.40750370218E+03  0.90879544657E+02 0.  0.
        254    2    1    2    0    0  0.13439156868E+03  0.33319494639E+03 -0.16405902008E+04  0.18913014420E+04  0.86971545427E+03 0.  0.
        -24    2    4    4    0    0 -0.16311057356E+03  0.23926625084E+01  0.75047429258E+01  0.18239197357E+03  0.81238702698E+02 0.  0.
         24    2    4    4    0    0  0.29750214224E+03  0.33080228388E+03 -0.16480949437E+04  0.17089094684E+04  0.78847650507E+02 0.  0.
         13    1    3    3    0    0 -0.82852867455E+02 -0.22749948691E+03 -0.66203316724E+02  0.25100496675E+03  0.00000000000E+00 0.  1.
        -13    1    3    3    0    0 -0.51538701226E+02 -0.10569545948E+03 -0.10326706305E+03  0.15649873543E+03  0.00000000000E+00 0. -1.
          2    1    6    6  502    0  0.30257208978E+03  0.32494029810E+03 -0.16152240613E+04  0.16751372586E+04  0.00000000000E+00 0. -1.
          1    1    5    5  503    0 -0.15654832410E+03  0.16869042865E+02  0.24242533172E+02  0.15930989549E+03  0.00000000000E+00 0. -1.
         -2    1    5    5    0  503 -0.65622494544E+01 -0.14476380356E+02 -0.16737790246E+02  0.23082078079E+02  0.00000000000E+00 0.  1.
         -1    1    6    6    0  502 -0.50699475411E+01  0.58619857863E+01 -0.32870882393E+02  0.33772209800E+02  0.00000000000E+00 0.  1.
<mgrwt>
<rscale>  0 0.14171047E+04</rscale>
<asrwt>0</asrwt>
<pdfrwt beam="1">  1        2 0.31606660E+00 0.14171047E+04</pdfrwt>
<pdfrwt beam="2">  1       -2 0.37595735E-01 0.14171047E+04</pdfrwt>
<totfact> 0.40454246E+01</totfact>
</mgrwt>
</event>
<event>
12    1  0.1599266E-007  0.2828528E+04  0.7818608E-02  0.8294466E-01
         -1   -1    0    0    0  501 -0.00000000000E+00  0.00000000000E+00  0.79721400812E+03  0.79721400812E+03  0.00000000000E+00 0.  1.
          1   -1    0    0  501    0  0.00000000000E+00 -0.00000000000E+00 -0.25089154068E+04  0.25089154068E+04  0.00000000000E+00 0. -1.
         23    2    1    2    0    0 -0.21485007080E+03 -0.25629245890E+03  0.66114437428E+03  0.74651460612E+03  0.91245800373E+02 0.  0.
        254    2    1    2    0    0  0.21485007080E+03  0.25629245890E+03 -0.23728457730E+04  0.25596148088E+04  0.89965800712E+03 0.  0.
        -24    2    4    4    0    0  0.33880689790E+03  0.53808987155E+03 -0.15480171810E+04  0.16756349885E+04  0.84051161924E+02 0.  0.
         24    2    4    4    0    0 -0.12395682710E+03 -0.28179741265E+03 -0.82482859190E+03  0.88397982033E+03  0.79391687026E+02 0.  0.
         11    1    3    3    0    0 -0.11947452516E+03 -0.16015115281E+03  0.48333983438E+03  0.52301046778E+03  0.00000000000E+00 0.  1.
        -11    1    3    3    0    0 -0.95375545640E+02 -0.96141306095E+02  0.17780453990E+03  0.22350413834E+03  0.00000000000E+00 0. -1.
          2    1    6    6  502    0 -0.64767043206E+02 -0.12854534233E+03 -0.27868898502E+03  0.31366578597E+03  0.00000000000E+00 0. -1.
          3    1    5    5  503    0  0.81531521451E+02  0.18603627322E+03 -0.55911640166E+03  0.59486808163E+03  0.00000000000E+00 0. -1.
         -4    1    5    5    0  503  0.25727537645E+03  0.35205359833E+03 -0.98890077939E+03  0.10807669068E+04  0.00000000000E+00 0.  1.
         -1    1    6    6    0  502 -0.59189783897E+02 -0.15325207032E+03 -0.54613960689E+03  0.57031403436E+03  0.00000000000E+00 0.  1.
<mgrwt>
<rscale>  0 0.28285279E+04</rscale>
<asrwt>0</asrwt>
<pdfrwt beam="1">  1        1 0.38598698E+00 0.28285279E+04</pdfrwt>
<pdfrwt beam="2">  1       -1 0.12264831E+00 0.28285279E+04</pdfrwt>
<totfact> 0.67636422E-01</totfact>
</mgrwt>
</event>
<event>
12    1  0.1599266E-007  0.2275887E+04  0.7818608E-02  0.8487490E-01
         -1   -1    0    0    0  501 -0.00000000000E+00  0.00000000000E+00  0.43089480924E+03  0.43089480924E+03  0.00000000000E+00 0.  1.
          1   -1    0    0  501    0  0.00000000000E+00 -0.00000000000E+00 -0.30051780423E+04  0.30051780423E+04  0.00000000000E+00 0. -1.
         23    2    1    2    0    0 -0.58271290542E+03  0.75425728120E+03 -0.97728728566E+03  0.13680103584E+04  0.88901775049E+02 0.  0.
        254    2    1    2    0    0  0.58271290542E+03 -0.75425728120E+03 -0.15969959474E+04  0.20680624931E+04  0.90444902736E+03 0.  0.
        -24    2    4    4    0    0  0.24960159932E+03  0.15990942734E+03 -0.59097543859E+03  0.66621964025E+03  0.82004004189E+02 0.  0.
         24    2    4    4    0    0  0.33311130609E+03 -0.91416670854E+03 -0.10060205088E+04  0.14018428529E+04  0.80138672064E+02 0.  0.
         11    1    3    3    0    0 -0.41255370401E+03  0.51398959825E+03 -0.73012029933E+03  0.98359621660E+03  0.00000000000E+00 0. -1.
        -11    1    3    3    0    0 -0.17015920140E+03  0.24026768295E+03 -0.24716698633E+03  0.38441414181E+03  0.00000000000E+00 0.  1.
          4    1    6    6  502    0 -0.21680890167E+01 -0.16099614726E+02 -0.27979559581E+02  0.32353577216E+02  0.00000000000E+00 0. -1.
          1    1    5    5  503    0  0.13246650344E+03  0.53803743223E+02 -0.34957170242E+03  0.37768054285E+03  0.00000000000E+00 0. -1.
         -2    1    5    5    0  503  0.11713509589E+03  0.10610568412E+03 -0.24140373617E+03  0.28853909740E+03  0.00000000000E+00 0.  1.
         -3    1    6    6    0  502  0.33527939511E+03 -0.89806709382E+03 -0.97804094921E+03  0.13694892756E+04  0.00000000000E+00 0.  1.
<mgrwt>
<rscale>  0 0.22758872E+04</rscale>
<asrwt>0</asrwt>
<pdfrwt beam="1">  1        1 0.46233509E+00 0.22758872E+04</pdfrwt>
<pdfrwt beam="2">  1       -1 0.66291509E-01 0.22758872E+04</pdfrwt>
<totfact> 0.12384596E+00</totfact>
</mgrwt>
</event>
<event>
12    1  0.1599266E-007  0.2933206E+04  0.7818608E-02  0.8263066E-01
         -2   -1    0    0    0  501 -0.00000000000E+00  0.00000000000E+00  0.16655921910E+04  0.16655921910E+04  0.00000000000E+00 0.  1.
          2   -1    0    0  501    0  0.00000000000E+00 -0.00000000000E+00 -0.12913873256E+04  0.12913873256E+04  0.00000000000E+00 0. -1.
         23    2    1    2    0    0 -0.10246526022E+04 -0.17950697720E+03  0.98697119501E+03  0.14368793955E+04  0.91512553762E+02 0.  0.
        254    2    1    2    0    0  0.10246526022E+04  0.17950697720E+03 -0.61276632954E+03  0.15201001211E+04  0.92362659848E+03 0.  0.
        -24    2    4    4    0    0  0.11409637911E+04  0.28517547641E+03 -0.64194714143E+03  0.13421803261E+04  0.78920659342E+02 0.  0.
         24    2    4    4    0    0 -0.11631118894E+03 -0.10566849921E+03  0.29180811885E+02  0.17791979494E+03  0.78165268833E+02 0.  0.
         13    1    3    3    0    0 -0.18201887092E+03 -0.58852126365E+01  0.20583704568E+03  0.27483521330E+03  0.00000000000E+00 0. -1.
        -13    1    3    3    0    0 -0.84263373125E+03 -0.17362176457E+03  0.78113414933E+03  0.11620441822E+04  0.00000000000E+00 0.  1.
          4    1    6    6  502    0 -0.33342975812E+02 -0.35368466530E+02 -0.26910451362E+02  0.55559471318E+02  0.00000000000E+00 0. -1.
          1    1    5    5  503    0  0.30957232593E+03  0.74124060991E+02 -0.13461681858E+03  0.34561696898E+03  0.00000000000E+00 0. -1.
         -2    1    5    5    0  503  0.83139146518E+03  0.21105141542E+03 -0.50733032285E+03  0.99656335714E+03  0.00000000000E+00 0.  1.
         -3    1    6    6    0  502 -0.82968213125E+02 -0.70300032676E+02  0.56091263247E+02  0.12236032362E+03  0.00000000000E+00 0.  1.
<mgrwt>
<rscale>  0 0.29332062E+04</rscale>
<asrwt>0</asrwt>
<pdfrwt beam="1">  1        2 0.19867497E+00 0.29332062E+04</pdfrwt>
<pdfrwt beam="2">  1       -2 0.25624495E+00 0.29332062E+04</pdfrwt>
<totfact> 0.84681372E-01</totfact>
</mgrwt>
</event>
<event>
12    1  0.1599266E-007  0.1469249E+04  0.7818608E-02  0.8905164E-01
          2   -1    0    0  501    0  0.00000000000E+00  0.00000000000E+00  0.10969770235E+04  0.10969770235E+04  0.00000000000E+00 0. -1.
         -2   -1    0    0    0  501 -0.00000000000E+00 -0.00000000000E+00 -0.49196382336E+03  0.49196382336E+03  0.00000000000E+00 0.  1.
         23    2    1    2    0    0  0.15267726742E+03 -0.32888231679E+03 -0.99087562220E+02  0.38631714844E+03  0.89155302163E+02 0.  0.
        254    2    1    2    0    0 -0.15267726742E+03  0.32888231679E+03  0.70410076231E+03  0.12026236984E+04  0.90502593891E+03 0.  0.
        -24    2    4    4    0    0 -0.98859143405E+02 -0.18204913777E+03 -0.10153284955E+03  0.24385806337E+03  0.79011497474E+02 0.  0.
         24    2    4    4    0    0 -0.53818124015E+02  0.51093145457E+03  0.80563361186E+03  0.95876563500E+03  0.78985343970E+02 0.  0.
         11    1    3    3    0    0  0.77161337952E+02 -0.72162847387E+02 -0.23127946523E+02  0.10814920493E+03  0.00000000000E+00 0. -1.
        -11    1    3    3    0    0  0.75515929468E+02 -0.25671946941E+03 -0.75959615697E+02  0.27816794350E+03  0.00000000000E+00 0.  1.
          2    1    6    6  502    0  0.81244601761E+01  0.45082364283E+02  0.11114832951E+03  0.12021804181E+03  0.00000000000E+00 0. -1.
          3    1    5    5  503    0 -0.95469614006E+02 -0.12256535464E+03 -0.45049823944E+02  0.16175969830E+03  0.00000000000E+00 0. -1.
         -4    1    5    5    0  503 -0.33895293983E+01 -0.59483783136E+02 -0.56483025605E+02  0.82098365070E+02  0.00000000000E+00 0.  1.
         -1    1    6    6    0  502 -0.61942584191E+02  0.46584909029E+03  0.69448528235E+03  0.83854759320E+03  0.00000000000E+00 0.  1.
<mgrwt>
<rscale>  0 0.14692488E+04</rscale>
<asrwt>0</asrwt>
<pdfrwt beam="1">  1        2 0.16876570E+00 0.14692488E+04</pdfrwt>
<pdfrwt beam="2">  1       -2 0.75686742E-01 0.14692488E+04</pdfrwt>
<totfact> 0.33162270E+01</totfact>
</mgrwt>
</event>
<event>
12    1  0.1599266E-007  0.1515768E+04  0.7818608E-02  0.8874035E-01
          2   -1    0    0  501    0  0.00000000000E+00  0.00000000000E+00  0.10330268735E+04  0.10330268735E+04  0.00000000000E+00 0. -1.
         -2   -1    0    0    0  501 -0.00000000000E+00 -0.00000000000E+00 -0.55602419875E+03  0.55602419875E+03  0.00000000000E+00 0.  1.
         23    2    1    2    0    0 -0.21830419535E+03 -0.39007186846E+03  0.32608711967E+03  0.56062791588E+03  0.90322013817E+02 0.  0.
        254    2    1    2    0    0  0.21830419535E+03  0.39007186846E+03  0.15091555513E+03  0.10284231564E+04  0.91381940206E+03 0.  0.
        -24    2    4    4    0    0  0.50433279068E+03  0.57641987378E+02  0.25014296768E+03  0.57166695130E+03  0.80977999908E+02 0.  0.
         24    2    4    4    0    0 -0.28602859533E+03  0.33242988108E+03 -0.99227412554E+02  0.45675620510E+03  0.80362729630E+02 0.  0.
         11    1    3    3    0    0 -0.11937442669E+03 -0.23006405867E+03  0.24187398391E+03  0.35451762852E+03  0.00000000000E+00 0. -1.
        -11    1    3    3    0    0 -0.98929768654E+02 -0.16000780980E+03  0.84213135752E+02  0.20611028736E+03  0.00000000000E+00 0.  1.
          2    1    6    6  502    0 -0.16742652470E+03  0.24148136524E+03 -0.88635541323E+02  0.30692205870E+03  0.00000000000E+00 0. -1.
          3    1    5    5  503    0  0.35965645792E+03  0.77000992314E+01  0.15705699950E+03  0.39252892931E+03  0.00000000000E+00 0. -1.
         -4    1    5    5    0  503  0.14467633276E+03  0.49941888146E+02  0.93085968181E+02  0.17913802200E+03  0.00000000000E+00 0.  1.
         -1    1    6    6    0  502 -0.11860207063E+03  0.90948515847E+02 -0.10591871232E+02  0.14983414641E+03  0.00000000000E+00 0.  1.
<mgrwt>
<rscale>  0 0.15157677E+04</rscale>
<asrwt>0</asrwt>
<pdfrwt beam="1">  1        2 0.15892721E+00 0.15157677E+04</pdfrwt>
<pdfrwt beam="2">  1       -2 0.85542184E-01 0.15157677E+04</pdfrwt>
<totfact> 0.27504645E+01</totfact>
</mgrwt>
</event>
<event>
12    1  0.1599266E-007  0.1504087E+04  0.7818608E-02  0.8881740E-01
          2   -1    0    0  501    0  0.00000000000E+00  0.00000000000E+00  0.15861211958E+04  0.15861211958E+04  0.00000000000E+00 0.  1.
         -2   -1    0    0    0  501 -0.00000000000E+00 -0.00000000000E+00 -0.35657376014E+03  0.35657376014E+03  0.00000000000E+00 0. -1.
         23    2    1    2    0    0  0.12712365852E+03 -0.29746953876E+03  0.91559353126E+03  0.97527842532E+03  0.90597689573E+02 0.  0.
        254    2    1    2    0    0 -0.12712365852E+03  0.29746953876E+03  0.31395390436E+03  0.96741653058E+03  0.85596678588E+03 0.  0.
        -24    2    4    4    0    0  0.34699920451E+02  0.50319737600E+03  0.43205405953E+03  0.66885776258E+03  0.79298880941E+02 0.  0.
         24    2    4    4    0    0 -0.16182357897E+03 -0.20572783724E+03 -0.11810015518E+03  0.29855876799E+03  0.81724400063E+02 0.  0.
         11    1    3    3    0    0  0.68894089148E+02 -0.25380767371E+03  0.70414216078E+03  0.75165212255E+03  0.00000000000E+00 0. -1.
        -11    1    3    3    0    0  0.58229569374E+02 -0.43661865056E+02  0.21145137048E+03  0.22362630277E+03  0.00000000000E+00 0.  1.
          4    1    6    6  502    0 -0.16842144191E+03 -0.17770809846E+03 -0.11146729488E+03  0.26901841606E+03  0.00000000000E+00 0. -1.
          3    1    5    5  503    0 -0.93801365976E+01  0.18100297440E+03  0.19642506226E+03  0.26726928141E+03  0.00000000000E+00 0. -1.
         -4    1    5    5    0  503  0.44080057049E+02  0.32219440160E+03  0.23562899727E+03  0.40158848117E+03  0.00000000000E+00 0.  1.
         -3    1    6    6    0  502  0.65978629332E+01 -0.28019738779E+02 -0.66328602984E+01  0.29540351932E+02  0.00000000000E+00 0.  1.
<mgrwt>
<rscale>  0 0.15040867E+04</rscale>
<asrwt>0</asrwt>
<pdfrwt beam="1">  1        2 0.24401864E+00 0.15040867E+04</pdfrwt>
<pdfrwt beam="2">  1       -2 0.54857502E-01 0.15040867E+04</pdfrwt>
<totfact> 0.34272635E+01</totfact>
</mgrwt>
</event>
<event>
12    1  0.1599266E-007  0.1979317E+04  0.7818608E-02  0.8616352E-01
         -1   -1    0    0    0  501 -0.00000000000E+00  0.00000000000E+00  0.67002564379E+03  0.67002564379E+03  0.00000000000E+00 0.  1.
          1   -1    0    0  501    0  0.00000000000E+00 -0.00000000000E+00 -0.14617702640E+04  0.14617702640E+04  0.00000000000E+00 0. -1.
         23    2    1    2    0    0  0.54368433597E+03 -0.55018729179E+03 -0.41349359200E+03  0.88180798169E+03  0.91157296531E+02 0.  0.
        254    2    1    2    0    0 -0.54368433597E+03  0.55018729179E+03 -0.37825102825E+03  0.12499879261E+04  0.90614417279E+03 0.  0.
        -24    2    4    4    0    0 -0.17243996279E+03  0.65769188743E+03  0.26777510266E+02  0.68461182564E+03  0.75380084895E+02 0.  0.
         24    2    4    4    0    0 -0.37124437318E+03 -0.10750459563E+03 -0.40502853852E+03  0.56537610050E+03  0.78882160852E+02 0.  0.
         13    1    3    3    0    0  0.46132108113E+03 -0.44372950807E+03 -0.37484710387E+03  0.74177042776E+03  0.00000000000E+00 0. -1.
        -13    1    3    3    0    0  0.82363254848E+02 -0.10645778373E+03 -0.38646488124E+02  0.14003755392E+03  0.00000000000E+00 0.  1.
          2    1    6    6  502    0 -0.18733162374E+03 -0.74448852613E+02 -0.16078817490E+03  0.25785384639E+03  0.00000000000E+00 0. -1.
          3    1    5    5  503    0 -0.94359636638E+02  0.23203511750E+03 -0.65339189735E+01  0.25057280155E+03  0.00000000000E+00 0. -1.
         -2    1    5    5    0  503 -0.78080326156E+02  0.42565676993E+03  0.33311429240E+02  0.43403902409E+03  0.00000000000E+00 0.  1.
         -3    1    6    6    0  502 -0.18391274944E+03 -0.33055743018E+02 -0.24424036362E+03  0.30752225411E+03  0.00000000000E+00 0.  1.
<mgrwt>
<rscale>  0 0.19793166E+04</rscale>
<asrwt>0</asrwt>
<pdfrwt beam="1">  1        1 0.22488773E+00 0.19793166E+04</pdfrwt>
<pdfrwt beam="2">  1       -1 0.10308087E+00 0.19793166E+04</pdfrwt>
<totfact> 0.57434370E+00</totfact>
</mgrwt>
</event>
<event>
12    1  0.1599266E-007  0.1095152E+04  0.7818608E-02  0.9209930E-01
         -2   -1    0    0    0  501 -0.00000000000E+00  0.00000000000E+00  0.14569932007E+04  0.14569932007E+04  0.00000000000E+00 0.  1.
          2   -1    0    0  501    0  0.00000000000E+00 -0.00000000000E+00 -0.20579324272E+03  0.20579324272E+03  0.00000000000E+00 0. -1.
         23    2    1    2    0    0  0.14315376571E+02  0.86304804476E+02  0.12648928028E+02  0.12737391219E+03  0.91709698751E+02 0.  0.
        254    2    1    2    0    0 -0.14315376571E+02 -0.86304804476E+02  0.12385510300E+04  0.15354125313E+04  0.90323282602E+03 0.  0.
        -24    2    4    4    0    0 -0.41183983209E+03 -0.37466165671E+02  0.93739386115E+03  0.10277396663E+04  0.80782485697E+02 0.  0.
         24    2    4    4    0    0  0.39752445552E+03 -0.48838638805E+02  0.30115716885E+03  0.50767286493E+03  0.81395282780E+02 0.  0.
         11    1    3    3    0    0  0.26088786254E+02  0.93544027239E+02 -0.13254217941E+02  0.98014203530E+02  0.00000000000E+00 0. -1.
        -11    1    3    3    0    0 -0.11773409682E+02 -0.72392227628E+01  0.25903145968E+02  0.29359708664E+02  0.00000000000E+00 0.  1.
          2    1    6    6  502    0  0.13484439805E+03 -0.49439602505E+02  0.80706151747E+02  0.16474455655E+03  0.00000000000E+00 0. -1.
          1    1    5    5  503    0 -0.40089788329E+01 -0.10447912673E+02  0.13934743807E+02  0.17871985773E+02  0.00000000000E+00 0. -1.
         -2    1    5    5    0  503 -0.40783085326E+03 -0.27018252997E+02  0.92345911735E+03  0.10098676806E+04  0.00000000000E+00 0.  1.
         -1    1    6    6    0  502  0.26268005746E+03  0.60096369911E+00  0.22045101710E+03  0.34292830838E+03  0.00000000000E+00 0.  1.
<mgrwt>
<rscale>  0 0.10951518E+04</rscale>
<asrwt>0</asrwt>
<pdfrwt beam="1">  1        2 0.31660500E-01 0.10951518E+04</pdfrwt>
<pdfrwt beam="2">  1       -2 0.22415279E+00 0.10951518E+04</pdfrwt>
<totfact> 0.15508618E+01</totfact>
</mgrwt>
</event>
<event>
12    1  0.1599266E-007  0.1357117E+04  0.7818608E-02  0.8985458E-01
          1   -1    0    0  501    0  0.00000000000E+00  0.00000000000E+00  0.44678070996E+03  0.44678070996E+03  0.00000000000E+00 0. -1.
         -1   -1    0    0    0  501 -0.00000000000E+00 -0.00000000000E+00 -0.10305766651E+04  0.10305766651E+04  0.00000000000E+00 0.  1.
         23    2    1    2    0    0 -0.20327663005E+03 -0.10672920360E+01  0.14097819631E+03  0.26280841752E+03  0.88718008591E+02 0.  0.
        254    2    1    2    0    0  0.20327663005E+03  0.10672920360E+01 -0.72477415142E+03  0.12145489575E+04  0.95315742256E+03 0.  0.
        -24    2    4    4    0    0 -0.38448781239E+01  0.34482780645E+03 -0.72343872436E+03  0.80542410883E+03  0.80146166423E+02 0.  0.
         24    2    4    4    0    0  0.20712150817E+03 -0.34376051441E+03 -0.13354270672E+01  0.40912484868E+03  0.79440216667E+02 0.  0.
         11    1    3    3    0    0 -0.16426230615E+03  0.20698165812E+02  0.71802605306E+02  0.18046089166E+03  0.00000000000E+00 0. -1.
        -11    1    3    3    0    0 -0.39014323897E+02 -0.21765457848E+02  0.69175591003E+02  0.82347525859E+02  0.00000000000E+00 0.  1.
          2    1    6    6  502    0  0.62303092813E+02 -0.58483567953E+02  0.22328222693E+02  0.88320737221E+02  0.00000000000E+00 0. -1.
          3    1    5    5  503    0  0.28406349563E+02  0.20677796715E+03 -0.37355468207E+03  0.42791021125E+03  0.00000000000E+00 0. -1.
         -4    1    5    5    0  503 -0.32251227687E+02  0.13804983930E+03 -0.34988404229E+03  0.37751389758E+03  0.00000000000E+00 0.  1.
         -1    1    6    6    0  502  0.14481841536E+03 -0.28527694646E+03 -0.23663649760E+02  0.32080411146E+03  0.00000000000E+00 0.  1.
<mgrwt>
<rscale>  0 0.13571172E+04</rscale>
<asrwt>0</asrwt>
<pdfrwt beam="1">  1        1 0.68735495E-01 0.13571172E+04</pdfrwt>
<pdfrwt beam="2">  1       -1 0.15855025E+00 0.13571172E+04</pdfrwt>
<totfact> 0.15162152E+01</totfact>
</mgrwt>
</event>
<event>
12    1  0.1599266E-007  0.1472590E+04  0.7818608E-02  0.8902888E-01
          2   -1    0    0  501    0  0.00000000000E+00  0.00000000000E+00  0.17852700498E+04  0.17852700498E+04  0.00000000000E+00 0. -1.
         -2   -1    0    0    0  501 -0.00000000000E+00 -0.00000000000E+00 -0.30366854038E+03  0.30366854038E+03  0.00000000000E+00 0.  1.
         23    2    1    2    0    0  0.27078567985E+03  0.37439274151E+03  0.51788653778E+03  0.70029642597E+03  0.93347784682E+02 0.  0.
        254    2    1    2    0    0 -0.27078567985E+03 -0.37439274151E+03  0.96371497168E+03  0.13886421642E+04  0.88661474406E+03 0.  0.
        -24    2    4    4    0    0 -0.26685932754E+03  0.11997948605E+03  0.80834834445E+00  0.30326949740E+03  0.79766890768E+02 0.  0.
         24    2    4    4    0    0 -0.39263523135E+01 -0.49437222755E+03  0.96290662334E+03  0.10853726668E+04  0.80158250063E+02 0.  0.
         11    1    3    3    0    0  0.29204410375E+02  0.69749495771E+02  0.44614815321E+02  0.87797331917E+02  0.00000000000E+00 0. -1.
        -11    1    3    3    0    0  0.24158126948E+03  0.30464324573E+03  0.47327172246E+03  0.61249909405E+03  0.00000000000E+00 0.  1.
          4    1    6    6  502    0  0.18242447665E+02 -0.13680604403E+03  0.20595464975E+03  0.24792337190E+03  0.00000000000E+00 0. -1.
          3    1    5    5  503    0 -0.77893098421E+02  0.70975052772E+02  0.19469028235E+02  0.10716266121E+03  0.00000000000E+00 0. -1.
         -4    1    5    5    0  503 -0.18896622912E+03  0.49004433273E+02 -0.18660679891E+02  0.19610683619E+03  0.00000000000E+00 0.  1.
         -3    1    6    6    0  502 -0.22168799978E+02 -0.35756618352E+03  0.75695197358E+03  0.83744929494E+03  0.00000000000E+00 0.  1.
<mgrwt>
<rscale>  0 0.14725900E+04</rscale>
<asrwt>0</asrwt>
<pdfrwt beam="1">  1        2 0.27465693E+00 0.14725900E+04</pdfrwt>
<pdfrwt beam="2">  1       -2 0.46718238E-01 0.14725900E+04</pdfrwt>
<totfact> 0.36974073E+01</totfact>
</mgrwt>
</event>
<event>
12    1  0.1599266E-007  0.1154796E+04  0.7818608E-02  0.9153370E-01
          3   -1    0    0  501    0  0.00000000000E+00  0.00000000000E+00  0.33618075915E+03  0.33618075915E+03  0.00000000000E+00 0. -1.
         -3   -1    0    0    0  501 -0.00000000000E+00 -0.00000000000E+00 -0.99169387162E+03  0.99169387162E+03  0.00000000000E+00 0.  1.
         23    2    1    2    0    0  0.10673904815E+03 -0.15408456152E+03 -0.13279164693E+02  0.20867260405E+03  0.90733913001E+02 0.  0.
        254    2    1    2    0    0 -0.10673904815E+03  0.15408456152E+03 -0.64223394778E+03  0.11192020267E+04  0.89722542119E+03 0.  0.
        -24    2    4    4    0    0  0.36757662639E+03 -0.53469590730E+02 -0.17958407246E+03  0.42042161366E+03  0.80822773734E+02 0.  0.
         24    2    4    4    0    0 -0.47431567453E+03  0.20755415225E+03 -0.46264987532E+03  0.69878041306E+03  0.78708788068E+02 0.  0.
         11    1    3    3    0    0  0.10802295934E+03 -0.16481202563E+03 -0.15412093955E+02  0.19766005205E+03  0.00000000000E+00 0. -1.
        -11    1    3    3    0    0 -0.12839111926E+01  0.10727464113E+02  0.21329292624E+01  0.11012551997E+02  0.00000000000E+00 0.  1.
          4    1    6    6  502    0 -0.31384537437E+03  0.15057243006E+03 -0.35572990904E+03  0.49770949749E+03  0.00000000000E+00 0. -1.
          3    1    5    5  503    0  0.36896946354E+03 -0.54842652882E+02 -0.18374601911E+03  0.41582301660E+03  0.00000000000E+00 0. -1.
         -4    1    5    5    0  503 -0.13928371542E+01  0.13730621522E+01  0.41619466459E+01  0.45985970573E+01  0.00000000000E+00 0.  1.
         -3    1    6    6    0  502 -0.16047030017E+03  0.56981722190E+02 -0.10691996628E+03  0.20107091557E+03  0.00000000000E+00 0.  1.
<mgrwt>
<rscale>  0 0.11547959E+04</rscale>
<asrwt>0</asrwt>
<pdfrwt beam="1">  1        3 0.51720116E-01 0.11547959E+04</pdfrwt>
<pdfrwt beam="2">  1       -3 0.15256829E+00 0.11547959E+04</pdfrwt>
<totfact> 0.29622306E+00</totfact>
</mgrwt>
</event>
<event>
12    1  0.1599266E-007  0.2101088E+04  0.7818608E-02  0.8560764E-01
         -1   -1    0    0    0  501 -0.00000000000E+00  0.00000000000E+00  0.29142909947E+03  0.29142909947E+03  0.00000000000E+00 0.  1.
          1   -1    0    0  501    0  0.00000000000E+00 -0.00000000000E+00 -0.37870039001E+04  0.37870039001E+04  0.00000000000E+00 0. -1.
         23    2    1    2    0    0 -0.54124880535E+03 -0.57801952309E+03 -0.80122110681E+03  0.11303573103E+04  0.93249925808E+02 0.  0.
        254    2    1    2    0    0  0.54124880535E+03  0.57801952309E+03 -0.26943536938E+04  0.29480756893E+04  0.89696800597E+03 0.  0.
        -24    2    4    4    0    0  0.47141126817E+03  0.45722990809E+03 -0.76355441211E+03  0.10105903057E+04  0.83604145268E+02 0.  0.
         24    2    4    4    0    0  0.69837537171E+02  0.12078961501E+03 -0.19307992817E+04  0.19374853836E+04  0.79977074845E+02 0.  0.
         11    1    3    3    0    0 -0.11549813669E+03 -0.82003594419E+02 -0.11322928618E+03  0.18134299083E+03  0.00000000000E+00 0. -1.
        -11    1    3    3    0    0 -0.42575066866E+03 -0.49601592868E+03 -0.68799182063E+03  0.94901431950E+03  0.00000000000E+00 0.  1.
          2    1    6    6  502    0  0.87543612835E+02  0.10775782655E+03 -0.16685885816E+04  0.16743546482E+04  0.00000000000E+00 0. -1.
          1    1    5    5  503    0  0.27384807075E+03  0.31918369761E+03 -0.46730925560E+03  0.62868826858E+03  0.00000000000E+00 0. -1.
         -2    1    5    5    0  503  0.19756319742E+03  0.13804621048E+03 -0.29624515651E+03  0.38190203712E+03  0.00000000000E+00 0.  1.
         -1    1    6    6    0  502 -0.17706075664E+02  0.13031788462E+02 -0.26221070009E+03  0.26313073532E+03  0.00000000000E+00 0.  1.
<mgrwt>
<rscale>  0 0.21010884E+04</rscale>
<asrwt>0</asrwt>
<pdfrwt beam="1">  1        1 0.58261597E+00 0.21010884E+04</pdfrwt>
<pdfrwt beam="2">  1       -1 0.44835248E-01 0.21010884E+04</pdfrwt>
<totfact> 0.66621220E-01</totfact>
</mgrwt>
</event>
<event>
12    1  0.1599266E-007  0.1204116E+04  0.7818608E-02  0.9109261E-01
         -1   -1    0    0    0  501 -0.00000000000E+00  0.00000000000E+00  0.57245191784E+03  0.57245191784E+03  0.00000000000E+00 0.  1.
          1   -1    0    0  501    0  0.00000000000E+00 -0.00000000000E+00 -0.63319532196E+03  0.63319532196E+03  0.00000000000E+00 0. -1.
         23    2    1    2    0    0  0.17952805280E+03 -0.14955444267E+03  0.92802333204E+02  0.26725395155E+03  0.90639663007E+02 0.  0.
        254    2    1    2    0    0 -0.17952805280E+03  0.14955444267E+03 -0.15354573732E+03  0.93839328825E+03  0.89577274848E+03 0.  0.
        -24    2    4    4    0    0  0.11649512304E+03 -0.25723620456E+03 -0.28838514000E+03  0.41171182567E+03  0.81234597245E+02 0.  0.
         24    2    4    4    0    0 -0.29602317584E+03  0.40679064723E+03  0.13483940268E+03  0.52668146258E+03  0.78123922094E+02 0.  0.
         13    1    3    3    0    0 -0.67356228357E+00 -0.17009614489E+01  0.24206064183E+02  0.24275100396E+02  0.00000000000E+00 0. -1.
        -13    1    3    3    0    0  0.18020161508E+03 -0.14785348122E+03  0.68596269021E+02  0.24297885116E+03  0.00000000000E+00 0.  1.
          4    1    6    6  502    0 -0.19046588426E+03  0.31245369676E+03  0.11593317448E+03  0.38385552833E+03  0.00000000000E+00 0. -1.
          3    1    5    5  503    0  0.23540142267E+02 -0.94346073289E+02 -0.14949084908E+03  0.17833349041E+03  0.00000000000E+00 0. -1.
         -4    1    5    5    0  503  0.92954980772E+02 -0.16289013128E+03 -0.13889429093E+03  0.23337833526E+03  0.00000000000E+00 0.  1.
         -3    1    6    6    0  502 -0.10555729158E+03  0.94336950469E+02  0.18906228204E+02  0.14282593425E+03  0.00000000000E+00 0.  1.
<mgrwt>
<rscale>  0 0.12041161E+04</rscale>
<asrwt>0</asrwt>
<pdfrwt beam="1">  1        1 0.97414666E-01 0.12041161E+04</pdfrwt>
<pdfrwt beam="2">  1       -1 0.88069525E-01 0.12041161E+04</pdfrwt>
<totfact> 0.39711183E+01</totfact>
</mgrwt>
</event>
<event>
12    1  0.1599266E-007  0.1940285E+04  0.7818608E-02  0.8635060E-01
         -1   -1    0    0    0  501 -0.00000000000E+00  0.00000000000E+00  0.14242674683E+04  0.14242674683E+04  0.00000000000E+00 0.  1.
          1   -1    0    0  501    0  0.00000000000E+00 -0.00000000000E+00 -0.66081457450E+03  0.66081457450E+03  0.00000000000E+00 0. -1.
         23    2    1    2    0    0  0.32084576917E+03  0.71108873490E+03  0.38103414239E+03  0.87246020535E+03  0.86084817219E+02 0.  0.
        254    2    1    2    0    0 -0.32084576917E+03 -0.71108873490E+03  0.38241875144E+03  0.12126218375E+04  0.84594232831E+03 0.  0.
        -24    2    4    4    0    0  0.23804197767E+03 -0.44992126213E+03  0.81315648189E+02  0.52156996791E+03  0.79560489801E+02 0.  0.
         24    2    4    4    0    0 -0.55888774684E+03 -0.26116747276E+03  0.30110310326E+03  0.69105186959E+03  0.79533925282E+02 0.  0.
         11    1    3    3    0    0 -0.50761316207E+01  0.54812681114E+01  0.20728281325E+01  0.77529367859E+01  0.00000000000E+00 0. -1.
        -11    1    3    3    0    0  0.32592190079E+03  0.70560746678E+03  0.37896131426E+03  0.86470726856E+03  0.00000000000E+00 0.  1.
          4    1    6    6  502    0 -0.11122797768E+03 -0.85755144889E+02  0.82531522618E+02  0.16290199544E+03  0.00000000000E+00 0. -1.
          1    1    5    5  503    0  0.13590649023E+03 -0.18726938089E+03  0.13888615628E+02  0.23180441918E+03  0.00000000000E+00 0. -1.
         -4    1    5    5    0  503  0.10213548744E+03 -0.26265188124E+03  0.67427032561E+02  0.28976554874E+03  0.00000000000E+00 0.  1.
         -3    1    6    6    0  502 -0.44765976916E+03 -0.17541232788E+03  0.21857158064E+03  0.52814987414E+03  0.00000000000E+00 0.  1.
<mgrwt>
<rscale>  0 0.19402852E+04</rscale>
<asrwt>0</asrwt>
<pdfrwt beam="1">  1        1 0.10166378E+00 0.19402852E+04</pdfrwt>
<pdfrwt beam="2">  1       -1 0.21911807E+00 0.19402852E+04</pdfrwt>
<totfact> 0.30906965E+00</totfact>
</mgrwt>
</event>
<event>
12    1  0.1599266E-007  0.1230233E+04  0.7818608E-02  0.9086798E-01
          2   -1    0    0  501    0  0.00000000000E+00  0.00000000000E+00  0.21292733795E+04  0.21292733795E+04  0.00000000000E+00 0. -1.
         -2   -1    0    0    0  501 -0.00000000000E+00 -0.00000000000E+00 -0.17769827154E+03  0.17769827154E+03  0.00000000000E+00 0.  1.
         23    2    1    2    0    0 -0.23778306823E+03 -0.35375309002E+01  0.20737033072E+03  0.32846275715E+03  0.91279938159E+02 0.  0.
        254    2    1    2    0    0  0.23778306823E+03  0.35375309002E+01  0.17442047772E+04  0.19785088939E+04  0.90315770304E+03 0.  0.
        -24    2    4    4    0    0  0.28427028935E+03 -0.36660870667E+03  0.13509595257E+04  0.14306862037E+04  0.80992790511E+02 0.  0.
         24    2    4    4    0    0 -0.46487221121E+02  0.37014623757E+03  0.39324525152E+03  0.54782269018E+03  0.79363550284E+02 0.  0.
         13    1    3    3    0    0 -0.11736826669E+03  0.21411011690E+02  0.15297360705E+03  0.19399656157E+03  0.00000000000E+00 0. -1.
        -13    1    3    3    0    0 -0.12041480154E+03 -0.24948542590E+02  0.54396723666E+02  0.13446619558E+03  0.00000000000E+00 0.  1.
          2    1    6    6  502    0 -0.60945225788E+02  0.19284625452E+03  0.23139782017E+03  0.30732547829E+03  0.00000000000E+00 0. -1.
          1    1    5    5  503    0  0.22976208545E+03 -0.28810273884E+03  0.96219380386E+03  0.10303449521E+04  0.00000000000E+00 0. -1.
         -2    1    5    5    0  503  0.54508203896E+02 -0.78505967834E+02  0.38876572184E+03  0.40034125163E+03  0.00000000000E+00 0.  1.
         -1    1    6    6    0  502  0.14458004667E+02  0.17729998306E+03  0.16184743135E+03  0.24049721189E+03  0.00000000000E+00 0.  1.
<mgrwt>
<rscale>  0 0.12302328E+04</rscale>
<asrwt>0</asrwt>
<pdfrwt beam="1">  1        2 0.32758050E+00 0.12302328E+04</pdfrwt>
<pdfrwt beam="2">  1       -2 0.27338197E-01 0.12302328E+04</pdfrwt>
<totfact> 0.68029053E+01</totfact>
</mgrwt>
</event>
<event>
12    1  0.1599266E-007  0.1553777E+04  0.7818608E-02  0.8849459E-01
          2   -1    0    0  501    0  0.00000000000E+00  0.00000000000E+00  0.14003302457E+04  0.14003302457E+04  0.00000000000E+00 0. -1.
         -2   -1    0    0    0  501 -0.00000000000E+00 -0.00000000000E+00 -0.43100977458E+03  0.43100977458E+03  0.00000000000E+00 0.  1.
         23    2    1    2    0    0 -0.14874172216E+03  0.17455272660E+03 -0.19728836826E+03  0.31635457385E+03  0.92545998680E+02 0.  0.
        254    2    1    2    0    0  0.14874172216E+03 -0.17455272660E+03  0.11666088394E+04  0.15149854465E+04  0.93894193884E+03 0.  0.
        -24    2    4    4    0    0  0.12570257552E+03  0.21556519873E+02  0.12696636689E+04  0.12785340440E+04  0.79609349157E+02 0.  0.
         24    2    4    4    0    0  0.23039146633E+02 -0.19610924647E+03 -0.10305482946E+03  0.23645140250E+03  0.79368312573E+02 0.  0.
         13    1    3    3    0    0 -0.53748955940E+01  0.69099816801E+02 -0.57063665116E+02  0.89777146652E+02  0.00000000000E+00 0. -1.
        -13    1    3    3    0    0 -0.14336682656E+03  0.10545290980E+03 -0.14022470314E+03  0.22657742720E+03  0.00000000000E+00 0.  1.
          4    1    6    6  502    0  0.44800719538E+02 -0.10560418915E+03 -0.82019483029E+02  0.14101966116E+03  0.00000000000E+00 0. -1.
          1    1    5    5  503    0  0.12005378906E+03 -0.79110293614E+01  0.10256522926E+04  0.10326849093E+04  0.00000000000E+00 0. -1.
         -2    1    5    5    0  503  0.56487864637E+01  0.29467549235E+02  0.24401137630E+03  0.24584913466E+03  0.00000000000E+00 0.  1.
         -3    1    6    6    0  502 -0.21761572905E+02 -0.90505057324E+02 -0.21035346431E+02  0.95431741344E+02  0.00000000000E+00 0.  1.
<mgrwt>
<rscale>  0 0.15537774E+04</rscale>
<asrwt>0</asrwt>
<pdfrwt beam="1">  1        2 0.21543542E+00 0.15537774E+04</pdfrwt>
<pdfrwt beam="2">  1       -2 0.66309197E-01 0.15537774E+04</pdfrwt>
<totfact> 0.29106376E+01</totfact>
</mgrwt>
</event>
<event>
12    1  0.1599266E-007  0.1791361E+04  0.7818608E-02  0.8710907E-01
         -2   -1    0    0    0  501 -0.00000000000E+00  0.00000000000E+00  0.61122015658E+03  0.61122015658E+03  0.00000000000E+00 0.  1.
          2   -1    0    0  501    0  0.00000000000E+00 -0.00000000000E+00 -0.13125276435E+04  0.13125276435E+04  0.00000000000E+00 0. -1.
         23    2    1    2    0    0 -0.27505925394E+03 -0.33299591060E+02  0.36483506361E+03  0.46667176191E+03  0.88946353383E+02 0.  0.
        254    2    1    2    0    0  0.27505925394E+03  0.33299591060E+02 -0.10661425505E+04  0.14570760381E+04  0.95375268648E+03 0.  0.
        -24    2    4    4    0    0  0.31043977393E+02  0.19634606107E+03 -0.11269995366E+04  0.11472023649E+04  0.80186072686E+02 0.  0.
         24    2    4    4    0    0  0.24401527655E+03 -0.16304647001E+03  0.60856986119E+02  0.30987367324E+03  0.78679819737E+02 0.  0.
         11    1    3    3    0    0 -0.23828659014E+03 -0.66388924768E+01  0.33898722128E+03  0.41441152267E+03  0.00000000000E+00 0.  1.
        -11    1    3    3    0    0 -0.36772663805E+02 -0.26660698583E+02  0.25847842339E+02  0.52260239244E+02  0.00000000000E+00 0. -1.
          4    1    6    6  502    0  0.23848990494E+03 -0.17148676044E+03  0.58441748751E+02  0.29950055386E+03  0.00000000000E+00 0. -1.
          1    1    5    5  503    0  0.26400953034E+02  0.13770824769E+03 -0.95914411578E+03  0.96933895343E+03  0.00000000000E+00 0. -1.
         -2    1    5    5    0  503  0.46430243584E+01  0.58637813375E+02 -0.16785542084E+03  0.17786341146E+03  0.00000000000E+00 0.  1.
         -3    1    6    6    0  502  0.55253716159E+01  0.84402904360E+01  0.24152373684E+01  0.10373119381E+02  0.00000000000E+00 0.  1.
<mgrwt>
<rscale>  0 0.17913608E+04</rscale>
<asrwt>0</asrwt>
<pdfrwt beam="1">  1        2 0.20192733E+00 0.17913608E+04</pdfrwt>
<pdfrwt beam="2">  1       -2 0.94033872E-01 0.17913608E+04</pdfrwt>
<totfact> 0.14660766E+01</totfact>
</mgrwt>
</event>
<event>
12    1  0.1599266E-007  0.2070063E+04  0.7818608E-02  0.8574547E-01
         -1   -1    0    0    0  501 -0.00000000000E+00  0.00000000000E+00  0.68347221135E+03  0.68347221135E+03  0.00000000000E+00 0.  1.
          1   -1    0    0  501    0  0.00000000000E+00 -0.00000000000E+00 -0.15674228180E+04  0.15674228180E+04  0.00000000000E+00 0. -1.
         23    2    1    2    0    0  0.13821479485E+03  0.52234894000E+03  0.33602798603E+03  0.64304744925E+03  0.92970263773E+02 0.  0.
        254    2    1    2    0    0 -0.13821479485E+03 -0.52234894000E+03 -0.12199785927E+04  0.16078475801E+04  0.89714788615E+03 0.  0.
        -24    2    4    4    0    0 -0.44281228838E+03 -0.20088732017E+02 -0.45479726987E+03  0.63997887246E+03  0.79032402336E+02 0.  0.
         24    2    4    4    0    0  0.30459749353E+03 -0.50226020799E+03 -0.76518132282E+03  0.96786870766E+03  0.78882373716E+02 0.  0.
         13    1    3    3    0    0  0.56962210477E+02  0.31801858660E+03  0.15555729225E+03  0.35857856324E+03  0.00000000000E+00 0.  1.
        -13    1    3    3    0    0  0.81252584375E+02  0.20433035340E+03  0.18047069378E+03  0.28446888600E+03  0.00000000000E+00 0. -1.
          4    1    6    6  502    0  0.22300567017E+03 -0.42668190080E+03 -0.61879232962E+03  0.78402354594E+03  0.00000000000E+00 0. -1.
          1    1    5    5  503    0 -0.39784624102E+03 -0.11141331936E+02 -0.36919833813E+03  0.54287491529E+03  0.00000000000E+00 0. -1.
         -2    1    5    5    0  503 -0.44966047359E+02 -0.89474000805E+01 -0.85598931738E+02  0.97103957170E+02  0.00000000000E+00 0.  1.
         -3    1    6    6    0  502  0.81591823359E+02 -0.75578307192E+02 -0.14638899320E+03  0.18384516172E+03  0.00000000000E+00 0.  1.
<mgrwt>
<rscale>  0 0.20700627E+04</rscale>
<asrwt>0</asrwt>
<pdfrwt beam="1">  1        1 0.24114197E+00 0.20700627E+04</pdfrwt>
<pdfrwt beam="2">  1       -1 0.10514957E+00 0.20700627E+04</pdfrwt>
<totfact> 0.45969885E+00</totfact>
</mgrwt>
</event>
<event>
12    1  0.1599266E-007  0.1513542E+04  0.7818608E-02  0.8875498E-01
          2   -1    0    0  501    0  0.00000000000E+00  0.00000000000E+00  0.22509044858E+03  0.22509044858E+03  0.00000000000E+00 0. -1.
         -2   -1    0    0    0  501 -0.00000000000E+00 -0.00000000000E+00 -0.25443193211E+04  0.25443193211E+04  0.00000000000E+00 0.  1.
         23    2    1    2    0    0 -0.38539357148E+03 -0.28827462688E+03 -0.57955927333E+03  0.75877080637E+03  0.90629574882E+02 0.  0.
        254    2    1    2    0    0  0.38539357148E+03  0.28827462688E+03 -0.17396695992E+04  0.20106389634E+04  0.88576986913E+03 0.  0.
        -24    2    4    4    0    0  0.48987894104E+03  0.22810277438E+03 -0.43474957980E+03  0.69787326038E+03  0.77508953435E+02 0.  0.
         24    2    4    4    0    0 -0.10448536956E+03  0.60171852502E+02 -0.13049200194E+04  0.13127657030E+04  0.77457662819E+02 0.  0.
         11    1    3    3    0    0  0.12367740113E+01 -0.84002698607E+01 -0.71346705390E+00  0.85207499039E+01  0.00000000000E+00 0.  1.
        -11    1    3    3    0    0 -0.38663034550E+03 -0.27987435702E+03 -0.57884580628E+03  0.75025005646E+03  0.00000000000E+00 0. -1.
          4    1    6    6  502    0 -0.24094053100E+02  0.34100909590E+02 -0.18463080581E+03  0.18929323782E+03  0.00000000000E+00 0. -1.
          3    1    5    5  503    0  0.18390496310E+03  0.11662940447E+03 -0.20728134884E+03  0.30064765260E+03  0.00000000000E+00 0. -1.
         -4    1    5    5    0  503  0.30597397795E+03  0.11147336991E+03 -0.22746823096E+03  0.39722560778E+03  0.00000000000E+00 0.  1.
         -3    1    6    6    0  502 -0.80391316458E+02  0.26070942913E+02 -0.11202892136E+04  0.11234724652E+04  0.00000000000E+00 0.  1.
<mgrwt>
<rscale>  0 0.15135415E+04</rscale>
<asrwt>0</asrwt>
<pdfrwt beam="1">  1        2 0.34629301E-01 0.15135415E+04</pdfrwt>
<pdfrwt beam="2">  1       -2 0.39143372E+00 0.15135415E+04</pdfrwt>
<totfact> 0.12449075E+00</totfact>
</mgrwt>
</event>
<event>
12    1  0.1599266E-007  0.1880672E+04  0.7818608E-02  0.8664537E-01
          2   -1    0    0  501    0  0.00000000000E+00  0.00000000000E+00  0.11261610590E+04  0.11261610590E+04  0.00000000000E+00 0. -1.
         -2   -1    0    0    0  501 -0.00000000000E+00 -0.00000000000E+00 -0.78517356460E+03  0.78517356460E+03  0.00000000000E+00 0.  1.
         23    2    1    2    0    0  0.13850502586E+03  0.80871187788E+02 -0.58088849623E+03  0.60948834303E+03  0.91218441290E+02 0.  0.
        254    2    1    2    0    0 -0.13850502586E+03 -0.80871187788E+02  0.92187599068E+03  0.13018462806E+04  0.90511027227E+03 0.  0.
        -24    2    4    4    0    0  0.19750252972E+02  0.20240541625E+02  0.10538679622E+04  0.10572721697E+04  0.79918752035E+02 0.  0.
         24    2    4    4    0    0 -0.15825527883E+03 -0.10111172941E+03 -0.13199197155E+03  0.24457411095E+03  0.84417415816E+02 0.  0.
         11    1    3    3    0    0  0.10006373909E+03  0.21902189024E+02 -0.44279644539E+03  0.45448998868E+03  0.00000000000E+00 0.  1.
        -11    1    3    3    0    0  0.38441286771E+02  0.58968998764E+02 -0.13809205084E+03  0.15499835434E+03  0.00000000000E+00 0. -1.
          2    1    6    6  502    0  0.15100260908E+00 -0.29000799697E+02 -0.57557020565E+01  0.29566827544E+02  0.00000000000E+00 0. -1.
          1    1    5    5  503    0  0.83092097752E+01 -0.31085951074E+02  0.39173186018E+03  0.39305117937E+03  0.00000000000E+00 0. -1.
         -2    1    5    5    0  503  0.11441043197E+02  0.51326492700E+02  0.66213610204E+03  0.66422099030E+03  0.00000000000E+00 0.  1.
         -1    1    6    6    0  502 -0.15840628144E+03 -0.72110929716E+02 -0.12623626949E+03  0.21500728341E+03  0.00000000000E+00 0.  1.
<mgrwt>
<rscale>  0 0.18806721E+04</rscale>
<asrwt>0</asrwt>
<pdfrwt beam="1">  1        2 0.17325555E+00 0.18806721E+04</pdfrwt>
<pdfrwt beam="2">  1       -2 0.12079593E+00 0.18806721E+04</pdfrwt>
<totfact> 0.10287270E+01</totfact>
</mgrwt>
</event>
<event>
12    1  0.1599266E-007  0.1824656E+04  0.7818608E-02  0.8693296E-01
          2   -1    0    0  501    0  0.00000000000E+00  0.00000000000E+00  0.11227378623E+04  0.11227378623E+04  0.00000000000E+00 0. -1.
         -2   -1    0    0    0  501 -0.00000000000E+00 -0.00000000000E+00 -0.74135089886E+03  0.74135089886E+03  0.00000000000E+00 0.  1.
         23    2    1    2    0    0  0.35161556352E+03 -0.14613425734E+03  0.73216806643E+03  0.82999362598E+03  0.88490767802E+02 0.  0.
        254    2    1    2    0    0 -0.35161556352E+03  0.14613425734E+03 -0.35078110294E+03  0.10340951352E+04  0.89516291302E+03 0.  0.
        -24    2    4    4    0    0  0.20490313355E+03 -0.11116644962E+03 -0.33440756818E+03  0.41552633091E+03  0.80563244485E+02 0.  0.
         24    2    4    4    0    0 -0.55651869707E+03  0.25730070697E+03 -0.16373534761E+02  0.61856880432E+03  0.80265553291E+02 0.  0.
         13    1    3    3    0    0  0.11269009283E+02 -0.28205574211E-01  0.22652500801E+01  0.11494464916E+02  0.00000000000E+00 0.  1.
        -13    1    3    3    0    0  0.34034655424E+03 -0.14610605177E+03  0.72990281635E+03  0.81849916106E+03  0.00000000000E+00 0. -1.
          2    1    6    6  502    0 -0.22847034782E+03  0.14885753863E+03 -0.14186832566E+02  0.27305408412E+03  0.00000000000E+00 0. -1.
          3    1    5    5  503    0  0.12830118688E+03 -0.11068070321E+03 -0.21660530566E+03  0.27500776545E+03  0.00000000000E+00 0. -1.
         -4    1    5    5    0  503  0.76601946666E+02 -0.48574640795E+00 -0.11780226252E+03  0.14051856546E+03  0.00000000000E+00 0.  1.
         -1    1    6    6    0  502 -0.32804834926E+03  0.10844316834E+03 -0.21867021947E+01  0.34551472020E+03  0.00000000000E+00 0.  1.
<mgrwt>
<rscale>  0 0.18246564E+04</rscale>
<asrwt>0</asrwt>
<pdfrwt beam="1">  1        2 0.17272890E+00 0.18246564E+04</pdfrwt>
<pdfrwt beam="2">  1       -2 0.11405398E+00 0.18246564E+04</pdfrwt>
<totfact> 0.11960631E+01</totfact>
</mgrwt>
</event>
<event>
12    1  0.1599266E-007  0.1899731E+04  0.7818608E-02  0.8654990E-01
         -2   -1    0    0    0  501 -0.00000000000E+00  0.00000000000E+00  0.58357784385E+03  0.58357784385E+03  0.00000000000E+00 0.  1.
          2   -1    0    0  501    0  0.00000000000E+00 -0.00000000000E+00 -0.15460573150E+04  0.15460573150E+04  0.00000000000E+00 0. -1.
         23    2    1    2    0    0 -0.34162851536E+03  0.54756707777E+03 -0.73926657789E+03  0.98561923286E+03  0.91599409538E+02 0.  0.
        254    2    1    2    0    0  0.34162851536E+03 -0.54756707777E+03 -0.22321289328E+03  0.11440159260E+04  0.91782824978E+03 0.  0.
        -24    2    4    4    0    0  0.28675731099E+03 -0.70999525822E+03 -0.41487661259E+03  0.87486470714E+03  0.83322446141E+02 0.  0.
         24    2    4    4    0    0  0.54871204371E+02  0.16242818045E+03  0.19166371931E+03  0.26915121888E+03  0.79458381873E+02 0.  0.
         11    1    3    3    0    0 -0.32746460358E+03  0.53747289562E+03 -0.69274062181E+03  0.93594858258E+03  0.00000000000E+00 0. -1.
        -11    1    3    3    0    0 -0.14163911780E+02  0.10094182155E+02 -0.46525956078E+02  0.49670650281E+02  0.00000000000E+00 0.  1.
          4    1    6    6  502    0  0.68376656538E+02  0.81938867696E+02  0.11939284971E+03  0.16013743397E+03  0.00000000000E+00 0. -1.
          1    1    5    5  503    0  0.15479930947E+03 -0.48441333851E+03 -0.26152456192E+03  0.57185155873E+03  0.00000000000E+00 0. -1.
         -2    1    5    5    0  503  0.13195800152E+03 -0.22558191971E+03 -0.15335205067E+03  0.30301314841E+03  0.00000000000E+00 0.  1.
         -3    1    6    6    0  502 -0.13505452167E+02  0.80489312751E+02  0.72270869603E+02  0.10901378490E+03  0.00000000000E+00 0.  1.
<mgrwt>
<rscale>  0 0.18997313E+04</rscale>
<asrwt>0</asrwt>
<pdfrwt beam="1">  1        2 0.23785497E+00 0.18997313E+04</pdfrwt>
<pdfrwt beam="2">  1       -2 0.89781207E-01 0.18997313E+04</pdfrwt>
<totfact> 0.11902059E+01</totfact>
</mgrwt>
</event>
<event>
12    1  0.1599266E-007  0.2116563E+04  0.7818608E-02  0.8553982E-01
          2   -1    0    0  501    0  0.00000000000E+00  0.00000000000E+00  0.88157652081E+03  0.88157652081E+03  0.00000000000E+00 0. -1.
         -2   -1    0    0    0  501 -0.00000000000E+00 -0.00000000000E+00 -0.12704061689E+04  0.12704061689E+04  0.00000000000E+00 0.  1.
         23    2    1    2    0    0  0.49175766208E+03  0.59734846103E+03  0.24243868107E+03  0.81578567394E+03  0.89883088634E+02 0.  0.
        254    2    1    2    0    0 -0.49175766208E+03 -0.59734846103E+03 -0.63126832916E+03  0.13361970158E+04  0.88784682207E+03 0.  0.
        -24    2    4    4    0    0 -0.67748222609E+03 -0.43502384790E+03 -0.69834744930E+03  0.10688102168E+04  0.80238424024E+02 0.  0.
         24    2    4    4    0    0  0.18572456401E+03 -0.16232461313E+03  0.67079120137E+02  0.26738679897E+03  0.78442324041E+02 0.  0.
         13    1    3    3    0    0  0.45136512921E+03  0.55269695467E+03  0.24767985030E+03  0.75534741134E+03  0.00000000000E+00 0. -1.
        -13    1    3    3    0    0  0.40392532869E+02  0.44651506354E+02 -0.52411692327E+01  0.60438262600E+02  0.00000000000E+00 0.  1.
          4    1    6    6  502    0  0.16735827462E+03 -0.10324218594E+03  0.56686906721E+02  0.20464883688E+03  0.00000000000E+00 0. -1.
          3    1    5    5  503    0 -0.27341205498E+03 -0.19135861467E+03 -0.24064802117E+03  0.41144105448E+03  0.00000000000E+00 0. -1.
         -4    1    5    5    0  503 -0.40407017111E+03 -0.24366523323E+03 -0.45769942813E+03  0.65736916232E+03  0.00000000000E+00 0.  1.
         -3    1    6    6    0  502  0.18366289395E+02 -0.59082427184E+02  0.10392213417E+02  0.62737962095E+02  0.00000000000E+00 0.  1.
<mgrwt>
<rscale>  0 0.21165635E+04</rscale>
<asrwt>0</asrwt>
<pdfrwt beam="1">  1        2 0.13562716E+00 0.21165635E+04</pdfrwt>
<pdfrwt beam="2">  1       -2 0.19544710E+00 0.21165635E+04</pdfrwt>
<totfact> 0.39576663E+00</totfact>
</mgrwt>
</event>
<event>
12    1  0.1599266E-007  0.1885606E+04  0.7818608E-02  0.8662054E-01
         -1   -1    0    0    0  501 -0.00000000000E+00  0.00000000000E+00  0.16649878758E+04  0.16649878758E+04  0.00000000000E+00 0.  1.
          1   -1    0    0  501    0  0.00000000000E+00 -0.00000000000E+00 -0.53386451334E+03  0.53386451334E+03  0.00000000000E+00 0. -1.
         23    2    1    2    0    0 -0.14415548824E+03  0.78352648106E+02 -0.38131806152E+03  0.42513199135E+03  0.91726788745E+02 0.  0.
        254    2    1    2    0    0  0.14415548824E+03 -0.78352648106E+02  0.15124414239E+04  0.17737203977E+04  0.91196767830E+03 0.  0.
        -24    2    4    4    0    0 -0.36029578213E+03 -0.93640594566E+02  0.89344764770E+03  0.97122642260E+03  0.80314713583E+02 0.  0.
         24    2    4    4    0    0  0.50445127037E+03  0.15287946460E+02  0.61899377624E+03  0.80249397513E+03  0.78348450067E+02 0.  0.
         11    1    3    3    0    0 -0.14901819866E+03  0.47094031640E+02 -0.31318585654E+03  0.35001378842E+03  0.00000000000E+00 0. -1.
        -11    1    3    3    0    0  0.48627104193E+01  0.31258616467E+02 -0.68132204983E+02  0.75118202933E+02  0.00000000000E+00 0.  1.
          2    1    6    6  502    0  0.36419927064E+02 -0.30083094120E+01  0.18591222550E+02  0.41001153261E+02  0.00000000000E+00 0. -1.
          1    1    5    5  503    0 -0.16846754544E+03 -0.10334592836E+02  0.34016833053E+03  0.37974018851E+03  0.00000000000E+00 0. -1.
         -2    1    5    5    0  503 -0.19182823669E+03 -0.83306001730E+02  0.55327931717E+03  0.59148623410E+03  0.00000000000E+00 0.  1.
         -1    1    6    6    0  502  0.46803134330E+03  0.18296255872E+02  0.60040255369E+03  0.76149282187E+03  0.00000000000E+00 0.  1.
<mgrwt>
<rscale>  0 0.18856065E+04</rscale>
<asrwt>0</asrwt>
<pdfrwt beam="1">  1        1 0.82133003E-01 0.18856065E+04</pdfrwt>
<pdfrwt beam="2">  1       -1 0.25615198E+00 0.18856065E+04</pdfrwt>
<totfact> 0.24090691E+00</totfact>
</mgrwt>
</event>
<event>
12    1  0.1599266E-007  0.1480582E+04  0.7818608E-02  0.8897469E-01
         -2   -1    0    0    0  501 -0.00000000000E+00  0.00000000000E+00  0.54179898825E+03  0.54179898825E+03  0.00000000000E+00 0.  1.
          2   -1    0    0  501    0  0.00000000000E+00 -0.00000000000E+00 -0.10115016790E+04  0.10115016790E+04  0.00000000000E+00 0. -1.
         23    2    1    2    0    0 -0.99890490405E+02 -0.10170941318E+03  0.30918812638E+03  0.35363119136E+03  0.95576185321E+02 0.  0.
        254    2    1    2    0    0  0.99890490405E+02  0.10170941318E+03 -0.77889081714E+03  0.11996694759E+04  0.90122862336E+03 0.  0.
        -24    2    4    4    0    0 -0.61965512998E+02  0.19401670638E+03 -0.92441466744E+03  0.95009348355E+03  0.81565574472E+02 0.  0.
         24    2    4    4    0    0  0.16185600340E+03 -0.92307293197E+02  0.14552385031E+03  0.24957599235E+03  0.79956130061E+02 0.  0.
         13    1    3    3    0    0 -0.11836299397E+03 -0.87481225966E+02  0.25138722065E+03  0.29130447636E+03  0.00000000000E+00 0.  1.
        -13    1    3    3    0    0  0.18472503565E+02 -0.14228187216E+02  0.57800905730E+02  0.62326714999E+02  0.00000000000E+00 0. -1.
          4    1    6    6  502    0  0.61461752418E+02 -0.39367553687E+02  0.11397683378E+02  0.73873259574E+02  0.00000000000E+00 0. -1.
          1    1    5    5  503    0 -0.38112763669E+02  0.19981292023E+02 -0.15344346432E+03  0.15936352006E+03  0.00000000000E+00 0. -1.
         -2    1    5    5    0  503 -0.23852749329E+02  0.17403541436E+03 -0.77097120312E+03  0.79072996348E+03  0.00000000000E+00 0.  1.
         -3    1    6    6    0  502  0.10039425098E+03 -0.52939739510E+02  0.13412616693E+03  0.17570273278E+03  0.00000000000E+00 0.  1.
<mgrwt>
<rscale>  0 0.14805818E+04</rscale>
<asrwt>0</asrwt>
<pdfrwt beam="1">  1        2 0.15561564E+00 0.14805818E+04</pdfrwt>
<pdfrwt beam="2">  1       -2 0.83353691E-01 0.14805818E+04</pdfrwt>
<totfact> 0.30191882E+01</totfact>
</mgrwt>
</event>
<event>
12    1  0.1599266E-007  0.1201347E+04  0.7818608E-02  0.9111678E-01
         -2   -1    0    0    0  501 -0.00000000000E+00  0.00000000000E+00  0.24461119072E+03  0.24461119072E+03  0.00000000000E+00 0.  1.
          2   -1    0    0  501    0  0.00000000000E+00 -0.00000000000E+00 -0.14750298897E+04  0.14750298897E+04  0.00000000000E+00 0. -1.
         23    2    1    2    0    0  0.22363899466E+02  0.21897077211E+03 -0.43102913340E+03  0.49398408086E+03  0.98923279679E+02 0.  0.
        254    2    1    2    0    0 -0.22363899466E+02 -0.21897077211E+03 -0.79938956555E+03  0.12256569995E+04  0.90264226577E+03 0.  0.
        -24    2    4    4    0    0  0.26302206154E+03  0.25316753988E+03 -0.32460239162E+03  0.49377192348E+03  0.71899872493E+02 0.  0.
         24    2    4    4    0    0 -0.28538596101E+03 -0.47213831199E+03 -0.47478717393E+03  0.73188507605E+03  0.76636620733E+02 0.  0.
         13    1    3    3    0    0 -0.15226763057E+02  0.12961343897E+03 -0.16203645816E+03  0.20805603007E+03  0.00000000000E+00 0.  1.
        -13    1    3    3    0    0  0.37590662522E+02  0.89357333138E+02 -0.26899267524E+03  0.28592805078E+03  0.00000000000E+00 0. -1.
          4    1    6    6  502    0 -0.12192849902E+03 -0.14293649343E+03 -0.13511796261E+03  0.23141794193E+03  0.00000000000E+00 0. -1.
          1    1    5    5  503    0  0.50448536045E+02  0.31178991135E+02 -0.86976913240E+02  0.10527187523E+03  0.00000000000E+00 0. -1.
         -2    1    5    5    0  503  0.21257352550E+03  0.22198854874E+03 -0.23762547838E+03  0.38850004825E+03  0.00000000000E+00 0.  1.
         -3    1    6    6    0  502 -0.16345746199E+03 -0.32920181855E+03 -0.33966921132E+03  0.50046713412E+03  0.00000000000E+00 0.  1.
<mgrwt>
<rscale>  0 0.12013473E+04</rscale>
<asrwt>0</asrwt>
<pdfrwt beam="1">  1        2 0.22692768E+00 0.12013473E+04</pdfrwt>
<pdfrwt beam="2">  1       -2 0.37632491E-01 0.12013473E+04</pdfrwt>
<totfact> 0.86140544E+01</totfact>
</mgrwt>
</event>
<event>
12    1  0.1599266E-007  0.2654033E+04  0.7818608E-02  0.8350076E-01
         -2   -1    0    0    0  501 -0.00000000000E+00  0.00000000000E+00  0.65660076785E+03  0.65660076785E+03  0.00000000000E+00 0.  1.
          2   -1    0    0  501    0  0.00000000000E+00 -0.00000000000E+00 -0.26819537011E+04  0.26819537011E+04  0.00000000000E+00 0. -1.
         23    2    1    2    0    0 -0.68847571447E+03 -0.78311718199E+03 -0.21703760313E+03  0.10689643108E+04  0.91148485936E+02 0.  0.
        254    2    1    2    0    0  0.68847571447E+03  0.78311718199E+03 -0.18083153301E+04  0.22695901581E+04  0.89093424144E+03 0.  0.
        -24    2    4    4    0    0  0.63063822014E+03  0.57868635767E+02 -0.88850024732E+03  0.10940635967E+04  0.80555077631E+02 0.  0.
         24    2    4    4    0    0  0.57837494329E+02  0.72524854623E+03 -0.91981508274E+03  0.11755265613E+04  0.80450484195E+02 0.  0.
         11    1    3    3    0    0 -0.44874649388E+03 -0.54393937798E+03 -0.10913419861E+03  0.71355009354E+03  0.00000000000E+00 0.  1.
        -11    1    3    3    0    0 -0.23972922059E+03 -0.23917780402E+03 -0.10790340452E+03  0.35541421728E+03  0.00000000000E+00 0. -1.
          2    1    6    6  502    0 -0.59385610605E+01  0.77634272872E+02 -0.13672937495E+03  0.15734442731E+03  0.00000000000E+00 0. -1.
          3    1    5    5  503    0  0.21031407597E+03 -0.15394066568E+02 -0.26768943389E+03  0.34077356243E+03  0.00000000000E+00 0. -1.
         -4    1    5    5    0  503  0.42032414417E+03  0.73262702334E+02 -0.62081081343E+03  0.75329003432E+03  0.00000000000E+00 0.  1.
         -1    1    6    6    0  502  0.63776055389E+02  0.64761427335E+03 -0.78308570779E+03  0.10181821340E+04  0.00000000000E+00 0.  1.
<mgrwt>
<rscale>  0 0.26540331E+04</rscale>
<asrwt>0</asrwt>
<pdfrwt beam="1">  1        2 0.41260826E+00 0.26540331E+04</pdfrwt>
<pdfrwt beam="2">  1       -2 0.10101550E+00 0.26540331E+04</pdfrwt>
<totfact> 0.19324520E+00</totfact>
</mgrwt>
</event>
<event>
12    1  0.1599266E-007  0.2460735E+04  0.7818608E-02  0.8417109E-01
         -2   -1    0    0    0  501 -0.00000000000E+00  0.00000000000E+00  0.58970832621E+03  0.58970832621E+03  0.00000000000E+00 0.  1.
          2   -1    0    0  501    0  0.00000000000E+00 -0.00000000000E+00 -0.25670390198E+04  0.25670390198E+04  0.00000000000E+00 0. -1.
         23    2    1    2    0    0  0.31881410730E+03  0.93604927560E+03 -0.36186374377E+03  0.10568850926E+04  0.90719614595E+02 0.  0.
        254    2    1    2    0    0 -0.31881410730E+03 -0.93604927560E+03 -0.16154669498E+04  0.20998622535E+04  0.90656347604E+03 0.  0.
        -24    2    4    4    0    0 -0.41369574826E+03 -0.63804513251E+03 -0.44215978017E+03  0.88299816944E+03  0.77037216916E+02 0.  0.
         24    2    4    4    0    0  0.94881640959E+02 -0.29800414309E+03 -0.11733071697E+04  0.12168640840E+04  0.79369323285E+02 0.  0.
         11    1    3    3    0    0  0.47762677490E+01  0.60074899023E+02 -0.58664424998E+01  0.60549330086E+02  0.00000000000E+00 0. -1.
        -11    1    3    3    0    0  0.31403783955E+03  0.87597437658E+03 -0.35599730127E+03  0.99633576248E+03  0.00000000000E+00 0.  1.
          4    1    6    6  502    0  0.10767021607E+03 -0.28215196202E+03 -0.11108989138E+04  0.11512163140E+04  0.00000000000E+00 0. -1.
          1    1    5    5  503    0 -0.41388936559E+03 -0.61730227123E+03 -0.42553772771E+03  0.85641628822E+03  0.00000000000E+00 0. -1.
         -2    1    5    5    0  503  0.19361732566E+00 -0.20742861273E+02 -0.16622052462E+02  0.26581881226E+02  0.00000000000E+00 0.  1.
         -3    1    6    6    0  502 -0.12788575112E+02 -0.15852181073E+02 -0.62408255891E+02  0.65647769966E+02  0.00000000000E+00 0.  1.
<mgrwt>
<rscale>  0 0.24607351E+04</rscale>
<asrwt>0</asrwt>
<pdfrwt beam="1">  1        2 0.39492907E+00 0.24607351E+04</pdfrwt>
<pdfrwt beam="2">  1       -2 0.90724360E-01 0.24607351E+04</pdfrwt>
<totfact> 0.29529857E+00</totfact>
</mgrwt>
</event>
<event>
12    1  0.1599266E-007  0.2005650E+04  0.7818608E-02  0.8603984E-01
          1   -1    0    0  501    0  0.00000000000E+00  0.00000000000E+00  0.21110264965E+04  0.21110264965E+04  0.00000000000E+00 0. -1.
         -1   -1    0    0    0  501 -0.00000000000E+00 -0.00000000000E+00 -0.47638324726E+03  0.47638324726E+03  0.00000000000E+00 0.  1.
         23    2    1    2    0    0  0.22839139376E+03 -0.74176725245E+03  0.41569400485E+03  0.88481264369E+03  0.87810154396E+02 0.  0.
        254    2    1    2    0    0 -0.22839139376E+03  0.74176725245E+03  0.12189492444E+04  0.17025971001E+04  0.90034345627E+03 0.  0.
        -24    2    4    4    0    0 -0.45196498387E+03  0.57601603206E+03  0.12049321429E+04  0.14125355176E+04  0.85605512050E+02 0.  0.
         24    2    4    4    0    0  0.22357359011E+03  0.16575122038E+03  0.14017101479E+02  0.29006158245E+03  0.80502330561E+02 0.  0.
         11    1    3    3    0    0  0.96439028748E+02 -0.41133920700E+03  0.26275373760E+03  0.49753387433E+03  0.00000000000E+00 0. -1.
        -11    1    3    3    0    0  0.13195236501E+03 -0.33042804544E+03  0.15294026725E+03  0.38727876935E+03  0.00000000000E+00 0.  1.
          2    1    6    6  502    0  0.22901189099E+03  0.16108028579E+03  0.20031820145E+02  0.28070372015E+03  0.00000000000E+00 0. -1.
          3    1    5    5  503    0 -0.39511762030E+03  0.47509457465E+03  0.96134942989E+03  0.11428147335E+04  0.00000000000E+00 0. -1.
         -4    1    5    5    0  503 -0.56847363572E+02  0.10092145741E+03  0.24358271302E+03  0.26972078413E+03  0.00000000000E+00 0.  1.
         -1    1    6    6    0  502 -0.54383008732E+01  0.46709345901E+01 -0.60147186661E+01  0.93578623074E+01  0.00000000000E+00 0.  1.
<mgrwt>
<rscale>  0 0.20056497E+04</rscale>
<asrwt>0</asrwt>
<pdfrwt beam="1">  1        1 0.32477330E+00 0.20056497E+04</pdfrwt>
<pdfrwt beam="2">  1       -1 0.73289732E-01 0.20056497E+04</pdfrwt>
<totfact> 0.43572435E+00</totfact>
</mgrwt>
</event>
<event>
12    1  0.1599266E-007  0.1776473E+04  0.7818608E-02  0.8718912E-01
          2   -1    0    0  501    0  0.00000000000E+00  0.00000000000E+00  0.13542113690E+04  0.13542113690E+04  0.00000000000E+00 0. -1.
         -2   -1    0    0    0  501 -0.00000000000E+00 -0.00000000000E+00 -0.58260014154E+03  0.58260014154E+03  0.00000000000E+00 0.  1.
         23    2    1    2    0    0  0.11541345256E+03 -0.46397855909E+02 -0.41284999035E+03  0.44008030413E+03  0.88048472376E+02 0.  0.
        254    2    1    2    0    0 -0.11541345256E+03  0.46397855909E+02  0.11844612178E+04  0.14967312064E+04  0.90652242202E+03 0.  0.
        -24    2    4    4    0    0 -0.28673008123E+03 -0.26916701567E+03  0.10154403647E+04  0.10918777006E+04  0.80079691324E+02 0.  0.
         24    2    4    4    0    0  0.17131662867E+03  0.31556487158E+03  0.16902085305E+03  0.40485350576E+03  0.80048341192E+02 0.  0.
         11    1    3    3    0    0  0.28429288671E+02 -0.24875092825E+02 -0.34151054211E+02  0.50924347822E+02  0.00000000000E+00 0. -1.
        -11    1    3    3    0    0  0.86984163890E+02 -0.21522763084E+02 -0.37869893614E+03  0.38915595631E+03  0.00000000000E+00 0.  1.
          4    1    6    6  502    0  0.16562910525E+03  0.26906858713E+03  0.16833640708E+03  0.35800565782E+03  0.00000000000E+00 0. -1.
          3    1    5    5  503    0 -0.19714857987E+03 -0.17869814027E+03  0.57837001156E+03  0.63664154605E+03  0.00000000000E+00 0. -1.
         -4    1    5    5    0  503 -0.89581501356E+02 -0.90468875396E+02  0.43707035317E+03  0.45523615457E+03  0.00000000000E+00 0.  1.
         -3    1    6    6    0  502  0.56875234189E+01  0.46496284446E+02  0.68444597579E+00  0.46847847936E+02  0.00000000000E+00 0.  1.
<mgrwt>
<rscale>  0 0.17764726E+04</rscale>
<asrwt>0</asrwt>
<pdfrwt beam="1">  1        2 0.20834021E+00 0.17764726E+04</pdfrwt>
<pdfrwt beam="2">  1       -2 0.89630791E-01 0.17764726E+04</pdfrwt>
<totfact> 0.15516988E+01</totfact>
</mgrwt>
</event>
<event>
12    1  0.1599266E-007  0.2673432E+04  0.7818608E-02  0.8343677E-01
          1   -1    0    0  501    0  0.00000000000E+00  0.00000000000E+00  0.19353161550E+04  0.19353161550E+04  0.00000000000E+00 0. -1.
         -1   -1    0    0    0  501 -0.00000000000E+00 -0.00000000000E+00 -0.92326502442E+03  0.92326502442E+03  0.00000000000E+00 0.  1.
         23    2    1    2    0    0 -0.81475300541E+03 -0.60470392459E+03 -0.21702515119E+03  0.10419243414E+04  0.94958520676E+02 0.  0.
        254    2    1    2    0    0  0.81475300541E+03  0.60470392459E+03  0.12290762818E+04  0.18166568381E+04  0.87185105642E+03 0.  0.
        -24    2    4    4    0    0  0.50501284227E+03 -0.13657401979E+03  0.47210711748E+03  0.70992346259E+03  0.86114799107E+02 0.  0.
         24    2    4    4    0    0  0.30974016314E+03  0.74127794438E+03  0.75696916430E+03  0.11067333755E+04  0.80152911189E+02 0.  0.
         11    1    3    3    0    0 -0.65764983133E+03 -0.53135346901E+03 -0.17218596028E+03  0.86283707303E+03  0.00000000000E+00 0.  1.
        -11    1    3    3    0    0 -0.15710317408E+03 -0.73350455582E+02 -0.44839190918E+02  0.17908726834E+03  0.00000000000E+00 0. -1.
          4    1    6    6  502    0  0.79392761428E+02  0.12893482166E+03  0.17154411495E+03  0.22881167404E+03  0.00000000000E+00 0. -1.
          1    1    5    5  503    0  0.24093050477E+02 -0.25228980836E+02  0.46553612746E+02  0.58174009789E+02  0.00000000000E+00 0. -1.
         -4    1    5    5    0  503  0.48091979179E+03 -0.11134503896E+03  0.42555350473E+03  0.65174945280E+03  0.00000000000E+00 0.  1.
         -3    1    6    6    0  502  0.23034740171E+03  0.61234312272E+03  0.58542504935E+03  0.87792170142E+03  0.00000000000E+00 0.  1.
<mgrwt>
<rscale>  0 0.26734320E+04</rscale>
<asrwt>0</asrwt>
<pdfrwt beam="1">  1        1 0.29774094E+00 0.26734320E+04</pdfrwt>
<pdfrwt beam="2">  1       -1 0.14204077E+00 0.26734320E+04</pdfrwt>
<totfact> 0.11641909E+00</totfact>
</mgrwt>
</event>
<event>
12    1  0.1599266E-007  0.1272812E+04  0.7818608E-02  0.9051408E-01
         -1   -1    0    0    0  501 -0.00000000000E+00  0.00000000000E+00  0.57245360680E+03  0.57245360680E+03  0.00000000000E+00 0.  1.
          1   -1    0    0  501    0  0.00000000000E+00 -0.00000000000E+00 -0.70750289956E+03  0.70750289956E+03  0.00000000000E+00 0. -1.
         23    2    1    2    0    0 -0.64354006835E+01  0.22103694310E+03  0.18920365036E+03  0.30356249625E+03  0.86333210446E+02 0.  0.
        254    2    1    2    0    0  0.64354006835E+01 -0.22103694310E+03 -0.32425294312E+03  0.97639401011E+03  0.89403945509E+03 0.  0.
        -24    2    4    4    0    0  0.37532869438E+03 -0.24386567999E+03 -0.38198873822E+03  0.59388733148E+03  0.80278687521E+02 0.  0.
         24    2    4    4    0    0 -0.36889329370E+03  0.22828736890E+02  0.57735795096E+02  0.38250667862E+03  0.79840614919E+02 0.  0.
         13    1    3    3    0    0  0.20985665751E+02  0.10241197836E+03  0.42327252952E+02  0.11278389877E+03  0.00000000000E+00 0. -1.
        -13    1    3    3    0    0 -0.27421066435E+02  0.11862496474E+03  0.14687639741E+03  0.19077859749E+03  0.00000000000E+00 0.  1.
          4    1    6    6  502    0 -0.12309561416E+03  0.27618117437E+02  0.52397207940E+02  0.13660438513E+03  0.00000000000E+00 0. -1.
          3    1    5    5  503    0  0.12559735467E+03 -0.12658250221E+03 -0.16389778609E+03  0.24219890514E+03  0.00000000000E+00 0. -1.
         -4    1    5    5    0  503  0.24973133972E+03 -0.11728317778E+03 -0.21809095212E+03  0.35168842635E+03  0.00000000000E+00 0.  1.
         -3    1    6    6    0  502 -0.24579767954E+03 -0.47893805469E+01  0.53385871568E+01  0.24590229350E+03  0.00000000000E+00 0.  1.
<mgrwt>
<rscale>  0 0.12728120E+04</rscale>
<asrwt>0</asrwt>
<pdfrwt beam="1">  1        1 0.10884660E+00 0.12728120E+04</pdfrwt>
<pdfrwt beam="2">  1       -1 0.88069786E-01 0.12728120E+04</pdfrwt>
<totfact> 0.33452643E+01</totfact>
</mgrwt>
</event>
<event>
12    1  0.1599266E-007  0.1799169E+04  0.7818608E-02  0.8706741E-01
         -1   -1    0    0    0  501 -0.00000000000E+00  0.00000000000E+00  0.74085612183E+03  0.74085612183E+03  0.00000000000E+00 0.  1.
          1   -1    0    0  501    0  0.00000000000E+00 -0.00000000000E+00 -0.10923209081E+04  0.10923209081E+04  0.00000000000E+00 0. -1.
         23    2    1    2    0    0 -0.33363428216E+03  0.21672244714E+03 -0.68194739987E+03  0.79461511177E+03  0.89891414102E+02 0.  0.
        254    2    1    2    0    0  0.33363428216E+03 -0.21672244714E+03  0.33048261356E+03  0.10385619182E+04  0.90061736979E+03 0.  0.
        -24    2    4    4    0    0 -0.83579352176E+01 -0.21314176569E+03 -0.26402252411E+03  0.34819351356E+03  0.77663133383E+02 0.  0.
         24    2    4    4    0    0  0.34199221738E+03 -0.35806814516E+01  0.59450513767E+03  0.69036840465E+03  0.78744380115E+02 0.  0.
         11    1    3    3    0    0 -0.27493440070E+03  0.21499906146E+03 -0.59063524857E+03  0.68604920959E+03  0.00000000000E+00 0. -1.
        -11    1    3    3    0    0 -0.58699881456E+02  0.17233856812E+01 -0.91312151299E+02  0.10856590218E+03  0.00000000000E+00 0.  1.
          2    1    6    6  502    0  0.33725840378E+03 -0.15134119728E+02  0.56274886999E+03  0.65624581003E+03  0.00000000000E+00 0. -1.
          3    1    5    5  503    0 -0.28792617383E+02 -0.38554744633E+02 -0.82519814642E+02  0.95524881356E+02  0.00000000000E+00 0. -1.
         -4    1    5    5    0  503  0.20434682166E+02 -0.17458702106E+03 -0.18150270947E+03  0.25266863221E+03  0.00000000000E+00 0.  1.
         -1    1    6    6    0  502  0.47338135981E+01  0.11553438276E+02  0.31756267676E+02  0.34122594624E+02  0.00000000000E+00 0.  1.
<mgrwt>
<rscale>  0 0.17991694E+04</rscale>
<asrwt>0</asrwt>
<pdfrwt beam="1">  1        1 0.16804937E+00 0.17991694E+04</pdfrwt>
<pdfrwt beam="2">  1       -1 0.11397787E+00 0.17991694E+04</pdfrwt>
<totfact> 0.85044355E+00</totfact>
</mgrwt>
</event>
<event>
12    1  0.1599266E-007  0.1588815E+04  0.7818608E-02  0.8827449E-01
         -2   -1    0    0    0  501 -0.00000000000E+00  0.00000000000E+00  0.16574795116E+03  0.16574795116E+03  0.00000000000E+00 0.  1.
          2   -1    0    0  501    0  0.00000000000E+00 -0.00000000000E+00 -0.38074897086E+04  0.38074897086E+04  0.00000000000E+00 0. -1.
         23    2    1    2    0    0 -0.14977304977E+03 -0.42268630207E+03 -0.19682894753E+04  0.20209237451E+04  0.94200044518E+02 0.  0.
        254    2    1    2    0    0  0.14977304977E+03  0.42268630207E+03 -0.16734522821E+04  0.19523139147E+04  0.89999522472E+03 0.  0.
        -24    2    4    4    0    0  0.49253946289E+03  0.10075291873E+03 -0.67128392146E+03  0.84238049642E+03  0.78971668283E+02 0.  0.
         24    2    4    4    0    0 -0.34276641312E+03  0.32193338333E+03 -0.10021683607E+04  0.11099334183E+04  0.80503742775E+02 0.  0.
         13    1    3    3    0    0 -0.15943431768E+03 -0.41568064961E+03 -0.18899088023E+04  0.19416397671E+04  0.00000000000E+00 0. -1.
        -13    1    3    3    0    0  0.96612679109E+01 -0.70056524612E+01 -0.78380673032E+02  0.79283978009E+02  0.00000000000E+00 0.  1.
          4    1    6    6  502    0 -0.57299457290E+02  0.36971728072E+02 -0.21316201279E+03  0.22380388777E+03  0.00000000000E+00 0. -1.
          1    1    5    5  503    0  0.19007682733E+03  0.75475513152E+02 -0.24626775871E+03  0.32011492054E+03  0.00000000000E+00 0. -1.
         -2    1    5    5    0  503  0.30246263556E+03  0.25277405583E+02 -0.42501616275E+03  0.52226557587E+03  0.00000000000E+00 0.  1.
         -3    1    6    6    0  502 -0.28546695583E+03  0.28496165526E+03 -0.78900634789E+03  0.88612953052E+03  0.00000000000E+00 0.  1.
<mgrwt>
<rscale>  0 0.15888154E+04</rscale>
<asrwt>0</asrwt>
<pdfrwt beam="1">  1        2 0.58576761E+00 0.15888154E+04</pdfrwt>
<pdfrwt beam="2">  1       -2 0.25499686E-01 0.15888154E+04</pdfrwt>
<totfact> 0.65484284E+00</totfact>
</mgrwt>
</event>
<event>
12    1  0.1599266E-007  0.1617418E+04  0.7818608E-02  0.8809919E-01
         -2   -1    0    0    0  501 -0.00000000000E+00  0.00000000000E+00  0.12273941617E+04  0.12273941617E+04  0.00000000000E+00 0. -1.
          2   -1    0    0  501    0  0.00000000000E+00 -0.00000000000E+00 -0.53284423868E+03  0.53284423868E+03  0.00000000000E+00 0.  1.
         23    2    1    2    0    0  0.10180148604E+03  0.35962566594E+03  0.68706866837E+03  0.78769406550E+03  0.93297500523E+02 0.  0.
        254    2    1    2    0    0 -0.10180148604E+03 -0.35962566594E+03  0.74812546990E+01  0.97254433493E+03  0.89782645988E+03 0.  0.
        -24    2    4    4    0    0 -0.36421678162E+03  0.11390327120E+03  0.13159480912E+03  0.41152948275E+03  0.80071856387E+02 0.  0.
         24    2    4    4    0    0  0.26241529558E+03 -0.47352893714E+03 -0.12411355442E+03  0.56101485217E+03  0.79006634570E+02 0.  0.
         13    1    3    3    0    0  0.58780667127E+02  0.31331507904E+03  0.53142580724E+03  0.61970548988E+03  0.00000000000E+00 0. -1.
        -13    1    3    3    0    0  0.43020818915E+02  0.46310586898E+02  0.15564286113E+03  0.16798857562E+03  0.00000000000E+00 0.  1.
          2    1    6    6  502    0  0.17587456413E+03 -0.36658702773E+03 -0.67078371699E+02  0.41208909129E+03  0.00000000000E+00 0. -1.
          3    1    5    5  503    0 -0.25908697137E+03  0.41790598577E+02  0.88107274073E+02  0.27683100370E+03  0.00000000000E+00 0. -1.
         -4    1    5    5    0  503 -0.10512981025E+03  0.72112672625E+02  0.43487535043E+02  0.13469847906E+03  0.00000000000E+00 0.  1.
         -1    1    6    6    0  502  0.86540731447E+02 -0.10694190941E+03 -0.57035182718E+02  0.14892576088E+03  0.00000000000E+00 0.  1.
<mgrwt>
<rscale>  0 0.16174176E+04</rscale>
<asrwt>0</asrwt>
<pdfrwt beam="1">  1        2 0.81976037E-01 0.16174176E+04</pdfrwt>
<pdfrwt beam="2">  1       -2 0.18882987E+00 0.16174176E+04</pdfrwt>
<totfact> 0.86303395E+00</totfact>
</mgrwt>
</event>
<event>
12    1  0.1599266E-007  0.2623480E+04  0.7818608E-02  0.8360269E-01
          1   -1    0    0  501    0  0.00000000000E+00  0.00000000000E+00  0.12933226691E+04  0.12933226691E+04  0.00000000000E+00 0. -1.
         -1   -1    0    0    0  501 -0.00000000000E+00 -0.00000000000E+00 -0.13304200156E+04  0.13304200156E+04  0.00000000000E+00 0.  1.
         23    2    1    2    0    0  0.51446324275E+03  0.68785086059E+03 -0.78603869637E+03  0.11681676662E+04  0.94591910504E+02 0.  0.
        254    2    1    2    0    0 -0.51446324275E+03 -0.68785086059E+03  0.74894134994E+03  0.14555750186E+04  0.90552429809E+03 0.  0.
        -24    2    4    4    0    0 -0.61716848831E+03 -0.80412303692E+03  0.45677859796E+03  0.11149871904E+04  0.83898424970E+02 0.  0.
         24    2    4    4    0    0  0.10270524557E+03  0.11627217633E+03  0.29216275198E+03  0.34058782816E+03  0.81076560053E+02 0.  0.
         13    1    3    3    0    0  0.18329065859E+03  0.32107132444E+03 -0.35109035299E+03  0.50984968066E+03  0.00000000000E+00 0.  1.
        -13    1    3    3    0    0  0.33117258415E+03  0.36677953615E+03 -0.43494834338E+03  0.65831798551E+03  0.00000000000E+00 0. -1.
          4    1    6    6  502    0  0.59993909805E+02  0.11757698219E+03  0.21164701161E+03  0.24943550966E+03  0.00000000000E+00 0. -1.
          1    1    5    5  503    0 -0.38021729088E+03 -0.54126178921E+03  0.32869047351E+03  0.73862503350E+03  0.00000000000E+00 0. -1.
         -2    1    5    5    0  503 -0.23695119743E+03 -0.26286124771E+03  0.12808812446E+03  0.37636215689E+03  0.00000000000E+00 0.  1.
         -3    1    6    6    0  502  0.42711335762E+02 -0.13048058597E+01  0.80515740366E+02  0.91152318498E+02  0.00000000000E+00 0.  1.
<mgrwt>
<rscale>  0 0.26234804E+04</rscale>
<asrwt>0</asrwt>
<pdfrwt beam="1">  1        1 0.19897272E+00 0.26234804E+04</pdfrwt>
<pdfrwt beam="2">  1       -1 0.20468000E+00 0.26234804E+04</pdfrwt>
<totfact> 0.11234920E+00</totfact>
</mgrwt>
</event>
<event>
12    1  0.1599266E-007  0.1924834E+04  0.7818608E-02  0.8642593E-01
         -2   -1    0    0    0  501 -0.00000000000E+00  0.00000000000E+00  0.43773795090E+03  0.43773795090E+03  0.00000000000E+00 0.  1.
          2   -1    0    0  501    0  0.00000000000E+00 -0.00000000000E+00 -0.21159844355E+04  0.21159844355E+04  0.00000000000E+00 0. -1.
         23    2    1    2    0    0  0.32575865355E+03 -0.39759889579E+03 -0.13834025072E+04  0.14784776844E+04  0.88826708988E+02 0.  0.
        254    2    1    2    0    0 -0.32575865355E+03  0.39759889579E+03 -0.29484397747E+03  0.10752447020E+04  0.89722606731E+03 0.  0.
        -24    2    4    4    0    0 -0.39669192408E+03 -0.94360292297E+02 -0.38219206505E+03  0.56438271593E+03  0.78668469318E+02 0.  0.
         24    2    4    4    0    0  0.70933270528E+02  0.49195918808E+03  0.87348087581E+02  0.51086198608E+03  0.79340461387E+02 0.  0.
         11    1    3    3    0    0  0.12283690094E+03 -0.19710454189E+03 -0.52976615988E+03  0.57843866470E+03  0.00000000000E+00 0. -1.
        -11    1    3    3    0    0  0.20292175260E+03 -0.20049435389E+03 -0.85363634729E+03  0.90003901973E+03  0.00000000000E+00 0.  1.
          4    1    6    6  502    0  0.61494322162E+02  0.48810881011E+03  0.80321820768E+02  0.49848104984E+03  0.00000000000E+00 0. -1.
          3    1    5    5  503    0 -0.38005605466E+03 -0.10104509768E+03 -0.37901798858E+03  0.54617520277E+03  0.00000000000E+00 0. -1.
         -4    1    5    5    0  503 -0.16635869411E+02  0.66848053863E+01 -0.31740764721E+01  0.18207513163E+02  0.00000000000E+00 0.  1.
         -3    1    6    6    0  502  0.94389483658E+01  0.38503779762E+01  0.70262668135E+01  0.12380936239E+02  0.00000000000E+00 0.  1.
<mgrwt>
<rscale>  0 0.19248342E+04</rscale>
<asrwt>0</asrwt>
<pdfrwt beam="1">  1        2 0.32553606E+00 0.19248342E+04</pdfrwt>
<pdfrwt beam="2">  1       -2 0.67344301E-01 0.19248342E+04</pdfrwt>
<totfact> 0.10880401E+01</totfact>
</mgrwt>
</event>
<event>
12    1  0.1599266E-007  0.1044876E+04  0.7818608E-02  0.9260651E-01
          1   -1    0    0  501    0  0.00000000000E+00  0.00000000000E+00  0.12709362087E+04  0.12709362087E+04  0.00000000000E+00 0. -1.
         -1   -1    0    0    0  501 -0.00000000000E+00 -0.00000000000E+00 -0.21475604810E+03  0.21475604810E+03  0.00000000000E+00 0.  1.
         23    2    1    2    0    0  0.27960646964E+02 -0.11337553711E+03  0.17069578607E+03  0.22423916305E+03  0.86662221692E+02 0.  0.
        254    2    1    2    0    0 -0.27960646964E+02  0.11337553711E+03  0.88548437455E+03  0.12614530938E+04  0.89081171972E+03 0.  0.
        -24    2    4    4    0    0 -0.14683173955E+02  0.39527790461E+03  0.87992169183E+03  0.96869572213E+03  0.87458566466E+02 0.  0.
         24    2    4    4    0    0 -0.13277473009E+02 -0.28190236750E+03  0.55626827244E+01  0.29275737164E+03  0.77657576038E+02 0.  0.
         11    1    3    3    0    0 -0.16842980575E+01 -0.76080244580E+02  0.41806041746E+02  0.86826180394E+02  0.00000000000E+00 0.  1.
        -11    1    3    3    0    0  0.29644945022E+02 -0.37295292533E+02  0.12888974432E+03  0.13741298265E+03  0.00000000000E+00 0. -1.
          2    1    6    6  502    0 -0.73178267873E+01 -0.16133050350E+02 -0.18770346406E+02  0.25809916828E+02  0.00000000000E+00 0. -1.
          3    1    5    5  503    0  0.24598269161E+02  0.35845324893E+02  0.99596499687E+02  0.10867117793E+03  0.00000000000E+00 0. -1.
         -4    1    5    5    0  503 -0.39281443116E+02  0.35943257972E+03  0.78032519214E+03  0.86002454420E+03  0.00000000000E+00 0.  1.
         -1    1    6    6    0  502 -0.59596462221E+01 -0.26576931715E+03  0.24333029130E+02  0.26694745481E+03  0.00000000000E+00 0.  1.
<mgrwt>
<rscale>  0 0.10448756E+04</rscale>
<asrwt>0</asrwt>
<pdfrwt beam="1">  1        1 0.19552864E+00 0.10448756E+04</pdfrwt>
<pdfrwt beam="2">  1       -1 0.33039393E-01 0.10448756E+04</pdfrwt>
<totfact> 0.81567976E+01</totfact>
</mgrwt>
</event>
<event>
12    1  0.1599266E-007  0.1494747E+04  0.7818608E-02  0.8887954E-01
         -2   -1    0    0    0  501 -0.00000000000E+00  0.00000000000E+00  0.80498062161E+03  0.80498062161E+03  0.00000000000E+00 0.  1.
          2   -1    0    0  501    0  0.00000000000E+00 -0.00000000000E+00 -0.69388882028E+03  0.69388882028E+03  0.00000000000E+00 0. -1.
         23    2    1    2    0    0  0.27935862389E+03 -0.30815504794E+03  0.23205904692E+03  0.48532648843E+03  0.93218157042E+02 0.  0.
        254    2    1    2    0    0 -0.27935862389E+03  0.30815504794E+03 -0.12096724559E+03  0.10135429535E+04  0.91631624983E+03 0.  0.
        -24    2    4    4    0    0  0.30499727214E+03  0.26526005145E+03 -0.10823165716E+02  0.41203940217E+03  0.79202885801E+02 0.  0.
         24    2    4    4    0    0 -0.58435589603E+03  0.42894996492E+02 -0.11014407988E+03  0.60150355129E+03  0.79768477102E+02 0.  0.
         13    1    3    3    0    0  0.26598933542E+03 -0.25281609151E+03  0.18249102360E+03  0.40984054994E+03  0.00000000000E+00 0. -1.
        -13    1    3    3    0    0  0.13369288466E+02 -0.55338956435E+02  0.49568023322E+02  0.75485938488E+02  0.00000000000E+00 0.  1.
          2    1    6    6  502    0 -0.37011452207E+03 -0.20246570209E-01 -0.41271242882E+02  0.37240847915E+03  0.00000000000E+00 0. -1.
          3    1    5    5  503    0  0.29942500967E+03  0.23518289945E+03 -0.43310142496E+01  0.38076907739E+03  0.00000000000E+00 0. -1.
         -4    1    5    5    0  503  0.55722624689E+01  0.30077152004E+02 -0.64921514669E+01  0.31270324788E+02  0.00000000000E+00 0.  1.
         -1    1    6    6    0  502 -0.21424137396E+03  0.42915243062E+02 -0.68872836994E+02  0.22909507214E+03  0.00000000000E+00 0.  1.
<mgrwt>
<rscale>  0 0.14947469E+04</rscale>
<asrwt>0</asrwt>
<pdfrwt beam="1">  1        2 0.10675213E+00 0.14947469E+04</pdfrwt>
<pdfrwt beam="2">  1       -2 0.12384317E+00 0.14947469E+04</pdfrwt>
<totfact> 0.19650556E+01</totfact>
</mgrwt>
</event>
<event>
12    1  0.1599266E-007  0.1548224E+04  0.7818608E-02  0.8853003E-01
          2   -1    0    0  501    0  0.00000000000E+00  0.00000000000E+00  0.19072055172E+04  0.19072055172E+04  0.00000000000E+00 0. -1.
         -2   -1    0    0    0  501 -0.00000000000E+00 -0.00000000000E+00 -0.31420264364E+03  0.31420264364E+03  0.00000000000E+00 0.  1.
         23    2    1    2    0    0  0.31587333741E+02 -0.38503239061E+03  0.60252510541E+02  0.40143265591E+03  0.90940149197E+02 0.  0.
        254    2    1    2    0    0 -0.31587333741E+02  0.38503239061E+03  0.15327503631E+04  0.18199755050E+04  0.90207508653E+03 0.  0.
        -24    2    4    4    0    0  0.40313665077E+03  0.29255364278E+03  0.10113322097E+04  0.11300429835E+04  0.78086573251E+02 0.  0.
         24    2    4    4    0    0 -0.43472398451E+03  0.92478747831E+02  0.52141815332E+03  0.68993252150E+03  0.81195640925E+02 0.  0.
         11    1    3    3    0    0  0.82777192756E+01 -0.35552874798E+03  0.37774850763E+02  0.35762571304E+03  0.00000000000E+00 0.  1.
        -11    1    3    3    0    0  0.23309614465E+02 -0.29503642630E+02  0.22477659777E+02  0.43806942874E+02  0.00000000000E+00 0. -1.
          4    1    6    6  502    0 -0.11416581792E+03 -0.54687939810E+01  0.16437408320E+03  0.20020634584E+03  0.00000000000E+00 0. -1.
          1    1    5    5  503    0  0.66529440236E+02  0.85927296867E+02  0.24051353145E+03  0.26392503780E+03  0.00000000000E+00 0. -1.
         -2    1    5    5    0  503  0.33660721053E+03  0.20662634591E+03  0.77081867830E+03  0.86611794567E+03  0.00000000000E+00 0.  1.
         -3    1    6    6    0  502 -0.32055816659E+03  0.97947541812E+02  0.35704407012E+03  0.48972617566E+03  0.00000000000E+00 0.  1.
<mgrwt>
<rscale>  0 0.15482235E+04</rscale>
<asrwt>0</asrwt>
<pdfrwt beam="1">  1        2 0.29341623E+00 0.15482235E+04</pdfrwt>
<pdfrwt beam="2">  1       -2 0.48338869E-01 0.15482235E+04</pdfrwt>
<totfact> 0.29365601E+01</totfact>
</mgrwt>
</event>
<event>
12    1  0.1599266E-007  0.1262364E+04  0.7818608E-02  0.9059955E-01
         -1   -1    0    0    0  501 -0.00000000000E+00  0.00000000000E+00  0.45317510403E+03  0.45317510403E+03  0.00000000000E+00 0.  1.
          1   -1    0    0  501    0  0.00000000000E+00 -0.00000000000E+00 -0.87910938928E+03  0.87910938928E+03  0.00000000000E+00 0. -1.
         23    2    1    2    0    0  0.13461170548E+03  0.11377942761E+03 -0.36293113237E+03  0.41369551177E+03  0.91427021257E+02 0.  0.
        254    2    1    2    0    0 -0.13461170548E+03 -0.11377942761E+03 -0.63003152878E+02  0.91858898153E+03  0.89931654623E+03 0.  0.
        -24    2    4    4    0    0 -0.90413382333E+02  0.25339688408E+03  0.28757927247E+03  0.40257157179E+03  0.83531262993E+02 0.  0.
         24    2    4    4    0    0 -0.44198323149E+02 -0.36717631169E+03 -0.35058242534E+03  0.51601740974E+03  0.81203414732E+02 0.  0.
         11    1    3    3    0    0  0.11960795335E+02  0.33035194425E+02 -0.15630759055E+03  0.16020751405E+03  0.00000000000E+00 0. -1.
        -11    1    3    3    0    0  0.12265091015E+03  0.80744233185E+02 -0.20662354182E+03  0.25348799772E+03  0.00000000000E+00 0.  1.
          4    1    6    6  502    0 -0.12775734554E+02 -0.26383608194E+03 -0.28963589397E+03  0.39199700076E+03  0.00000000000E+00 0. -1.
          3    1    5    5  503    0 -0.10010990558E+03  0.16803966522E+03  0.19263912507E+03  0.27453443279E+03  0.00000000000E+00 0. -1.
         -4    1    5    5    0  503  0.96965232511E+01  0.85357218861E+02  0.94940147396E+02  0.12803713900E+03  0.00000000000E+00 0.  1.
         -3    1    6    6    0  502 -0.31422588595E+02 -0.10334022975E+03 -0.60946531370E+02  0.12402040898E+03  0.00000000000E+00 0.  1.
<mgrwt>
<rscale>  0 0.12623636E+04</rscale>
<asrwt>0</asrwt>
<pdfrwt beam="1">  1        1 0.13524760E+00 0.12623636E+04</pdfrwt>
<pdfrwt beam="2">  1       -1 0.69719248E-01 0.12623636E+04</pdfrwt>
<totfact> 0.38818864E+01</totfact>
</mgrwt>
</event>
<event>
12    1  0.1599266E-007  0.2187225E+04  0.7818608E-02  0.8523764E-01
          1   -1    0    0  501    0  0.00000000000E+00  0.00000000000E+00  0.99870158126E+03  0.99870158126E+03  0.00000000000E+00 0. -1.
         -1   -1    0    0    0  501 -0.00000000000E+00 -0.00000000000E+00 -0.11975433640E+04  0.11975433640E+04  0.00000000000E+00 0.  1.
         23    2    1    2    0    0  0.67797164630E+03 -0.13075986347E+03 -0.65778951558E+03  0.95807839111E+03  0.92105708943E+02 0.  0.
        254    2    1    2    0    0 -0.67797164630E+03  0.13075986347E+03  0.45894773282E+03  0.12381665542E+04  0.91960844892E+03 0.  0.
        -24    2    4    4    0    0 -0.48786477900E+03 -0.21736347654E+03  0.60101044554E+03  0.80817974066E+03  0.81743587194E+02 0.  0.
         24    2    4    4    0    0 -0.19010686729E+03  0.34812334001E+03 -0.14206271271E+03  0.42998681351E+03  0.85885764824E+02 0.  0.
         13    1    3    3    0    0  0.49170516731E+03 -0.76121564001E+02 -0.42007833052E+03  0.65117913652E+03  0.00000000000E+00 0.  1.
        -13    1    3    3    0    0  0.18626647898E+03 -0.54638299469E+02 -0.23771118506E+03  0.30689925459E+03  0.00000000000E+00 0. -1.
          2    1    6    6  502    0 -0.74140874249E+02  0.63995481993E+02 -0.47602222326E+02  0.10889564969E+03  0.00000000000E+00 0. -1.
          3    1    5    5  503    0 -0.36342391679E+03 -0.18030312056E+03  0.49868725042E+03  0.64286478540E+03  0.00000000000E+00 0. -1.
         -4    1    5    5    0  503 -0.12444086221E+03 -0.37060355973E+02  0.10232319512E+03  0.16531495526E+03  0.00000000000E+00 0.  1.
         -1    1    6    6    0  502 -0.11596599305E+03  0.28412785801E+03 -0.94460490388E+02  0.32109116383E+03  0.00000000000E+00 0.  1.
<mgrwt>
<rscale>  0 0.21872251E+04</rscale>
<asrwt>0</asrwt>
<pdfrwt beam="1">  1        1 0.15364640E+00 0.21872251E+04</pdfrwt>
<pdfrwt beam="2">  1       -1 0.18423744E+00 0.21872251E+04</pdfrwt>
<totfact> 0.26866596E+00</totfact>
</mgrwt>
</event>
<event>
12    1  0.1599266E-007  0.1595529E+04  0.7818608E-02  0.8823299E-01
         -2   -1    0    0    0  501 -0.00000000000E+00  0.00000000000E+00  0.29273356625E+03  0.29273356625E+03  0.00000000000E+00 0.  1.
          2   -1    0    0  501    0  0.00000000000E+00 -0.00000000000E+00 -0.21740877056E+04  0.21740877056E+04  0.00000000000E+00 0. -1.
         23    2    1    2    0    0 -0.17571990758E+03  0.19349542539E+02 -0.14815536577E+04  0.14949975285E+04  0.93618795485E+02 0.  0.
        254    2    1    2    0    0  0.17571990758E+03 -0.19349542539E+02 -0.39980048165E+03  0.97182374334E+03  0.86795683780E+03 0.  0.
        -24    2    4    4    0    0 -0.15191821067E+03 -0.12530395958E+03 -0.54874350692E+03  0.58817347590E+03  0.77771308032E+02 0.  0.
         24    2    4    4    0    0  0.32763811824E+03  0.10595441704E+03  0.14894302527E+03  0.38365026744E+03  0.80189948944E+02 0.  0.
         13    1    3    3    0    0 -0.15965452819E+03  0.23500607581E+02 -0.14532972015E+04  0.14622293263E+04  0.00000000000E+00 0. -1.
        -13    1    3    3    0    0 -0.16065379381E+02 -0.41510650427E+01 -0.28256456187E+02  0.32768202147E+02  0.00000000000E+00 0.  1.
          2    1    6    6  502    0  0.24495614141E+03  0.98759535066E+02  0.80605328609E+02  0.27614158684E+03  0.00000000000E+00 0. -1.
          1    1    5    5  503    0 -0.14474212022E+03 -0.79558865491E+02 -0.44019870753E+03  0.47016464835E+03  0.00000000000E+00 0. -1.
         -2    1    5    5    0  503 -0.71760904509E+01 -0.45745094089E+02 -0.10854479939E+03  0.11800882756E+03  0.00000000000E+00 0.  1.
         -1    1    6    6    0  502  0.82681976834E+02  0.71948819757E+01  0.68337696656E+02  0.10750868060E+03  0.00000000000E+00 0.  1.
<mgrwt>
<rscale>  0 0.15955293E+04</rscale>
<asrwt>0</asrwt>
<pdfrwt beam="1">  1        2 0.33447502E+00 0.15955293E+04</pdfrwt>
<pdfrwt beam="2">  1       -2 0.45035934E-01 0.15955293E+04</pdfrwt>
<totfact> 0.23967850E+01</totfact>
</mgrwt>
</event>
<event>
12    1  0.1599266E-007  0.1110974E+04  0.7818608E-02  0.9194562E-01
          1   -1    0    0  501    0  0.00000000000E+00  0.00000000000E+00  0.11063019487E+04  0.11063019487E+04  0.00000000000E+00 0. -1.
         -1   -1    0    0    0  501 -0.00000000000E+00 -0.00000000000E+00 -0.27891630973E+03  0.27891630973E+03  0.00000000000E+00 0.  1.
         23    2    1    2    0    0  0.13519832131E+03  0.60935965758E+01  0.29547261831E+03  0.33607286660E+03  0.85587297500E+02 0.  0.
        254    2    1    2    0    0 -0.13519832131E+03 -0.60935965758E+01  0.53191302061E+03  0.10491453918E+04  0.89412464097E+03 0.  0.
        -24    2    4    4    0    0  0.16054957430E+03 -0.88158415251E+02 -0.18046012424E+03  0.26920637497E+03  0.79737970219E+02 0.  0.
         24    2    4    4    0    0 -0.29574789561E+03  0.82064818675E+02  0.71237314485E+03  0.77993901681E+03  0.81412039744E+02 0.  0.
         13    1    3    3    0    0  0.92181676439E+02  0.13508984940E+02  0.10374127411E+03  0.13943531152E+03  0.00000000000E+00 0.  1.
        -13    1    3    3    0    0  0.43016644867E+02 -0.74153883638E+01  0.19173134420E+03  0.19663755508E+03  0.00000000000E+00 0. -1.
          2    1    6    6  502    0 -0.17768638032E+03  0.89836188077E+02  0.43667456758E+03  0.47992464868E+03  0.00000000000E+00 0. -1.
          3    1    5    5  503    0  0.56302442883E+02 -0.73687968780E+02 -0.66719904070E+02  0.11424284405E+03  0.00000000000E+00 0. -1.
         -4    1    5    5    0  503  0.10424713142E+03 -0.14470446470E+02 -0.11374022017E+03  0.15496353092E+03  0.00000000000E+00 0.  1.
         -1    1    6    6    0  502 -0.11806151529E+03 -0.77713694019E+01  0.27569857728E+03  0.30001436814E+03  0.00000000000E+00 0.  1.
<mgrwt>
<rscale>  0 0.11109737E+04</rscale>
<asrwt>0</asrwt>
<pdfrwt beam="1">  1        1 0.17020030E+00 0.11109737E+04</pdfrwt>
<pdfrwt beam="2">  1       -1 0.42910202E-01 0.11109737E+04</pdfrwt>
<totfact> 0.66780959E+01</totfact>
</mgrwt>
</event>
<event>
12    1  0.1599266E-007  0.1472208E+04  0.7818608E-02  0.8903147E-01
         -1   -1    0    0    0  501 -0.00000000000E+00  0.00000000000E+00  0.53566331385E+03  0.53566331385E+03  0.00000000000E+00 0.  1.
          1   -1    0    0  501    0  0.00000000000E+00 -0.00000000000E+00 -0.10115482519E+04  0.10115482519E+04  0.00000000000E+00 0. -1.
         23    2    1    2    0    0 -0.31515208119E+03 -0.32788411677E+03 -0.15405576639E+03  0.48838876806E+03  0.89227693555E+02 0.  0.
        254    2    1    2    0    0  0.31515208119E+03  0.32788411677E+03 -0.32182917166E+03  0.10588227977E+04  0.90039040026E+03 0.  0.
        -24    2    4    4    0    0 -0.17988953122E+03 -0.18662111607E+03 -0.18371060423E+03  0.32766982627E+03  0.80188805537E+02 0.  0.
         24    2    4    4    0    0  0.49504161241E+03  0.51450523284E+03 -0.13811856743E+03  0.73115297143E+03  0.75670974091E+02 0.  0.
         13    1    3    3    0    0 -0.71869962553E+02 -0.88455333595E+02 -0.79617755427E+02  0.13902742369E+03  0.00000000000E+00 0.  1.
        -13    1    3    3    0    0 -0.24328211864E+03 -0.23942878318E+03 -0.74438010965E+02  0.34936134437E+03  0.00000000000E+00 0. -1.
          4    1    6    6  502    0  0.24510087195E+03  0.24066936509E+03 -0.10365038197E+03  0.35880298551E+03  0.00000000000E+00 0. -1.
          1    1    5    5  503    0 -0.24585804770E+02  0.27919159126E+01 -0.28270091285E+02  0.37569331268E+02  0.00000000000E+00 0. -1.
         -2    1    5    5    0  503 -0.15530372645E+03 -0.18941303198E+03 -0.15544051294E+03  0.29010049500E+03  0.00000000000E+00 0.  1.
         -3    1    6    6    0  502  0.24994074047E+03  0.27383586775E+03 -0.34468185458E+02  0.37234998592E+03  0.00000000000E+00 0.  1.
<mgrwt>
<rscale>  0 0.14722083E+04</rscale>
<asrwt>0</asrwt>
<pdfrwt beam="1">  1        1 0.15562281E+00 0.14722083E+04</pdfrwt>
<pdfrwt beam="2">  1       -1 0.82409741E-01 0.14722083E+04</pdfrwt>
<totfact> 0.21037251E+01</totfact>
</mgrwt>
</event>
<event>
12    1  0.1599266E-007  0.2719225E+04  0.7818608E-02  0.8328794E-01
          1   -1    0    0  501    0  0.00000000000E+00  0.00000000000E+00  0.13622615463E+04  0.13622615463E+04  0.00000000000E+00 0. -1.
         -1   -1    0    0    0  501 -0.00000000000E+00 -0.00000000000E+00 -0.13569689075E+04  0.13569689075E+04  0.00000000000E+00 0.  1.
         23    2    1    2    0    0 -0.10976414227E+04 -0.24667641564E+03 -0.44123612724E+03  0.12119540127E+04  0.92072049263E+02 0.  0.
        254    2    1    2    0    0  0.10976414227E+04  0.24667641564E+03  0.44652876600E+03  0.15072764411E+04  0.89823626308E+03 0.  0.
        -24    2    4    4    0    0  0.31946749516E+03 -0.31337396227E+03  0.21109670461E+02  0.45515817579E+03  0.80378020064E+02 0.  0.
         24    2    4    4    0    0  0.77817392750E+03  0.56005037791E+03  0.42541909554E+03  0.10521182653E+04  0.82221348496E+02 0.  0.
         13    1    3    3    0    0 -0.55515380295E+01  0.30182639103E+01 -0.94143817781E+01  0.11338433569E+02  0.00000000000E+00 0.  1.
        -13    1    3    3    0    0 -0.10920898846E+04 -0.24969467955E+03 -0.43182174546E+03  0.12006155792E+04  0.00000000000E+00 0. -1.
          4    1    6    6  502    0  0.17151143952E+03  0.16643528291E+03  0.98681355173E+02  0.25856312022E+03  0.00000000000E+00 0. -1.
          1    1    5    5  503    0  0.29995904640E+03 -0.25743043187E+03  0.22177501836E+02  0.39590112195E+03  0.00000000000E+00 0. -1.
         -2    1    5    5    0  503  0.19508448757E+02 -0.55943530394E+02 -0.10678313750E+01  0.59257053839E+02  0.00000000000E+00 0.  1.
         -3    1    6    6    0  502  0.60666248798E+03  0.39361509500E+03  0.32673774037E+03  0.79355514510E+03  0.00000000000E+00 0.  1.
<mgrwt>
<rscale>  0 0.27192253E+04</rscale>
<asrwt>0</asrwt>
<pdfrwt beam="1">  1        1 0.20957870E+00 0.27192253E+04</pdfrwt>
<pdfrwt beam="2">  1       -1 0.20876445E+00 0.27192253E+04</pdfrwt>
<totfact> 0.93332685E-01</totfact>
</mgrwt>
</event>
<event>
12    1  0.1599266E-007  0.2593939E+04  0.7818608E-02  0.8370263E-01
         -2   -1    0    0    0  501 -0.00000000000E+00  0.00000000000E+00  0.48904904591E+03  0.48904904591E+03  0.00000000000E+00 0.  1.
          2   -1    0    0  501    0  0.00000000000E+00 -0.00000000000E+00 -0.34395929862E+04  0.34395929862E+04  0.00000000000E+00 0. -1.
         23    2    1    2    0    0  0.93668301023E+01 -0.27059353861E+03 -0.29801890711E+04  0.29938847052E+04  0.92250354596E+02 0.  0.
        254    2    1    2    0    0 -0.93668301023E+01  0.27059353861E+03  0.29645130789E+02  0.93475732693E+03  0.89419451230E+03 0.  0.
        -24    2    4    4    0    0 -0.46501237122E+02 -0.28885291204E+03 -0.15275432871E+03  0.33957748825E+03  0.79878756494E+02 0.  0.
         24    2    4    4    0    0  0.37134407020E+02  0.55944645065E+03  0.18239945950E+03  0.59517983868E+03  0.81303027085E+02 0.  0.
         13    1    3    3    0    0  0.22848245104E+02 -0.18700487422E+03 -0.24213395377E+04  0.24286576585E+04  0.00000000000E+00 0. -1.
        -13    1    3    3    0    0 -0.13481415001E+02 -0.83588664393E+02 -0.55884953343E+03  0.56522704676E+03  0.00000000000E+00 0.  1.
          4    1    6    6  502    0  0.48894528140E+02  0.51223572862E+03  0.14744557586E+03  0.53527218721E+03  0.00000000000E+00 0. -1.
          1    1    5    5  503    0 -0.63004600857E+02 -0.22324826983E+03 -0.95145328760E+02  0.25072296124E+03  0.00000000000E+00 0. -1.
         -2    1    5    5    0  503  0.16503363735E+02 -0.65604642211E+02 -0.57608999948E+02  0.88854527005E+02  0.00000000000E+00 0.  1.
         -3    1    6    6    0  502 -0.11760121120E+02  0.47210722026E+02  0.34953883634E+02  0.59907651465E+02  0.00000000000E+00 0.  1.
<mgrwt>
<rscale>  0 0.25939388E+04</rscale>
<asrwt>0</asrwt>
<pdfrwt beam="1">  1        2 0.52916815E+00 0.25939388E+04</pdfrwt>
<pdfrwt beam="2">  1       -2 0.75238315E-01 0.25939388E+04</pdfrwt>
<totfact> 0.12574346E+00</totfact>
</mgrwt>
</event>
<event>
12    1  0.1599266E-007  0.1764460E+04  0.7818608E-02  0.8725431E-01
          2   -1    0    0  501    0  0.00000000000E+00  0.00000000000E+00  0.12610916954E+04  0.12610916954E+04  0.00000000000E+00 0.  1.
         -2   -1    0    0    0  501 -0.00000000000E+00 -0.00000000000E+00 -0.61718763701E+03  0.61718763701E+03  0.00000000000E+00 0. -1.
         23    2    1    2    0    0 -0.28879580770E+03 -0.40256497818E+03 -0.20165782439E+03  0.54251683888E+03  0.90537628272E+02 0.  0.
        254    2    1    2    0    0  0.28879580770E+03  0.40256497818E+03  0.84556188274E+03  0.13357624935E+04  0.90764803821E+03 0.  0.
        -24    2    4    4    0    0  0.50310891446E+03  0.25159654003E+03  0.89122356946E+03  0.10569275217E+04  0.79980851838E+02 0.  0.
         24    2    4    4    0    0 -0.21431310676E+03  0.15096843815E+03 -0.45661686717E+02  0.27883497176E+03  0.83320914537E+02 0.  0.
         11    1    3    3    0    0 -0.23518238733E+03 -0.26361674315E+03 -0.16032769801E+03  0.38795555587E+03  0.00000000000E+00 0. -1.
        -11    1    3    3    0    0 -0.53613420375E+02 -0.13894823502E+03 -0.41330126374E+02  0.15456128301E+03  0.00000000000E+00 0.  1.
          4    1    6    6  502    0  0.16622938926E+01  0.87666690306E+01 -0.16306399024E+02  0.18588070260E+02  0.00000000000E+00 0. -1.
          1    1    5    5  503    0  0.15147451144E+03  0.82906627877E+02  0.34450261760E+03  0.38535709426E+03  0.00000000000E+00 0. -1.
         -2    1    5    5    0  503  0.35163440302E+03  0.16868991216E+03  0.54672095186E+03  0.67157042747E+03  0.00000000000E+00 0.  1.
         -3    1    6    6    0  502 -0.21597540065E+03  0.14220176912E+03 -0.29355287693E+02  0.26024690150E+03  0.00000000000E+00 0.  1.
<mgrwt>
<rscale>  0 0.17644605E+04</rscale>
<asrwt>0</asrwt>
<pdfrwt beam="1">  1        2 0.19401411E+00 0.17644605E+04</pdfrwt>
<pdfrwt beam="2">  1       -2 0.94951944E-01 0.17644605E+04</pdfrwt>
<totfact> 0.15394214E+01</totfact>
</mgrwt>
</event>
<event>
12    1  0.1599266E-007  0.1671019E+04  0.7818608E-02  0.8778068E-01
          1   -1    0    0  501    0  0.00000000000E+00  0.00000000000E+00  0.18710339592E+04  0.18710339592E+04  0.00000000000E+00 0.  1.
         -1   -1    0    0    0  501 -0.00000000000E+00 -0.00000000000E+00 -0.37309652053E+03  0.37309652053E+03  0.00000000000E+00 0. -1.
         23    2    1    2    0    0  0.83085166523E+02 -0.28796849980E+03 -0.15682808774E+03  0.34908635401E+03  0.86239385905E+02 0.  0.
        254    2    1    2    0    0 -0.83085166523E+02  0.28796849980E+03  0.16547655264E+04  0.18950441257E+04  0.87356412999E+03 0.  0.
        -24    2    4    4    0    0  0.28738198199E+03  0.27445818591E+03  0.13476514618E+04  0.14071403038E+04  0.77224819578E+02 0.  0.
         24    2    4    4    0    0 -0.37046714852E+03  0.13510313884E+02  0.30711406459E+03  0.48790382186E+03  0.79389256261E+02 0.  0.
         13    1    3    3    0    0  0.28222218569E+02 -0.11019881603E+03 -0.14150859984E+02  0.11463210507E+03  0.00000000000E+00 0. -1.
        -13    1    3    3    0    0  0.54862947954E+02 -0.17776968377E+03 -0.14267722776E+03  0.23445424894E+03  0.00000000000E+00 0.  1.
          4    1    6    6  502    0 -0.24305619089E+03  0.25786085043E+02  0.24332503786E+03  0.34488883450E+03  0.00000000000E+00 0. -1.
          1    1    5    5  503    0  0.10781523904E+03  0.58467616075E+02  0.35967262527E+03  0.38000919103E+03  0.00000000000E+00 0. -1.
         -2    1    5    5    0  503  0.17956674295E+03  0.21599056984E+03  0.98797883654E+03  0.10271311128E+04  0.00000000000E+00 0.  1.
         -3    1    6    6    0  502 -0.12741095762E+03 -0.12275771159E+02  0.63789026735E+02  0.14301498737E+03  0.00000000000E+00 0.  1.
<mgrwt>
<rscale>  0 0.16710192E+04</rscale>
<asrwt>0</asrwt>
<pdfrwt beam="1">  1        1 0.28785137E+00 0.16710192E+04</pdfrwt>
<pdfrwt beam="2">  1       -1 0.57399466E-01 0.16710192E+04</pdfrwt>
<totfact> 0.10690598E+01</totfact>
</mgrwt>
</event>
<event>
12    1  0.1599266E-007  0.1793154E+04  0.7818608E-02  0.8709949E-01
         -2   -1    0    0    0  501 -0.00000000000E+00  0.00000000000E+00  0.26419300168E+03  0.26419300168E+03  0.00000000000E+00 0. -1.
          2   -1    0    0  501    0  0.00000000000E+00 -0.00000000000E+00 -0.30426633091E+04  0.30426633091E+04  0.00000000000E+00 0.  1.
         23    2    1    2    0    0 -0.23022381639E+03  0.38642764960E+03 -0.19385257149E+04  0.19920292916E+04  0.89271593242E+02 0.  0.
        254    2    1    2    0    0  0.23022381639E+03 -0.38642764960E+03 -0.83994459258E+03  0.13148270192E+04  0.90605399278E+03 0.  0.
        -24    2    4    4    0    0  0.45008773664E+03  0.65250309321E+02 -0.21706697910E+03  0.51053570136E+03  0.81804983968E+02 0.  0.
         24    2    4    4    0    0 -0.21986392026E+03 -0.45167795892E+03 -0.62287761347E+03  0.80429131785E+03  0.80962217074E+02 0.  0.
         11    1    3    3    0    0 -0.19415606351E+03  0.24508576829E+03 -0.13341084734E+04  0.13702587455E+04  0.00000000000E+00 0.  1.
        -11    1    3    3    0    0 -0.36067752878E+02  0.14134188131E+03 -0.60441724147E+03  0.62177054610E+03  0.00000000000E+00 0. -1.
          4    1    6    6  502    0 -0.86616295383E+02 -0.26981005334E+03 -0.34620405124E+03  0.44738919590E+03  0.00000000000E+00 0. -1.
          3    1    5    5  503    0  0.44172359671E+03  0.75888838400E+02 -0.20710762918E+03  0.49373314832E+03  0.00000000000E+00 0. -1.
         -4    1    5    5    0  503  0.83641399316E+01 -0.10638529078E+02 -0.99593499221E+01  0.16802553038E+02  0.00000000000E+00 0.  1.
         -3    1    6    6    0  502 -0.13324762487E+03 -0.18186790558E+03 -0.27667356224E+03  0.35690212195E+03  0.00000000000E+00 0.  1.
<mgrwt>
<rscale>  0 0.17931540E+04</rscale>
<asrwt>0</asrwt>
<pdfrwt beam="1">  1        2 0.46810207E+00 0.17931540E+04</pdfrwt>
<pdfrwt beam="2">  1       -2 0.40645075E-01 0.17931540E+04</pdfrwt>
<totfact> 0.88981810E+00</totfact>
</mgrwt>
</event>
<event>
12    1  0.1599266E-007  0.2904258E+04  0.7818608E-02  0.8271612E-01
          1   -1    0    0  501    0  0.00000000000E+00  0.00000000000E+00  0.33369865341E+04  0.33369865341E+04  0.00000000000E+00 0. -1.
         -1   -1    0    0    0  501 -0.00000000000E+00 -0.00000000000E+00 -0.63191110385E+03  0.63191110385E+03  0.00000000000E+00 0.  1.
         23    2    1    2    0    0  0.90716166030E+03 -0.53909568700E+03  0.16255692945E+03  0.10719265040E+04  0.95053863410E+02 0.  0.
        254    2    1    2    0    0 -0.90716166030E+03  0.53909568700E+03  0.25425185008E+04  0.28969711339E+04  0.90248267934E+03 0.  0.
        -24    2    4    4    0    0 -0.10519607917E+04  0.44892257243E+03  0.18271051187E+04  0.21571084611E+04  0.81552527697E+02 0.  0.
         24    2    4    4    0    0  0.14479913141E+03  0.90173114571E+02  0.71541338202E+03  0.73986267282E+03  0.80513901949E+02 0.  0.
         13    1    3    3    0    0  0.41709153266E+03 -0.22118804068E+03  0.11451716715E+03  0.48580209708E+03  0.00000000000E+00 0. -1.
        -13    1    3    3    0    0  0.49007012763E+03 -0.31790764633E+03  0.48039762307E+02  0.58612440689E+03  0.00000000000E+00 0.  1.
          2    1    6    6  502    0  0.12011945901E+03  0.89040455455E+02  0.47004571742E+03  0.49325435994E+03  0.00000000000E+00 0. -1.
          3    1    5    5  503    0 -0.96808834337E+03  0.41330907671E+03  0.16358642114E+04  0.19452689150E+04  0.00000000000E+00 0. -1.
         -4    1    5    5    0  503 -0.83872448343E+02  0.35613495717E+02  0.19124090731E+03  0.21183954611E+03  0.00000000000E+00 0.  1.
         -1    1    6    6    0  502  0.24679672403E+02  0.11326591166E+01  0.24536766460E+03  0.24660831288E+03  0.00000000000E+00 0.  1.
<mgrwt>
<rscale>  0 0.29042581E+04</rscale>
<asrwt>0</asrwt>
<pdfrwt beam="1">  1        1 0.51338253E+00 0.29042581E+04</pdfrwt>
<pdfrwt beam="2">  1       -1 0.97217095E-01 0.29042581E+04</pdfrwt>
<totfact> 0.29162311E-01</totfact>
</mgrwt>
</event>
<event>
12    1  0.2054449E-007  0.2000442E+04  0.7818608E-02  0.8606414E-01
         -2   -1    0    0    0  501 -0.00000000000E+00  0.00000000000E+00  0.98404119414E+03  0.98404119414E+03  0.00000000000E+00 0.  1.
          2   -1    0    0  501    0  0.00000000000E+00 -0.00000000000E+00 -0.10166666777E+04  0.10166666777E+04  0.00000000000E+00 0. -1.
         23    2    1    2    0    0 -0.24428415590E+02 -0.71919998107E+03 -0.36962645991E+03  0.81401677249E+03  0.90300751721E+02 0.  0.
        254    2    1    2    0    0  0.24428415590E+02  0.71919998107E+03  0.33700097639E+03  0.11866910993E+04  0.88137435113E+03 0.  0.
        -24    2    4    4    0    0 -0.13535361041E+03  0.64579986512E+03 -0.13423860942E+03  0.67760497295E+03  0.75831586167E+02 0.  0.
         24    2    4    4    0    0  0.15978202600E+03  0.73400115952E+02  0.47123958581E+03  0.50908612637E+03  0.78638819759E+02 0.  0.
         11    1    3    3    0    0 -0.34539386861E+02 -0.71152530875E+03 -0.36558128904E+03  0.80069401967E+03  0.00000000000E+00 0. -1.
        -11    1    3    3    0    0  0.10110971271E+02 -0.76746723213E+01 -0.40451708719E+01  0.13322752818E+02  0.00000000000E+00 0.  1.
          4    1    6    6  502    0  0.16607793855E+03  0.68187488386E+02  0.46597493377E+03  0.49936364920E+03  0.00000000000E+00 0. -1.
          3    1    5    5  503    0 -0.10177521366E+03  0.57532664825E+03 -0.10176328914E+03  0.59305540494E+03  0.00000000000E+00 0. -1.
         -4    1    5    5    0  503 -0.33578396742E+02  0.70473216868E+02 -0.32475320276E+02  0.84549568009E+02  0.00000000000E+00 0.  1.
         -3    1    6    6    0  502 -0.62959125569E+01  0.52126275662E+01  0.52646520397E+01  0.97224771621E+01  0.00000000000E+00 0.  1.
<mgrwt>
<rscale>  0 0.20004418E+04</rscale>
<asrwt>0</asrwt>
<pdfrwt beam="1">  1        2 0.15641026E+00 0.20004418E+04</pdfrwt>
<pdfrwt beam="2">  1       -2 0.15139095E+00 0.20004418E+04</pdfrwt>
<totfact> 0.66744692E+00</totfact>
</mgrwt>
</event>
<event>
12    1  0.1599266E-007  0.1121589E+04  0.7818608E-02  0.9184402E-01
          1   -1    0    0  501    0  0.00000000000E+00  0.00000000000E+00  0.18437908156E+04  0.18437908156E+04  0.00000000000E+00 0. -1.
         -1   -1    0    0    0  501 -0.00000000000E+00 -0.00000000000E+00 -0.17056723382E+03  0.17056723382E+03  0.00000000000E+00 0.  1.
         23    2    1    2    0    0  0.86173106188E+02 -0.10634292062E+02  0.41794330768E+01  0.12898376402E+03  0.95291402136E+02 0.  0.
        254    2    1    2    0    0 -0.86173106188E+02  0.10634292062E+02  0.16690441487E+04  0.18853742854E+04  0.87257603299E+03 0.  0.
        -24    2    4    4    0    0  0.57541986644E+02  0.16134943191E+03  0.16512880619E+04  0.16619545521E+04  0.77433524249E+02 0.  0.
         24    2    4    4    0    0 -0.14371509283E+03 -0.15071513985E+03  0.17756086828E+02  0.22341973327E+03  0.78943127034E+02 0.  0.
         11    1    3    3    0    0  0.21729990674E+02  0.11996191106E+02  0.43565356510E+02  0.50140217227E+02  0.00000000000E+00 0. -1.
        -11    1    3    3    0    0  0.64443115514E+02 -0.22630483168E+02 -0.39385923433E+02  0.78843546789E+02  0.00000000000E+00 0.  1.
          4    1    6    6  502    0 -0.65778964036E+02 -0.33172035757E+02 -0.22009486093E+02  0.76887408228E+02  0.00000000000E+00 0. -1.
          3    1    5    5  503    0  0.23694727866E+02  0.96788832356E+02  0.12600173541E+04  0.12639514432E+04  0.00000000000E+00 0. -1.
         -4    1    5    5    0  503  0.33847258778E+02  0.64560599558E+02  0.39127070777E+03  0.39800310890E+03  0.00000000000E+00 0.  1.
         -3    1    6    6    0  502 -0.77936128796E+02 -0.11754310410E+03  0.39765572921E+02  0.14653232504E+03  0.00000000000E+00 0.  1.
<mgrwt>
<rscale>  0 0.11215887E+04</rscale>
<asrwt>0</asrwt>
<pdfrwt beam="1">  1        1 0.28366011E+00 0.11215887E+04</pdfrwt>
<pdfrwt beam="2">  1       -1 0.26241114E-01 0.11215887E+04</pdfrwt>
<totfact> 0.48847018E+01</totfact>
</mgrwt>
</event>
