<event>
12    1  0.1097093E-007  0.1459310E+04  0.7818608E-02  0.8911971E-01
          2   -1    0    0  501    0  0.00000000000E+00  0.00000000000E+00  0.10089774524E+04  0.10089774524E+04  0.00000000000E+00 0. -1.
         -2   -1    0    0    0  501 -0.00000000000E+00 -0.00000000000E+00 -0.52765960535E+03  0.52765960535E+03  0.00000000000E+00 0.  1.
         23    2    1    2    0    0 -0.32802164246E+03 -0.11865249407E+03  0.44569742893E+03  0.57290685294E+03  0.88878859841E+02 0.  0.
        254    2    1    2    0    0  0.32802164246E+03  0.11865249407E+03  0.35620418118E+02  0.96373020481E+03  0.89768061202E+03 0.  0.
        -24    2    4    4    0    0  0.27810029781E+02 -0.18240635584E+03  0.36734271559E+03  0.41861967414E+03  0.79096677998E+02 0.  0.
         24    2    4    4    0    0  0.30021161268E+03  0.30105884991E+03 -0.33172229747E+03  0.54511053067E+03  0.79638963546E+02 0.  0.
         11    1    3    3    0    0 -0.18232142443E+03 -0.64775059938E+02  0.17542443543E+03  0.26117167293E+03  0.00000000000E+00 0. -1.
        -11    1    3    3    0    0 -0.14570021803E+03 -0.53877434129E+02  0.27027299350E+03  0.31173518001E+03  0.00000000000E+00 0.  1.
          4    1    6    6  502    0  0.87473096133E+02  0.14218739471E+03 -0.12226619895E+03  0.20692467510E+03  0.00000000000E+00 0. -1.
          1    1    5    5  503    0  0.45154390732E+02 -0.92232062216E+02  0.14162450003E+03  0.17493762120E+03  0.00000000000E+00 0. -1.
         -2    1    5    5    0  503 -0.17344360951E+02 -0.90174293627E+02  0.22571821556E+03  0.24368205293E+03  0.00000000000E+00 0.  1.
         -3    1    6    6    0  502  0.21273851654E+03  0.15887145521E+03 -0.20945609852E+03  0.33818585557E+03  0.00000000000E+00 0.  1.
<mgrwt>
<rscale>  0 0.14593103E+04</rscale>
<asrwt>0</asrwt>
<pdfrwt beam="1">  1        2 0.15522730E+00 0.14593103E+04</pdfrwt>
<pdfrwt beam="2">  1       -2 0.81178401E-01 0.14593103E+04</pdfrwt>
<totfact> 0.32225566E+01</totfact>
</mgrwt>
</event>
<event>
12    1  0.1097093E-007  0.1795971E+04  0.7818608E-02  0.8708445E-01
          2   -1    0    0  501    0  0.00000000000E+00  0.00000000000E+00  0.91370683972E+03  0.91370683972E+03  0.00000000000E+00 0. -1.
         -2   -1    0    0    0  501 -0.00000000000E+00 -0.00000000000E+00 -0.88253445824E+03  0.88253445824E+03  0.00000000000E+00 0.  1.
         23    2    1    2    0    0 -0.55684331409E+03 -0.11263217321E+03 -0.33010403202E+03  0.66361690653E+03  0.93049684513E+02 0.  0.
        254    2    1    2    0    0  0.55684331409E+03  0.11263217321E+03  0.36127641350E+03  0.11326243914E+04  0.91080013298E+03 0.  0.
        -24    2    4    4    0    0  0.15735998191E+03  0.34536027519E+03 -0.16956611991E+03  0.42349930275E+03  0.81013004042E+02 0.  0.
         24    2    4    4    0    0  0.39948333217E+03 -0.23272810197E+03  0.53084253341E+03  0.70912508869E+03  0.85529491952E+02 0.  0.
         13    1    3    3    0    0 -0.34725005033E+03 -0.27218239473E+02 -0.18042778548E+03  0.39227237449E+03  0.00000000000E+00 0.  1.
        -13    1    3    3    0    0 -0.20959326376E+03 -0.85413933738E+02 -0.14967624654E+03  0.27134453204E+03  0.00000000000E+00 0. -1.
          2    1    6    6  502    0  0.15708246814E+02 -0.24013822130E+02  0.61888277751E+02  0.68217091657E+02  0.00000000000E+00 0. -1.
          1    1    5    5  503    0  0.24113483731E+02  0.10353163380E+03 -0.15825685761E+02  0.10747423703E+03  0.00000000000E+00 0. -1.
         -2    1    5    5    0  503  0.13324649818E+03  0.24182864139E+03 -0.15374043415E+03  0.31602506572E+03  0.00000000000E+00 0.  1.
         -1    1    6    6    0  502  0.38377508536E+03 -0.20871427984E+03  0.46895425566E+03  0.64090799703E+03  0.00000000000E+00 0.  1.
<mgrwt>
<rscale>  0 0.17959708E+04</rscale>
<asrwt>0</asrwt>
<pdfrwt beam="1">  1        2 0.14057028E+00 0.17959708E+04</pdfrwt>
<pdfrwt beam="2">  1       -2 0.13577453E+00 0.17959708E+04</pdfrwt>
<totfact> 0.10537238E+01</totfact>
</mgrwt>
</event>
<event>
12    1  0.1097093E-007  0.1860218E+04  0.7818608E-02  0.8674916E-01
          2   -1    0    0  501    0  0.00000000000E+00  0.00000000000E+00  0.18615900781E+04  0.18615900781E+04  0.00000000000E+00 0. -1.
         -2   -1    0    0    0  501 -0.00000000000E+00 -0.00000000000E+00 -0.46471148548E+03  0.46471148548E+03  0.00000000000E+00 0.  1.
         23    2    1    2    0    0  0.65494542630E+03  0.25457581874E+03  0.62154622569E+03  0.94246918123E+03  0.90366409625E+02 0.  0.
        254    2    1    2    0    0 -0.65494542630E+03 -0.25457581874E+03  0.77533236696E+03  0.13838323824E+04  0.90558788878E+03 0.  0.
        -24    2    4    4    0    0 -0.44914226782E+02  0.91730872822E+02  0.65480197967E+03  0.66752322176E+03  0.79936088313E+02 0.  0.
         24    2    4    4    0    0 -0.61003119952E+03 -0.34630669156E+03  0.12053038729E+03  0.71630916060E+03  0.80652652153E+02 0.  0.
         11    1    3    3    0    0  0.48959557150E+03  0.20407947533E+03  0.41748486468E+03  0.67501545769E+03  0.00000000000E+00 0. -1.
        -11    1    3    3    0    0  0.16534985480E+03  0.50496343405E+02  0.20406136101E+03  0.26745372355E+03  0.00000000000E+00 0.  1.
          4    1    6    6  502    0 -0.34716290840E+03 -0.15111650780E+03  0.69152004767E+02  0.38488996306E+03  0.00000000000E+00 0. -1.
          3    1    5    5  503    0  0.14540155373E+02 -0.55218320563E+01  0.89963858450E+02  0.91298425916E+02  0.00000000000E+00 0. -1.
         -4    1    5    5    0  503 -0.59454382155E+02  0.97252704878E+02  0.56483812122E+03  0.57622479584E+03  0.00000000000E+00 0.  1.
         -3    1    6    6    0  502 -0.26286829112E+03 -0.19519018376E+03  0.51378382522E+02  0.33141919755E+03  0.00000000000E+00 0.  1.
<mgrwt>
<rscale>  0 0.18602175E+04</rscale>
<asrwt>0</asrwt>
<pdfrwt beam="1">  1        2 0.28639847E+00 0.18602175E+04</pdfrwt>
<pdfrwt beam="2">  1       -2 0.71494076E-01 0.18602175E+04</pdfrwt>
<totfact> 0.13298200E+01</totfact>
</mgrwt>
</event>
<event>
12    1  0.1097093E-007  0.2532710E+04  0.7818608E-02  0.8391424E-01
         -2   -1    0    0    0  501 -0.00000000000E+00  0.00000000000E+00  0.39631431912E+03  0.39631431912E+03  0.00000000000E+00 0.  1.
          2   -1    0    0  501    0  0.00000000000E+00 -0.00000000000E+00 -0.40464222341E+04  0.40464222341E+04  0.00000000000E+00 0. -1.
         23    2    1    2    0    0  0.96939459537E+03  0.48528444942E+03 -0.18256992618E+04  0.21248542002E+04  0.81244688426E+02 0.  0.
        254    2    1    2    0    0 -0.96939459537E+03 -0.48528444942E+03 -0.18244086532E+04  0.23178823530E+04  0.93213989832E+03 0.  0.
        -24    2    4    4    0    0 -0.87321942158E+03 -0.64722860272E+03 -0.18111562970E+04  0.21137542078E+04  0.79073991762E+02 0.  0.
         24    2    4    4    0    0 -0.96175173790E+02  0.16194415331E+03 -0.13252356161E+02  0.20412814521E+03  0.77569980536E+02 0.  0.
         13    1    3    3    0    0  0.35846101875E+03  0.22285019884E+03 -0.69369110782E+03  0.81201223276E+03  0.00000000000E+00 0. -1.
        -13    1    3    3    0    0  0.61093357662E+03  0.26243425058E+03 -0.11320081540E+04  0.13128419675E+04  0.00000000000E+00 0.  1.
          4    1    6    6  502    0 -0.30915721924E+01  0.70094680663E+02  0.11317270205E+02  0.71069702974E+02  0.00000000000E+00 0. -1.
          1    1    5    5  503    0 -0.42789145732E+03 -0.28457227939E+03 -0.79811758018E+03  0.94924399036E+03  0.00000000000E+00 0. -1.
         -2    1    5    5    0  503 -0.44532796426E+03 -0.36265632333E+03 -0.10130387168E+04  0.11645102174E+04  0.00000000000E+00 0.  1.
         -3    1    6    6    0  502 -0.93083601597E+02  0.91849472644E+02 -0.24569626367E+02  0.13305844224E+03  0.00000000000E+00 0.  1.
<mgrwt>
<rscale>  0 0.25327101E+04</rscale>
<asrwt>0</asrwt>
<pdfrwt beam="1">  1        2 0.62252652E+00 0.25327101E+04</pdfrwt>
<pdfrwt beam="2">  1       -2 0.60971432E-01 0.25327101E+04</pdfrwt>
<totfact> 0.70040212E-01</totfact>
</mgrwt>
</event>
<event>
12    1  0.1097093E-007  0.2124979E+04  0.7818608E-02  0.8550319E-01
          2   -1    0    0  501    0  0.00000000000E+00  0.00000000000E+00  0.51262583984E+03  0.51262583984E+03  0.00000000000E+00 0.  1.
         -2   -1    0    0    0  501 -0.00000000000E+00 -0.00000000000E+00 -0.22021601824E+04  0.22021601824E+04  0.00000000000E+00 0. -1.
         23    2    1    2    0    0  0.71986161133E+03 -0.30609372204E+03 -0.21219853091E+03  0.81570945512E+03  0.91976043105E+02 0.  0.
        254    2    1    2    0    0 -0.71986161133E+03  0.30609372204E+03 -0.14773358117E+04  0.18990765672E+04  0.90115292893E+03 0.  0.
        -24    2    4    4    0    0  0.85480860504E+02 -0.40628649606E+02  0.52400162182E+02  0.13417315496E+03  0.79366200822E+02 0.  0.
         24    2    4    4    0    0 -0.80534247183E+03  0.34672237165E+03 -0.15297359739E+04  0.17649034122E+04  0.77453242220E+02 0.  0.
         11    1    3    3    0    0  0.69225667139E+03 -0.31049646989E+03 -0.19686355473E+03  0.78382562861E+03  0.00000000000E+00 0. -1.
        -11    1    3    3    0    0  0.27604939943E+02  0.44027478447E+01 -0.15334976187E+02  0.31883826503E+02  0.00000000000E+00 0.  1.
          2    1    6    6  502    0 -0.59282671133E+03  0.21896759088E+03 -0.11187972435E+04  0.12849504223E+04  0.00000000000E+00 0. -1.
          1    1    5    5  503    0  0.86169103277E+02 -0.11691203474E+02  0.17274782151E+02  0.88657863141E+02  0.00000000000E+00 0. -1.
         -2    1    5    5    0  503 -0.68824277351E+00 -0.28937446131E+02  0.35125380031E+02  0.45515291815E+02  0.00000000000E+00 0.  1.
         -1    1    6    6    0  502 -0.21251576050E+03  0.12775478077E+03 -0.41093873034E+03  0.47995298995E+03  0.00000000000E+00 0.  1.
<mgrwt>
<rscale>  0 0.21249793E+04</rscale>
<asrwt>0</asrwt>
<pdfrwt beam="1">  1        2 0.78865513E-01 0.21249793E+04</pdfrwt>
<pdfrwt beam="2">  1       -2 0.33879388E+00 0.21249793E+04</pdfrwt>
<totfact> 0.10080000E+00</totfact>
</mgrwt>
</event>
<event>
12    1  0.1097093E-007  0.2937744E+04  0.7818608E-02  0.8261735E-01
          1   -1    0    0  501    0  0.00000000000E+00  0.00000000000E+00  0.19834118713E+04  0.19834118713E+04  0.00000000000E+00 0. -1.
         -1   -1    0    0    0  501 -0.00000000000E+00 -0.00000000000E+00 -0.10878145831E+04  0.10878145831E+04  0.00000000000E+00 0.  1.
         23    2    1    2    0    0 -0.71037305854E+03  0.71478353590E+03  0.13034406899E+04  0.16499372475E+04  0.88260427835E+02 0.  0.
        254    2    1    2    0    0  0.71037305854E+03 -0.71478353590E+03 -0.40784340171E+03  0.14212892068E+04  0.91552246488E+03 0.  0.
        -24    2    4    4    0    0  0.45930973108E+03  0.70683035855E+02  0.51477774944E+02  0.47362300850E+03  0.75546490647E+02 0.  0.
         24    2    4    4    0    0  0.25106332746E+03 -0.78546657175E+03 -0.45932117666E+03  0.94766619835E+03  0.84289681615E+02 0.  0.
         11    1    3    3    0    0 -0.10942937697E+03  0.68572282121E+02  0.16412432029E+03  0.20883902636E+03  0.00000000000E+00 0.  1.
        -11    1    3    3    0    0 -0.60094368157E+03  0.64621125378E+03  0.11393163696E+04  0.14410982212E+04  0.00000000000E+00 0. -1.
          4    1    6    6  502    0  0.14769575373E+03 -0.46432954824E+03 -0.22359249940E+03  0.53610593247E+03  0.00000000000E+00 0. -1.
          1    1    5    5  503    0  0.99872838330E+02  0.30037994306E+02 -0.16423725737E+02  0.10557747726E+03  0.00000000000E+00 0. -1.
         -2    1    5    5    0  503  0.35943689275E+03  0.40645041548E+02  0.67901500682E+02  0.36804553124E+03  0.00000000000E+00 0.  1.
         -3    1    6    6    0  502  0.10336757373E+03 -0.32113702351E+03 -0.23572867726E+03  0.41156026588E+03  0.00000000000E+00 0.  1.
<mgrwt>
<rscale>  0 0.29377436E+04</rscale>
<asrwt>0</asrwt>
<pdfrwt beam="1">  1        1 0.30514029E+00 0.29377436E+04</pdfrwt>
<pdfrwt beam="2">  1       -1 0.16735609E+00 0.29377436E+04</pdfrwt>
<totfact> 0.67345550E-01</totfact>
</mgrwt>
</event>
<event>
12    1  0.1097093E-007  0.1617843E+04  0.7818608E-02  0.8809661E-01
         -2   -1    0    0    0  501 -0.00000000000E+00  0.00000000000E+00  0.50955383632E+03  0.50955383632E+03  0.00000000000E+00 0.  1.
          2   -1    0    0  501    0  0.00000000000E+00 -0.00000000000E+00 -0.12841709867E+04  0.12841709867E+04  0.00000000000E+00 0. -1.
         23    2    1    2    0    0  0.11717726357E+03  0.98641583239E+02 -0.85993870737E+03  0.87847612152E+03  0.93621806248E+02 0.  0.
        254    2    1    2    0    0 -0.11717726357E+03 -0.98641583239E+02  0.85321556970E+02  0.91524870152E+03  0.89829824920E+03 0.  0.
        -24    2    4    4    0    0 -0.19296621951E+03  0.17287820890E+01 -0.37543215800E+03  0.43119109731E+03  0.87963097835E+02 0.  0.
         24    2    4    4    0    0  0.75788955942E+02 -0.10037036533E+03  0.46075371497E+03  0.48405760421E+03  0.78737553004E+02 0.  0.
         13    1    3    3    0    0  0.21719974053E+02  0.79151993794E+02 -0.38843948110E+03  0.39701640504E+03  0.00000000000E+00 0. -1.
        -13    1    3    3    0    0  0.95457289513E+02  0.19489589445E+02 -0.47149922627E+03  0.48145971648E+03  0.00000000000E+00 0.  1.
          4    1    6    6  502    0  0.58269669790E+02 -0.39450445070E+02  0.34481044999E+03  0.35191751655E+03  0.00000000000E+00 0. -1.
          3    1    5    5  503    0 -0.11068737828E+03 -0.13386073954E+02 -0.29406210959E+03  0.31448912061E+03  0.00000000000E+00 0. -1.
         -4    1    5    5    0  503 -0.82278841233E+02  0.15114856043E+02 -0.81370048413E+02  0.11670197670E+03  0.00000000000E+00 0.  1.
         -3    1    6    6    0  502  0.17519286152E+02 -0.60919920258E+02  0.11594326499E+03  0.13214008766E+03  0.00000000000E+00 0.  1.
<mgrwt>
<rscale>  0 0.16178433E+04</rscale>
<asrwt>0</asrwt>
<pdfrwt beam="1">  1        2 0.19756477E+00 0.16178433E+04</pdfrwt>
<pdfrwt beam="2">  1       -2 0.78392898E-01 0.16178433E+04</pdfrwt>
<totfact> 0.23398897E+01</totfact>
</mgrwt>
</event>
<event>
12    1  0.1097093E-007  0.1828561E+04  0.7818608E-02  0.8691257E-01
         -2   -1    0    0    0  501 -0.00000000000E+00  0.00000000000E+00  0.36446337473E+03  0.36446337473E+03  0.00000000000E+00 0.  1.
          2   -1    0    0  501    0  0.00000000000E+00 -0.00000000000E+00 -0.22935340481E+04  0.22935340481E+04  0.00000000000E+00 0. -1.
         23    2    1    2    0    0  0.43348053049E+03  0.17390335259E+03  0.21271871783E+01  0.47609923345E+03  0.92294142861E+02 0.  0.
        254    2    1    2    0    0 -0.43348053049E+03 -0.17390335259E+03 -0.19311978606E+04  0.21818981894E+04  0.90166888929E+03 0.  0.
        -24    2    4    4    0    0  0.34463880070E+02  0.20975686907E+03 -0.12368996876E+04  0.12574051679E+04  0.77208911688E+02 0.  0.
         24    2    4    4    0    0 -0.46794441056E+03 -0.38366022166E+03 -0.69429817299E+03  0.92449302148E+03  0.80437905773E+02 0.  0.
         11    1    3    3    0    0  0.26551056876E+03  0.11978583466E+03 -0.41739495168E+02  0.29425617031E+03  0.00000000000E+00 0.  1.
        -11    1    3    3    0    0  0.16796996173E+03  0.54117517923E+02  0.43866682346E+02  0.18184306314E+03  0.00000000000E+00 0. -1.
          4    1    6    6  502    0 -0.40880162596E+03 -0.31801763687E+03 -0.55154382299E+03  0.75660727952E+03  0.00000000000E+00 0. -1.
          1    1    5    5  503    0 -0.12964332899E+02  0.70098505722E+02 -0.56681626898E+03  0.57128150435E+03  0.00000000000E+00 0. -1.
         -2    1    5    5    0  503  0.47428212969E+02  0.13965836335E+03 -0.67008341862E+03  0.68612366359E+03  0.00000000000E+00 0.  1.
         -3    1    6    6    0  502 -0.59142784606E+02 -0.65642584792E+02 -0.14275435000E+03  0.16788574196E+03  0.00000000000E+00 0.  1.
<mgrwt>
<rscale>  0 0.18285614E+04</rscale>
<asrwt>0</asrwt>
<pdfrwt beam="1">  1        2 0.35285138E+00 0.18285614E+04</pdfrwt>
<pdfrwt beam="2">  1       -2 0.56071290E-01 0.18285614E+04</pdfrwt>
<totfact> 0.12866511E+01</totfact>
</mgrwt>
</event>
<event>
12    1  0.1097093E-007  0.1627951E+04  0.7818608E-02  0.8803558E-01
         -1   -1    0    0    0  501 -0.00000000000E+00  0.00000000000E+00  0.71928909859E+03  0.71928909859E+03  0.00000000000E+00 0.  1.
          1   -1    0    0  501    0  0.00000000000E+00 -0.00000000000E+00 -0.92112627257E+03  0.92112627257E+03  0.00000000000E+00 0. -1.
         23    2    1    2    0    0 -0.42359094917E+03  0.12986119899E+03 -0.41008945598E+03  0.61027161815E+03  0.89246079928E+02 0.  0.
        254    2    1    2    0    0  0.42359094917E+03 -0.12986119899E+03  0.20825228200E+03  0.10301437530E+04  0.90638508135E+03 0.  0.
        -24    2    4    4    0    0  0.47310704469E+03 -0.36137908619E+03 -0.12505651155E+03  0.61368934866E+03  0.80934330810E+02 0.  0.
         24    2    4    4    0    0 -0.49516095516E+02  0.23151788721E+03  0.33330879355E+03  0.41645440436E+03  0.79291507969E+02 0.  0.
         11    1    3    3    0    0 -0.30827319590E+03  0.11255310505E+03 -0.34732277181E+03  0.47784272788E+03  0.00000000000E+00 0. -1.
        -11    1    3    3    0    0 -0.11531775327E+03  0.17308093933E+02 -0.62766684170E+02  0.13242889027E+03  0.00000000000E+00 0.  1.
          4    1    6    6  502    0 -0.56122347342E+02  0.22724310189E+03  0.33473606353E+03  0.40845731412E+03  0.00000000000E+00 0. -1.
          3    1    5    5  503    0  0.36485903114E+03 -0.23863835725E+03 -0.10799658258E+03  0.44914768173E+03  0.00000000000E+00 0. -1.
         -4    1    5    5    0  503  0.10824801355E+03 -0.12274072894E+03 -0.17059928971E+02  0.16454166693E+03  0.00000000000E+00 0.  1.
         -3    1    6    6    0  502  0.66062518258E+01  0.42747853190E+01 -0.14272699784E+01  0.79970902396E+01  0.00000000000E+00 0.  1.
<mgrwt>
<rscale>  0 0.16279510E+04</rscale>
<asrwt>0</asrwt>
<pdfrwt beam="1">  1        1 0.14171173E+00 0.16279510E+04</pdfrwt>
<pdfrwt beam="2">  1       -1 0.11065986E+00 0.16279510E+04</pdfrwt>
<totfact> 0.12600150E+01</totfact>
</mgrwt>
</event>
<event>
12    1  0.1097093E-007  0.1847787E+04  0.7818608E-02  0.8681292E-01
          2   -1    0    0  501    0  0.00000000000E+00  0.00000000000E+00  0.28552745060E+04  0.28552745060E+04  0.00000000000E+00 0.  1.
         -2   -1    0    0    0  501 -0.00000000000E+00 -0.00000000000E+00 -0.29894819868E+03  0.29894819868E+03  0.00000000000E+00 0. -1.
         23    2    1    2    0    0  0.13020289864E+03 -0.95903182027E+02 -0.18662517885E+03  0.26355801712E+03  0.92106763433E+02 0.  0.
        254    2    1    2    0    0 -0.13020289864E+03  0.95903182027E+02  0.27429514861E+04  0.28906646875E+04  0.89778018763E+03 0.  0.
        -24    2    4    4    0    0 -0.12227519653E+03 -0.24151426152E+01  0.10610164650E+01  0.14573513028E+03  0.79249894903E+02 0.  0.
         24    2    4    4    0    0 -0.79277021145E+01  0.98318324642E+02  0.27418904697E+04  0.27449295572E+04  0.83340177456E+02 0.  0.
         13    1    3    3    0    0  0.10396274024E+02  0.17902900022E+02 -0.24293020720E+02  0.31917819450E+02  0.00000000000E+00 0.  1.
        -13    1    3    3    0    0  0.11980662462E+03 -0.11380608205E+03 -0.16233215813E+03  0.23164019767E+03  0.00000000000E+00 0. -1.
          2    1    6    6  502    0  0.12210326806E+02  0.30605285609E+01  0.61689758164E+02  0.62960981394E+02  0.00000000000E+00 0. -1.
          1    1    5    5  503    0  0.89889234932E+01 -0.66918193713E+01  0.86886447066E+01  0.14180047211E+02  0.00000000000E+00 0. -1.
         -2    1    5    5    0  503 -0.13126412002E+03  0.42766767561E+01 -0.76276282416E+01  0.13155508307E+03  0.00000000000E+00 0.  1.
         -1    1    6    6    0  502 -0.20138028921E+02  0.95257796081E+02  0.26802007115E+04  0.26819685759E+04  0.00000000000E+00 0.  1.
<mgrwt>
<rscale>  0 0.18477870E+04</rscale>
<asrwt>0</asrwt>
<pdfrwt beam="1">  1        2 0.43927298E+00 0.18477870E+04</pdfrwt>
<pdfrwt beam="2">  1       -2 0.45992033E-01 0.18477870E+04</pdfrwt>
<totfact> 0.90455670E+00</totfact>
</mgrwt>
</event>
<event>
12    1  0.1097093E-007  0.2543779E+04  0.7818608E-02  0.8387553E-01
          1   -1    0    0  501    0  0.00000000000E+00  0.00000000000E+00  0.87753457487E+03  0.87753457487E+03  0.00000000000E+00 0. -1.
         -1   -1    0    0    0  501 -0.00000000000E+00 -0.00000000000E+00 -0.18434637872E+04  0.18434637872E+04  0.00000000000E+00 0.  1.
         23    2    1    2    0    0 -0.38544425718E+03 -0.10179169884E+03  0.68759747196E+03  0.80045019184E+03  0.94875712513E+02 0.  0.
        254    2    1    2    0    0  0.38544425718E+03  0.10179169884E+03 -0.16535266843E+04  0.19205481702E+04  0.89186655571E+03 0.  0.
        -24    2    4    4    0    0  0.39916338642E+03 -0.31550178702E+03 -0.64002166134E+03  0.82152564642E+03  0.80024209285E+02 0.  0.
         24    2    4    4    0    0 -0.13719129242E+02  0.41729348586E+03 -0.10135050230E+04  0.10990225238E+04  0.79599048109E+02 0.  0.
         13    1    3    3    0    0 -0.10309742300E+03 -0.72274287233E+02  0.21140842224E+03  0.24606131801E+03  0.00000000000E+00 0.  1.
        -13    1    3    3    0    0 -0.28234683417E+03 -0.29517411608E+02  0.47618904971E+03  0.55438887383E+03  0.00000000000E+00 0. -1.
          2    1    6    6  502    0 -0.86935029256E+01  0.19771945090E+02 -0.10724627864E+03  0.10939959364E+03  0.00000000000E+00 0. -1.
          1    1    5    5  503    0  0.47946638217E+02 -0.75846067044E+02 -0.10468075798E+03  0.13787518665E+03  0.00000000000E+00 0. -1.
         -2    1    5    5    0  503  0.35121674820E+03 -0.23965571998E+03 -0.53534090336E+03  0.68365045977E+03  0.00000000000E+00 0.  1.
         -1    1    6    6    0  502 -0.50256263163E+01  0.39752154077E+03 -0.90625874432E+03  0.98962293019E+03  0.00000000000E+00 0.  1.
<mgrwt>
<rscale>  0 0.25437792E+04</rscale>
<asrwt>0</asrwt>
<pdfrwt beam="1">  1        1 0.13500532E+00 0.25437792E+04</pdfrwt>
<pdfrwt beam="2">  1       -1 0.28360981E+00 0.25437792E+04</pdfrwt>
<totfact> 0.70889729E-01</totfact>
</mgrwt>
</event>
<event>
12    1  0.1097093E-007  0.2918671E+04  0.7818608E-02  0.8267344E-01
          1   -1    0    0  501    0  0.00000000000E+00  0.00000000000E+00  0.10369797952E+04  0.10369797952E+04  0.00000000000E+00 0. -1.
         -1   -1    0    0    0  501 -0.00000000000E+00 -0.00000000000E+00 -0.20537139799E+04  0.20537139799E+04  0.00000000000E+00 0.  1.
         23    2    1    2    0    0  0.52925602950E+02 -0.13060062475E+04 -0.63855246807E+03  0.14577262068E+04  0.93610904558E+02 0.  0.
        254    2    1    2    0    0 -0.52925602950E+02  0.13060062475E+04 -0.37818171666E+03  0.16329675684E+04  0.90283344566E+03 0.  0.
        -24    2    4    4    0    0 -0.44654637052E+03  0.45672375878E+03 -0.21921325915E+03  0.68015689821E+03  0.80985803254E+02 0.  0.
         24    2    4    4    0    0  0.39362076757E+03  0.84928248872E+03 -0.15896845752E+03  0.95281067018E+03  0.79744268765E+02 0.  0.
         13    1    3    3    0    0  0.61923911843E+02 -0.10457170922E+04 -0.47520315344E+03  0.11502942428E+04  0.00000000000E+00 0.  1.
        -13    1    3    3    0    0 -0.89983088927E+01 -0.26028915526E+03 -0.16334931462E+03  0.30743196401E+03  0.00000000000E+00 0. -1.
          2    1    6    6  502    0  0.99222948301E+01  0.37551373009E+01  0.84313895509E+00  0.10642550171E+02  0.00000000000E+00 0. -1.
          3    1    5    5  503    0 -0.19825139383E+03  0.22152026573E+03 -0.14240868326E+03  0.32962869467E+03  0.00000000000E+00 0. -1.
         -4    1    5    5    0  503 -0.24829497669E+03  0.23520349305E+03 -0.76804575889E+02  0.35052820353E+03  0.00000000000E+00 0.  1.
         -1    1    6    6    0  502  0.38369847274E+03  0.84552735142E+03 -0.15981159647E+03  0.94216812001E+03  0.00000000000E+00 0.  1.
<mgrwt>
<rscale>  0 0.29186709E+04</rscale>
<asrwt>0</asrwt>
<pdfrwt beam="1">  1        1 0.15953535E+00 0.29186709E+04</pdfrwt>
<pdfrwt beam="2">  1       -1 0.31595600E+00 0.29186709E+04</pdfrwt>
<totfact> 0.31561105E-01</totfact>
</mgrwt>
</event>
<event>
12    1  0.1097093E-007  0.1535196E+04  0.7818608E-02  0.8861380E-01
         -2   -1    0    0    0  501 -0.00000000000E+00  0.00000000000E+00  0.19408979423E+03  0.19408979423E+03  0.00000000000E+00 0.  1.
          2   -1    0    0  501    0  0.00000000000E+00 -0.00000000000E+00 -0.30357418826E+04  0.30357418826E+04  0.00000000000E+00 0. -1.
         23    2    1    2    0    0 -0.43392978473E+02  0.30332529000E+03 -0.11681282330E+03  0.34048968814E+03  0.91645021180E+02 0.  0.
        254    2    1    2    0    0  0.43392978473E+02 -0.30332529000E+03 -0.27248392651E+04  0.28893419887E+04  0.91085614946E+03 0.  0.
        -24    2    4    4    0    0 -0.15510867928E+03  0.14753372562E+03 -0.16654171884E+03  0.28289708018E+03  0.80434515461E+02 0.  0.
         24    2    4    4    0    0  0.19850165775E+03 -0.45085901562E+03 -0.25582975463E+04  0.26064449085E+04  0.77407790087E+02 0.  0.
         11    1    3    3    0    0  0.11470417724E+01 -0.36574000465E-01 -0.18448019561E+02  0.18483681133E+02  0.00000000000E+00 0. -1.
        -11    1    3    3    0    0 -0.44540020246E+02  0.30336186400E+03 -0.98364803735E+02  0.32200600700E+03  0.00000000000E+00 0.  1.
          4    1    6    6  502    0  0.90579197851E+02 -0.25382355834E+03 -0.15673073983E+04  0.15903092374E+04  0.00000000000E+00 0. -1.
          1    1    5    5  503    0 -0.12191511309E+03  0.11321310127E+03 -0.81258459613E+02  0.18515787414E+03  0.00000000000E+00 0. -1.
         -2    1    5    5    0  503 -0.33193566184E+02  0.34320624348E+02 -0.85283259225E+02  0.97739206032E+02  0.00000000000E+00 0.  1.
         -3    1    6    6    0  502  0.10792245990E+03 -0.19703545727E+03 -0.99099014799E+03  0.10161356712E+04  0.00000000000E+00 0.  1.
<mgrwt>
<rscale>  0 0.15351958E+04</rscale>
<asrwt>0</asrwt>
<pdfrwt beam="1">  1        2 0.46703717E+00 0.15351958E+04</pdfrwt>
<pdfrwt beam="2">  1       -2 0.29859971E-01 0.15351958E+04</pdfrwt>
<totfact> 0.16599121E+01</totfact>
</mgrwt>
</event>
<event>
12    1  0.1097093E-007  0.2630048E+04  0.7818608E-02  0.8358066E-01
         -2   -1    0    0    0  501 -0.00000000000E+00  0.00000000000E+00  0.99082138886E+03  0.99082138886E+03  0.00000000000E+00 0.  1.
          2   -1    0    0  501    0  0.00000000000E+00 -0.00000000000E+00 -0.17453077786E+04  0.17453077786E+04  0.00000000000E+00 0. -1.
         23    2    1    2    0    0 -0.72002272775E+03 -0.70744442585E+03  0.25534425538E+03  0.10451796259E+04  0.91046238411E+02 0.  0.
        254    2    1    2    0    0  0.72002272775E+03  0.70744442585E+03 -0.10098306451E+04  0.16909495415E+04  0.90589297164E+03 0.  0.
        -24    2    4    4    0    0  0.75396619134E+03  0.86453153298E+03 -0.74257313756E+03  0.13688365709E+04  0.80118063649E+02 0.  0.
         24    2    4    4    0    0 -0.33943463589E+02 -0.15708710713E+03 -0.26725750754E+03  0.32211297058E+03  0.80632949456E+02 0.  0.
         11    1    3    3    0    0 -0.57332411246E+02 -0.96069490050E+02  0.27619639477E+02  0.11523539726E+03  0.00000000000E+00 0. -1.
        -11    1    3    3    0    0 -0.66269031650E+03 -0.61137493580E+03  0.22772461590E+03  0.92994422865E+03  0.00000000000E+00 0.  1.
          4    1    6    6  502    0 -0.38025419751E+02 -0.90828262261E+02 -0.92213797937E+02  0.13490400403E+03  0.00000000000E+00 0. -1.
          3    1    5    5  503    0  0.11494799956E+03  0.97590183997E+02 -0.11568586981E+03  0.19005290603E+03  0.00000000000E+00 0. -1.
         -4    1    5    5    0  503  0.63901819178E+03  0.76694134898E+03 -0.62688726775E+03  0.11787836649E+04  0.00000000000E+00 0.  1.
         -3    1    6    6    0  502  0.40819561616E+01 -0.66258844866E+02 -0.17504370960E+03  0.18720896656E+03  0.00000000000E+00 0.  1.
<mgrwt>
<rscale>  0 0.26300481E+04</rscale>
<asrwt>0</asrwt>
<pdfrwt beam="1">  1        2 0.26850889E+00 0.26300481E+04</pdfrwt>
<pdfrwt beam="2">  1       -2 0.15243406E+00 0.26300481E+04</pdfrwt>
<totfact> 0.23443197E+00</totfact>
</mgrwt>
</event>
<event>
12    1  0.1097093E-007  0.1383338E+04  0.7818608E-02  0.8965968E-01
          1   -1    0    0  501    0  0.00000000000E+00  0.00000000000E+00  0.78208822554E+03  0.78208822554E+03  0.00000000000E+00 0. -1.
         -1   -1    0    0    0  501 -0.00000000000E+00 -0.00000000000E+00 -0.61170380627E+03  0.61170380627E+03  0.00000000000E+00 0.  1.
         23    2    1    2    0    0 -0.33421103423E+03  0.71290547284E+02  0.23841893574E+03  0.42674210322E+03  0.92118815709E+02 0.  0.
        254    2    1    2    0    0  0.33421103423E+03 -0.71290547284E+02 -0.68034516468E+02  0.96704992859E+03  0.90209617637E+03 0.  0.
        -24    2    4    4    0    0  0.42011823016E+03 -0.11779654561E+03 -0.40902369348E+03  0.60343360315E+03  0.80351590586E+02 0.  0.
         24    2    4    4    0    0 -0.85907195929E+02  0.46505998325E+02  0.34098917702E+03  0.36361632544E+03  0.80002244276E+02 0.  0.
         11    1    3    3    0    0 -0.21841348902E+03  0.22294909701E+02  0.10484459535E+03  0.24329797442E+03  0.00000000000E+00 0. -1.
        -11    1    3    3    0    0 -0.11579754521E+03  0.48995637583E+02  0.13357434040E+03  0.18344412880E+03  0.00000000000E+00 0.  1.
          4    1    6    6  502    0 -0.96441972195E+02  0.21772892198E+02  0.28076405459E+03  0.29766351336E+03  0.00000000000E+00 0. -1.
          3    1    5    5  503    0  0.28227451021E+03 -0.55150080484E+02 -0.22524581612E+03  0.36531644936E+03  0.00000000000E+00 0. -1.
         -4    1    5    5    0  503  0.13784371995E+03 -0.62646465124E+02 -0.18377787736E+03  0.23811715379E+03  0.00000000000E+00 0.  1.
         -3    1    6    6    0  502  0.10534776266E+02  0.24733106127E+02  0.60225122428E+02  0.65952812079E+02  0.00000000000E+00 0.  1.
<mgrwt>
<rscale>  0 0.13833385E+04</rscale>
<asrwt>0</asrwt>
<pdfrwt beam="1">  1        1 0.12032127E+00 0.13833385E+04</pdfrwt>
<pdfrwt beam="2">  1       -1 0.94108277E-01 0.13833385E+04</pdfrwt>
<totfact> 0.24490194E+01</totfact>
</mgrwt>
</event>
<event>
12    1  0.1097093E-007  0.1415535E+04  0.7818608E-02  0.8942650E-01
          1   -1    0    0  501    0  0.00000000000E+00  0.00000000000E+00  0.28447142807E+04  0.28447142807E+04  0.00000000000E+00 0. -1.
         -1   -1    0    0    0  501 -0.00000000000E+00 -0.00000000000E+00 -0.17609321183E+03  0.17609321183E+03  0.00000000000E+00 0.  1.
         23    2    1    2    0    0  0.25733946967E+03  0.12152908643E+03  0.15374030248E+03  0.33519431692E+03  0.87898964666E+02 0.  0.
        254    2    1    2    0    0 -0.25733946967E+03 -0.12152908643E+03  0.25148807664E+04  0.26856131757E+04  0.89827609251E+03 0.  0.
        -24    2    4    4    0    0  0.14031922922E+03 -0.28762984786E+03  0.19118651635E+04  0.19400889099E+04  0.79348341527E+02 0.  0.
         24    2    4    4    0    0 -0.39765869889E+03  0.16610076143E+03  0.60301560291E+03  0.74552426576E+03  0.80353654220E+02 0.  0.
         11    1    3    3    0    0  0.11517930728E+01  0.13310536963E+02  0.25833935785E+02  0.29084175416E+02  0.00000000000E+00 0. -1.
        -11    1    3    3    0    0  0.25618767660E+03  0.10821854947E+03  0.12790636669E+03  0.30611014150E+03  0.00000000000E+00 0.  1.
          2    1    6    6  502    0 -0.79478475348E+02  0.34620094424E+02  0.72103204812E+02  0.11275748811E+03  0.00000000000E+00 0. -1.
          1    1    5    5  503    0  0.72585426035E+02 -0.17994540810E+03  0.13586345052E+04  0.13724200205E+04  0.00000000000E+00 0. -1.
         -2    1    5    5    0  503  0.67733803180E+02 -0.10768443976E+03  0.55323065831E+03  0.56766888936E+03  0.00000000000E+00 0.  1.
         -1    1    6    6    0  502 -0.31818022354E+03  0.13148066701E+03  0.53091239809E+03  0.63276677765E+03  0.00000000000E+00 0.  1.
<mgrwt>
<rscale>  0 0.14155351E+04</rscale>
<asrwt>0</asrwt>
<pdfrwt beam="1">  1        1 0.43764832E+00 0.14155351E+04</pdfrwt>
<pdfrwt beam="2">  1       -1 0.27091265E-01 0.14155351E+04</pdfrwt>
<totfact> 0.92501168E+00</totfact>
</mgrwt>
</event>
<event>
12    1  0.1097093E-007  0.2593967E+04  0.7818608E-02  0.8370253E-01
          2   -1    0    0  501    0  0.00000000000E+00  0.00000000000E+00  0.18982822753E+04  0.18982822753E+04  0.00000000000E+00 0. -1.
         -2   -1    0    0    0  501 -0.00000000000E+00 -0.00000000000E+00 -0.88615209606E+03  0.88615209606E+03  0.00000000000E+00 0.  1.
         23    2    1    2    0    0  0.58029398896E+03  0.97099509452E+03  0.24190409842E+03  0.11604346301E+04  0.92294911701E+02 0.  0.
        254    2    1    2    0    0 -0.58029398896E+03 -0.97099509452E+03  0.77022608083E+03  0.16239997413E+04  0.87438798985E+03 0.  0.
        -24    2    4    4    0    0 -0.16530975169E+03 -0.98830649844E+03  0.57476337840E+03  0.11579313726E+04  0.79844057668E+02 0.  0.
         24    2    4    4    0    0 -0.41498423728E+03  0.17311403920E+02  0.19546270243E+03  0.46606836870E+03  0.80637797375E+02 0.  0.
         11    1    3    3    0    0  0.15900426025E+03  0.31799619453E+03  0.11041192044E+03  0.37228312705E+03  0.00000000000E+00 0.  1.
        -11    1    3    3    0    0  0.42128972871E+03  0.65299889999E+03  0.13149217798E+03  0.78815150306E+03  0.00000000000E+00 0. -1.
          4    1    6    6  502    0 -0.16643579348E+03  0.10125008823E+00  0.12186623438E+03  0.20628199797E+03  0.00000000000E+00 0. -1.
          3    1    5    5  503    0 -0.13355546378E+02 -0.27447672291E+03  0.13972967599E+03  0.30828594582E+03  0.00000000000E+00 0. -1.
         -4    1    5    5    0  503 -0.15195420531E+03 -0.71382977553E+03  0.43503370241E+03  0.84964542674E+03  0.00000000000E+00 0.  1.
         -3    1    6    6    0  502 -0.24854844379E+03  0.17210153832E+02  0.73596468048E+02  0.25978637073E+03  0.00000000000E+00 0.  1.
<mgrwt>
<rscale>  0 0.25939675E+04</rscale>
<asrwt>0</asrwt>
<pdfrwt beam="1">  1        2 0.29204343E+00 0.25939675E+04</pdfrwt>
<pdfrwt beam="2">  1       -2 0.13633109E+00 0.25939675E+04</pdfrwt>
<totfact> 0.25913454E+00</totfact>
</mgrwt>
</event>
<event>
12    1  0.1097093E-007  0.3142661E+04  0.7818608E-02  0.8204126E-01
          1   -1    0    0  501    0  0.00000000000E+00  0.00000000000E+00  0.32265130182E+04  0.32265130182E+04  0.00000000000E+00 0. -1.
         -1   -1    0    0    0  501 -0.00000000000E+00 -0.00000000000E+00 -0.76524726633E+03  0.76524726633E+03  0.00000000000E+00 0.  1.
         23    2    1    2    0    0  0.10833370937E+03  0.31337665829E+03  0.29114385342E+04  0.29316907638E+04  0.91625724635E+02 0.  0.
        254    2    1    2    0    0 -0.10833370937E+03 -0.31337665829E+03 -0.45017278241E+03  0.10600695207E+04  0.90063906872E+03 0.  0.
        -24    2    4    4    0    0 -0.26985359026E+03 -0.54156310649E+03 -0.46807732482E+03  0.76891560288E+03  0.77609689210E+02 0.  0.
         24    2    4    4    0    0  0.16151988089E+03  0.22818644821E+03  0.17904542406E+02  0.29115391779E+03  0.79324045149E+02 0.  0.
         11    1    3    3    0    0 -0.14326572825E+02  0.48187004130E+02  0.33793230573E+03  0.34165111051E+03  0.00000000000E+00 0.  1.
        -11    1    3    3    0    0  0.12266028220E+03  0.26518965416E+03  0.25735062285E+04  0.25900396533E+04  0.00000000000E+00 0. -1.
          2    1    6    6  502    0  0.11412552518E+03  0.10451514675E+03  0.31800428630E+02  0.15798518493E+03  0.00000000000E+00 0. -1.
          3    1    5    5  503    0 -0.23339956803E+03 -0.39346609578E+03 -0.35420608152E+03  0.57857832233E+03  0.00000000000E+00 0. -1.
         -4    1    5    5    0  503 -0.36454022236E+02 -0.14809701071E+03 -0.11387124330E+03  0.19033728056E+03  0.00000000000E+00 0.  1.
         -1    1    6    6    0  502  0.47394355714E+02  0.12367130146E+03 -0.13895886224E+02  0.13316873286E+03  0.00000000000E+00 0.  1.
<mgrwt>
<rscale>  0 0.31426615E+04</rscale>
<asrwt>0</asrwt>
<pdfrwt beam="1">  1        1 0.49638661E+00 0.31426615E+04</pdfrwt>
<pdfrwt beam="2">  1       -1 0.11773035E+00 0.31426615E+04</pdfrwt>
<totfact> 0.22118539E-01</totfact>
</mgrwt>
</event>
<event>
12    1  0.1258738E-007  0.1444902E+04  0.7818608E-02  0.8921942E-01
         -2   -1    0    0    0  501 -0.00000000000E+00  0.00000000000E+00  0.23000383983E+03  0.23000383983E+03  0.00000000000E+00 0.  1.
          2   -1    0    0  501    0  0.00000000000E+00 -0.00000000000E+00 -0.22692468373E+04  0.22692468373E+04  0.00000000000E+00 0. -1.
         23    2    1    2    0    0 -0.35625936675E+03  0.24132975133E+03 -0.68796735961E+03  0.81655643367E+03  0.91129228093E+02 0.  0.
        254    2    1    2    0    0  0.35625936675E+03 -0.24132975133E+03 -0.13512756379E+04  0.16826942435E+04  0.90573356029E+03 0.  0.
        -24    2    4    4    0    0 -0.29117584369E+03 -0.16929252554E+03 -0.43336325056E+03  0.55447447323E+03  0.78707708529E+02 0.  0.
         24    2    4    4    0    0  0.64743521043E+03 -0.72037225783E+02 -0.91791238732E+03  0.11282197702E+04  0.77168552899E+02 0.  0.
         13    1    3    3    0    0 -0.37089264261E+02 -0.39705958315E+01 -0.57739917608E+02  0.68740652020E+02  0.00000000000E+00 0.  1.
        -13    1    3    3    0    0 -0.31917010249E+03  0.24530034716E+03 -0.63022744200E+03  0.74781578165E+03  0.00000000000E+00 0. -1.
          4    1    6    6  502    0  0.24338504274E+02  0.18754986733E+01 -0.64485421718E+02  0.68951068880E+02  0.00000000000E+00 0. -1.
          1    1    5    5  503    0 -0.87937571501E+01  0.44149176529E+01 -0.13819735258E+01  0.99363732580E+01  0.00000000000E+00 0. -1.
         -2    1    5    5    0  503 -0.28238208654E+03 -0.17370744320E+03 -0.43198127703E+03  0.54453809997E+03  0.00000000000E+00 0.  1.
         -3    1    6    6    0  502  0.62309670616E+03 -0.73912724456E+02 -0.85342696560E+03  0.10592687014E+04  0.00000000000E+00 0.  1.
<mgrwt>
<rscale>  0 0.14449021E+04</rscale>
<asrwt>0</asrwt>
<pdfrwt beam="1">  1        2 0.34911488E+00 0.14449021E+04</pdfrwt>
<pdfrwt beam="2">  1       -2 0.35385208E-01 0.14449021E+04</pdfrwt>
<totfact> 0.34404218E+01</totfact>
</mgrwt>
</event>
<event>
12    1  0.1097093E-007  0.1978995E+04  0.7818608E-02  0.8616504E-01
         -2   -1    0    0    0  501 -0.00000000000E+00  0.00000000000E+00  0.37907336527E+03  0.37907336527E+03  0.00000000000E+00 0.  1.
          2   -1    0    0  501    0  0.00000000000E+00 -0.00000000000E+00 -0.25828922922E+04  0.25828922922E+04  0.00000000000E+00 0. -1.
         23    2    1    2    0    0  0.48767200527E+03 -0.33875118062E+03 -0.16045579335E+04  0.17133277485E+04  0.91156265745E+02 0.  0.
        254    2    1    2    0    0 -0.48767200527E+03  0.33875118062E+03 -0.59926099339E+03  0.12486379089E+04  0.92054687132E+03 0.  0.
        -24    2    4    4    0    0 -0.57490305242E+03 -0.14354158268E+03 -0.30396281226E+03  0.67069952633E+03  0.79540918687E+02 0.  0.
         24    2    4    4    0    0  0.87231047151E+02  0.48229276330E+03 -0.29529818113E+03  0.57793838259E+03  0.81216951253E+02 0.  0.
         13    1    3    3    0    0  0.43656196590E+03 -0.33310913170E+03 -0.14786171852E+04  0.15772941464E+04  0.00000000000E+00 0. -1.
        -13    1    3    3    0    0  0.51110039369E+02 -0.56420489243E+01 -0.12594074826E+03  0.13603360215E+03  0.00000000000E+00 0.  1.
          2    1    6    6  502    0 -0.41358760874E+00  0.20935595088E+01  0.45788699494E+01  0.50517418917E+01  0.00000000000E+00 0. -1.
          1    1    5    5  503    0 -0.18549166150E+02  0.69386999384E+00  0.34880482699E+01  0.18887019382E+02  0.00000000000E+00 0. -1.
         -2    1    5    5    0  503 -0.55635388627E+03 -0.14423545267E+03 -0.30745086053E+03  0.65181250695E+03  0.00000000000E+00 0.  1.
         -1    1    6    6    0  502  0.87644634759E+02  0.48019920379E+03 -0.29987705108E+03  0.57288664069E+03  0.00000000000E+00 0.  1.
<mgrwt>
<rscale>  0 0.19789954E+04</rscale>
<asrwt>0</asrwt>
<pdfrwt beam="1">  1        2 0.39736805E+00 0.19789954E+04</pdfrwt>
<pdfrwt beam="2">  1       -2 0.58318979E-01 0.19789954E+04</pdfrwt>
<totfact> 0.79774866E+00</totfact>
</mgrwt>
</event>
<event>
12    1  0.1097093E-007  0.1882302E+04  0.7818608E-02  0.8663716E-01
         -4   -1    0    0    0  501 -0.00000000000E+00  0.00000000000E+00  0.46380068848E+03  0.46380068848E+03  0.00000000000E+00 0.  1.
          4   -1    0    0  501    0  0.00000000000E+00 -0.00000000000E+00 -0.19097962393E+04  0.19097962393E+04  0.00000000000E+00 0. -1.
         23    2    1    2    0    0 -0.11490793447E+03  0.39980687656E+03  0.17811825654E+03  0.46187692328E+03  0.92492199621E+02 0.  0.
        254    2    1    2    0    0  0.11490793447E+03 -0.39980687656E+03 -0.16241138074E+04  0.19117200046E+04  0.91862851276E+03 0.  0.
        -24    2    4    4    0    0  0.37606217102E+03 -0.56933046398E+03 -0.10964074730E+04  0.12941134876E+04  0.84026414216E+02 0.  0.
         24    2    4    4    0    0 -0.26115423655E+03  0.16952358742E+03 -0.52770633444E+03  0.61760651697E+03  0.77614769447E+02 0.  0.
         11    1    3    3    0    0 -0.28944363959E+02  0.17193870401E+02  0.92622098667E+01  0.34916957427E+02  0.00000000000E+00 0. -1.
        -11    1    3    3    0    0 -0.85963570508E+02  0.38261300616E+03  0.16885604668E+03  0.42695996585E+03  0.00000000000E+00 0.  1.
          4    1    6    6  502    0 -0.11086445257E+03  0.72443201153E+02 -0.15286397896E+03  0.20225315894E+03  0.00000000000E+00 0. -1.
          3    1    5    5  503    0  0.32376225307E+03 -0.51625269756E+03 -0.10139367176E+04  0.11829651354E+04  0.00000000000E+00 0. -1.
         -4    1    5    5    0  503  0.52299917943E+02 -0.53077766420E+02 -0.82470755381E+02  0.11114835221E+03  0.00000000000E+00 0.  1.
         -3    1    6    6    0  502 -0.15028978398E+03  0.97080386266E+02 -0.37484235549E+03  0.41535335804E+03  0.00000000000E+00 0.  1.
<mgrwt>
<rscale>  0 0.18823016E+04</rscale>
<asrwt>0</asrwt>
<pdfrwt beam="1">  1        4 0.29381480E+00 0.18823016E+04</pdfrwt>
<pdfrwt beam="2">  1       -4 0.71353953E-01 0.18823016E+04</pdfrwt>
<totfact> 0.11391684E-01</totfact>
</mgrwt>
</event>
<event>
12    1  0.1097093E-007  0.1885718E+04  0.7818608E-02  0.8661998E-01
         -2   -1    0    0    0  501 -0.00000000000E+00  0.00000000000E+00  0.12779946298E+04  0.12779946298E+04  0.00000000000E+00 0.  1.
          2   -1    0    0  501    0  0.00000000000E+00 -0.00000000000E+00 -0.69560814911E+03  0.69560814911E+03  0.00000000000E+00 0. -1.
         23    2    1    2    0    0  0.25454929934E+03  0.63357441910E+03  0.47776800252E+03  0.83828538306E+03  0.90819760460E+02 0.  0.
        254    2    1    2    0    0 -0.25454929934E+03 -0.63357441910E+03  0.10461847814E+03  0.11353173958E+04  0.90099315920E+03 0.  0.
        -24    2    4    4    0    0 -0.55269671071E+01 -0.14554000671E+03  0.45201308676E+03  0.48161099139E+03  0.80130365665E+02 0.  0.
         24    2    4    4    0    0 -0.24902233223E+03 -0.48803441238E+03 -0.34739460863E+03  0.65370640442E+03  0.80370015891E+02 0.  0.
         11    1    3    3    0    0  0.13034724379E+03  0.39734738059E+03  0.24850705992E+03  0.48644743155E+03  0.00000000000E+00 0.  1.
        -11    1    3    3    0    0  0.12420205555E+03  0.23622703850E+03  0.22926094260E+03  0.35183795151E+03  0.00000000000E+00 0. -1.
          4    1    6    6  502    0 -0.19961054910E+03 -0.38058215842E+03 -0.30918986186E+03  0.52941998574E+03  0.00000000000E+00 0. -1.
          1    1    5    5  503    0  0.96591802517E+00 -0.11548433041E+03  0.42586735905E+03  0.44124887657E+03  0.00000000000E+00 0. -1.
         -4    1    5    5    0  503 -0.64928851323E+01 -0.30055676299E+02  0.26145727715E+02  0.40362114822E+02  0.00000000000E+00 0.  1.
         -3    1    6    6    0  502 -0.49411783128E+02 -0.10745225396E+03 -0.38204746774E+02  0.12428641868E+03  0.00000000000E+00 0.  1.
<mgrwt>
<rscale>  0 0.18857184E+04</rscale>
<asrwt>0</asrwt>
<pdfrwt beam="1">  1        2 0.10701664E+00 0.18857184E+04</pdfrwt>
<pdfrwt beam="2">  1       -2 0.19661456E+00 0.18857184E+04</pdfrwt>
<totfact> 0.54185142E+00</totfact>
</mgrwt>
</event>
<event>
12    1  0.1097093E-007  0.1301696E+04  0.7818608E-02  0.9028221E-01
         -1   -1    0    0    0  501 -0.00000000000E+00  0.00000000000E+00  0.11069042348E+04  0.11069042348E+04  0.00000000000E+00 0.  1.
          1   -1    0    0  501    0  0.00000000000E+00 -0.00000000000E+00 -0.38269188517E+03  0.38269188517E+03  0.00000000000E+00 0. -1.
         23    2    1    2    0    0  0.32115081548E+03 -0.10952690766E+02  0.18958313745E+03  0.38423504462E+03  0.91853120756E+02 0.  0.
        254    2    1    2    0    0 -0.32115081548E+03  0.10952690766E+02  0.53462921214E+03  0.11053610753E+04  0.91254419324E+03 0.  0.
        -24    2    4    4    0    0 -0.60533131347E+03 -0.72607259187E+02  0.50785004027E+03  0.79763291628E+03  0.81294480620E+02 0.  0.
         24    2    4    4    0    0  0.28418049799E+03  0.83559949953E+02  0.26779171865E+02  0.30772815903E+03  0.78985284305E+02 0.  0.
         13    1    3    3    0    0  0.31265589534E+03 -0.19132979093E+02  0.15864197645E+03  0.35112256617E+03  0.00000000000E+00 0. -1.
        -13    1    3    3    0    0  0.84949201330E+01  0.81802883273E+01  0.30941160997E+02  0.33112478448E+02  0.00000000000E+00 0.  1.
          2    1    6    6  502    0  0.17060580608E+02  0.18481857441E+02  0.20948078539E+02  0.32733231732E+02  0.00000000000E+00 0. -1.
          1    1    5    5  503    0 -0.16264952475E+03  0.28281195830E+00  0.17563360730E+03  0.23937859532E+03  0.00000000000E+00 0. -1.
         -2    1    5    5    0  503 -0.44268178872E+03 -0.72890071146E+02  0.33221643297E+03  0.55825432096E+03  0.00000000000E+00 0.  1.
         -1    1    6    6    0  502  0.26711991738E+03  0.65078092513E+02  0.58310933262E+01  0.27499492729E+03  0.00000000000E+00 0.  1.
<mgrwt>
<rscale>  0 0.13016962E+04</rscale>
<asrwt>0</asrwt>
<pdfrwt beam="1">  1        1 0.58875675E-01 0.13016962E+04</pdfrwt>
<pdfrwt beam="2">  1       -1 0.17029296E+00 0.13016962E+04</pdfrwt>
<totfact> 0.15305976E+01</totfact>
</mgrwt>
</event>
<event>
12    1  0.1097093E-007  0.2053463E+04  0.7818608E-02  0.8582025E-01
         -3   -1    0    0    0  501 -0.00000000000E+00  0.00000000000E+00  0.28195482565E+03  0.28195482565E+03  0.00000000000E+00 0.  1.
          3   -1    0    0  501    0  0.00000000000E+00 -0.00000000000E+00 -0.37388161441E+04  0.37388161441E+04  0.00000000000E+00 0. -1.
         23    2    1    2    0    0  0.26735111455E+03  0.54759981858E+03 -0.29887256104E+03  0.68396338424E+03  0.84492150373E+02 0.  0.
        254    2    1    2    0    0 -0.26735111455E+03 -0.54759981858E+03 -0.31579887574E+04  0.33368075855E+04  0.88884739466E+03 0.  0.
        -24    2    4    4    0    0 -0.21331604330E+03 -0.34391704048E+03 -0.30639112820E+04  0.30913925989E+04  0.73302057630E+02 0.  0.
         24    2    4    4    0    0 -0.54035071244E+02 -0.20368277810E+03 -0.94077475483E+02  0.24541498665E+03  0.83495396645E+02 0.  0.
         11    1    3    3    0    0  0.25727055880E+03  0.54608712802E+03 -0.29926031591E+03  0.67376259060E+03  0.00000000000E+00 0.  1.
        -11    1    3    3    0    0  0.10080555753E+02  0.15126905620E+01  0.38775487055E+00  0.10200793639E+02  0.00000000000E+00 0. -1.
          2    1    6    6  502    0 -0.16085946117E+02 -0.12897858670E+02 -0.37562229160E+02  0.42848961250E+02  0.00000000000E+00 0. -1.
          3    1    5    5  503    0 -0.55343468947E+02 -0.15261968852E+03 -0.13102786097E+04  0.13202975816E+04  0.00000000000E+00 0. -1.
         -4    1    5    5    0  503 -0.15797257436E+03 -0.19129735196E+03 -0.17536326722E+04  0.17710950173E+04  0.00000000000E+00 0.  1.
         -1    1    6    6    0  502 -0.37949125127E+02 -0.19078491943E+03 -0.56515246323E+02  0.20256602540E+03  0.00000000000E+00 0.  1.
<mgrwt>
<rscale>  0 0.20534627E+04</rscale>
<asrwt>0</asrwt>
<pdfrwt beam="1">  1        3 0.57520247E+00 0.20534627E+04</pdfrwt>
<pdfrwt beam="2">  1       -3 0.43377666E-01 0.20534627E+04</pdfrwt>
<totfact> 0.19133292E-02</totfact>
</mgrwt>
</event>
<event>
12    1  0.1097093E-007  0.2016833E+04  0.7818608E-02  0.8598791E-01
          2   -1    0    0  501    0  0.00000000000E+00  0.00000000000E+00  0.88586440959E+03  0.88586440959E+03  0.00000000000E+00 0. -1.
         -2   -1    0    0    0  501 -0.00000000000E+00 -0.00000000000E+00 -0.11479231210E+04  0.11479231210E+04  0.00000000000E+00 0.  1.
         23    2    1    2    0    0  0.71878520865E+03  0.29640494390E+03 -0.33185892595E+03  0.85047205343E+03  0.93082221697E+02 0.  0.
        254    2    1    2    0    0 -0.71878520865E+03 -0.29640494390E+03  0.69800214552E+02  0.11833154772E+04  0.88930050128E+03 0.  0.
        -24    2    4    4    0    0 -0.75510786513E+02  0.11215326899E+03  0.33681461081E+03  0.37177918777E+03  0.80594340867E+02 0.  0.
         24    2    4    4    0    0 -0.64327442213E+03 -0.40855821289E+03 -0.26701439626E+03  0.81153628938E+03  0.81071978379E+02 0.  0.
         11    1    3    3    0    0  0.33840638672E+03  0.10427020054E+03 -0.18647561858E+03  0.40020533932E+03  0.00000000000E+00 0. -1.
        -11    1    3    3    0    0  0.38037882192E+03  0.19213474336E+03 -0.14538330737E+03  0.45026671411E+03  0.00000000000E+00 0.  1.
          4    1    6    6  502    0 -0.26351725111E+03 -0.20537228588E+03 -0.14238128203E+03  0.36316875817E+03  0.00000000000E+00 0. -1.
          1    1    5    5  503    0 -0.58182828279E+02  0.47724852761E+02  0.96487955502E+02  0.12236351023E+03  0.00000000000E+00 0. -1.
         -2    1    5    5    0  503 -0.17327958234E+02  0.64428416228E+02  0.24032665531E+03  0.24941567755E+03  0.00000000000E+00 0.  1.
         -3    1    6    6    0  502 -0.37975717102E+03 -0.20318592701E+03 -0.12463311423E+03  0.44836753121E+03  0.00000000000E+00 0.  1.
<mgrwt>
<rscale>  0 0.20168334E+04</rscale>
<asrwt>0</asrwt>
<pdfrwt beam="1">  1        2 0.13628683E+00 0.20168334E+04</pdfrwt>
<pdfrwt beam="2">  1       -2 0.17660356E+00 0.20168334E+04</pdfrwt>
<totfact> 0.53232532E+00</totfact>
</mgrwt>
</event>
<event>
12    1  0.1097093E-007  0.3053895E+04  0.7818608E-02  0.8228506E-01
          1   -1    0    0  501    0  0.00000000000E+00  0.00000000000E+00  0.12235775589E+04  0.12235775589E+04  0.00000000000E+00 0. -1.
         -1   -1    0    0    0  501 -0.00000000000E+00 -0.00000000000E+00 -0.19055341298E+04  0.19055341298E+04  0.00000000000E+00 0.  1.
         23    2    1    2    0    0  0.11122229390E+04  0.60953569483E+02 -0.11823063428E+04  0.16267989651E+04  0.88720803612E+02 0.  0.
        254    2    1    2    0    0 -0.11122229390E+04 -0.60953569483E+02  0.50034977198E+03  0.15023127236E+04  0.87512194667E+03 0.  0.
        -24    2    4    4    0    0 -0.54061293134E+03 -0.41574678674E+03  0.49558966877E+02  0.68847162880E+03  0.80183291572E+02 0.  0.
         24    2    4    4    0    0 -0.57161000761E+03  0.35479321726E+03  0.45079080510E+03  0.81384109478E+03  0.80676823000E+02 0.  0.
         13    1    3    3    0    0  0.10392414382E+04  0.48873029786E+02 -0.11311960597E+04  0.15368851178E+04  0.00000000000E+00 0.  1.
        -13    1    3    3    0    0  0.72981500735E+02  0.12080539697E+02 -0.51110283155E+02  0.89913847282E+02  0.00000000000E+00 0. -1.
          2    1    6    6  502    0 -0.30515691607E+03  0.23639518862E+03  0.25540917366E+03  0.46285772611E+03  0.00000000000E+00 0. -1.
          1    1    5    5  503    0 -0.16828018387E+03 -0.84551182228E+02  0.16869042583E+02  0.18908116590E+03  0.00000000000E+00 0. -1.
         -2    1    5    5    0  503 -0.37233274747E+03 -0.33119560452E+03  0.32689924294E+02  0.49939046290E+03  0.00000000000E+00 0.  1.
         -1    1    6    6    0  502 -0.26645309154E+03  0.11839802864E+03  0.19538163145E+03  0.35098336867E+03  0.00000000000E+00 0.  1.
<mgrwt>
<rscale>  0 0.30538951E+04</rscale>
<asrwt>0</asrwt>
<pdfrwt beam="1">  1        1 0.18824270E+00 0.30538951E+04</pdfrwt>
<pdfrwt beam="2">  1       -1 0.29315910E+00 0.30538951E+04</pdfrwt>
<totfact> 0.31818936E-01</totfact>
</mgrwt>
</event>
<event>
12    1  0.1097093E-007  0.1758714E+04  0.7818608E-02  0.8728568E-01
         -1   -1    0    0    0  501 -0.00000000000E+00  0.00000000000E+00  0.24107760821E+03  0.24107760821E+03  0.00000000000E+00 0.  1.
          1   -1    0    0  501    0  0.00000000000E+00 -0.00000000000E+00 -0.32075505903E+04  0.32075505903E+04  0.00000000000E+00 0. -1.
         23    2    1    2    0    0 -0.23746914198E+03  0.60258507314E+03 -0.99297350863E+03  0.11893092698E+04  0.94656149633E+02 0.  0.
        254    2    1    2    0    0  0.23746914198E+03 -0.60258507314E+03 -0.19734994735E+04  0.22593189287E+04  0.88900027337E+03 0.  0.
        -24    2    4    4    0    0  0.38358146658E+03  0.69469867368E+02 -0.86856615667E+03  0.95523417527E+03  0.78130385345E+02 0.  0.
         24    2    4    4    0    0 -0.14611232460E+03 -0.67205494051E+03 -0.11049333168E+04  0.13040847535E+04  0.82175148925E+02 0.  0.
         11    1    3    3    0    0 -0.18153176566E+03  0.39738810921E+03 -0.73414030596E+03  0.85430268648E+03  0.00000000000E+00 0. -1.
        -11    1    3    3    0    0 -0.55937376316E+02  0.20519696394E+03 -0.25883320267E+03  0.33500658334E+03  0.00000000000E+00 0.  1.
          4    1    6    6  502    0 -0.14410485838E+02 -0.98301966346E+01 -0.28858128678E+02  0.33720712607E+02  0.00000000000E+00 0. -1.
          1    1    5    5  503    0  0.82771144264E+02  0.30914600628E+02 -0.13379578247E+03  0.16033741379E+03  0.00000000000E+00 0. -1.
         -2    1    5    5    0  503  0.30081032232E+03  0.38555266741E+02 -0.73477037420E+03  0.79489676148E+03  0.00000000000E+00 0.  1.
         -3    1    6    6    0  502 -0.13170183876E+03 -0.66222474388E+03 -0.10760751881E+04  0.12703640408E+04  0.00000000000E+00 0.  1.
<mgrwt>
<rscale>  0 0.17587139E+04</rscale>
<asrwt>0</asrwt>
<pdfrwt beam="1">  1        1 0.49346927E+00 0.17587139E+04</pdfrwt>
<pdfrwt beam="2">  1       -1 0.37088867E-01 0.17587139E+04</pdfrwt>
<totfact> 0.27903714E+00</totfact>
</mgrwt>
</event>
<event>
12    1  0.1097093E-007  0.1809429E+04  0.7818608E-02  0.8701301E-01
         -2   -1    0    0    0  501 -0.00000000000E+00  0.00000000000E+00  0.24751400786E+04  0.24751400786E+04  0.00000000000E+00 0.  1.
          2   -1    0    0  501    0  0.00000000000E+00 -0.00000000000E+00 -0.33069159049E+03  0.33069159049E+03  0.00000000000E+00 0. -1.
         23    2    1    2    0    0 -0.43890396460E+03  0.14111773483E+03  0.43811127296E+02  0.47205748310E+03  0.91476484701E+02 0.  0.
        254    2    1    2    0    0  0.43890396460E+03 -0.14111773483E+03  0.21006373608E+04  0.23337741860E+04  0.90624153750E+03 0.  0.
        -24    2    4    4    0    0 -0.16111305862E+03 -0.29361962323E+03  0.11144421497E+04  0.11666016279E+04  0.82511528555E+02 0.  0.
         24    2    4    4    0    0  0.60001702322E+03  0.15250188841E+03  0.98619521105E+03  0.11671725580E+04  0.80209300113E+02 0.  0.
         11    1    3    3    0    0 -0.42724165742E+03  0.13218266189E+03  0.58797669011E+02  0.45107078804E+03  0.00000000000E+00 0. -1.
        -11    1    3    3    0    0 -0.11662307179E+02  0.89350729366E+01 -0.14986541715E+02  0.20986695064E+02  0.00000000000E+00 0.  1.
          4    1    6    6  502    0  0.79681125886E+02  0.11178014819E+02  0.18151114004E+03  0.19854552071E+03  0.00000000000E+00 0. -1.
          1    1    5    5  503    0 -0.42283925083E+02 -0.41187617607E+02  0.11954859101E+03  0.13332747570E+03  0.00000000000E+00 0. -1.
         -2    1    5    5    0  503 -0.11882913354E+03 -0.25243200563E+03  0.99489355872E+03  0.10332741522E+04  0.00000000000E+00 0.  1.
         -3    1    6    6    0  502  0.52033589734E+03  0.14132387359E+03  0.80468407101E+03  0.96862703733E+03  0.00000000000E+00 0.  1.
<mgrwt>
<rscale>  0 0.18094286E+04</rscale>
<asrwt>0</asrwt>
<pdfrwt beam="1">  1        2 0.50875631E-01 0.18094286E+04</pdfrwt>
<pdfrwt beam="2">  1       -2 0.38079077E+00 0.18094286E+04</pdfrwt>
<totfact> 0.92330715E-01</totfact>
</mgrwt>
</event>
<event>
12    1  0.1097093E-007  0.1835617E+04  0.7818608E-02  0.8687585E-01
         -2   -1    0    0    0  501 -0.00000000000E+00  0.00000000000E+00  0.26350171822E+03  0.26350171822E+03  0.00000000000E+00 0. -1.
          2   -1    0    0  501    0  0.00000000000E+00 -0.00000000000E+00 -0.31968372922E+04  0.31968372922E+04  0.00000000000E+00 0.  1.
         23    2    1    2    0    0 -0.50089276219E+03  0.43281364388E+03 -0.14840738296E+04  0.16276741547E+04  0.92880636549E+02 0.  0.
        254    2    1    2    0    0  0.50089276219E+03 -0.43281364388E+03 -0.14492617444E+04  0.18326648557E+04  0.90558249768E+03 0.  0.
        -24    2    4    4    0    0  0.45937352668E+03 -0.69221542805E+03 -0.12026368430E+04  0.14638064281E+04  0.78788621474E+02 0.  0.
         24    2    4    4    0    0  0.41519235506E+02  0.25940178416E+03 -0.24662490140E+03  0.36885842766E+03  0.78864219536E+02 0.  0.
         13    1    3    3    0    0 -0.34902426458E+03  0.32262374767E+03 -0.11531032453E+04  0.12472173484E+04  0.00000000000E+00 0. -1.
        -13    1    3    3    0    0 -0.15186849761E+03  0.11018989622E+03 -0.33097058431E+03  0.38045680632E+03  0.00000000000E+00 0.  1.
          2    1    6    6  502    0  0.59620330168E+02  0.15655612426E+03 -0.12806844017E+03  0.21086946004E+03  0.00000000000E+00 0. -1.
          3    1    5    5  503    0  0.36848305220E+03 -0.59362505206E+03 -0.97276504364E+03  0.11976820498E+04  0.00000000000E+00 0. -1.
         -4    1    5    5    0  503  0.90890474479E+02 -0.98590375986E+02 -0.22987179937E+03  0.26612437831E+03  0.00000000000E+00 0.  1.
         -1    1    6    6    0  502 -0.18101094662E+02  0.10284565991E+03 -0.11855646124E+03  0.15798896762E+03  0.00000000000E+00 0.  1.
<mgrwt>
<rscale>  0 0.18356166E+04</rscale>
<asrwt>0</asrwt>
<pdfrwt beam="1">  1        2 0.49182115E+00 0.18356166E+04</pdfrwt>
<pdfrwt beam="2">  1       -2 0.40538724E-01 0.18356166E+04</pdfrwt>
<totfact> 0.71014170E+00</totfact>
</mgrwt>
</event>
<event>
12    1  0.1097093E-007  0.2115166E+04  0.7818608E-02  0.8554592E-01
          1   -1    0    0  501    0  0.00000000000E+00  0.00000000000E+00  0.27999880016E+04  0.27999880016E+04  0.00000000000E+00 0. -1.
         -1   -1    0    0    0  501 -0.00000000000E+00 -0.00000000000E+00 -0.39945953418E+03  0.39945953418E+03  0.00000000000E+00 0.  1.
         23    2    1    2    0    0  0.49572271477E+03  0.67238443109E+03  0.65051374992E+03  0.10626251132E+04  0.90344669615E+02 0.  0.
        254    2    1    2    0    0 -0.49572271477E+03 -0.67238443109E+03  0.17500147175E+04  0.21368224225E+04  0.89756154158E+03 0.  0.
        -24    2    4    4    0    0 -0.34292143550E+02 -0.20269119636E+03 -0.43140753244E+02  0.22486884563E+03  0.80282008908E+02 0.  0.
         24    2    4    4    0    0 -0.46143057122E+03 -0.46969323473E+03  0.17931554707E+04  0.19119535769E+04  0.81425003612E+02 0.  0.
         13    1    3    3    0    0  0.35565631536E+03  0.44107309962E+03  0.39594556522E+03  0.69123786389E+03  0.00000000000E+00 0. -1.
        -13    1    3    3    0    0  0.14006639941E+03  0.23131133148E+03  0.25456818470E+03  0.37138724935E+03  0.00000000000E+00 0.  1.
          4    1    6    6  502    0 -0.17932203634E+03 -0.13967019577E+03  0.54769951634E+03  0.59299149783E+03  0.00000000000E+00 0. -1.
          1    1    5    5  503    0 -0.31605054299E+02 -0.90304170895E+02  0.17308375057E+02  0.97228095658E+02  0.00000000000E+00 0. -1.
         -2    1    5    5    0  503 -0.26870892514E+01 -0.11238702547E+03 -0.60449128301E+02  0.12764074998E+03  0.00000000000E+00 0.  1.
         -3    1    6    6    0  502 -0.28210853488E+03 -0.33002303896E+03  0.12454559544E+04  0.13189620791E+04  0.00000000000E+00 0.  1.
<mgrwt>
<rscale>  0 0.21151661E+04</rscale>
<asrwt>0</asrwt>
<pdfrwt beam="1">  1        1 0.43076737E+00 0.21151661E+04</pdfrwt>
<pdfrwt beam="2">  1       -1 0.61455315E-01 0.21151661E+04</pdfrwt>
<totfact> 0.20572103E+00</totfact>
</mgrwt>
</event>
<event>
12    1  0.1097093E-007  0.1491019E+04  0.7818608E-02  0.8890447E-01
         -1   -1    0    0    0  501 -0.00000000000E+00  0.00000000000E+00  0.76978690196E+03  0.76978690196E+03  0.00000000000E+00 0.  1.
          1   -1    0    0  501    0  0.00000000000E+00 -0.00000000000E+00 -0.72199776970E+03  0.72199776970E+03  0.00000000000E+00 0. -1.
         23    2    1    2    0    0  0.53620612817E+02  0.37932842708E+03  0.29050601575E+03  0.48942874643E+03  0.91550679605E+02 0.  0.
        254    2    1    2    0    0 -0.53620612817E+02 -0.37932842708E+03 -0.24271688348E+03  0.10023559252E+04  0.89389075932E+03 0.  0.
        -24    2    4    4    0    0  0.18775711287E+03 -0.28267301207E+03 -0.51160665387E+03  0.61981789176E+03  0.85299973509E+02 0.  0.
         24    2    4    4    0    0 -0.24137772569E+03 -0.96655415014E+02  0.26888977038E+03  0.38253803347E+03  0.80175823812E+02 0.  0.
         11    1    3    3    0    0 -0.20688359841E+02  0.31061698362E+02  0.20888484712E+02  0.42768751812E+02  0.00000000000E+00 0. -1.
        -11    1    3    3    0    0  0.74308972658E+02  0.34826672872E+03  0.26961753104E+03  0.44665999462E+03  0.00000000000E+00 0.  1.
          4    1    6    6  502    0 -0.15155383946E+03 -0.97395951706E+02  0.20117003374E+03  0.27004429292E+03  0.00000000000E+00 0. -1.
          3    1    5    5  503    0  0.16487689347E+03 -0.28166082074E+03 -0.48652385997E+03  0.58585209247E+03  0.00000000000E+00 0. -1.
         -4    1    5    5    0  503  0.22880219406E+02 -0.10121913275E+01 -0.25082793898E+02  0.33965799286E+02  0.00000000000E+00 0.  1.
         -3    1    6    6    0  502 -0.89823886226E+02  0.74053669220E+00  0.67719736639E+02  0.11249374054E+03  0.00000000000E+00 0.  1.
<mgrwt>
<rscale>  0 0.14910190E+04</rscale>
<asrwt>0</asrwt>
<pdfrwt beam="1">  1        1 0.11107658E+00 0.14910190E+04</pdfrwt>
<pdfrwt beam="2">  1       -1 0.11842875E+00 0.14910190E+04</pdfrwt>
<totfact> 0.16087369E+01</totfact>
</mgrwt>
</event>
<event>
12    1  0.1097093E-007  0.1717715E+04  0.7818608E-02  0.8751325E-01
         -2   -1    0    0    0  501 -0.00000000000E+00  0.00000000000E+00  0.30985210994E+03  0.30985210994E+03  0.00000000000E+00 0. -1.
          2   -1    0    0  501    0  0.00000000000E+00 -0.00000000000E+00 -0.23806064901E+04  0.23806064901E+04  0.00000000000E+00 0.  1.
         23    2    1    2    0    0  0.85959604932E+02  0.61131166221E+03 -0.79488696996E+03  0.10103841550E+04  0.89105800259E+02 0.  0.
        254    2    1    2    0    0 -0.85959604932E+02 -0.61131166221E+03 -0.12758674102E+04  0.16800744450E+04  0.90206512538E+03 0.  0.
        -24    2    4    4    0    0 -0.27905471797E+03 -0.28886892623E+03 -0.71769779130E+02  0.41608652388E+03  0.81610673304E+02 0.  0.
         24    2    4    4    0    0  0.19309511304E+03 -0.32244273598E+03 -0.12040976310E+04  0.12639879211E+04  0.80989622938E+02 0.  0.
         13    1    3    3    0    0  0.29556207021E+02  0.12797847710E+03 -0.11683928814E+03  0.17579385435E+03  0.00000000000E+00 0. -1.
        -13    1    3    3    0    0  0.56403397912E+02  0.48333318511E+03 -0.67804768183E+03  0.83459030066E+03  0.00000000000E+00 0.  1.
          2    1    6    6  502    0  0.84929566651E+02 -0.14071644946E+03 -0.39779997987E+03  0.43041720972E+03  0.00000000000E+00 0. -1.
          1    1    5    5  503    0 -0.89332201367E+02 -0.10623077101E+03 -0.63435526341E+02  0.15260827275E+03  0.00000000000E+00 0. -1.
         -2    1    5    5    0  503 -0.18972251661E+03 -0.18263815522E+03 -0.83342527891E+01  0.26347825113E+03  0.00000000000E+00 0.  1.
         -1    1    6    6    0  502  0.10816554639E+03 -0.18172628652E+03 -0.80629765116E+03  0.83357071140E+03  0.00000000000E+00 0.  1.
<mgrwt>
<rscale>  0 0.17177147E+04</rscale>
<asrwt>0</asrwt>
<pdfrwt beam="1">  1        2 0.36624714E+00 0.17177147E+04</pdfrwt>
<pdfrwt beam="2">  1       -2 0.47669557E-01 0.17177147E+04</pdfrwt>
<totfact> 0.16178091E+01</totfact>
</mgrwt>
</event>
<event>
12    1  0.1097093E-007  0.1962755E+04  0.7818608E-02  0.8624235E-01
          2   -1    0    0  501    0  0.00000000000E+00  0.00000000000E+00  0.14986573747E+04  0.14986573747E+04  0.00000000000E+00 0.  1.
         -2   -1    0    0    0  501 -0.00000000000E+00 -0.00000000000E+00 -0.64264292571E+03  0.64264292571E+03  0.00000000000E+00 0. -1.
         23    2    1    2    0    0 -0.59645259586E+01  0.64572495228E+03  0.79580062873E+03  0.10286662122E+04  0.88652388106E+02 0.  0.
        254    2    1    2    0    0  0.59645259586E+01 -0.64572495228E+03  0.60213820217E+02  0.11126340881E+04  0.90406450012E+03 0.  0.
        -24    2    4    4    0    0  0.18666642373E+03  0.13054292592E+03 -0.14937132057E+03  0.28413173568E+03  0.80828476156E+02 0.  0.
         24    2    4    4    0    0 -0.18070189777E+03 -0.77626787820E+03  0.20958514079E+03  0.82850235246E+03  0.85118871038E+02 0.  0.
         11    1    3    3    0    0 -0.25810756847E+01  0.21663739843E+03  0.20328735627E+03  0.29709287028E+03  0.00000000000E+00 0. -1.
        -11    1    3    3    0    0 -0.33834502738E+01  0.42908755385E+03  0.59251327246E+03  0.73157334195E+03  0.00000000000E+00 0.  1.
          2    1    6    6  502    0 -0.15135793731E+03 -0.64308929069E+03  0.13971686351E+03  0.67527317653E+03  0.00000000000E+00 0. -1.
          1    1    5    5  503    0  0.19361195896E+03  0.13115331814E+03 -0.14037122135E+03  0.27274688503E+03  0.00000000000E+00 0. -1.
         -2    1    5    5    0  503 -0.69455352323E+01 -0.61039222126E+00 -0.90000992213E+01  0.11384850650E+02  0.00000000000E+00 0.  1.
         -1    1    6    6    0  502 -0.29343960459E+02 -0.13317858750E+03  0.69868277281E+02  0.15322917593E+03  0.00000000000E+00 0.  1.
<mgrwt>
<rscale>  0 0.19627548E+04</rscale>
<asrwt>0</asrwt>
<pdfrwt beam="1">  1        2 0.23056267E+00 0.19627548E+04</pdfrwt>
<pdfrwt beam="2">  1       -2 0.98868143E-01 0.19627548E+04</pdfrwt>
<totfact> 0.10056025E+01</totfact>
</mgrwt>
</event>
<event>
12    1  0.1097093E-007  0.1487987E+04  0.7818608E-02  0.8892481E-01
         -2   -1    0    0    0  501 -0.00000000000E+00  0.00000000000E+00  0.10448270078E+04  0.10448270078E+04  0.00000000000E+00 0.  1.
          2   -1    0    0  501    0  0.00000000000E+00 -0.00000000000E+00 -0.52977769535E+03  0.52977769535E+03  0.00000000000E+00 0. -1.
         23    2    1    2    0    0 -0.42204361262E+03 -0.10608365798E+03  0.34725752523E+03  0.56461274959E+03  0.93942614039E+02 0.  0.
        254    2    1    2    0    0  0.42204361262E+03  0.10608365798E+03  0.16779178726E+03  0.10099919536E+04  0.89585440167E+03 0.  0.
        -24    2    4    4    0    0  0.65777997664E+03  0.23659097262E+03  0.45946924410E+02  0.70511889077E+03  0.80198156306E+02 0.  0.
         24    2    4    4    0    0 -0.23573636401E+03 -0.13050731464E+03  0.12184486285E+03  0.30487306281E+03  0.74145946151E+02 0.  0.
         13    1    3    3    0    0 -0.17477927819E+02  0.12091102652E+02  0.53961277330E+01  0.21926945038E+02  0.00000000000E+00 0. -1.
        -13    1    3    3    0    0 -0.40456568480E+03 -0.11817476063E+03  0.34186139749E+03  0.54268580456E+03  0.00000000000E+00 0.  1.
          2    1    6    6  502    0 -0.10356095487E+03 -0.92440904425E+02  0.83842834013E+02  0.16217217086E+03  0.00000000000E+00 0. -1.
          3    1    5    5  503    0  0.50542389553E+03  0.19565070585E+03  0.66457603032E+02  0.54603033420E+03  0.00000000000E+00 0. -1.
         -4    1    5    5    0  503  0.15235608111E+03  0.40940266768E+02 -0.20510678623E+02  0.15908855657E+03  0.00000000000E+00 0.  1.
         -3    1    6    6    0  502 -0.13217540914E+03 -0.38066410214E+02  0.38002028836E+02  0.14270089195E+03  0.00000000000E+00 0.  1.
<mgrwt>
<rscale>  0 0.14879866E+04</rscale>
<asrwt>0</asrwt>
<pdfrwt beam="1">  1        2 0.81504261E-01 0.14879866E+04</pdfrwt>
<pdfrwt beam="2">  1       -2 0.16074262E+00 0.14879866E+04</pdfrwt>
<totfact> 0.13828439E+01</totfact>
</mgrwt>
</event>
<event>
12    1  0.1097093E-007  0.1142707E+04  0.7818608E-02  0.9164538E-01
         -2   -1    0    0    0  501 -0.00000000000E+00  0.00000000000E+00  0.15232800968E+03  0.15232800968E+03  0.00000000000E+00 0.  1.
          2   -1    0    0  501    0  0.00000000000E+00 -0.00000000000E+00 -0.21430403853E+04  0.21430403853E+04  0.00000000000E+00 0. -1.
         23    2    1    2    0    0  0.15015792112E+03 -0.12257459219E+03 -0.50196137058E+03  0.54571601664E+03  0.90933059615E+02 0.  0.
        254    2    1    2    0    0 -0.15015792112E+03  0.12257459219E+03 -0.14887510050E+04  0.17496523783E+04  0.89851653190E+03 0.  0.
        -24    2    4    4    0    0 -0.31995473813E+03 -0.29715297277E+03 -0.57217970895E+03  0.72420137267E+03  0.80044270074E+02 0.  0.
         24    2    4    4    0    0  0.16979681701E+03  0.41972756496E+03 -0.91657129606E+03  0.10254510056E+04  0.80278492469E+02 0.  0.
         13    1    3    3    0    0  0.33513106947E+02  0.85344370200E+01 -0.49223868831E+02  0.60157744433E+02  0.00000000000E+00 0.  1.
        -13    1    3    3    0    0  0.11664481417E+03 -0.13110902921E+03 -0.45273750175E+03  0.48555827220E+03  0.00000000000E+00 0. -1.
          4    1    6    6  502    0  0.81873948370E+02  0.29846433308E+03 -0.64096659842E+03  0.71177417896E+03  0.00000000000E+00 0. -1.
          3    1    5    5  503    0 -0.17557231964E+03 -0.21277155383E+03 -0.37761496768E+03  0.46764349387E+03  0.00000000000E+00 0. -1.
         -4    1    5    5    0  503 -0.14438241849E+03 -0.84381418943E+02 -0.19456474127E+03  0.25655787880E+03  0.00000000000E+00 0.  1.
         -3    1    6    6    0  502  0.87922868636E+02  0.12126323188E+03 -0.27560469764E+03  0.31367682669E+03  0.00000000000E+00 0.  1.
<mgrwt>
<rscale>  0 0.11427074E+04</rscale>
<asrwt>0</asrwt>
<pdfrwt beam="1">  1        2 0.32969849E+00 0.11427074E+04</pdfrwt>
<pdfrwt beam="2">  1       -2 0.23435080E-01 0.11427074E+04</pdfrwt>
<totfact> 0.89035588E+01</totfact>
</mgrwt>
</event>
<event>
12    1  0.1097093E-007  0.1561672E+04  0.7818608E-02  0.8844447E-01
          2   -1    0    0  501    0  0.00000000000E+00  0.00000000000E+00  0.11853636329E+04  0.11853636329E+04  0.00000000000E+00 0.  1.
         -2   -1    0    0    0  501 -0.00000000000E+00 -0.00000000000E+00 -0.51436071018E+03  0.51436071018E+03  0.00000000000E+00 0. -1.
         23    2    1    2    0    0 -0.32757435928E+03  0.62821320617E+02  0.67866896883E+03  0.76116210544E+03  0.86745042087E+02 0.  0.
        254    2    1    2    0    0  0.32757435928E+03 -0.62821320617E+02 -0.76660461358E+01  0.93856223761E+03  0.87726211956E+03 0.  0.
        -24    2    4    4    0    0  0.65212340830E+02 -0.43955856402E+03 -0.10487181169E+03  0.46351570495E+03  0.79902010270E+02 0.  0.
         24    2    4    4    0    0  0.26236201845E+03  0.37673724341E+03  0.97205765550E+02  0.47504653266E+03  0.73861140260E+02 0.  0.
         13    1    3    3    0    0 -0.26747861336E+03  0.15917769819E+02  0.54409138621E+03  0.60649288581E+03  0.00000000000E+00 0.  1.
        -13    1    3    3    0    0 -0.60095745918E+02  0.46903550797E+02  0.13457758263E+03  0.15466921963E+03  0.00000000000E+00 0. -1.
          4    1    6    6  502    0  0.21906962989E+03  0.28586105822E+03  0.49102080461E+02  0.36348185877E+03  0.00000000000E+00 0. -1.
          1    1    5    5  503    0  0.45218295046E+02 -0.36781804764E+03 -0.11576701088E+03  0.38824838852E+03  0.00000000000E+00 0. -1.
         -2    1    5    5    0  503  0.19994045784E+02 -0.71740516382E+02  0.10895199192E+02  0.75267316433E+02  0.00000000000E+00 0.  1.
         -3    1    6    6    0  502  0.43292388554E+02  0.90876185190E+02  0.48103685089E+02  0.11156467389E+03  0.00000000000E+00 0.  1.
<mgrwt>
<rscale>  0 0.15616715E+04</rscale>
<asrwt>0</asrwt>
<pdfrwt beam="1">  1        2 0.18236364E+00 0.15616715E+04</pdfrwt>
<pdfrwt beam="2">  1       -2 0.79132417E-01 0.15616715E+04</pdfrwt>
<totfact> 0.26335353E+01</totfact>
</mgrwt>
</event>
<event>
12    1  0.1097093E-007  0.1242820E+04  0.7818608E-02  0.9076181E-01
          1   -1    0    0  501    0  0.00000000000E+00  0.00000000000E+00  0.47820614841E+03  0.47820614841E+03  0.00000000000E+00 0. -1.
         -1   -1    0    0    0  501 -0.00000000000E+00 -0.00000000000E+00 -0.80749749758E+03  0.80749749758E+03  0.00000000000E+00 0.  1.
         23    2    1    2    0    0  0.69392562807E+02  0.23869298673E+00 -0.36174832716E+03  0.37872771644E+03  0.88076366006E+02 0.  0.
        254    2    1    2    0    0 -0.69392562807E+02 -0.23869298673E+00  0.32456977993E+02  0.90697592955E+03  0.90373474904E+03 0.  0.
        -24    2    4    4    0    0  0.44327806651E+02  0.78258752168E+02 -0.41497118953E+03  0.43193959201E+03  0.79254881732E+02 0.  0.
         24    2    4    4    0    0 -0.11372036946E+03 -0.78497445155E+02  0.44742816752E+03  0.47503633754E+03  0.79833486514E+02 0.  0.
         11    1    3    3    0    0  0.38159107171E+02 -0.27649899035E+02 -0.72530866991E+02  0.86494861368E+02  0.00000000000E+00 0. -1.
        -11    1    3    3    0    0  0.31233455636E+02  0.27888592022E+02 -0.28921746017E+03  0.29223285507E+03  0.00000000000E+00 0.  1.
          2    1    6    6  502    0 -0.12444891989E+02 -0.90903415430E+01  0.18128225634E+03  0.18193615944E+03  0.00000000000E+00 0. -1.
          3    1    5    5  503    0  0.28086819173E+02 -0.99961469661E+01 -0.11789083411E+03  0.12160197832E+03  0.00000000000E+00 0. -1.
         -4    1    5    5    0  503  0.16240987478E+02  0.88254899134E+02 -0.29708035542E+03  0.31033761369E+03  0.00000000000E+00 0.  1.
         -1    1    6    6    0  502 -0.10127547747E+03 -0.69407103612E+02  0.26614591117E+03  0.29310017810E+03  0.00000000000E+00 0.  1.
<mgrwt>
<rscale>  0 0.12428198E+04</rscale>
<asrwt>0</asrwt>
<pdfrwt beam="1">  1        1 0.73570177E-01 0.12428198E+04</pdfrwt>
<pdfrwt beam="2">  1       -1 0.12423038E+00 0.12428198E+04</pdfrwt>
<totfact> 0.26435564E+01</totfact>
</mgrwt>
</event>
<event>
12    1  0.1097093E-007  0.2340728E+04  0.7818608E-02  0.8462034E-01
         -1   -1    0    0    0  501 -0.00000000000E+00  0.00000000000E+00  0.14496426307E+04  0.14496426307E+04  0.00000000000E+00 0.  1.
          1   -1    0    0  501    0  0.00000000000E+00 -0.00000000000E+00 -0.94488928224E+03  0.94488928224E+03  0.00000000000E+00 0. -1.
         23    2    1    2    0    0  0.52587780025E+03  0.60519185031E+03 -0.37388842294E+03  0.89394194605E+03  0.12858854390E+03 0.  0.
        254    2    1    2    0    0 -0.52587780025E+03 -0.60519185031E+03  0.87864177136E+03  0.15005899669E+04  0.91485203709E+03 0.  0.
        -24    2    4    4    0    0 -0.36867484115E+03 -0.17858943057E+03  0.94631857274E+03  0.10341966587E+04  0.78921255932E+02 0.  0.
         24    2    4    4    0    0 -0.15720295909E+03 -0.42660241974E+03 -0.67676801379E+02  0.46639330811E+03  0.78994768995E+02 0.  0.
         11    1    3    3    0    0  0.18095385760E+03  0.18893397766E+03 -0.18847822943E+03  0.32243509341E+03  0.00000000000E+00 0.  1.
        -11    1    3    3    0    0  0.34492394265E+03  0.41625787265E+03 -0.18541019351E+03  0.57150685264E+03  0.00000000000E+00 0. -1.
          2    1    6    6  502    0 -0.34754400520E+02 -0.70665598993E+02 -0.41647187341E+02  0.89084136915E+02  0.00000000000E+00 0. -1.
          3    1    5    5  503    0 -0.39451723107E+02 -0.51882160657E+01  0.15071903366E+03  0.15588323562E+03  0.00000000000E+00 0. -1.
         -4    1    5    5    0  503 -0.32922311805E+03 -0.17340121450E+03  0.79559953908E+03  0.87831342312E+03  0.00000000000E+00 0.  1.
         -1    1    6    6    0  502 -0.12244855857E+03 -0.35593682075E+03 -0.26029614038E+02  0.37730917119E+03  0.00000000000E+00 0.  1.
<mgrwt>
<rscale>  0 0.23407279E+04</rscale>
<asrwt>0</asrwt>
<pdfrwt beam="1">  1        1 0.14536758E+00 0.23407279E+04</pdfrwt>
<pdfrwt beam="2">  1       -1 0.22302194E+00 0.23407279E+04</pdfrwt>
<totfact> 0.15829857E+00</totfact>
</mgrwt>
</event>
<event>
12    1  0.1097093E-007  0.2135398E+04  0.7818608E-02  0.8545809E-01
         -1   -1    0    0    0  501 -0.00000000000E+00  0.00000000000E+00  0.60127423980E+03  0.60127423980E+03  0.00000000000E+00 0.  1.
          1   -1    0    0  501    0  0.00000000000E+00 -0.00000000000E+00 -0.18959417712E+04  0.18959417712E+04  0.00000000000E+00 0. -1.
         23    2    1    2    0    0  0.68311621952E+03  0.54752730713E+03 -0.58019782224E+03  0.10543071636E+04  0.92196317355E+02 0.  0.
        254    2    1    2    0    0 -0.68311621952E+03 -0.54752730713E+03 -0.71446970914E+03  0.14429088473E+04  0.89726532030E+03 0.  0.
        -24    2    4    4    0    0 -0.15747765106E+03 -0.10319943965E+03 -0.72168564369E+03  0.75006516307E+03  0.79487392791E+02 0.  0.
         24    2    4    4    0    0 -0.52563856846E+03 -0.44432786747E+03  0.72159345553E+01  0.69284368426E+03  0.79102102631E+02 0.  0.
         13    1    3    3    0    0  0.37309008523E+03  0.27005073617E+03 -0.35273061475E+03  0.58012283043E+03  0.00000000000E+00 0.  1.
        -13    1    3    3    0    0  0.31002613429E+03  0.27747657096E+03 -0.22746720749E+03  0.47418433320E+03  0.00000000000E+00 0. -1.
          2    1    6    6  502    0 -0.43571516399E+03 -0.32592789684E+03  0.57934971410E+01  0.54416014434E+03  0.00000000000E+00 0. -1.
          1    1    5    5  503    0 -0.91494460454E+02 -0.73804328180E+02 -0.57081719870E+03  0.58279549542E+03  0.00000000000E+00 0. -1.
         -2    1    5    5    0  503 -0.65983190606E+02 -0.29395111475E+02 -0.15086844499E+03  0.16726966765E+03  0.00000000000E+00 0.  1.
         -1    1    6    6    0  502 -0.89923404468E+02 -0.11839997063E+03  0.14224374142E+01  0.14868353992E+03  0.00000000000E+00 0.  1.
<mgrwt>
<rscale>  0 0.21353978E+04</rscale>
<asrwt>0</asrwt>
<pdfrwt beam="1">  1        1 0.29168334E+00 0.21353978E+04</pdfrwt>
<pdfrwt beam="2">  1       -1 0.92503731E-01 0.21353978E+04</pdfrwt>
<totfact> 0.36532260E+00</totfact>
</mgrwt>
</event>
<event>
12    1  0.1097093E-007  0.1336091E+04  0.7818608E-02  0.9001424E-01
          2   -1    0    0  501    0  0.00000000000E+00  0.00000000000E+00  0.20026096034E+04  0.20026096034E+04  0.00000000000E+00 0. -1.
         -2   -1    0    0    0  501 -0.00000000000E+00 -0.00000000000E+00 -0.22285166158E+03  0.22285166158E+03  0.00000000000E+00 0.  1.
         23    2    1    2    0    0 -0.30493550530E+03  0.13368446137E+03  0.28616345795E+03  0.44861227912E+03  0.92229359240E+02 0.  0.
        254    2    1    2    0    0  0.30493550530E+03 -0.13368446137E+03  0.14935944838E+04  0.17768489858E+04  0.90305627658E+03 0.  0.
        -24    2    4    4    0    0 -0.28445567322E+03  0.28454914053E+02  0.24634564257E+03  0.38567349407E+03  0.79581130037E+02 0.  0.
         24    2    4    4    0    0  0.58939117852E+03 -0.16213937543E+03  0.12472488413E+04  0.13911754918E+04  0.77900182419E+02 0.  0.
         13    1    3    3    0    0 -0.20982103531E+03  0.81166743809E+02  0.24448156594E+03  0.33224109205E+03  0.00000000000E+00 0. -1.
        -13    1    3    3    0    0 -0.95114469989E+02  0.52517717563E+02  0.41681892011E+02  0.11637118707E+03  0.00000000000E+00 0.  1.
          4    1    6    6  502    0  0.42986854769E+03 -0.12376329934E+03  0.83087258665E+03  0.94363847833E+03  0.00000000000E+00 0. -1.
          3    1    5    5  503    0 -0.17222328056E+03  0.52397206123E+02  0.12844014142E+03  0.22114066904E+03  0.00000000000E+00 0. -1.
         -4    1    5    5    0  503 -0.11223239266E+03 -0.23942292071E+02  0.11790550115E+03  0.16453282503E+03  0.00000000000E+00 0.  1.
         -1    1    6    6    0  502  0.15952263083E+03 -0.38376076085E+02  0.41637625463E+03  0.44753701342E+03  0.00000000000E+00 0.  1.
<mgrwt>
<rscale>  0 0.13360911E+04</rscale>
<asrwt>0</asrwt>
<pdfrwt beam="1">  1        2 0.30809377E+00 0.13360911E+04</pdfrwt>
<pdfrwt beam="2">  1       -2 0.34284872E-01 0.13360911E+04</pdfrwt>
<totfact> 0.51926205E+01</totfact>
</mgrwt>
</event>
<event>
12    1  0.1097093E-007  0.2649668E+04  0.7818608E-02  0.8351523E-01
         -2   -1    0    0    0  501 -0.00000000000E+00  0.00000000000E+00  0.85401578292E+03  0.85401578292E+03  0.00000000000E+00 0.  1.
          2   -1    0    0  501    0  0.00000000000E+00 -0.00000000000E+00 -0.20552146380E+04  0.20552146380E+04  0.00000000000E+00 0. -1.
         23    2    1    2    0    0  0.10057748532E+04 -0.53204698147E+03 -0.82580781524E+03  0.14089583957E+04  0.92456299117E+02 0.  0.
        254    2    1    2    0    0 -0.10057748532E+04  0.53204698147E+03 -0.37539103987E+03  0.15002720253E+04  0.90290678990E+03 0.  0.
        -24    2    4    4    0    0 -0.95792742879E+03  0.87173780003E+02 -0.40095971983E+03  0.10451292032E+04  0.79385941279E+02 0.  0.
         24    2    4    4    0    0 -0.47847424382E+02  0.44487320147E+03  0.25568679954E+02  0.45514282210E+03  0.79370584646E+02 0.  0.
         13    1    3    3    0    0  0.42805537530E+03 -0.22850468178E+03 -0.40895556078E+03  0.63457895065E+03  0.00000000000E+00 0. -1.
        -13    1    3    3    0    0  0.57771947787E+03 -0.30354229969E+03 -0.41685225446E+03  0.77437944502E+03  0.00000000000E+00 0.  1.
          4    1    6    6  502    0 -0.61740153286E+02  0.40164756534E+03  0.37803993889E+02  0.40811978049E+03  0.00000000000E+00 0. -1.
          1    1    5    5  503    0 -0.88749992806E+03  0.10007926176E+03 -0.37924576133E+03  0.97030888300E+03  0.00000000000E+00 0. -1.
         -2    1    5    5    0  503 -0.70427500726E+02 -0.12905481762E+02 -0.21713958495E+02  0.74820320178E+02  0.00000000000E+00 0.  1.
         -3    1    6    6    0  502  0.13892728903E+02  0.43225636125E+02 -0.12235313935E+02  0.47023041606E+02  0.00000000000E+00 0.  1.
<mgrwt>
<rscale>  0 0.26496685E+04</rscale>
<asrwt>0</asrwt>
<pdfrwt beam="1">  1        2 0.31618687E+00 0.26496685E+04</pdfrwt>
<pdfrwt beam="2">  1       -2 0.13138704E+00 0.26496685E+04</pdfrwt>
<totfact> 0.23180982E+00</totfact>
</mgrwt>
</event>
<event>
12    1  0.1097093E-007  0.1911823E+04  0.7818608E-02  0.8648994E-01
          1   -1    0    0  501    0  0.00000000000E+00  0.00000000000E+00  0.16911367751E+04  0.16911367751E+04  0.00000000000E+00 0. -1.
         -1   -1    0    0    0  501 -0.00000000000E+00 -0.00000000000E+00 -0.54032701346E+03  0.54032701346E+03  0.00000000000E+00 0.  1.
         23    2    1    2    0    0 -0.73976991705E+03  0.38026526397E+02  0.44873476715E+03  0.87092351519E+03  0.91865832470E+02 0.  0.
        254    2    1    2    0    0  0.73976991705E+03 -0.38026526397E+02  0.70207499448E+03  0.13605402734E+04  0.89969716611E+03 0.  0.
        -24    2    4    4    0    0 -0.82764719061E+02  0.59667108094E+02  0.48350559207E+03  0.50031918655E+03  0.78303693082E+02 0.  0.
         24    2    4    4    0    0  0.82253463611E+03 -0.97693634491E+02  0.21856940240E+03  0.86022108682E+03  0.78105446167E+02 0.  0.
         13    1    3    3    0    0 -0.49560825732E+03  0.31579125284E+02  0.34959458244E+03  0.60732294370E+03  0.00000000000E+00 0. -1.
        -13    1    3    3    0    0 -0.24416165972E+03  0.64474011127E+01  0.99140184718E+02  0.26360057148E+03  0.00000000000E+00 0.  1.
          2    1    6    6  502    0  0.12275222274E+03 -0.40015623256E+02  0.21064214138E+02  0.13081689268E+03  0.00000000000E+00 0. -1.
          1    1    5    5  503    0  0.10376486348E+02  0.86336841606E+01  0.16152217754E+02  0.21050085736E+02  0.00000000000E+00 0. -1.
         -2    1    5    5    0  503 -0.93141205409E+02  0.51033423933E+02  0.46735337432E+03  0.47926910081E+03  0.00000000000E+00 0.  1.
         -1    1    6    6    0  502  0.69978241336E+03 -0.57678011234E+02  0.19750518826E+03  0.72940419414E+03  0.00000000000E+00 0.  1.
<mgrwt>
<rscale>  0 0.19118231E+04</rscale>
<asrwt>0</asrwt>
<pdfrwt beam="1">  1        1 0.26017489E+00 0.19118231E+04</pdfrwt>
<pdfrwt beam="2">  1       -1 0.83127234E-01 0.19118231E+04</pdfrwt>
<totfact> 0.64893839E+00</totfact>
</mgrwt>
</event>
<event>
12    1  0.1097093E-007  0.1074104E+04  0.7818608E-02  0.9230806E-01
          1   -1    0    0  501    0  0.00000000000E+00  0.00000000000E+00  0.16446704556E+03  0.16446704556E+03  0.00000000000E+00 0. -1.
         -1   -1    0    0    0  501 -0.00000000000E+00 -0.00000000000E+00 -0.17536937846E+04  0.17536937846E+04  0.00000000000E+00 0.  1.
         23    2    1    2    0    0  0.15090300254E+01  0.14248609170E+03 -0.12024289004E+03  0.20829004258E+03  0.92853786861E+02 0.  0.
        254    2    1    2    0    0 -0.15090300254E+01 -0.14248609170E+03 -0.14689838490E+04  0.17098707875E+04  0.86338867149E+03 0.  0.
        -24    2    4    4    0    0  0.34579090131E+03 -0.22828402610E+03 -0.11479728872E+04  0.12230383675E+04  0.79348311440E+02 0.  0.
         24    2    4    4    0    0 -0.34729993134E+03  0.85797934399E+02 -0.32101096176E+03  0.48683242008E+03  0.77325544397E+02 0.  0.
         11    1    3    3    0    0  0.85103497597E+01  0.19722040193E+02  0.14467559641E+02  0.25897783774E+02  0.00000000000E+00 0. -1.
        -11    1    3    3    0    0 -0.70013197343E+01  0.12276405151E+03 -0.13471044968E+03  0.18239225881E+03  0.00000000000E+00 0.  1.
          2    1    6    6  502    0 -0.34065722671E+03  0.69251405762E+02 -0.29914533741E+03  0.45861861738E+03  0.00000000000E+00 0. -1.
          3    1    5    5  503    0  0.16639563145E+03 -0.10905886206E+03 -0.66691830496E+03  0.69596075109E+03  0.00000000000E+00 0. -1.
         -4    1    5    5    0  503  0.17939526986E+03 -0.11922516404E+03 -0.48105458224E+03  0.52707761637E+03  0.00000000000E+00 0.  1.
         -1    1    6    6    0  502 -0.66427046244E+01  0.16546528637E+02 -0.21865624349E+02  0.28213802701E+02  0.00000000000E+00 0.  1.
<mgrwt>
<rscale>  0 0.10741040E+04</rscale>
<asrwt>0</asrwt>
<pdfrwt beam="1">  1        1 0.25302622E-01 0.10741040E+04</pdfrwt>
<pdfrwt beam="2">  1       -1 0.26979905E+00 0.10741040E+04</pdfrwt>
<totfact> 0.10008633E+01</totfact>
</mgrwt>
</event>
<event>
12    1  0.1097093E-007  0.2222940E+04  0.7818608E-02  0.8508940E-01
         -1   -1    0    0    0  501 -0.00000000000E+00  0.00000000000E+00  0.16126845962E+04  0.16126845962E+04  0.00000000000E+00 0.  1.
          1   -1    0    0  501    0  0.00000000000E+00 -0.00000000000E+00 -0.76603017722E+03  0.76603017722E+03  0.00000000000E+00 0. -1.
         23    2    1    2    0    0  0.25636895954E+03  0.58250769602E+03 -0.36104176168E+03  0.73791195908E+03  0.95512545456E+02 0.  0.
        254    2    1    2    0    0 -0.25636895954E+03 -0.58250769602E+03  0.12076961807E+04  0.16408028144E+04  0.91030959100E+03 0.  0.
        -24    2    4    4    0    0  0.18498589169E+03 -0.58523624115E+03  0.46842933516E+03  0.77612404184E+03  0.78874889587E+02 0.  0.
         24    2    4    4    0    0 -0.44135485123E+03  0.27285451292E+01  0.73926684553E+03  0.86467877253E+03  0.79701700725E+02 0.  0.
         11    1    3    3    0    0  0.24517431105E+03  0.50202683437E+03 -0.33983814665E+03  0.65393528054E+03  0.00000000000E+00 0. -1.
        -11    1    3    3    0    0  0.11194648488E+02  0.80480861654E+02 -0.21203615026E+02  0.83976678534E+02  0.00000000000E+00 0.  1.
          2    1    6    6  502    0 -0.46121370840E+02 -0.52893057052E+01  0.13343289867E+03  0.14127808057E+03  0.00000000000E+00 0. -1.
          3    1    5    5  503    0  0.12030416427E+03 -0.45731318386E+03  0.32830266103E+03  0.57566576875E+03  0.00000000000E+00 0. -1.
         -4    1    5    5    0  503  0.64681727419E+02 -0.12792305729E+03  0.14012667412E+03  0.20045827309E+03  0.00000000000E+00 0.  1.
         -1    1    6    6    0  502 -0.39523348039E+03  0.80178508344E+01  0.60583394686E+03  0.72340069196E+03  0.00000000000E+00 0.  1.
<mgrwt>
<rscale>  0 0.22229396E+04</rscale>
<asrwt>0</asrwt>
<pdfrwt beam="1">  1        1 0.11785080E+00 0.22229396E+04</pdfrwt>
<pdfrwt beam="2">  1       -1 0.24810532E+00 0.22229396E+04</pdfrwt>
<totfact> 0.15464110E+00</totfact>
</mgrwt>
</event>
<event>
12    1  0.1097093E-007  0.1171033E+04  0.7818608E-02  0.9138596E-01
         -2   -1    0    0    0  501 -0.00000000000E+00  0.00000000000E+00  0.39069095973E+03  0.39069095973E+03  0.00000000000E+00 0.  1.
          2   -1    0    0  501    0  0.00000000000E+00 -0.00000000000E+00 -0.87749492343E+03  0.87749492343E+03  0.00000000000E+00 0. -1.
         23    2    1    2    0    0 -0.19912417339E+03  0.83247494710E+02 -0.99182628939E+02  0.25833284641E+03  0.10157796928E+03 0.  0.
        254    2    1    2    0    0  0.19912417339E+03 -0.83247494710E+02 -0.38762133477E+03  0.10098530368E+04  0.90717819356E+03 0.  0.
        -24    2    4    4    0    0 -0.30337794515E+03  0.15483257303E+03 -0.47053341409E+02  0.35288691918E+03  0.79396835664E+02 0.  0.
         24    2    4    4    0    0  0.50250211855E+03 -0.23808006774E+03 -0.34056799336E+03  0.65696611758E+03  0.80171215176E+02 0.  0.
         11    1    3    3    0    0  0.96799274039E+01  0.16797372291E+02 -0.70531728760E+01  0.20630074116E+02  0.00000000000E+00 0. -1.
        -11    1    3    3    0    0 -0.20880410080E+03  0.66450122419E+02 -0.92129456063E+02  0.23770277229E+03  0.00000000000E+00 0.  1.
          2    1    6    6  502    0  0.11673866525E+03 -0.93284377532E+02 -0.80867861842E+02  0.16991027672E+03  0.00000000000E+00 0. -1.
          3    1    5    5  503    0 -0.60656221430E+02  0.65256096331E+02  0.39661414613E+01  0.89181083109E+02  0.00000000000E+00 0. -1.
         -4    1    5    5    0  503 -0.24272172372E+03  0.89576476701E+02 -0.51019482870E+02  0.26370583607E+03  0.00000000000E+00 0.  1.
         -1    1    6    6    0  502  0.38576345330E+03 -0.14479569021E+03 -0.25970013152E+03  0.48705584086E+03  0.00000000000E+00 0.  1.
<mgrwt>
<rscale>  0 0.11710326E+04</rscale>
<asrwt>0</asrwt>
<pdfrwt beam="1">  1        2 0.13499922E+00 0.11710326E+04</pdfrwt>
<pdfrwt beam="2">  1       -2 0.60106302E-01 0.11710326E+04</pdfrwt>
<totfact> 0.77502534E+01</totfact>
</mgrwt>
</event>
<event>
12    1  0.1097093E-007  0.2137683E+04  0.7818608E-02  0.8544823E-01
          1   -1    0    0  501    0  0.00000000000E+00  0.00000000000E+00  0.24551271451E+04  0.24551271451E+04  0.00000000000E+00 0. -1.
         -1   -1    0    0    0  501 -0.00000000000E+00 -0.00000000000E+00 -0.46532107212E+03  0.46532107212E+03  0.00000000000E+00 0.  1.
         23    2    1    2    0    0 -0.72886427918E+02  0.44952025479E+02  0.20049001625E+04  0.20088043467E+04  0.91307862106E+02 0.  0.
        254    2    1    2    0    0  0.72886427918E+02 -0.44952025479E+02 -0.15094089532E+02  0.91164387053E+03  0.90748752011E+03 0.  0.
        -24    2    4    4    0    0  0.10749731986E+03 -0.43799919383E+02  0.43308405191E+03  0.45532945991E+03  0.79303305944E+02 0.  0.
         24    2    4    4    0    0 -0.34610891942E+02 -0.11521060959E+01 -0.44817814144E+03  0.45631441061E+03  0.78485372402E+02 0.  0.
         11    1    3    3    0    0 -0.67121212552E+02  0.67018292317E+02  0.12642543044E+04  0.12678074203E+04  0.00000000000E+00 0. -1.
        -11    1    3    3    0    0 -0.57652153667E+01 -0.22066266838E+02  0.74064585814E+03  0.74099692646E+03  0.00000000000E+00 0.  1.
          2    1    6    6  502    0 -0.31351279819E+02 -0.34197381936E+02 -0.17199267569E+03  0.17813995669E+03  0.00000000000E+00 0. -1.
          3    1    5    5  503    0  0.36348846161E+02 -0.67126060012E+01  0.41348833069E+02  0.55461912091E+02  0.00000000000E+00 0. -1.
         -4    1    5    5    0  503  0.71148473699E+02 -0.37087313382E+02  0.39173521884E+03  0.39986754782E+03  0.00000000000E+00 0.  1.
         -1    1    6    6    0  502 -0.32596121225E+01  0.33045275840E+02 -0.27618546575E+03  0.27817445393E+03  0.00000000000E+00 0.  1.
<mgrwt>
<rscale>  0 0.21376832E+04</rscale>
<asrwt>0</asrwt>
<pdfrwt beam="1">  1        1 0.37771186E+00 0.21376832E+04</pdfrwt>
<pdfrwt beam="2">  1       -1 0.71587859E-01 0.21376832E+04</pdfrwt>
<totfact> 0.26282840E+00</totfact>
</mgrwt>
</event>
<event>
12    1  0.1097093E-007  0.1692489E+04  0.7818608E-02  0.8765660E-01
         -2   -1    0    0    0  501 -0.00000000000E+00  0.00000000000E+00  0.34070696149E+03  0.34070696149E+03  0.00000000000E+00 0.  1.
          2   -1    0    0  501    0  0.00000000000E+00 -0.00000000000E+00 -0.21018944927E+04  0.21018944927E+04  0.00000000000E+00 0. -1.
         23    2    1    2    0    0 -0.21815226220E+03  0.41237745312E+03 -0.85189745915E+02  0.48280925526E+03  0.90564401428E+02 0.  0.
        254    2    1    2    0    0  0.21815226220E+03 -0.41237745312E+03 -0.16759977853E+04  0.19597921989E+04  0.90231442045E+03 0.  0.
        -24    2    4    4    0    0  0.18419168319E+03 -0.38839588566E+03 -0.17741633931E+04  0.18273101148E+04  0.81416030757E+02 0.  0.
         24    2    4    4    0    0  0.33960579013E+02 -0.23981567466E+02  0.98165607821E+02  0.13248208412E+03  0.78654812631E+02 0.  0.
         11    1    3    3    0    0 -0.11886128760E+03  0.24814126563E+03 -0.60263886412E+01  0.27520612413E+03  0.00000000000E+00 0.  1.
        -11    1    3    3    0    0 -0.99290974606E+02  0.16423618750E+03 -0.79163357274E+02  0.20760313113E+03  0.00000000000E+00 0. -1.
          2    1    6    6  502    0  0.42296077315E+02 -0.39975011695E+02  0.98540464160E+02  0.11444292374E+03  0.00000000000E+00 0. -1.
          1    1    5    5  503    0  0.66954691418E+02 -0.23339570292E+03 -0.94912634963E+03  0.97969245807E+03  0.00000000000E+00 0. -1.
         -2    1    5    5    0  503  0.11723699177E+03 -0.15500018274E+03 -0.82503704350E+03  0.84761765675E+03  0.00000000000E+00 0.  1.
         -1    1    6    6    0  502 -0.83354983017E+01  0.15993444229E+02 -0.37485633922E+00  0.18039160389E+02  0.00000000000E+00 0.  1.
<mgrwt>
<rscale>  0 0.16924894E+04</rscale>
<asrwt>0</asrwt>
<pdfrwt beam="1">  1        2 0.32336839E+00 0.16924894E+04</pdfrwt>
<pdfrwt beam="2">  1       -2 0.52416455E-01 0.16924894E+04</pdfrwt>
<totfact> 0.19174986E+01</totfact>
</mgrwt>
</event>
<event>
12    1  0.1097093E-007  0.2431212E+04  0.7818608E-02  0.8427910E-01
          2   -1    0    0  501    0  0.00000000000E+00  0.00000000000E+00  0.44230957809E+04  0.44230957809E+04  0.00000000000E+00 0. -1.
         -2   -1    0    0    0  501 -0.00000000000E+00 -0.00000000000E+00 -0.33408670857E+03  0.33408670857E+03  0.00000000000E+00 0.  1.
         23    2    1    2    0    0 -0.65276802619E+02  0.94899695698E+03  0.90909532674E+03  0.13188412007E+04  0.89618715885E+02 0.  0.
        254    2    1    2    0    0  0.65276802619E+02 -0.94899695698E+03  0.31799137456E+04  0.34383412888E+04  0.89748710490E+03 0.  0.
        -24    2    4    4    0    0 -0.74878087690E+02 -0.94573473232E+03  0.16917102290E+04  0.19412048430E+04  0.79823753215E+02 0.  0.
         24    2    4    4    0    0  0.14015489031E+03 -0.32622246564E+01  0.14882035166E+04  0.14971364458E+04  0.83748404071E+02 0.  0.
         11    1    3    3    0    0  0.88486922807E+01  0.36493055641E+03  0.31050107239E+03  0.47923222587E+03  0.00000000000E+00 0. -1.
        -11    1    3    3    0    0 -0.74125494900E+02  0.58406640056E+03  0.59859425435E+03  0.83960897482E+03  0.00000000000E+00 0.  1.
          2    1    6    6  502    0  0.93265163160E+02 -0.40301187448E+02  0.82104786170E+03  0.82731020033E+03  0.00000000000E+00 0. -1.
          3    1    5    5  503    0 -0.61889464409E+02 -0.83622449906E+03  0.14389763648E+04  0.16654593052E+04  0.00000000000E+00 0. -1.
         -4    1    5    5    0  503 -0.12988623281E+02 -0.10951023325E+03  0.25273386423E+03  0.27574553786E+03  0.00000000000E+00 0.  1.
         -1    1    6    6    0  502  0.46889727150E+02  0.37038962792E+02  0.66715565490E+03  0.66982624548E+03  0.00000000000E+00 0.  1.
<mgrwt>
<rscale>  0 0.24312116E+04</rscale>
<asrwt>0</asrwt>
<pdfrwt beam="1">  1        2 0.68047623E+00 0.24312116E+04</pdfrwt>
<pdfrwt beam="2">  1       -2 0.51397958E-01 0.24312116E+04</pdfrwt>
<totfact> 0.47135173E-01</totfact>
</mgrwt>
</event>
<event>
12    1  0.1097093E-007  0.1513909E+04  0.7818608E-02  0.8875256E-01
         -2   -1    0    0    0  501 -0.00000000000E+00  0.00000000000E+00  0.43592965745E+03  0.43592965745E+03  0.00000000000E+00 0.  1.
          2   -1    0    0  501    0  0.00000000000E+00 -0.00000000000E+00 -0.13143864963E+04  0.13143864963E+04  0.00000000000E+00 0. -1.
         23    2    1    2    0    0  0.97972896886E+02 -0.37158389133E+03  0.44265618249E+02  0.39766822176E+03  0.92234986955E+02 0.  0.
        254    2    1    2    0    0 -0.97972896886E+02  0.37158389133E+03 -0.92272245708E+03  0.13526479320E+04  0.91135416731E+03 0.  0.
        -24    2    4    4    0    0  0.20339252322E+03 -0.20731459378E+03 -0.14757854021E+03  0.33608880486E+03  0.82634132918E+02 0.  0.
         24    2    4    4    0    0 -0.30136542010E+03  0.57889848511E+03 -0.77514391687E+03  0.10165591271E+04  0.81239119831E+02 0.  0.
         13    1    3    3    0    0 -0.28088295777E+01 -0.11979496563E+03  0.40321461059E+02  0.12642999461E+03  0.00000000000E+00 0. -1.
        -13    1    3    3    0    0  0.10078172646E+03 -0.25178892569E+03  0.39441571898E+01  0.27123822715E+03  0.00000000000E+00 0.  1.
          4    1    6    6  502    0 -0.27734740756E+03  0.55795767637E+03 -0.75479392723E+03  0.97875033879E+03  0.00000000000E+00 0. -1.
          3    1    5    5  503    0  0.20516613570E+03 -0.21133240178E+03 -0.13741932969E+03  0.32502092156E+03  0.00000000000E+00 0. -1.
         -4    1    5    5    0  503 -0.17736124795E+01  0.40178079935E+01 -0.10159210524E+02  0.11067883301E+02  0.00000000000E+00 0.  1.
         -3    1    6    6    0  502 -0.24018012540E+02  0.20940808742E+02 -0.20349989636E+02  0.37808788335E+02  0.00000000000E+00 0.  1.
<mgrwt>
<rscale>  0 0.15139089E+04</rscale>
<asrwt>0</asrwt>
<pdfrwt beam="1">  1        2 0.20221331E+00 0.15139089E+04</pdfrwt>
<pdfrwt beam="2">  1       -2 0.67066101E-01 0.15139089E+04</pdfrwt>
<totfact> 0.31934940E+01</totfact>
</mgrwt>
</event>
<event>
12    1  0.1097093E-007  0.2483424E+04  0.7818608E-02  0.8408915E-01
          2   -1    0    0  501    0  0.00000000000E+00  0.00000000000E+00  0.18457266431E+04  0.18457266431E+04  0.00000000000E+00 0. -1.
         -2   -1    0    0    0  501 -0.00000000000E+00 -0.00000000000E+00 -0.83536116642E+03  0.83536116642E+03  0.00000000000E+00 0.  1.
         23    2    1    2    0    0  0.44906350850E+03 -0.20440373866E+03 -0.59538473088E+03  0.77874472424E+03  0.92311671622E+02 0.  0.
        254    2    1    2    0    0 -0.44906350850E+03  0.20440373866E+03  0.16057502075E+04  0.19023430852E+04  0.89276904178E+03 0.  0.
        -24    2    4    4    0    0 -0.61010330916E+03  0.61468774804E+02  0.15457497899E+04  0.16648687212E+04  0.80255764656E+02 0.  0.
         24    2    4    4    0    0  0.16103980066E+03  0.14293496386E+03  0.60000417652E+02  0.23747436406E+03  0.80186047278E+02 0.  0.
         13    1    3    3    0    0  0.31505600724E+03 -0.18803007253E+03 -0.44019949883E+03  0.57305426850E+03  0.00000000000E+00 0.  1.
        -13    1    3    3    0    0  0.13400750125E+03 -0.16373666135E+02 -0.15518523205E+03  0.20569045574E+03  0.00000000000E+00 0. -1.
          4    1    6    6  502    0  0.15663793888E+03  0.15041623575E+03  0.65941811274E+02  0.22695552504E+03  0.00000000000E+00 0. -1.
          1    1    5    5  503    0 -0.16384315632E+03 -0.15102706085E+02  0.45723492408E+03  0.48593872803E+03  0.00000000000E+00 0. -1.
         -2    1    5    5    0  503 -0.44626015284E+03  0.76571480889E+02  0.10885148658E+04  0.11789299931E+04  0.00000000000E+00 0.  1.
         -3    1    6    6    0  502  0.44018617792E+01 -0.74812718866E+01 -0.59413936218E+01  0.10518839020E+02  0.00000000000E+00 0.  1.
<mgrwt>
<rscale>  0 0.24834237E+04</rscale>
<asrwt>0</asrwt>
<pdfrwt beam="1">  1        2 0.28395794E+00 0.24834237E+04</pdfrwt>
<pdfrwt beam="2">  1       -2 0.12851710E+00 0.24834237E+04</pdfrwt>
<totfact> 0.32501620E+00</totfact>
</mgrwt>
</event>
<event>
12    1  0.1097093E-007  0.1553048E+04  0.7818608E-02  0.8849923E-01
         -1   -1    0    0    0  501 -0.00000000000E+00  0.00000000000E+00  0.40771962856E+03  0.40771962856E+03  0.00000000000E+00 0.  1.
          1   -1    0    0  501    0  0.00000000000E+00 -0.00000000000E+00 -0.14789321301E+04  0.14789321301E+04  0.00000000000E+00 0. -1.
         23    2    1    2    0    0  0.41102245067E+03 -0.12446042904E+03 -0.11752636637E+02  0.43942807906E+03  0.92352903800E+02 0.  0.
        254    2    1    2    0    0 -0.41102245067E+03  0.12446042904E+03 -0.10594598649E+04  0.14472236796E+04  0.88745215087E+03 0.  0.
        -24    2    4    4    0    0 -0.38509728215E+03 -0.33047166516E+03 -0.65781474117E+03  0.83454464476E+03  0.78949934719E+02 0.  0.
         24    2    4    4    0    0 -0.25925168519E+02  0.45493209420E+03 -0.40164512368E+03  0.61267903480E+03  0.80134072706E+02 0.  0.
         11    1    3    3    0    0  0.29344836711E+03 -0.10145787791E+03  0.31431684602E+02  0.31207947056E+03  0.00000000000E+00 0.  1.
        -11    1    3    3    0    0  0.11757408356E+03 -0.23002551128E+02 -0.43184321239E+02  0.12734860849E+03  0.00000000000E+00 0. -1.
          2    1    6    6  502    0  0.27509337517E+02  0.11406606062E+03 -0.11161588848E+03  0.16194423854E+03  0.00000000000E+00 0. -1.
          3    1    5    5  503    0 -0.18006699382E+03 -0.13432323998E+03 -0.35008751100E+03  0.41596648954E+03  0.00000000000E+00 0. -1.
         -4    1    5    5    0  503 -0.20503028834E+03 -0.19614842518E+03 -0.30772723017E+03  0.41857815521E+03  0.00000000000E+00 0.  1.
         -1    1    6    6    0  502 -0.53434506036E+02  0.34086603358E+03 -0.29002923520E+03  0.45073479626E+03  0.00000000000E+00 0.  1.
<mgrwt>
<rscale>  0 0.15530482E+04</rscale>
<asrwt>0</asrwt>
<pdfrwt beam="1">  1        1 0.22752802E+00 0.15530482E+04</pdfrwt>
<pdfrwt beam="2">  1       -1 0.62726096E-01 0.15530482E+04</pdfrwt>
<totfact> 0.16799046E+01</totfact>
</mgrwt>
</event>
<event>
12    1  0.1097093E-007  0.1390348E+04  0.7818608E-02  0.8960835E-01
         -2   -1    0    0    0  501 -0.00000000000E+00  0.00000000000E+00  0.21264406235E+03  0.21264406235E+03  0.00000000000E+00 0.  1.
          2   -1    0    0  501    0  0.00000000000E+00 -0.00000000000E+00 -0.22726560776E+04  0.22726560776E+04  0.00000000000E+00 0. -1.
         23    2    1    2    0    0 -0.11907905470E+03 -0.36624208057E+03 -0.80847577105E+03  0.89871754935E+03  0.75809486745E+02 0.  0.
        254    2    1    2    0    0  0.11907905470E+03  0.36624208057E+03 -0.12515362442E+04  0.15865825906E+04  0.89587290584E+03 0.  0.
        -24    2    4    4    0    0  0.16480578267E+03 -0.24526317529E+03 -0.67648939558E+03  0.74251903015E+03  0.79885146629E+02 0.  0.
         24    2    4    4    0    0 -0.45726727967E+02  0.61150525586E+03 -0.57504684859E+03  0.84406356043E+03  0.75728491214E+02 0.  0.
         11    1    3    3    0    0 -0.22989658574E+02 -0.30188905074E+02 -0.13111353746E+03  0.13649415407E+03  0.00000000000E+00 0.  1.
        -11    1    3    3    0    0 -0.96089396125E+02 -0.33605317549E+03 -0.67736223360E+03  0.76222339528E+03  0.00000000000E+00 0. -1.
          2    1    6    6  502    0 -0.22178249187E+01  0.25464651901E+03 -0.19349727070E+03  0.31982958300E+03  0.00000000000E+00 0. -1.
          3    1    5    5  503    0  0.14371589854E+03 -0.22450320863E+03 -0.53218631011E+03  0.59521275091E+03  0.00000000000E+00 0. -1.
         -4    1    5    5    0  503  0.21089884127E+02 -0.20759966665E+02 -0.14430308546E+03  0.14730627924E+03  0.00000000000E+00 0.  1.
         -1    1    6    6    0  502 -0.43508903049E+02  0.35685873685E+03 -0.38154957789E+03  0.52423397744E+03  0.00000000000E+00 0.  1.
<mgrwt>
<rscale>  0 0.13903479E+04</rscale>
<asrwt>0</asrwt>
<pdfrwt beam="1">  1        2 0.34963941E+00 0.13903479E+04</pdfrwt>
<pdfrwt beam="2">  1       -2 0.32714470E-01 0.13903479E+04</pdfrwt>
<totfact> 0.39951183E+01</totfact>
</mgrwt>
</event>
<event>
12    1  0.1097093E-007  0.4260378E+04  0.7818608E-02  0.7953985E-01
          2   -1    0    0  501    0  0.00000000000E+00  0.00000000000E+00  0.27939974389E+04  0.27939974389E+04  0.00000000000E+00 0. -1.
         -2   -1    0    0    0  501 -0.00000000000E+00 -0.00000000000E+00 -0.16240909645E+04  0.16240909645E+04  0.00000000000E+00 0.  1.
         23    2    1    2    0    0  0.65202902485E+03  0.17953126416E+03 -0.14303574502E+04  0.15846935421E+04  0.89206855389E+02 0.  0.
        254    2    1    2    0    0 -0.65202902485E+03 -0.17953126416E+03  0.26002639246E+04  0.28333948613E+04  0.89965584448E+03 0.  0.
        -24    2    4    4    0    0  0.66644003394E+02 -0.33853176443E+03  0.56478588025E+03  0.66733786296E+03  0.85507625959E+02 0.  0.
         24    2    4    4    0    0 -0.71867302824E+03  0.15900050027E+03  0.20354780443E+04  0.21660569983E+04  0.82824938693E+02 0.  0.
         13    1    3    3    0    0  0.37632276736E+00  0.29495166464E+01  0.29111034661E-01  0.29735693577E+01  0.00000000000E+00 0. -1.
        -13    1    3    3    0    0  0.65165270208E+03  0.17658174752E+03 -0.14303865612E+04  0.15817199727E+04  0.00000000000E+00 0.  1.
          4    1    6    6  502    0 -0.34119002713E+03  0.87074163291E+02  0.10901997666E+04  0.11456561768E+04  0.00000000000E+00 0. -1.
          3    1    5    5  503    0  0.38247913667E+02 -0.17361064100E+03  0.21055618064E+03  0.27556752852E+03  0.00000000000E+00 0. -1.
         -4    1    5    5    0  503  0.28396089728E+02 -0.16492112344E+03  0.35422969961E+03  0.39177033445E+03  0.00000000000E+00 0.  1.
         -3    1    6    6    0  502 -0.37748300110E+03  0.71926336981E+02  0.94527827778E+03  0.10204008215E+04  0.00000000000E+00 0.  1.
<mgrwt>
<rscale>  0 0.42603784E+04</rscale>
<asrwt>0</asrwt>
<pdfrwt beam="1">  1        2 0.42984576E+00 0.42603784E+04</pdfrwt>
<pdfrwt beam="2">  1       -2 0.24986015E+00 0.42603784E+04</pdfrwt>
<totfact> 0.11595933E-01</totfact>
</mgrwt>
</event>
<event>
12    1  0.1097093E-007  0.1419350E+04  0.7818608E-02  0.8939930E-01
          2   -1    0    0  501    0  0.00000000000E+00  0.00000000000E+00  0.31895662097E+04  0.31895662097E+04  0.00000000000E+00 0. -1.
         -2   -1    0    0    0  501 -0.00000000000E+00 -0.00000000000E+00 -0.15790184844E+03  0.15790184844E+03  0.00000000000E+00 0.  1.
         23    2    1    2    0    0 -0.26084509774E+03  0.26876358728E+03  0.13789557307E+04  0.14318417500E+04  0.91530645590E+02 0.  0.
        254    2    1    2    0    0  0.26084509774E+03 -0.26876358728E+03  0.16527086306E+04  0.19156263081E+04  0.89325489301E+03 0.  0.
        -24    2    4    4    0    0  0.35396893103E+03 -0.53779060085E+03  0.13124676038E+04  0.14639875153E+04  0.78584346209E+02 0.  0.
         24    2    4    4    0    0 -0.93123833292E+02  0.26902701357E+03  0.34024102680E+03  0.45163879282E+03  0.84652587131E+02 0.  0.
         11    1    3    3    0    0 -0.11434032123E+03  0.15677971493E+03  0.84318733465E+03  0.86522740906E+03  0.00000000000E+00 0. -1.
        -11    1    3    3    0    0 -0.14650477651E+03  0.11198387235E+03  0.53576839604E+03  0.56661434098E+03  0.00000000000E+00 0.  1.
          2    1    6    6  502    0 -0.78258716333E+02  0.17756516415E+03  0.17076476976E+03  0.25848485603E+03  0.00000000000E+00 0. -1.
          1    1    5    5  503    0  0.12665076304E+03 -0.13002955232E+03  0.38574351181E+03  0.42631696795E+03  0.00000000000E+00 0. -1.
         -2    1    5    5    0  503  0.22731816799E+03 -0.40776104853E+03  0.92672409194E+03  0.10376705473E+04  0.00000000000E+00 0.  1.
         -1    1    6    6    0  502 -0.14865116960E+02  0.91461849415E+02  0.16947625704E+03  0.19315393680E+03  0.00000000000E+00 0.  1.
<mgrwt>
<rscale>  0 0.14193497E+04</rscale>
<asrwt>0</asrwt>
<pdfrwt beam="1">  1        2 0.49070245E+00 0.14193497E+04</pdfrwt>
<pdfrwt beam="2">  1       -2 0.24292594E-01 0.14193497E+04</pdfrwt>
<totfact> 0.19570271E+01</totfact>
</mgrwt>
</event>
<event>
12    1  0.1097093E-007  0.2350175E+04  0.7818608E-02  0.8458396E-01
          1   -1    0    0  501    0  0.00000000000E+00  0.00000000000E+00  0.13853221068E+04  0.13853221068E+04  0.00000000000E+00 0. -1.
         -1   -1    0    0    0  501 -0.00000000000E+00 -0.00000000000E+00 -0.99675804147E+03  0.99675804147E+03  0.00000000000E+00 0.  1.
         23    2    1    2    0    0  0.36421646478E+03  0.73146079982E+03 -0.41669760772E+03  0.92207121392E+03  0.94286225825E+02 0.  0.
        254    2    1    2    0    0 -0.36421646478E+03 -0.73146079982E+03  0.80526167300E+03  0.14600089343E+04  0.90304550903E+03 0.  0.
        -24    2    4    4    0    0 -0.55028927745E+03 -0.68905352712E+03  0.33549892934E+03  0.94682644892E+03  0.79421285961E+02 0.  0.
         24    2    4    4    0    0  0.18607281268E+03 -0.42407272705E+02  0.46976274366E+03  0.51318248540E+03  0.79106002248E+02 0.  0.
         13    1    3    3    0    0  0.14373279578E+03  0.31367922435E+03 -0.12560054421E+03  0.36719105256E+03  0.00000000000E+00 0.  1.
        -13    1    3    3    0    0  0.22048366900E+03  0.41778157547E+03 -0.29109706350E+03  0.55488016137E+03  0.00000000000E+00 0. -1.
          4    1    6    6  502    0  0.12877337099E+02 -0.22790933317E+01  0.12115458143E+03  0.12185833036E+03  0.00000000000E+00 0. -1.
          3    1    5    5  503    0 -0.23244076176E+03 -0.34976817971E+03  0.14300610285E+03  0.44364088260E+03  0.00000000000E+00 0. -1.
         -4    1    5    5    0  503 -0.31784851569E+03 -0.33928534741E+03  0.19249282650E+03  0.50318556631E+03  0.00000000000E+00 0.  1.
         -3    1    6    6    0  502  0.17319547558E+03 -0.40128179373E+02  0.34860816223E+03  0.39132415504E+03  0.00000000000E+00 0.  1.
<mgrwt>
<rscale>  0 0.23501753E+04</rscale>
<asrwt>0</asrwt>
<pdfrwt beam="1">  1        1 0.21312648E+00 0.23501753E+04</pdfrwt>
<pdfrwt beam="2">  1       -1 0.15334739E+00 0.23501753E+04</pdfrwt>
<totfact> 0.23270724E+00</totfact>
</mgrwt>
</event>
<event>
12    1  0.1097093E-007  0.1461760E+04  0.7818608E-02  0.8910288E-01
         -2   -1    0    0    0  501 -0.00000000000E+00  0.00000000000E+00  0.17087677801E+03  0.17087677801E+03  0.00000000000E+00 0.  1.
          2   -1    0    0  501    0  0.00000000000E+00 -0.00000000000E+00 -0.31261462896E+04  0.31261462896E+04  0.00000000000E+00 0. -1.
         23    2    1    2    0    0  0.10692253465E+03 -0.18056869116E+03 -0.18224569391E+04  0.18367408183E+04  0.90719667507E+02 0.  0.
        254    2    1    2    0    0 -0.10692253465E+03  0.18056869116E+03 -0.11328125725E+04  0.14602822494E+04  0.89728615427E+03 0.  0.
        -24    2    4    4    0    0 -0.14611172977E+03 -0.34799027729E+03 -0.45776952031E+03  0.59841610737E+03  0.78121912220E+02 0.  0.
         24    2    4    4    0    0  0.39189195113E+02  0.52855896845E+03 -0.67504305222E+03  0.86186614199E+03  0.78865380306E+02 0.  0.
         13    1    3    3    0    0  0.64442823958E+02 -0.14284622935E+03 -0.15783338307E+04  0.15860944499E+04  0.00000000000E+00 0. -1.
        -13    1    3    3    0    0  0.42479710694E+02 -0.37722461805E+02 -0.24412310835E+03  0.25064636837E+03  0.00000000000E+00 0.  1.
          2    1    6    6  502    0 -0.38896066509E+01  0.38455661055E+03 -0.46161731353E+03  0.60082398413E+03  0.00000000000E+00 0. -1.
          1    1    5    5  503    0 -0.12627925714E+03 -0.31866697919E+03 -0.44282582221E+03  0.55999089566E+03  0.00000000000E+00 0. -1.
         -2    1    5    5    0  503 -0.19832472626E+02 -0.29323298095E+02 -0.14943698107E+02  0.38425211707E+02  0.00000000000E+00 0.  1.
         -1    1    6    6    0  502  0.43078801764E+02  0.14400235790E+03 -0.21342573869E+03  0.26104215785E+03  0.00000000000E+00 0.  1.
<mgrwt>
<rscale>  0 0.14617603E+04</rscale>
<asrwt>0</asrwt>
<pdfrwt beam="1">  1        2 0.48094558E+00 0.14617603E+04</pdfrwt>
<pdfrwt beam="2">  1       -2 0.26288735E-01 0.14617603E+04</pdfrwt>
<totfact> 0.18541121E+01</totfact>
</mgrwt>
</event>
<event>
12    1  0.1097093E-007  0.1230830E+04  0.7818608E-02  0.9086291E-01
          2   -1    0    0  501    0  0.00000000000E+00  0.00000000000E+00  0.12097116121E+04  0.12097116121E+04  0.00000000000E+00 0. -1.
         -2   -1    0    0    0  501 -0.00000000000E+00 -0.00000000000E+00 -0.31307918024E+03  0.31307918024E+03  0.00000000000E+00 0.  1.
         23    2    1    2    0    0  0.47540679726E+02 -0.23665782200E+03  0.70814820428E+02  0.26776229798E+03  0.91732592274E+02 0.  0.
        254    2    1    2    0    0 -0.47540679726E+02  0.23665782200E+03  0.82581761140E+03  0.12550284943E+04  0.91370386523E+03 0.  0.
        -24    2    4    4    0    0  0.38654742961E+03  0.24179855427E+03  0.60477645374E+03  0.76157231007E+03  0.79701745819E+02 0.  0.
         24    2    4    4    0    0 -0.43408810933E+03 -0.51407322728E+01  0.22104115766E+03  0.49345618425E+03  0.78618691223E+02 0.  0.
         11    1    3    3    0    0  0.26889320773E+02 -0.12603244845E+03 -0.99365890489E+01  0.12925149684E+03  0.00000000000E+00 0. -1.
        -11    1    3    3    0    0  0.20651358953E+02 -0.11062537355E+03  0.80751409477E+02  0.13851080114E+03  0.00000000000E+00 0.  1.
          4    1    6    6  502    0 -0.10238575031E+03 -0.31622166421E+02  0.38125869368E+02  0.11373823100E+03  0.00000000000E+00 0. -1.
          3    1    5    5  503    0  0.90285767100E+02  0.22380258975E+02  0.14452614881E+03  0.17187263721E+03  0.00000000000E+00 0. -1.
         -4    1    5    5    0  503  0.29626166251E+03  0.21941829530E+03  0.46025030493E+03  0.58969967286E+03  0.00000000000E+00 0.  1.
         -3    1    6    6    0  502 -0.33170235902E+03  0.26481434148E+02  0.18291528829E+03  0.37971795325E+03  0.00000000000E+00 0.  1.
<mgrwt>
<rscale>  0 0.12308298E+04</rscale>
<asrwt>0</asrwt>
<pdfrwt beam="1">  1        2 0.18610948E+00 0.12308298E+04</pdfrwt>
<pdfrwt beam="2">  1       -2 0.48166028E-01 0.12308298E+04</pdfrwt>
<totfact> 0.75127493E+01</totfact>
</mgrwt>
</event>
<event>
12    1  0.1097093E-007  0.1499013E+04  0.7818608E-02  0.8885109E-01
         -1   -1    0    0    0  501 -0.00000000000E+00  0.00000000000E+00  0.87090987617E+03  0.87090987617E+03  0.00000000000E+00 0.  1.
          1   -1    0    0  501    0  0.00000000000E+00 -0.00000000000E+00 -0.64502693094E+03  0.64502693094E+03  0.00000000000E+00 0. -1.
         23    2    1    2    0    0  0.45420211225E+03  0.39188448389E+02  0.18329301865E+03  0.49945801370E+03  0.89591760258E+02 0.  0.
        254    2    1    2    0    0 -0.45420211225E+03 -0.39188448389E+02  0.42589926576E+02  0.10164787934E+04  0.90751305354E+03 0.  0.
        -24    2    4    4    0    0  0.22481470284E+03  0.15993922476E+03 -0.70769279786E+02  0.29596014923E+03  0.80386023303E+02 0.  0.
         24    2    4    4    0    0 -0.67901681508E+03 -0.19912767315E+03  0.11335920636E+03  0.72051864418E+03  0.74707038193E+02 0.  0.
         13    1    3    3    0    0  0.70378441279E+02 -0.26493984899E+02  0.30624004923E+02  0.81196588045E+02  0.00000000000E+00 0. -1.
        -13    1    3    3    0    0  0.38382367097E+03  0.65682433288E+02  0.15266901373E+03  0.41826142565E+03  0.00000000000E+00 0.  1.
          2    1    6    6  502    0 -0.57704653855E+03 -0.17843297238E+03  0.70943336857E+02  0.60815622198E+03  0.00000000000E+00 0. -1.
          3    1    5    5  503    0  0.23123901312E+03  0.15032483285E+03 -0.68268364065E+02  0.28412955864E+03  0.00000000000E+00 0. -1.
         -4    1    5    5    0  503 -0.64243102793E+01  0.96143919110E+01 -0.25009157210E+01  0.11830590595E+02  0.00000000000E+00 0.  1.
         -1    1    6    6    0  502 -0.10197027653E+03 -0.20694700774E+02  0.42415869505E+02  0.11236242220E+03  0.00000000000E+00 0.  1.
<mgrwt>
<rscale>  0 0.14990134E+04</rscale>
<asrwt>0</asrwt>
<pdfrwt beam="1">  1        1 0.99234912E-01 0.14990134E+04</pdfrwt>
<pdfrwt beam="2">  1       -1 0.13398614E+00 0.14990134E+04</pdfrwt>
<totfact> 0.13998920E+01</totfact>
</mgrwt>
</event>
<event>
12    1  0.1097093E-007  0.2191022E+04  0.7818608E-02  0.8522174E-01
          2   -1    0    0  501    0  0.00000000000E+00  0.00000000000E+00  0.13719083250E+04  0.13719083250E+04  0.00000000000E+00 0. -1.
         -2   -1    0    0    0  501 -0.00000000000E+00 -0.00000000000E+00 -0.87479928680E+03  0.87479928680E+03  0.00000000000E+00 0.  1.
         23    2    1    2    0    0  0.12698334467E+02 -0.41738771642E+03 -0.61898864862E+03  0.75216300997E+03  0.90711040828E+02 0.  0.
        254    2    1    2    0    0 -0.12698334467E+02  0.41738771642E+03  0.11160976868E+04  0.14945446018E+04  0.90200652260E+03 0.  0.
        -24    2    4    4    0    0  0.39192285280E+03  0.30280285752E+02  0.63842417083E+03  0.75405566602E+03  0.80586024251E+02 0.  0.
         24    2    4    4    0    0 -0.40462118727E+03  0.38710743067E+03  0.47767351597E+03  0.74048893579E+03  0.81125878184E+02 0.  0.
         13    1    3    3    0    0  0.23804574038E+01 -0.12412703704E+03 -0.26293287648E+03  0.29076947129E+03  0.00000000000E+00 0.  1.
        -13    1    3    3    0    0  0.10317877063E+02 -0.29326067938E+03 -0.35605577214E+03  0.46139353868E+03  0.00000000000E+00 0. -1.
          2    1    6    6  502    0 -0.32334140854E+03  0.31077767105E+03  0.33698678711E+03  0.56097461795E+03  0.00000000000E+00 0. -1.
          1    1    5    5  503    0  0.35603065943E+03  0.10173250688E+02  0.60004318709E+03  0.69779162496E+03  0.00000000000E+00 0. -1.
         -2    1    5    5    0  503  0.35892193374E+02  0.20107035064E+02  0.38380983734E+02  0.56264041062E+02  0.00000000000E+00 0.  1.
         -1    1    6    6    0  502 -0.81279778726E+02  0.76329759621E+02  0.14068672886E+03  0.17951431784E+03  0.00000000000E+00 0.  1.
<mgrwt>
<rscale>  0 0.21910221E+04</rscale>
<asrwt>0</asrwt>
<pdfrwt beam="1">  1        2 0.21106282E+00 0.21910221E+04</pdfrwt>
<pdfrwt beam="2">  1       -2 0.13458451E+00 0.21910221E+04</pdfrwt>
<totfact> 0.54635057E+00</totfact>
</mgrwt>
</event>
<event>
12    1  0.1097093E-007  0.1879306E+04  0.7818608E-02  0.8665226E-01
          1   -1    0    0  501    0  0.00000000000E+00  0.00000000000E+00  0.37377049480E+03  0.37377049480E+03  0.00000000000E+00 0. -1.
         -1   -1    0    0    0  501 -0.00000000000E+00 -0.00000000000E+00 -0.23622721896E+04  0.23622721896E+04  0.00000000000E+00 0.  1.
         23    2    1    2    0    0  0.39544877226E+02 -0.42188730488E+03  0.83106635072E+02  0.44177829902E+03  0.93320187315E+02 0.  0.
        254    2    1    2    0    0 -0.39544877226E+02  0.42188730488E+03 -0.20716083299E+04  0.22942643854E+04  0.89024451829E+03 0.  0.
        -24    2    4    4    0    0  0.37727024775E+02  0.54761116614E+02 -0.18452947510E+04  0.18482199408E+04  0.79888191564E+02 0.  0.
         24    2    4    4    0    0 -0.77271902001E+02  0.36712618826E+03 -0.22631357890E+03  0.44604444463E+03  0.83577662338E+02 0.  0.
         11    1    3    3    0    0  0.29069691098E+02 -0.42232088684E+03  0.82440393783E+02  0.43127299583E+03  0.00000000000E+00 0. -1.
        -11    1    3    3    0    0  0.10475186128E+02  0.43358196316E+00  0.66624128947E+00  0.10505303193E+02  0.00000000000E+00 0.  1.
          2    1    6    6  502    0 -0.40035732802E+02  0.31161288415E+03 -0.16285409383E+03  0.35387413772E+03  0.00000000000E+00 0. -1.
          1    1    5    5  503    0  0.51554633689E+02  0.93897246034E+01 -0.12219934123E+04  0.12231164895E+04  0.00000000000E+00 0. -1.
         -2    1    5    5    0  503 -0.13827608914E+02  0.45371392010E+02 -0.62330133869E+03  0.62510345127E+03  0.00000000000E+00 0.  1.
         -1    1    6    6    0  502 -0.37236169199E+02  0.55513304111E+02 -0.63459485072E+02  0.92170306908E+02  0.00000000000E+00 0.  1.
<mgrwt>
<rscale>  0 0.18793059E+04</rscale>
<asrwt>0</asrwt>
<pdfrwt beam="1">  1        1 0.57503153E-01 0.18793059E+04</pdfrwt>
<pdfrwt beam="2">  1       -1 0.36342649E+00 0.18793059E+04</pdfrwt>
<totfact> 0.78005080E-01</totfact>
</mgrwt>
</event>
<event>
12    1  0.1097093E-007  0.2041356E+04  0.7818608E-02  0.8587526E-01
         -2   -1    0    0    0  501 -0.00000000000E+00  0.00000000000E+00  0.62908618400E+03  0.62908618400E+03  0.00000000000E+00 0.  1.
          2   -1    0    0  501    0  0.00000000000E+00 -0.00000000000E+00 -0.16560260064E+04  0.16560260064E+04  0.00000000000E+00 0. -1.
         23    2    1    2    0    0 -0.51012416689E+03 -0.33259844475E+02  0.29785666827E+03  0.59840584814E+03  0.89655347620E+02 0.  0.
        254    2    1    2    0    0  0.51012416689E+03  0.33259844475E+02 -0.13247964907E+04  0.16867063423E+04  0.91025252565E+03 0.  0.
        -24    2    4    4    0    0  0.80065825546E+02  0.28179590891E+03 -0.39165898546E+02  0.30614052054E+03  0.79803383439E+02 0.  0.
         24    2    4    4    0    0  0.43005834134E+03 -0.24853606444E+03 -0.12856305922E+04  0.13805658218E+04  0.79972597911E+02 0.  0.
         11    1    3    3    0    0 -0.13050894823E+03  0.25434341968E+02  0.99622535848E+02  0.16614493964E+03  0.00000000000E+00 0. -1.
        -11    1    3    3    0    0 -0.37961521866E+03 -0.58694186443E+02  0.19823413242E+03  0.43226090850E+03  0.00000000000E+00 0.  1.
          2    1    6    6  502    0  0.40290280362E+03 -0.22118029731E+03 -0.11227288427E+04  0.12131658779E+04  0.00000000000E+00 0. -1.
          3    1    5    5  503    0  0.28572104193E+02  0.20731842252E+03 -0.49367821127E+02  0.21502203426E+03  0.00000000000E+00 0. -1.
         -4    1    5    5    0  503  0.51493721353E+02  0.74477486397E+02  0.10201922581E+02  0.91118486286E+02  0.00000000000E+00 0.  1.
         -1    1    6    6    0  502  0.27155537721E+02 -0.27355767124E+02 -0.16290174944E+03  0.16739994383E+03  0.00000000000E+00 0.  1.
<mgrwt>
<rscale>  0 0.20413555E+04</rscale>
<asrwt>0</asrwt>
<pdfrwt beam="1">  1        2 0.25477323E+00 0.20413555E+04</pdfrwt>
<pdfrwt beam="2">  1       -2 0.96782492E-01 0.20413555E+04</pdfrwt>
<totfact> 0.85731311E+00</totfact>
</mgrwt>
</event>
<event>
12    1  0.1097093E-007  0.1850309E+04  0.7818608E-02  0.8679994E-01
          1   -1    0    0  501    0  0.00000000000E+00  0.00000000000E+00  0.28387016605E+04  0.28387016605E+04  0.00000000000E+00 0. -1.
         -1   -1    0    0    0  501 -0.00000000000E+00 -0.00000000000E+00 -0.30151476085E+03  0.30151476085E+03  0.00000000000E+00 0.  1.
         23    2    1    2    0    0 -0.67538414139E+03  0.18341215891E+03  0.11027723277E+04  0.13093347920E+04  0.92016477999E+02 0.  0.
        254    2    1    2    0    0  0.67538414139E+03 -0.18341215891E+03  0.14344145719E+04  0.18308816294E+04  0.89710568949E+03 0.  0.
        -24    2    4    4    0    0  0.22957785745E+03  0.99684279016E+02  0.12320951858E+04  0.12598119252E+04  0.80153550512E+02 0.  0.
         24    2    4    4    0    0  0.44580628393E+03 -0.28309643793E+03  0.20231938608E+03  0.57106970421E+03  0.79376552738E+02 0.  0.
         13    1    3    3    0    0 -0.50135334803E+03  0.99886958884E+02  0.83898322521E+03  0.98245887258E+03  0.00000000000E+00 0. -1.
        -13    1    3    3    0    0 -0.17403079336E+03  0.83525200028E+02  0.26378910252E+03  0.32687591941E+03  0.00000000000E+00 0.  1.
          4    1    6    6  502    0  0.64920584617E+02 -0.11057776830E+02  0.28889186228E+02  0.71913432795E+02  0.00000000000E+00 0. -1.
          3    1    5    5  503    0  0.11067621384E+03  0.71117733123E+02  0.80006720620E+03  0.81081100801E+03  0.00000000000E+00 0. -1.
         -4    1    5    5    0  503  0.11890164362E+03  0.28566545893E+02  0.43202797965E+03  0.44900091714E+03  0.00000000000E+00 0.  1.
         -3    1    6    6    0  502  0.38088569932E+03 -0.27203866110E+03  0.17343019986E+03  0.49915627142E+03  0.00000000000E+00 0.  1.
<mgrwt>
<rscale>  0 0.18503086E+04</rscale>
<asrwt>0</asrwt>
<pdfrwt beam="1">  1        1 0.43672332E+00 0.18503086E+04</pdfrwt>
<pdfrwt beam="2">  1       -1 0.46386888E-01 0.18503086E+04</pdfrwt>
<totfact> 0.34059408E+00</totfact>
</mgrwt>
</event>
<event>
12    1  0.1097093E-007  0.2008494E+04  0.7818608E-02  0.8602660E-01
          2   -1    0    0  501    0  0.00000000000E+00  0.00000000000E+00  0.29205538249E+04  0.29205538249E+04  0.00000000000E+00 0. -1.
         -2   -1    0    0    0  501 -0.00000000000E+00 -0.00000000000E+00 -0.34531548093E+03  0.34531548093E+03  0.00000000000E+00 0.  1.
         23    2    1    2    0    0 -0.18811107453E+02 -0.56935298970E+02 -0.26511183706E+03  0.28710789610E+03  0.92472546324E+02 0.  0.
        254    2    1    2    0    0  0.18811107453E+02  0.56935298970E+02  0.28403501810E+04  0.29787614097E+04  0.89545234334E+03 0.  0.
        -24    2    4    4    0    0  0.28082541302E+03  0.26480700858E+03  0.63671375238E+03  0.74852280148E+03  0.76787482572E+02 0.  0.
         24    2    4    4    0    0 -0.26201430557E+03 -0.20787170961E+03  0.22036364287E+04  0.22302386083E+04  0.78029456350E+02 0.  0.
         11    1    3    3    0    0 -0.26235658654E+02  0.82286739858E+01 -0.21735319204E+02  0.35049179184E+02  0.00000000000E+00 0. -1.
        -11    1    3    3    0    0  0.74245512011E+01 -0.65163972956E+02 -0.24337651785E+03  0.25205871692E+03  0.00000000000E+00 0.  1.
          2    1    6    6  502    0 -0.11750831317E+03 -0.50886491574E+02  0.94661970836E+03  0.95524159820E+03  0.00000000000E+00 0. -1.
          3    1    5    5  503    0  0.27560453990E+03  0.26965769883E+03  0.63056087767E+03  0.73910767646E+03  0.00000000000E+00 0. -1.
         -4    1    5    5    0  503  0.52208731201E+01 -0.48506902497E+01  0.61528747078E+01  0.94151250233E+01  0.00000000000E+00 0.  1.
         -1    1    6    6    0  502 -0.14450599240E+03 -0.15698521803E+03  0.12570167203E+04  0.12749970101E+04  0.00000000000E+00 0.  1.
<mgrwt>
<rscale>  0 0.20084944E+04</rscale>
<asrwt>0</asrwt>
<pdfrwt beam="1">  1        2 0.44931596E+00 0.20084944E+04</pdfrwt>
<pdfrwt beam="2">  1       -2 0.53125461E-01 0.20084944E+04</pdfrwt>
<totfact> 0.60641552E+00</totfact>
</mgrwt>
</event>
<event>
12    1  0.1097093E-007  0.1869915E+04  0.7818608E-02  0.8669978E-01
         -1   -1    0    0    0  501 -0.00000000000E+00  0.00000000000E+00  0.16432640969E+04  0.16432640969E+04  0.00000000000E+00 0.  1.
          1   -1    0    0  501    0  0.00000000000E+00 -0.00000000000E+00 -0.53195669167E+03  0.53195669167E+03  0.00000000000E+00 0. -1.
         23    2    1    2    0    0 -0.22862997080E+03 -0.58616154833E+03  0.34137031442E+02  0.63679889265E+03  0.92143738089E+02 0.  0.
        254    2    1    2    0    0  0.22862997080E+03  0.58616154833E+03  0.10771703738E+04  0.15384218959E+04  0.90032710245E+03 0.  0.
        -24    2    4    4    0    0 -0.29050512215E+03  0.44912932032E+03  0.40862867807E+03  0.67786959624E+03  0.80121286775E+02 0.  0.
         24    2    4    4    0    0  0.51913509296E+03  0.13703222801E+03  0.66854169574E+03  0.86055229970E+03  0.72960162626E+02 0.  0.
         13    1    3    3    0    0 -0.15761944643E+03 -0.40787485846E+03 -0.18957754274E+02  0.43768160403E+03  0.00000000000E+00 0.  1.
        -13    1    3    3    0    0 -0.71010524368E+02 -0.17828668987E+03  0.53094785716E+02  0.19911728862E+03  0.00000000000E+00 0. -1.
          4    1    6    6  502    0  0.48970012953E+03  0.11033831986E+03  0.62441508573E+03  0.80117099359E+03  0.00000000000E+00 0. -1.
          3    1    5    5  503    0 -0.11681467329E+03  0.24001665677E+03  0.23221588590E+03  0.35380486301E+03  0.00000000000E+00 0. -1.
         -4    1    5    5    0  503 -0.17369044886E+03  0.20911266355E+03  0.17641279217E+03  0.32406473323E+03  0.00000000000E+00 0.  1.
         -3    1    6    6    0  502  0.29434963428E+02  0.26693908150E+02  0.44126610014E+02  0.59381306112E+02  0.00000000000E+00 0.  1.
<mgrwt>
<rscale>  0 0.18699148E+04</rscale>
<asrwt>0</asrwt>
<pdfrwt beam="1">  1        1 0.81839491E-01 0.18699148E+04</pdfrwt>
<pdfrwt beam="2">  1       -1 0.25280986E+00 0.18699148E+04</pdfrwt>
<totfact> 0.25491035E+00</totfact>
</mgrwt>
</event>
<event>
12    1  0.1097093E-007  0.2178373E+04  0.7818608E-02  0.8527484E-01
         -1   -1    0    0    0  501 -0.00000000000E+00  0.00000000000E+00  0.17563583652E+04  0.17563583652E+04  0.00000000000E+00 0.  1.
          1   -1    0    0  501    0  0.00000000000E+00 -0.00000000000E+00 -0.67544740943E+03  0.67544740943E+03  0.00000000000E+00 0. -1.
         23    2    1    2    0    0  0.47821737283E+03  0.36251534312E+03 -0.29784384755E+03  0.67613466435E+03  0.91312086460E+02 0.  0.
        254    2    1    2    0    0 -0.47821737283E+03 -0.36251534312E+03  0.13787548033E+04  0.17556711102E+04  0.90625990206E+03 0.  0.
        -24    2    4    4    0    0 -0.34118811707E+03 -0.61422319877E+03  0.61966346531E+03  0.94029324316E+03  0.80554973496E+02 0.  0.
         24    2    4    4    0    0 -0.13702925576E+03  0.25170785565E+03  0.75909133798E+03  0.81537786709E+03  0.80545299124E+02 0.  0.
         13    1    3    3    0    0  0.41048172092E+03  0.27333252804E+03 -0.26267729375E+03  0.55875332191E+03  0.00000000000E+00 0. -1.
        -13    1    3    3    0    0  0.67735651914E+02  0.89182815088E+02 -0.35166553792E+02  0.11738134244E+03  0.00000000000E+00 0.  1.
          4    1    6    6  502    0 -0.98762229656E+02  0.23634413583E+03  0.66609713711E+03  0.71365112248E+03  0.00000000000E+00 0. -1.
          3    1    5    5  503    0 -0.34018350102E+03 -0.61357139669E+03  0.62204870141E+03  0.93762426384E+03  0.00000000000E+00 0. -1.
         -4    1    5    5    0  503 -0.10046160527E+01 -0.65180207656E+00 -0.23852361033E+01  0.26689793234E+01  0.00000000000E+00 0.  1.
         -3    1    6    6    0  502 -0.38267026102E+02  0.15363719817E+02  0.92994200873E+02  0.10172674461E+03  0.00000000000E+00 0.  1.
<mgrwt>
<rscale>  0 0.21783734E+04</rscale>
<asrwt>0</asrwt>
<pdfrwt beam="1">  1        1 0.10391499E+00 0.21783734E+04</pdfrwt>
<pdfrwt beam="2">  1       -1 0.27020898E+00 0.21783734E+04</pdfrwt>
<totfact> 0.13531296E+00</totfact>
</mgrwt>
</event>
<event>
12    1  0.1401421E-007  0.2912917E+04  0.7818608E-02  0.8269045E-01
          1   -1    0    0  501    0  0.00000000000E+00  0.00000000000E+00  0.16753150865E+04  0.16753150865E+04  0.00000000000E+00 0. -1.
         -1   -1    0    0    0  501 -0.00000000000E+00 -0.00000000000E+00 -0.12661924790E+04  0.12661924790E+04  0.00000000000E+00 0.  1.
         23    2    1    2    0    0  0.10749067454E+04 -0.64582134384E+03  0.58616800833E+03  0.13874437864E+04  0.94327127756E+02 0.  0.
        254    2    1    2    0    0 -0.10749067454E+04  0.64582134384E+03 -0.17704540082E+03  0.15540637790E+04  0.90069941481E+03 0.  0.
        -24    2    4    4    0    0 -0.61878335919E+03  0.83580630269E+03 -0.13167833211E+03  0.10514291974E+04  0.81848352266E+02 0.  0.
         24    2    4    4    0    0 -0.45612338624E+03 -0.18998495886E+03 -0.45367068705E+02  0.50263458163E+03  0.80252873238E+02 0.  0.
         11    1    3    3    0    0  0.77774333480E+03 -0.49776081490E+03  0.39494837811E+03  0.10043080927E+04  0.00000000000E+00 0. -1.
        -11    1    3    3    0    0  0.29716341062E+03 -0.14806052894E+03  0.19121963022E+03  0.38313569375E+03  0.00000000000E+00 0.  1.
          4    1    6    6  502    0 -0.12602678504E+03 -0.16608919095E+02 -0.76815808577E+00  0.12711882948E+03  0.00000000000E+00 0. -1.
          3    1    5    5  503    0 -0.11399142230E+03  0.19495810790E+03 -0.52137897137E+02  0.23177805873E+03  0.00000000000E+00 0. -1.
         -4    1    5    5    0  503 -0.50479193689E+03  0.64084819480E+03 -0.79540434975E+02  0.81965113867E+03  0.00000000000E+00 0.  1.
         -3    1    6    6    0  502 -0.33009660119E+03 -0.17337603976E+03 -0.44598910619E+02  0.37551575215E+03  0.00000000000E+00 0.  1.
<mgrwt>
<rscale>  0 0.29129170E+04</rscale>
<asrwt>0</asrwt>
<pdfrwt beam="1">  1        1 0.25774078E+00 0.29129170E+04</pdfrwt>
<pdfrwt beam="2">  1       -1 0.19479884E+00 0.29129170E+04</pdfrwt>
<totfact> 0.69481805E-01</totfact>
</mgrwt>
</event>
<event>
12    1  0.1097093E-007  0.1315098E+04  0.7818608E-02  0.9017678E-01
         -2   -1    0    0    0  501 -0.00000000000E+00  0.00000000000E+00  0.11913677160E+04  0.11913677160E+04  0.00000000000E+00 0.  1.
          2   -1    0    0  501    0  0.00000000000E+00 -0.00000000000E+00 -0.36291940941E+03  0.36291940941E+03  0.00000000000E+00 0. -1.
         23    2    1    2    0    0 -0.30782122606E+03 -0.14400022770E+03  0.25776674021E+03  0.43729064485E+03  0.96381756143E+02 0.  0.
        254    2    1    2    0    0  0.30782122606E+03  0.14400022770E+03  0.57068156640E+03  0.11169964806E+04  0.89806108624E+03 0.  0.
        -24    2    4    4    0    0  0.22154520796E+03  0.13309497066E+03  0.80792162058E+03  0.85209571582E+03  0.80828296604E+02 0.  0.
         24    2    4    4    0    0  0.86276018104E+02  0.10905257042E+02 -0.23724005418E+03  0.26490076477E+03  0.79543044554E+02 0.  0.
         11    1    3    3    0    0 -0.70842812223E+02 -0.69749993062E+02  0.11019839538E+03  0.14841648130E+03  0.00000000000E+00 0. -1.
        -11    1    3    3    0    0 -0.23697841384E+03 -0.74250234636E+02  0.14756834483E+03  0.28887416355E+03  0.00000000000E+00 0.  1.
          4    1    6    6  502    0  0.88766689801E+02  0.29897169664E+02 -0.16074376886E+03  0.18604280475E+03  0.00000000000E+00 0. -1.
          1    1    5    5  503    0  0.60144779833E+01 -0.72196516344E+00  0.98342056905E+02  0.98528449371E+02  0.00000000000E+00 0. -1.
         -2    1    5    5    0  503  0.21553072998E+03  0.13381693582E+03  0.70957956367E+03  0.75356726645E+03  0.00000000000E+00 0.  1.
         -1    1    6    6    0  502 -0.24906716973E+01 -0.18991912622E+02 -0.76496285318E+02  0.78857960017E+02  0.00000000000E+00 0.  1.
<mgrwt>
<rscale>  0 0.13150977E+04</rscale>
<asrwt>0</asrwt>
<pdfrwt beam="1">  1        2 0.55833756E-01 0.13150977E+04</pdfrwt>
<pdfrwt beam="2">  1       -2 0.18328734E+00 0.13150977E+04</pdfrwt>
<totfact> 0.14936417E+01</totfact>
</mgrwt>
</event>
<event>
12    1  0.1097093E-007  0.2536385E+04  0.7818608E-02  0.8390137E-01
         -2   -1    0    0    0  501 -0.00000000000E+00  0.00000000000E+00  0.33485046446E+03  0.33485046446E+03  0.00000000000E+00 0. -1.
          2   -1    0    0  501    0  0.00000000000E+00 -0.00000000000E+00 -0.48030770356E+04  0.48030770356E+04  0.00000000000E+00 0.  1.
         23    2    1    2    0    0  0.91509003306E+03  0.15044162238E+03 -0.72914691668E+03  0.11831363600E+04  0.90188524432E+02 0.  0.
        254    2    1    2    0    0 -0.91509003306E+03 -0.15044162238E+03 -0.37390796545E+04  0.39547911401E+04  0.89422248276E+03 0.  0.
        -24    2    4    4    0    0 -0.12851298775E+03  0.30710490502E+03 -0.14562666510E+04  0.14959976493E+04  0.80420129778E+02 0.  0.
         24    2    4    4    0    0 -0.78657704532E+03 -0.45754652740E+03 -0.22828130035E+04  0.24587934908E+04  0.79862058007E+02 0.  0.
         11    1    3    3    0    0  0.35382956025E+02 -0.67509649819E+01 -0.45224875675E+02  0.57817112390E+02  0.00000000000E+00 0.  1.
        -11    1    3    3    0    0  0.87970707704E+03  0.15719258736E+03 -0.68392204100E+03  0.11253192476E+04  0.00000000000E+00 0. -1.
          2    1    6    6  502    0 -0.75938471134E+03 -0.44460935253E+03 -0.22381843616E+04  0.24049556862E+04  0.00000000000E+00 0. -1.
          1    1    5    5  503    0 -0.13678796797E+03  0.29035470788E+03 -0.13202612466E+04  0.13587150414E+04  0.00000000000E+00 0. -1.
         -2    1    5    5    0  503  0.82749802236E+01  0.16750197142E+02 -0.13600540437E+03  0.13728260786E+03  0.00000000000E+00 0.  1.
         -1    1    6    6    0  502 -0.27192333972E+02 -0.12937174871E+02 -0.44628641959E+02  0.53837804595E+02  0.00000000000E+00 0.  1.
<mgrwt>
<rscale>  0 0.25363853E+04</rscale>
<asrwt>0</asrwt>
<pdfrwt beam="1">  1        2 0.73893493E+00 0.25363853E+04</pdfrwt>
<pdfrwt beam="2">  1       -2 0.51515456E-01 0.25363853E+04</pdfrwt>
<totfact> 0.18826840E-01</totfact>
</mgrwt>
</event>
<event>
12    1  0.1097093E-007  0.2160957E+04  0.7818608E-02  0.8534857E-01
         -1   -1    0    0    0  501 -0.00000000000E+00  0.00000000000E+00  0.69175878876E+03  0.69175878876E+03  0.00000000000E+00 0.  1.
          1   -1    0    0  501    0  0.00000000000E+00 -0.00000000000E+00 -0.16876306175E+04  0.16876306175E+04  0.00000000000E+00 0. -1.
         23    2    1    2    0    0  0.80725551024E+03  0.32377606020E+03 -0.61843710783E+03  0.10710541704E+04  0.90554865036E+02 0.  0.
        254    2    1    2    0    0 -0.80725551024E+03 -0.32377606020E+03 -0.37743472094E+03  0.13083352359E+04  0.90154962423E+03 0.  0.
        -24    2    4    4    0    0 -0.86535404243E+03 -0.15035137052E+03  0.27796124746E+00  0.88193077328E+03  0.79741195360E+02 0.  0.
         24    2    4    4    0    0  0.58098532185E+02 -0.17342468968E+03 -0.37771268219E+03  0.42640446262E+03  0.75513793585E+02 0.  0.
         13    1    3    3    0    0  0.22297721352E+03  0.83426058900E+02 -0.21977710266E+03  0.32400728372E+03  0.00000000000E+00 0. -1.
        -13    1    3    3    0    0  0.58427829673E+03  0.24035000130E+03 -0.39866000517E+03  0.74704688666E+03  0.00000000000E+00 0.  1.
          4    1    6    6  502    0  0.59433111349E+02 -0.17797591829E+03 -0.33952940631E+03  0.38792775096E+03  0.00000000000E+00 0. -1.
          1    1    5    5  503    0 -0.68013536310E+03 -0.13776083589E+03 -0.26002124579E+02  0.69443377692E+03  0.00000000000E+00 0. -1.
         -2    1    5    5    0  503 -0.18521867933E+03 -0.12590534631E+02  0.26280085826E+02  0.18749699636E+03  0.00000000000E+00 0.  1.
         -3    1    6    6    0  502 -0.13345791642E+01  0.45512286054E+01 -0.38183275874E+02  0.38476711656E+02  0.00000000000E+00 0.  1.
<mgrwt>
<rscale>  0 0.21609566E+04</rscale>
<asrwt>0</asrwt>
<pdfrwt beam="1">  1        1 0.25963547E+00 0.21609566E+04</pdfrwt>
<pdfrwt beam="2">  1       -1 0.10642443E+00 0.21609566E+04</pdfrwt>
<totfact> 0.36671739E+00</totfact>
</mgrwt>
</event>
<event>
12    1  0.1097093E-007  0.1317866E+04  0.7818608E-02  0.9015516E-01
          2   -1    0    0  501    0  0.00000000000E+00  0.00000000000E+00  0.20697262884E+03  0.20697262884E+03  0.00000000000E+00 0.  1.
         -2   -1    0    0    0  501 -0.00000000000E+00 -0.00000000000E+00 -0.20978275834E+04  0.20978275834E+04  0.00000000000E+00 0. -1.
         23    2    1    2    0    0  0.10014246139E+03 -0.23212116961E+03 -0.10482430116E+03  0.28859067082E+03  0.91584339383E+02 0.  0.
        254    2    1    2    0    0 -0.10014246139E+03  0.23212116961E+03 -0.17860306534E+04  0.20162095414E+04  0.90071453305E+03 0.  0.
        -24    2    4    4    0    0 -0.41755659545E+03 -0.79167307059E+02 -0.12071754134E+04  0.12818441306E+04  0.72325124119E+02 0.  0.
         24    2    4    4    0    0  0.31741413407E+03  0.31128847666E+03 -0.57885524001E+03  0.73436541080E+03  0.81036531797E+02 0.  0.
         13    1    3    3    0    0  0.99227617379E+02 -0.24058313513E+03 -0.10300959315E+03  0.27988808699E+03  0.00000000000E+00 0.  1.
        -13    1    3    3    0    0  0.91484400664E+00  0.84619655257E+01 -0.18147080101E+01  0.87025838276E+01  0.00000000000E+00 0. -1.
          2    1    6    6  502    0  0.30588763002E+03  0.31568193032E+03 -0.56297057819E+03  0.71425359309E+03  0.00000000000E+00 0. -1.
          1    1    5    5  503    0 -0.41040285480E+03 -0.82554601911E+02 -0.12008066370E+04  0.12716848450E+04  0.00000000000E+00 0. -1.
         -2    1    5    5    0  503 -0.71537406521E+01  0.33872948524E+01 -0.63687764171E+01  0.10159285643E+02  0.00000000000E+00 0.  1.
         -1    1    6    6    0  502  0.11526504046E+02 -0.43934536595E+01 -0.15884661818E+02  0.20111817712E+02  0.00000000000E+00 0.  1.
<mgrwt>
<rscale>  0 0.13178663E+04</rscale>
<asrwt>0</asrwt>
<pdfrwt beam="1">  1        2 0.31841942E-01 0.13178663E+04</pdfrwt>
<pdfrwt beam="2">  1       -2 0.32274271E+00 0.13178663E+04</pdfrwt>
<totfact> 0.37836238E+00</totfact>
</mgrwt>
</event>
<event>
12    1  0.1097093E-007  0.1517510E+04  0.7818608E-02  0.8872892E-01
          2   -1    0    0  501    0  0.00000000000E+00  0.00000000000E+00  0.11801316952E+04  0.11801316952E+04  0.00000000000E+00 0. -1.
         -2   -1    0    0    0  501 -0.00000000000E+00 -0.00000000000E+00 -0.48783478940E+03  0.48783478940E+03  0.00000000000E+00 0.  1.
         23    2    1    2    0    0  0.19862453558E+03  0.42632321416E+03  0.36157921931E+03  0.60030080121E+03  0.91751463345E+02 0.  0.
        254    2    1    2    0    0 -0.19862453558E+03 -0.42632321416E+03  0.33071768653E+03  0.10676656834E+04  0.89962916491E+03 0.  0.
        -24    2    4    4    0    0 -0.25862972867E+03  0.10860444635E+03  0.42498022495E+03  0.51514430485E+03  0.77982054984E+02 0.  0.
         24    2    4    4    0    0  0.60005193089E+02 -0.53492766051E+03 -0.94262538419E+02  0.55252137859E+03  0.81524367359E+02 0.  0.
         13    1    3    3    0    0  0.16066424249E+03  0.39560859892E+03  0.34428332579E+03  0.54849810462E+03  0.00000000000E+00 0.  1.
        -13    1    3    3    0    0  0.37960293096E+02  0.30714615239E+02  0.17295893524E+02  0.51802696591E+02  0.00000000000E+00 0. -1.
          2    1    6    6  502    0  0.34526818868E+01 -0.34323878286E+03 -0.77978974113E+02  0.35200213561E+03  0.00000000000E+00 0. -1.
          1    1    5    5  503    0 -0.99105733457E+02  0.29773788782E+02  0.22378317081E+03  0.24655087191E+03  0.00000000000E+00 0. -1.
         -2    1    5    5    0  503 -0.15952399522E+03  0.78830657573E+02  0.20119705414E+03  0.26859343294E+03  0.00000000000E+00 0.  1.
         -1    1    6    6    0  502  0.56552511203E+02 -0.19168887765E+03 -0.16283564305E+02  0.20051924298E+03  0.00000000000E+00 0.  1.
<mgrwt>
<rscale>  0 0.15175102E+04</rscale>
<asrwt>0</asrwt>
<pdfrwt beam="1">  1        2 0.18155872E+00 0.15175102E+04</pdfrwt>
<pdfrwt beam="2">  1       -2 0.75051506E-01 0.15175102E+04</pdfrwt>
<totfact> 0.29954707E+01</totfact>
</mgrwt>
</event>
<event>
12    1  0.1097093E-007  0.3045835E+04  0.7818608E-02  0.8230762E-01
         -1   -1    0    0    0  501 -0.00000000000E+00  0.00000000000E+00  0.24275011744E+04  0.24275011744E+04  0.00000000000E+00 0.  1.
          1   -1    0    0  501    0  0.00000000000E+00 -0.00000000000E+00 -0.95541759316E+03  0.95541759316E+03  0.00000000000E+00 0. -1.
         23    2    1    2    0    0 -0.11654212059E+04  0.14006542785E+03  0.14965751162E+04  0.19041843535E+04  0.91411499762E+02 0.  0.
        254    2    1    2    0    0  0.11654212059E+04 -0.14006542785E+03 -0.24491534934E+02  0.14787344141E+04  0.89901652995E+03 0.  0.
        -24    2    4    4    0    0  0.55796575499E+03 -0.44089551877E+03  0.22748104399E+03  0.75102377562E+03  0.81082944960E+02 0.  0.
         24    2    4    4    0    0  0.60745545088E+03  0.30083009091E+03 -0.25197257893E+03  0.72771063852E+03  0.81066173459E+02 0.  0.
         13    1    3    3    0    0 -0.10724548659E+04  0.15106090228E+03  0.13588846028E+04  0.17376841483E+04  0.00000000000E+00 0.  1.
        -13    1    3    3    0    0 -0.92966339983E+02 -0.10995474428E+02  0.13769051342E+03  0.16650020515E+03  0.00000000000E+00 0. -1.
          4    1    6    6  502    0  0.57701506348E+03  0.26803660703E+03 -0.22197677823E+03  0.67384248625E+03  0.00000000000E+00 0. -1.
          1    1    5    5  503    0  0.51165551534E+03 -0.42424446893E+03  0.22513436122E+03  0.70175509716E+03  0.00000000000E+00 0. -1.
         -2    1    5    5    0  503  0.46310239649E+02 -0.16651049844E+02  0.23466827752E+01  0.49268678461E+02  0.00000000000E+00 0.  1.
         -3    1    6    6    0  502  0.30440387399E+02  0.32793483882E+02 -0.29995800697E+02  0.53868152275E+02  0.00000000000E+00 0.  1.
<mgrwt>
<rscale>  0 0.30458347E+04</rscale>
<asrwt>0</asrwt>
<pdfrwt beam="1">  1        1 0.14698732E+00 0.30458347E+04</pdfrwt>
<pdfrwt beam="2">  1       -1 0.37346172E+00 0.30458347E+04</pdfrwt>
<totfact> 0.15058872E-01</totfact>
</mgrwt>
</event>
<event>
12    1  0.1097093E-007  0.2503737E+04  0.7818608E-02  0.8401656E-01
          2   -1    0    0  501    0  0.00000000000E+00  0.00000000000E+00  0.78284060854E+03  0.78284060854E+03  0.00000000000E+00 0. -1.
         -2   -1    0    0    0  501 -0.00000000000E+00 -0.00000000000E+00 -0.20019071506E+04  0.20019071506E+04  0.00000000000E+00 0.  1.
         23    2    1    2    0    0  0.29031828640E+03  0.31114869947E+03 -0.16492747116E+04  0.17057718736E+04  0.91936880454E+02 0.  0.
        254    2    1    2    0    0 -0.29031828640E+03 -0.31114869947E+03  0.43020816948E+03  0.10789758856E+04  0.89331499032E+03 0.  0.
        -24    2    4    4    0    0  0.29422286938E+03  0.31938044604E+02  0.13067823104E+03  0.33347674858E+03  0.80887614755E+02 0.  0.
         24    2    4    4    0    0 -0.58454115578E+03 -0.34308674408E+03  0.29952993845E+03  0.74549913698E+03  0.81571456112E+02 0.  0.
         11    1    3    3    0    0  0.28786108474E+03  0.30653271783E+03 -0.16473924681E+04  0.17002141792E+04  0.00000000000E+00 0.  1.
        -11    1    3    3    0    0  0.24572016646E+01  0.46159816419E+01 -0.18822434464E+01  0.55576943898E+01  0.00000000000E+00 0. -1.
          2    1    6    6  502    0 -0.58226125304E+03 -0.32999026549E+03  0.29555130914E+03  0.73162307129E+03  0.00000000000E+00 0. -1.
          1    1    5    5  503    0  0.20527910464E+03  0.48722770007E+02  0.11895814773E+03  0.24220747311E+03  0.00000000000E+00 0. -1.
         -2    1    5    5    0  503  0.88943764739E+02 -0.16784725402E+02  0.11720083305E+02  0.91269275473E+02  0.00000000000E+00 0.  1.
         -1    1    6    6    0  502 -0.22799027369E+01 -0.13096478584E+02  0.39786293028E+01  0.13876065686E+02  0.00000000000E+00 0.  1.
<mgrwt>
<rscale>  0 0.25037366E+04</rscale>
<asrwt>0</asrwt>
<pdfrwt beam="1">  1        2 0.12043702E+00 0.25037366E+04</pdfrwt>
<pdfrwt beam="2">  1       -2 0.30798572E+00 0.25037366E+04</pdfrwt>
<totfact> 0.89770000E-01</totfact>
</mgrwt>
</event>
<event>
12    1  0.1097093E-007  0.1294820E+04  0.7818608E-02  0.9033683E-01
         -1   -1    0    0    0  501 -0.00000000000E+00  0.00000000000E+00  0.97812657329E+03  0.97812657329E+03  0.00000000000E+00 0.  1.
          1   -1    0    0  501    0  0.00000000000E+00 -0.00000000000E+00 -0.42851273624E+03  0.42851273624E+03  0.00000000000E+00 0. -1.
         23    2    1    2    0    0  0.16617414727E+03  0.27043266701E+03  0.19382608143E+03  0.38336056399E+03  0.93000524582E+02 0.  0.
        254    2    1    2    0    0 -0.16617414727E+03 -0.27043266701E+03  0.35578775562E+03  0.10232787455E+04  0.90540973565E+03 0.  0.
        -24    2    4    4    0    0  0.18339676802E+03 -0.14940209831E+03 -0.22171055466E+03  0.33272219407E+03  0.74787210659E+02 0.  0.
         24    2    4    4    0    0 -0.34957091529E+03 -0.12103056871E+03  0.57749831028E+03  0.69055655147E+03  0.80720685204E+02 0.  0.
         13    1    3    3    0    0  0.14549301554E+03  0.26855806832E+03  0.16304618890E+03  0.34623072270E+03  0.00000000000E+00 0. -1.
        -13    1    3    3    0    0  0.20681131736E+02  0.18745986981E+01  0.30779892531E+02  0.37129841292E+02  0.00000000000E+00 0.  1.
          4    1    6    6  502    0 -0.98875183738E+02 -0.71113295444E+02  0.16106388342E+03  0.20192814883E+03  0.00000000000E+00 0. -1.
          3    1    5    5  503    0  0.42443566708E+01 -0.32135319671E+02 -0.17506411808E+02  0.36839758255E+02  0.00000000000E+00 0. -1.
         -4    1    5    5    0  503  0.17915241135E+03 -0.11726677864E+03 -0.20420414285E+03  0.29588243581E+03  0.00000000000E+00 0.  1.
         -3    1    6    6    0  502 -0.25069573155E+03 -0.49917273264E+02  0.41643442686E+03  0.48862840264E+03  0.00000000000E+00 0.  1.
<mgrwt>
<rscale>  0 0.12948200E+04</rscale>
<asrwt>0</asrwt>
<pdfrwt beam="1">  1        1 0.65925036E-01 0.12948200E+04</pdfrwt>
<pdfrwt beam="2">  1       -1 0.15048101E+00 0.12948200E+04</pdfrwt>
<totfact> 0.18600172E+01</totfact>
</mgrwt>
</event>
<event>
12    1  0.1097093E-007  0.3172201E+04  0.7818608E-02  0.8196198E-01
         -1   -1    0    0    0  501 -0.00000000000E+00  0.00000000000E+00  0.12551931589E+04  0.12551931589E+04  0.00000000000E+00 0.  1.
          1   -1    0    0  501    0  0.00000000000E+00 -0.00000000000E+00 -0.20042449073E+04  0.20042449073E+04  0.00000000000E+00 0. -1.
         23    2    1    2    0    0 -0.10027851696E+04  0.10469384459E+04 -0.49505892536E+03  0.15347649642E+04  0.93605288021E+02 0.  0.
        254    2    1    2    0    0  0.10027851696E+04 -0.10469384459E+04 -0.25399282305E+03  0.17246731020E+04  0.89906993546E+03 0.  0.
        -24    2    4    4    0    0  0.78544976484E+03 -0.67803490093E+03 -0.56977971812E+03  0.11865049583E+04  0.80513532939E+02 0.  0.
         24    2    4    4    0    0  0.21733540478E+03 -0.36890354496E+03  0.31578689507E+03  0.53816814371E+03  0.81111553777E+02 0.  0.
         13    1    3    3    0    0 -0.46343434464E+03  0.52165898237E+03 -0.27911343864E+03  0.75153429550E+03  0.00000000000E+00 0.  1.
        -13    1    3    3    0    0 -0.53935082498E+03  0.52527946353E+03 -0.21594548671E+03  0.78323066873E+03  0.00000000000E+00 0. -1.
          2    1    6    6  502    0  0.92900153510E+02 -0.15015730229E+03  0.18026614149E+03  0.25233615618E+03  0.00000000000E+00 0. -1.
          3    1    5    5  503    0  0.74553787481E+03 -0.66188105616E+03 -0.55472855962E+03  0.11408930844E+04  0.00000000000E+00 0. -1.
         -4    1    5    5    0  503  0.39911890032E+02 -0.16153844767E+02 -0.15051158503E+02  0.45611873881E+02  0.00000000000E+00 0.  1.
         -1    1    6    6    0  502  0.12443525127E+03 -0.21874624268E+03  0.13552075358E+03  0.28583198753E+03  0.00000000000E+00 0.  1.
<mgrwt>
<rscale>  0 0.31722008E+04</rscale>
<asrwt>0</asrwt>
<pdfrwt beam="1">  1        1 0.30834537E+00 0.31722008E+04</pdfrwt>
<pdfrwt beam="2">  1       -1 0.19310664E+00 0.31722008E+04</pdfrwt>
<totfact> 0.41723431E-01</totfact>
</mgrwt>
</event>
<event>
12    1  0.1097093E-007  0.1635866E+04  0.7818608E-02  0.8798812E-01
          2   -1    0    0  501    0  0.00000000000E+00  0.00000000000E+00  0.16824261112E+04  0.16824261112E+04  0.00000000000E+00 0. -1.
         -2   -1    0    0    0  501 -0.00000000000E+00 -0.00000000000E+00 -0.39764849721E+03  0.39764849721E+03  0.00000000000E+00 0.  1.
         23    2    1    2    0    0  0.15683275972E+03  0.10878403323E+03 -0.22620556334E+03  0.30893035177E+03  0.88535444598E+02 0.  0.
        254    2    1    2    0    0 -0.15683275972E+03 -0.10878403323E+03  0.15109831773E+04  0.17711442567E+04  0.90413015396E+03 0.  0.
        -24    2    4    4    0    0 -0.49733695298E+03 -0.10297222541E+03  0.57270357768E+03  0.76966750972E+03  0.80320381176E+02 0.  0.
         24    2    4    4    0    0  0.34050419326E+03 -0.58118078186E+01  0.93827959965E+03  0.10014767469E+04  0.81303042958E+02 0.  0.
         13    1    3    3    0    0  0.38582440517E+02 -0.12240603398E+02 -0.54241740184E+02  0.67680155629E+02  0.00000000000E+00 0. -1.
        -13    1    3    3    0    0  0.11825031920E+03  0.12102463663E+03 -0.17196382315E+03  0.24125019614E+03  0.00000000000E+00 0.  1.
          4    1    6    6  502    0  0.16740652079E+03 -0.24602176126E+02  0.56092467796E+03  0.58588966932E+03  0.00000000000E+00 0. -1.
          1    1    5    5  503    0 -0.29110616630E+03 -0.77735248720E+02  0.39119882597E+03  0.49378344483E+03  0.00000000000E+00 0. -1.
         -2    1    5    5    0  503 -0.20623078668E+03 -0.25236976691E+02  0.18150475171E+03  0.27588406489E+03  0.00000000000E+00 0.  1.
         -3    1    6    6    0  502  0.17309767247E+03  0.18790368308E+02  0.37735492169E+03  0.41558707762E+03  0.00000000000E+00 0.  1.
<mgrwt>
<rscale>  0 0.16358658E+04</rscale>
<asrwt>0</asrwt>
<pdfrwt beam="1">  1        2 0.25883478E+00 0.16358658E+04</pdfrwt>
<pdfrwt beam="2">  1       -2 0.61176693E-01 0.16358658E+04</pdfrwt>
<totfact> 0.23837399E+01</totfact>
</mgrwt>
</event>
<event>
12    1  0.1097093E-007  0.1605750E+04  0.7818608E-02  0.8817023E-01
          2   -1    0    0  501    0  0.00000000000E+00  0.00000000000E+00  0.92859027601E+03  0.92859027601E+03  0.00000000000E+00 0. -1.
         -2   -1    0    0    0  501 -0.00000000000E+00 -0.00000000000E+00 -0.69417951665E+03  0.69417951665E+03  0.00000000000E+00 0.  1.
         23    2    1    2    0    0 -0.23704293468E+03  0.43328799676E+03 -0.15237987105E+03  0.52448951815E+03  0.89116712927E+02 0.  0.
        254    2    1    2    0    0  0.23704293468E+03 -0.43328799676E+03  0.38679063041E+03  0.10982802745E+04  0.90149028203E+03 0.  0.
        -24    2    4    4    0    0  0.49973956605E+03 -0.28978204165E+03 -0.24033029544E+02  0.58363866605E+03  0.79644462801E+02 0.  0.
         24    2    4    4    0    0 -0.26269663137E+03 -0.14350595512E+03  0.41082365996E+03  0.51464160847E+03  0.80476246800E+02 0.  0.
         11    1    3    3    0    0 -0.15021951778E+03  0.29410026871E+03 -0.58209189753E+02  0.33533443209E+03  0.00000000000E+00 0.  1.
        -11    1    3    3    0    0 -0.86823416895E+02  0.13918772806E+03 -0.94170681299E+02  0.18915508605E+03  0.00000000000E+00 0. -1.
          4    1    6    6  502    0 -0.18977743784E+03 -0.89305847477E+02  0.33980480351E+03  0.39932231943E+03  0.00000000000E+00 0. -1.
          3    1    5    5  503    0  0.46942338216E+03 -0.28301634699E+03 -0.38261564651E+02  0.54947293992E+03  0.00000000000E+00 0. -1.
         -4    1    5    5    0  503  0.30316183895E+02 -0.67656946607E+01  0.14228535107E+02  0.34165726123E+02  0.00000000000E+00 0.  1.
         -3    1    6    6    0  502 -0.72919193532E+02 -0.54200107641E+02  0.71018856450E+02  0.11531928904E+03  0.00000000000E+00 0.  1.
<mgrwt>
<rscale>  0 0.16057501E+04</rscale>
<asrwt>0</asrwt>
<pdfrwt beam="1">  1        2 0.14286004E+00 0.16057501E+04</pdfrwt>
<pdfrwt beam="2">  1       -2 0.10679685E+00 0.16057501E+04</pdfrwt>
<totfact> 0.18977067E+01</totfact>
</mgrwt>
</event>
<event>
12    1  0.1097093E-007  0.1609526E+04  0.7818608E-02  0.8814717E-01
          2   -1    0    0  501    0  0.00000000000E+00  0.00000000000E+00  0.26030692717E+04  0.26030692717E+04  0.00000000000E+00 0. -1.
         -2   -1    0    0    0  501 -0.00000000000E+00 -0.00000000000E+00 -0.24879992748E+03  0.24879992748E+03  0.00000000000E+00 0.  1.
         23    2    1    2    0    0 -0.40821888154E+03 -0.33970781369E+03  0.81527075504E+03  0.98091318952E+03  0.12441956206E+03 0.  0.
        254    2    1    2    0    0  0.40821888154E+03  0.33970781369E+03  0.15389985892E+04  0.18709560097E+04  0.92190871494E+03 0.  0.
        -24    2    4    4    0    0 -0.64350939187E+02 -0.24349846651E+03  0.66785182666E+03  0.71823295297E+03  0.79999786190E+02 0.  0.
         24    2    4    4    0    0  0.47256982072E+03  0.58320628020E+03  0.87114676250E+03  0.11527230567E+04  0.80137150354E+02 0.  0.
         13    1    3    3    0    0 -0.34070750692E+03 -0.27783791093E+03  0.57518777689E+03  0.72395889988E+03  0.00000000000E+00 0.  1.
        -13    1    3    3    0    0 -0.67511374610E+02 -0.61869902767E+02  0.24008297815E+03  0.25695428964E+03  0.00000000000E+00 0. -1.
          4    1    6    6  502    0 -0.26486671141E+01  0.53051927924E+01  0.29814515175E+01  0.66369843451E+01  0.00000000000E+00 0. -1.
          1    1    5    5  503    0  0.89044085594E+01  0.10555143761E+01  0.23124593054E+02  0.24802205674E+02  0.00000000000E+00 0. -1.
         -2    1    5    5    0  503 -0.73255347746E+02 -0.24455398088E+03  0.64472723361E+03  0.69343074730E+03  0.00000000000E+00 0.  1.
         -3    1    6    6    0  502  0.47521848784E+03  0.57790108741E+03  0.86816531098E+03  0.11460860723E+04  0.00000000000E+00 0.  1.
<mgrwt>
<rscale>  0 0.16095260E+04</rscale>
<asrwt>0</asrwt>
<pdfrwt beam="1">  1        2 0.40047218E+00 0.16095260E+04</pdfrwt>
<pdfrwt beam="2">  1       -2 0.38276914E-01 0.16095260E+04</pdfrwt>
<totfact> 0.18768432E+01</totfact>
</mgrwt>
</event>
<event>
12    1  0.1097093E-007  0.2120671E+04  0.7818608E-02  0.8552192E-01
          2   -1    0    0  501    0  0.00000000000E+00  0.00000000000E+00  0.10298728723E+04  0.10298728723E+04  0.00000000000E+00 0. -1.
         -2   -1    0    0    0  501 -0.00000000000E+00 -0.00000000000E+00 -0.10916994208E+04  0.10916994208E+04  0.00000000000E+00 0.  1.
         23    2    1    2    0    0  0.34868284856E+03 -0.50637109977E+03 -0.63818672553E+03  0.89042349963E+03  0.87064875157E+02 0.  0.
        254    2    1    2    0    0 -0.34868284856E+03  0.50637109977E+03  0.57636017698E+03  0.12311487935E+04  0.89752151985E+03 0.  0.
        -24    2    4    4    0    0 -0.18980240010E+03  0.49325849511E+03 -0.89374306455E+02  0.54207887223E+03  0.80826004405E+02 0.  0.
         24    2    4    4    0    0 -0.15888044847E+03  0.13112604662E+02  0.66573448343E+03  0.68906992128E+03  0.78740184614E+02 0.  0.
         11    1    3    3    0    0  0.16076981304E+03 -0.26947003828E+03 -0.38003326975E+03  0.49283498296E+03  0.00000000000E+00 0. -1.
        -11    1    3    3    0    0  0.18791303552E+03 -0.23690106149E+03 -0.25815345579E+03  0.39758851667E+03  0.00000000000E+00 0.  1.
          4    1    6    6  502    0 -0.16462912059E+03  0.21239764866E+02  0.59811871474E+03  0.62072527892E+03  0.00000000000E+00 0. -1.
          3    1    5    5  503    0 -0.16074432880E+03  0.42237640941E+03 -0.10482877928E+03  0.46392848957E+03  0.00000000000E+00 0. -1.
         -4    1    5    5    0  503 -0.29058071298E+02  0.70882085695E+02  0.15454472824E+02  0.78150382663E+02  0.00000000000E+00 0.  1.
         -3    1    6    6    0  502  0.57486721265E+01 -0.81271602036E+01  0.67615768691E+02  0.68344642364E+02  0.00000000000E+00 0.  1.
<mgrwt>
<rscale>  0 0.21206712E+04</rscale>
<asrwt>0</asrwt>
<pdfrwt beam="1">  1        2 0.15844198E+00 0.21206712E+04</pdfrwt>
<pdfrwt beam="2">  1       -2 0.16795376E+00 0.21206712E+04</pdfrwt>
<totfact> 0.48876929E+00</totfact>
</mgrwt>
</event>
<event>
12    1  0.1097093E-007  0.2080252E+04  0.7818608E-02  0.8569993E-01
         -2   -1    0    0    0  501 -0.00000000000E+00  0.00000000000E+00  0.45662598180E+03  0.45662598180E+03  0.00000000000E+00 0.  1.
          2   -1    0    0  501    0  0.00000000000E+00 -0.00000000000E+00 -0.23692523552E+04  0.23692523552E+04  0.00000000000E+00 0. -1.
         23    2    1    2    0    0 -0.50760592299E+03  0.54803709560E+03 -0.13048832063E+04  0.15062860761E+04  0.90383238217E+02 0.  0.
        254    2    1    2    0    0  0.50760592299E+03 -0.54803709560E+03 -0.60774316709E+03  0.13195922609E+04  0.90219928326E+03 0.  0.
        -24    2    4    4    0    0  0.14647198959E+02 -0.12317972253E+03 -0.64613254695E+03  0.66308296091E+03  0.82486122042E+02 0.  0.
         24    2    4    4    0    0  0.49295872403E+03 -0.42485737307E+03  0.38389379860E+02  0.65650930001E+03  0.77579800641E+02 0.  0.
         11    1    3    3    0    0 -0.26185637236E+03  0.24445073984E+03 -0.69840814511E+03  0.78491965265E+03  0.00000000000E+00 0.  1.
        -11    1    3    3    0    0 -0.24574955062E+03  0.30358635576E+03 -0.60647506123E+03  0.72136642348E+03  0.00000000000E+00 0. -1.
          4    1    6    6  502    0  0.28087282893E+03 -0.21351801196E+03 -0.11347732006E+02  0.35299894969E+03  0.00000000000E+00 0. -1.
          3    1    5    5  503    0 -0.18534834441E+02 -0.83266815822E+02 -0.51560463293E+03  0.52261366248E+03  0.00000000000E+00 0. -1.
         -2    1    5    5    0  503  0.33182033400E+02 -0.39912906707E+02 -0.13052791402E+03  0.14046929843E+03  0.00000000000E+00 0.  1.
         -3    1    6    6    0  502  0.21208589510E+03 -0.21133936110E+03  0.49737111866E+02  0.30351035031E+03  0.00000000000E+00 0.  1.
<mgrwt>
<rscale>  0 0.20802521E+04</rscale>
<asrwt>0</asrwt>
<pdfrwt beam="1">  1        2 0.36450036E+00 0.20802521E+04</pdfrwt>
<pdfrwt beam="2">  1       -2 0.70250152E-01 0.20802521E+04</pdfrwt>
<totfact> 0.70492186E+00</totfact>
</mgrwt>
</event>
<event>
12    1  0.1097093E-007  0.1626145E+04  0.7818608E-02  0.8804645E-01
         -2   -1    0    0    0  501 -0.00000000000E+00  0.00000000000E+00  0.13330119842E+04  0.13330119842E+04  0.00000000000E+00 0. -1.
          2   -1    0    0  501    0  0.00000000000E+00 -0.00000000000E+00 -0.49593490755E+03  0.49593490755E+03  0.00000000000E+00 0.  1.
         23    2    1    2    0    0 -0.48799027274E+03 -0.25053934421E+03  0.17672463320E+03  0.58381781475E+03  0.93312247588E+02 0.  0.
        254    2    1    2    0    0  0.48799027274E+03  0.25053934421E+03  0.66035244346E+03  0.12451290770E+04  0.90187393773E+03 0.  0.
        -24    2    4    4    0    0  0.22231594078E+03  0.19810737411E+03  0.85000582805E+03  0.90409202022E+03  0.78750010195E+02 0.  0.
         24    2    4    4    0    0  0.26567433196E+03  0.52431970093E+02 -0.18965338459E+03  0.34103705679E+03  0.83701288331E+02 0.  0.
         11    1    3    3    0    0 -0.23610095914E+03 -0.15555091186E+03  0.53508657859E+02  0.28775497485E+03  0.00000000000E+00 0. -1.
        -11    1    3    3    0    0 -0.25188931361E+03 -0.94988432347E+02  0.12321597534E+03  0.29606283990E+03  0.00000000000E+00 0.  1.
          2    1    6    6  502    0  0.14725598132E+02  0.25939633859E+02 -0.10735345063E+02  0.31701032770E+02  0.00000000000E+00 0. -1.
          1    1    5    5  503    0  0.18878584657E+03  0.12719457277E+03  0.67384912415E+03  0.71126028803E+03  0.00000000000E+00 0. -1.
         -2    1    5    5    0  503  0.33530094217E+02  0.70912801343E+02  0.17615670389E+03  0.19283173219E+03  0.00000000000E+00 0.  1.
         -1    1    6    6    0  502  0.25094873383E+03  0.26492336234E+02 -0.17891803953E+03  0.30933602402E+03  0.00000000000E+00 0.  1.
<mgrwt>
<rscale>  0 0.16261454E+04</rscale>
<asrwt>0</asrwt>
<pdfrwt beam="1">  1        2 0.76297678E-01 0.16261454E+04</pdfrwt>
<pdfrwt beam="2">  1       -2 0.20507877E+00 0.16261454E+04</pdfrwt>
<totfact> 0.73239179E+00</totfact>
</mgrwt>
</event>
<event>
12    1  0.1097093E-007  0.1876284E+04  0.7818608E-02  0.8666752E-01
         -2   -1    0    0    0  501 -0.00000000000E+00  0.00000000000E+00  0.10433358139E+04  0.10433358139E+04  0.00000000000E+00 0.  1.
          2   -1    0    0  501    0  0.00000000000E+00 -0.00000000000E+00 -0.84355440095E+03  0.84355440095E+03  0.00000000000E+00 0. -1.
         23    2    1    2    0    0 -0.51463208893E+03 -0.41188577233E+03  0.27207548911E+03  0.71854644460E+03  0.88248766917E+02 0.  0.
        254    2    1    2    0    0  0.51463208893E+03  0.41188577233E+03 -0.72294076137E+02  0.11683437703E+04  0.96192757300E+03 0.  0.
        -24    2    4    4    0    0 -0.20241751653E+03  0.38806208824E+03 -0.14380797232E+02  0.44494669297E+03  0.78776372922E+02 0.  0.
         24    2    4    4    0    0  0.71704960546E+03  0.23823684091E+02 -0.57913278905E+02  0.72339707731E+03  0.72261185782E+02 0.  0.
         13    1    3    3    0    0 -0.46347071471E+03 -0.40061715108E+03  0.25274997821E+03  0.66270789691E+03  0.00000000000E+00 0.  1.
        -13    1    3    3    0    0 -0.51161374221E+02 -0.11268621254E+02  0.19325510900E+02  0.55838547695E+02  0.00000000000E+00 0. -1.
          2    1    6    6  502    0  0.58133215677E+03  0.89713530685E+01 -0.73305284667E+02  0.58600445939E+03  0.00000000000E+00 0. -1.
          1    1    5    5  503    0 -0.15066995686E+03  0.22288267375E+03 -0.32129705783E+02  0.27094361065E+03  0.00000000000E+00 0. -1.
         -2    1    5    5    0  503 -0.51747559667E+02  0.16517941449E+03  0.17748908551E+02  0.17400308232E+03  0.00000000000E+00 0.  1.
         -1    1    6    6    0  502  0.13571744869E+03  0.14852331022E+02  0.15392005761E+02  0.13739261791E+03  0.00000000000E+00 0.  1.
<mgrwt>
<rscale>  0 0.18762841E+04</rscale>
<asrwt>0</asrwt>
<pdfrwt beam="1">  1        2 0.12977760E+00 0.18762841E+04</pdfrwt>
<pdfrwt beam="2">  1       -2 0.16051320E+00 0.18762841E+04</pdfrwt>
<totfact> 0.75113821E+00</totfact>
</mgrwt>
</event>
<event>
12    1  0.1097093E-007  0.2100720E+04  0.7818608E-02  0.8560926E-01
         -2   -1    0    0    0  501 -0.00000000000E+00  0.00000000000E+00  0.53533638688E+03  0.53533638688E+03  0.00000000000E+00 0.  1.
          2   -1    0    0  501    0  0.00000000000E+00 -0.00000000000E+00 -0.20608650341E+04  0.20608650341E+04  0.00000000000E+00 0. -1.
         23    2    1    2    0    0  0.57643883531E+03 -0.86381924173E+02  0.14934590826E+03  0.60763306144E+03  0.84676852560E+02 0.  0.
        254    2    1    2    0    0 -0.57643883531E+03  0.86381924173E+02 -0.16748745555E+04  0.19885683596E+04  0.89969760272E+03 0.  0.
        -24    2    4    4    0    0 -0.60970745546E+03 -0.27248001086E+03 -0.12909163386E+04  0.14556831185E+04  0.80992659000E+02 0.  0.
         24    2    4    4    0    0  0.33268620152E+02  0.35886193503E+03 -0.38395821697E+03  0.53288524108E+03  0.81572533874E+02 0.  0.
         13    1    3    3    0    0  0.31575394652E+03 -0.11834158286E+02  0.10454744350E+03  0.33282243012E+03  0.00000000000E+00 0.  1.
        -13    1    3    3    0    0  0.26068488878E+03 -0.74547765887E+02  0.44798464756E+02  0.27481063131E+03  0.00000000000E+00 0. -1.
          4    1    6    6  502    0  0.22583796496E+02  0.55292437701E+02 -0.10327037957E+03  0.11929816774E+03  0.00000000000E+00 0. -1.
          1    1    5    5  503    0 -0.22223572012E+03 -0.59565611208E+02 -0.46934661346E+03  0.52270739511E+03  0.00000000000E+00 0. -1.
         -2    1    5    5    0  503 -0.38747173534E+03 -0.21291439965E+03 -0.82156972509E+03  0.93297572340E+03  0.00000000000E+00 0.  1.
         -3    1    6    6    0  502  0.10684823655E+02  0.30356949733E+03 -0.28068783740E+03  0.41358707333E+03  0.00000000000E+00 0.  1.
<mgrwt>
<rscale>  0 0.21007199E+04</rscale>
<asrwt>0</asrwt>
<pdfrwt beam="1">  1        2 0.31705616E+00 0.21007199E+04</pdfrwt>
<pdfrwt beam="2">  1       -2 0.82359445E-01 0.21007199E+04</pdfrwt>
<totfact> 0.73702081E+00</totfact>
</mgrwt>
</event>
<event>
12    1  0.1097093E-007  0.1272456E+04  0.7818608E-02  0.9051698E-01
         -1   -1    0    0    0  501 -0.00000000000E+00  0.00000000000E+00  0.10706815439E+04  0.10706815439E+04  0.00000000000E+00 0.  1.
          1   -1    0    0  501    0  0.00000000000E+00 -0.00000000000E+00 -0.37806387438E+03  0.37806387438E+03  0.00000000000E+00 0. -1.
         23    2    1    2    0    0 -0.10701051974E+03  0.26584395985E+03  0.12145210313E+03  0.32626334763E+03  0.97841179096E+02 0.  0.
        254    2    1    2    0    0  0.10701051974E+03 -0.26584395985E+03  0.57116556636E+03  0.11224820706E+04  0.92282806218E+03 0.  0.
        -24    2    4    4    0    0  0.86919252610E+02 -0.58946120102E+03  0.49821433647E+03  0.78062521633E+03  0.78350107388E+02 0.  0.
         24    2    4    4    0    0  0.20091267133E+02  0.32361724116E+03  0.72951229893E+02  0.34185685429E+03  0.80077769009E+02 0.  0.
         13    1    3    3    0    0 -0.98404736631E+02  0.26705194340E+03  0.13103963634E+03  0.31332350527E+03  0.00000000000E+00 0. -1.
        -13    1    3    3    0    0 -0.86057831119E+01 -0.12079835461E+01 -0.95875332093E+01  0.12939842358E+02  0.00000000000E+00 0.  1.
          2    1    6    6  502    0 -0.42336461837E+00  0.30446090853E+03  0.57589213583E+02  0.30985987410E+03  0.00000000000E+00 0. -1.
          1    1    5    5  503    0  0.81650058541E+02 -0.36832634895E+03  0.34786842726E+03  0.51317002453E+03  0.00000000000E+00 0. -1.
         -2    1    5    5    0  503  0.52691940685E+01 -0.22113485207E+03  0.15034590920E+03  0.26745519180E+03  0.00000000000E+00 0.  1.
         -1    1    6    6    0  502  0.20514631752E+02  0.19156332637E+02  0.15362016310E+02  0.31996980188E+02  0.00000000000E+00 0.  1.
<mgrwt>
<rscale>  0 0.12724559E+04</rscale>
<asrwt>0</asrwt>
<pdfrwt beam="1">  1        1 0.58163673E-01 0.12724559E+04</pdfrwt>
<pdfrwt beam="2">  1       -1 0.16472024E+00 0.12724559E+04</pdfrwt>
<totfact> 0.17145131E+01</totfact>
</mgrwt>
</event>
<event>
12    1  0.1097093E-007  0.1952957E+04  0.7818608E-02  0.8628936E-01
          2   -1    0    0  501    0  0.00000000000E+00  0.00000000000E+00  0.62393226118E+03  0.62393226118E+03  0.00000000000E+00 0.  1.
         -2   -1    0    0    0  501 -0.00000000000E+00 -0.00000000000E+00 -0.15282265182E+04  0.15282265182E+04  0.00000000000E+00 0. -1.
         23    2    1    2    0    0  0.59582254702E+03 -0.37829260330E+03 -0.69887481104E+03  0.99737961854E+03  0.90721004842E+02 0.  0.
        254    2    1    2    0    0 -0.59582254702E+03  0.37829260330E+03 -0.20541944593E+03  0.11547791608E+04  0.89062223202E+03 0.  0.
        -24    2    4    4    0    0 -0.58106377673E+03  0.63337126769E+03 -0.20627207248E+03  0.88732327274E+03  0.77460616444E+02 0.  0.
         24    2    4    4    0    0 -0.14758770291E+02 -0.25507866439E+03  0.85262654392E+00  0.26745588804E+03  0.79050482283E+02 0.  0.
         13    1    3    3    0    0  0.79251800606E+02 -0.71950796512E+02 -0.70577773965E+02  0.12821461382E+03  0.00000000000E+00 0.  1.
        -13    1    3    3    0    0  0.51657074642E+03 -0.30634180679E+03 -0.62829703708E+03  0.86916500473E+03  0.00000000000E+00 0. -1.
          2    1    6    6  502    0  0.14331597434E+02 -0.11504877579E+03  0.33652583646E+02  0.12072328641E+03  0.00000000000E+00 0. -1.
          1    1    5    5  503    0 -0.92731800217E+02  0.92879705350E+02 -0.60219469894E+02  0.14440294662E+03  0.00000000000E+00 0. -1.
         -2    1    5    5    0  503 -0.48833197651E+03  0.54049156234E+03 -0.14605260258E+03  0.74292032613E+03  0.00000000000E+00 0.  1.
         -1    1    6    6    0  502 -0.29090367726E+02 -0.14002988860E+03 -0.32799957102E+02  0.14673260163E+03  0.00000000000E+00 0.  1.
<mgrwt>
<rscale>  0 0.19529566E+04</rscale>
<asrwt>0</asrwt>
<pdfrwt beam="1">  1        2 0.95989580E-01 0.19529566E+04</pdfrwt>
<pdfrwt beam="2">  1       -2 0.23511177E+00 0.19529566E+04</pdfrwt>
<totfact> 0.35018473E+00</totfact>
</mgrwt>
</event>
<event>
12    1  0.1097093E-007  0.1357130E+04  0.7818608E-02  0.8985448E-01
         -1   -1    0    0    0  501 -0.00000000000E+00  0.00000000000E+00  0.12821346504E+04  0.12821346504E+04  0.00000000000E+00 0.  1.
          1   -1    0    0  501    0  0.00000000000E+00 -0.00000000000E+00 -0.35912806402E+03  0.35912806402E+03  0.00000000000E+00 0. -1.
         23    2    1    2    0    0 -0.29743255321E+03 -0.11033999362E+03  0.49196124029E+03  0.59265720630E+03  0.92604882804E+02 0.  0.
        254    2    1    2    0    0  0.29743255321E+03  0.11033999362E+03  0.43104534608E+03  0.10486055081E+04  0.90173853381E+03 0.  0.
        -24    2    4    4    0    0  0.32864595201E+03  0.44686274255E+03  0.99752415619E+02  0.56889831335E+03  0.77461435995E+02 0.  0.
         24    2    4    4    0    0 -0.31213398794E+02 -0.33652274893E+03  0.33129293046E+03  0.47970719476E+03  0.78371870702E+02 0.  0.
         11    1    3    3    0    0 -0.26694378623E+03 -0.69864523700E+02  0.37859269803E+03  0.46847888713E+03  0.00000000000E+00 0.  1.
        -11    1    3    3    0    0 -0.30488766982E+02 -0.40475469918E+02  0.11336854226E+03  0.12417831917E+03  0.00000000000E+00 0. -1.
          4    1    6    6  502    0 -0.37924061049E+02 -0.66251675216E+02  0.65642542762E+02  0.10067999948E+03  0.00000000000E+00 0. -1.
          1    1    5    5  503    0  0.11451668465E+03  0.11549233365E+03  0.29850569717E+01  0.16266979056E+03  0.00000000000E+00 0. -1.
         -2    1    5    5    0  503  0.21412926735E+03  0.33137040890E+03  0.96767358647E+02  0.40622852280E+03  0.00000000000E+00 0.  1.
         -3    1    6    6    0  502  0.67106622548E+01 -0.27027107371E+03  0.26565038770E+03  0.37902719527E+03  0.00000000000E+00 0.  1.
<mgrwt>
<rscale>  0 0.13571301E+04</rscale>
<asrwt>0</asrwt>
<pdfrwt beam="1">  1        1 0.55250472E-01 0.13571301E+04</pdfrwt>
<pdfrwt beam="2">  1       -1 0.19725148E+00 0.13571301E+04</pdfrwt>
<totfact> 0.10648656E+01</totfact>
</mgrwt>
</event>
<event>
12    1  0.1186044E-007  0.1878358E+04  0.7818608E-02  0.8665705E-01
          1   -1    0    0  501    0  0.00000000000E+00  0.00000000000E+00  0.21987234905E+04  0.21987234905E+04  0.00000000000E+00 0. -1.
         -1   -1    0    0    0  501 -0.00000000000E+00 -0.00000000000E+00 -0.40116770208E+03  0.40116770208E+03  0.00000000000E+00 0.  1.
         23    2    1    2    0    0 -0.44796540360E+03  0.26506003932E+03  0.13716449535E+04  0.14699306260E+04  0.91413016899E+02 0.  0.
        254    2    1    2    0    0  0.44796540360E+03 -0.26506003932E+03  0.42591083489E+03  0.11299605665E+04  0.90800936962E+03 0.  0.
        -24    2    4    4    0    0  0.40510300244E+03 -0.12370472291E+03 -0.20472589230E+03  0.47713421286E+03  0.79580556992E+02 0.  0.
         24    2    4    4    0    0  0.42862401160E+02 -0.14135531641E+03  0.63063672719E+03  0.65282635365E+03  0.81615289170E+02 0.  0.
         11    1    3    3    0    0  0.29940230242E+01  0.36046158127E+01  0.33742530745E+02  0.34066344243E+02  0.00000000000E+00 0.  1.
        -11    1    3    3    0    0 -0.45095942662E+03  0.26145542351E+03  0.13379024227E+04  0.14358642818E+04  0.00000000000E+00 0. -1.
          4    1    6    6  502    0 -0.94608917522E+01 -0.71035361651E+02  0.17992988756E+03  0.19367574839E+03  0.00000000000E+00 0. -1.
          1    1    5    5  503    0  0.37928071535E+02 -0.27845898519E+01  0.32450661621E+01  0.38168350834E+02  0.00000000000E+00 0. -1.
         -2    1    5    5    0  503  0.36717493090E+03 -0.12092013306E+03 -0.20797095846E+03  0.43896586203E+03  0.00000000000E+00 0.  1.
         -3    1    6    6    0  502  0.52323292912E+02 -0.70319954756E+02  0.45070683963E+03  0.45915060525E+03  0.00000000000E+00 0.  1.
<mgrwt>
<rscale>  0 0.18783576E+04</rscale>
<asrwt>0</asrwt>
<pdfrwt beam="1">  1        1 0.33826514E+00 0.18783576E+04</pdfrwt>
<pdfrwt beam="2">  1       -1 0.61718110E-01 0.18783576E+04</pdfrwt>
<totfact> 0.54495774E+00</totfact>
</mgrwt>
</event>
<event>
12    1  0.1097093E-007  0.2083982E+04  0.7818608E-02  0.8568333E-01
         -1   -1    0    0    0  501 -0.00000000000E+00  0.00000000000E+00  0.29812984217E+03  0.29812984217E+03  0.00000000000E+00 0.  1.
          1   -1    0    0  501    0  0.00000000000E+00 -0.00000000000E+00 -0.36418520257E+04  0.36418520257E+04  0.00000000000E+00 0. -1.
         23    2    1    2    0    0 -0.19648025886E+03 -0.70443828094E+03 -0.50406315784E+03  0.89301150772E+03  0.92477576016E+02 0.  0.
        254    2    1    2    0    0  0.19648025886E+03  0.70443828094E+03 -0.28396590257E+04  0.30469703601E+04  0.82796570558E+03 0.  0.
        -24    2    4    4    0    0 -0.16857788837E+03  0.17347764724E+02 -0.13614312595E+04  0.13743408791E+04  0.81230094971E+02 0.  0.
         24    2    4    4    0    0  0.36505814723E+03  0.68709051621E+03 -0.14782277662E+04  0.16726294811E+04  0.84683077886E+02 0.  0.
         13    1    3    3    0    0 -0.12418661619E+02 -0.19094165082E+03 -0.11952798495E+03  0.22561000944E+03  0.00000000000E+00 0. -1.
        -13    1    3    3    0    0 -0.18406159724E+03 -0.51349663012E+03 -0.38453517288E+03  0.66740149828E+03  0.00000000000E+00 0.  1.
          4    1    6    6  502    0  0.80915343939E+02  0.17461152681E+03 -0.29453748868E+03  0.35183634038E+03  0.00000000000E+00 0. -1.
          3    1    5    5  503    0 -0.83953020919E+02  0.39689350976E+02 -0.89193721767E+03  0.89675824756E+03  0.00000000000E+00 0. -1.
         -4    1    5    5    0  503 -0.84624867452E+02 -0.22341586253E+02 -0.46949404178E+03  0.47758263152E+03  0.00000000000E+00 0.  1.
         -3    1    6    6    0  502  0.28414280329E+03  0.51247898941E+03 -0.11836902776E+04  0.13207931407E+04  0.00000000000E+00 0.  1.
<mgrwt>
<rscale>  0 0.20839815E+04</rscale>
<asrwt>0</asrwt>
<pdfrwt beam="1">  1        1 0.56028492E+00 0.20839815E+04</pdfrwt>
<pdfrwt beam="2">  1       -1 0.45866130E-01 0.20839815E+04</pdfrwt>
<totfact> 0.84131972E-01</totfact>
</mgrwt>
</event>
<event>
12    1  0.1097093E-007  0.1599670E+04  0.7818608E-02  0.8820751E-01
          2   -1    0    0  501    0  0.00000000000E+00  0.00000000000E+00  0.17912628103E+04  0.17912628103E+04  0.00000000000E+00 0. -1.
         -2   -1    0    0    0  501 -0.00000000000E+00 -0.00000000000E+00 -0.35714231845E+03  0.35714231845E+03  0.00000000000E+00 0.  1.
         23    2    1    2    0    0  0.10907225097E+03 -0.39527874987E+03  0.16528729953E+02  0.42026220144E+03  0.90581858091E+02 0.  0.
        254    2    1    2    0    0 -0.10907225097E+03  0.39527874987E+03  0.14175917619E+04  0.17281429273E+04  0.89931614453E+03 0.  0.
        -24    2    4    4    0    0 -0.35253781389E+03 -0.70755960266E+02  0.25200674216E+03  0.44691923681E+03  0.83307202563E+02 0.  0.
         24    2    4    4    0    0  0.24346556292E+03  0.46603471013E+03  0.11655850198E+04  0.12812236905E+04  0.80510095701E+02 0.  0.
         13    1    3    3    0    0 -0.52732715592E+01 -0.14125310964E+03  0.69832870324E+01  0.14152390143E+03  0.00000000000E+00 0.  1.
        -13    1    3    3    0    0  0.11434552253E+03 -0.25402564022E+03  0.95454429202E+01  0.27873830001E+03  0.00000000000E+00 0. -1.
          4    1    6    6  502    0  0.16814654750E+03  0.24007980173E+03  0.67419892254E+03  0.73515696269E+03  0.00000000000E+00 0. -1.
          3    1    5    5  503    0 -0.34255641219E+03 -0.50373926502E+02  0.23327008275E+03  0.41748935257E+03  0.00000000000E+00 0. -1.
         -4    1    5    5    0  503 -0.99814016973E+01 -0.20382033764E+02  0.18736659413E+02  0.29429884236E+02  0.00000000000E+00 0.  1.
         -3    1    6    6    0  502  0.75319015427E+02  0.22595490840E+03  0.49138609721E+03  0.54606672784E+03  0.00000000000E+00 0.  1.
<mgrwt>
<rscale>  0 0.15996697E+04</rscale>
<asrwt>0</asrwt>
<pdfrwt beam="1">  1        2 0.27557889E+00 0.15996697E+04</pdfrwt>
<pdfrwt beam="2">  1       -2 0.54944973E-01 0.15996697E+04</pdfrwt>
<totfact> 0.26067153E+01</totfact>
</mgrwt>
</event>
<event>
12    1  0.1097093E-007  0.1060850E+04  0.7818608E-02  0.9244213E-01
          1   -1    0    0  501    0  0.00000000000E+00  0.00000000000E+00  0.13699060064E+04  0.13699060064E+04  0.00000000000E+00 0. -1.
         -1   -1    0    0    0  501 -0.00000000000E+00 -0.00000000000E+00 -0.20537950412E+03  0.20537950412E+03  0.00000000000E+00 0.  1.
         23    2    1    2    0    0 -0.22448600365E+02 -0.46047383764E+02  0.34123049738E+03  0.35652304807E+03  0.89700224373E+02 0.  0.
        254    2    1    2    0    0  0.22448600365E+02  0.46047383764E+02  0.82329600495E+03  0.12187624625E+04  0.89718522448E+03 0.  0.
        -24    2    4    4    0    0 -0.17609667437E+03 -0.27699919990E+03  0.34682242052E+02  0.33987364946E+03  0.81071845988E+02 0.  0.
         24    2    4    4    0    0  0.19854527473E+03  0.32304658367E+03  0.78861376290E+03  0.87888881304E+03  0.82186113949E+02 0.  0.
         11    1    3    3    0    0 -0.42154261927E+02 -0.25280244185E+02  0.81179061151E+02  0.94900540114E+02  0.00000000000E+00 0.  1.
        -11    1    3    3    0    0  0.19705661562E+02 -0.20767139579E+02  0.26005143623E+03  0.26162250795E+03  0.00000000000E+00 0. -1.
          2    1    6    6  502    0  0.75878142385E+02  0.14385360393E+03  0.42899792052E+03  0.45879251048E+03  0.00000000000E+00 0. -1.
          1    1    5    5  503    0 -0.16180633868E+03 -0.22792356626E+03  0.26092829614E+01  0.27953041275E+03  0.00000000000E+00 0. -1.
         -2    1    5    5    0  503 -0.14290335682E+02 -0.49075633645E+02  0.32072959091E+02  0.60343236708E+02  0.00000000000E+00 0.  1.
         -1    1    6    6    0  502  0.12266713235E+03  0.17919297974E+03  0.35961584237E+03  0.42009630257E+03  0.00000000000E+00 0.  1.
<mgrwt>
<rscale>  0 0.10608499E+04</rscale>
<asrwt>0</asrwt>
<pdfrwt beam="1">  1        1 0.21075476E+00 0.10608499E+04</pdfrwt>
<pdfrwt beam="2">  1       -1 0.31596848E-01 0.10608499E+04</pdfrwt>
<totfact> 0.74996721E+01</totfact>
</mgrwt>
</event>
<event>
12    1  0.1761131E-007  0.1251074E+04  0.7818608E-02  0.9069290E-01
          1   -1    0    0  501    0  0.00000000000E+00  0.00000000000E+00  0.12900835260E+04  0.12900835260E+04  0.00000000000E+00 0.  1.
         -1   -1    0    0    0  501 -0.00000000000E+00 -0.00000000000E+00 -0.30331083721E+03  0.30331083721E+03  0.00000000000E+00 0. -1.
         23    2    1    2    0    0  0.12034540023E+03 -0.12992053670E+02 -0.11835322533E+03  0.19338168581E+03  0.93472892585E+02 0.  0.
        254    2    1    2    0    0 -0.12034540023E+03  0.12992053670E+02  0.11051259141E+04  0.14000126774E+04  0.85092914040E+03 0.  0.
        -24    2    4    4    0    0  0.29396644616E+03 -0.18945174542E+03  0.67502541783E+03  0.76429113688E+03  0.78570935387E+02 0.  0.
         24    2    4    4    0    0 -0.41431184638E+03  0.20244379909E+03  0.43010049625E+03  0.63572154048E+03  0.80731916314E+02 0.  0.
         11    1    3    3    0    0  0.14050162127E+01 -0.20111112971E+01  0.14512294071E+02  0.14718196846E+02  0.00000000000E+00 0.  1.
        -11    1    3    3    0    0  0.11894038401E+03 -0.10980942373E+02 -0.13286551940E+03  0.17866348897E+03  0.00000000000E+00 0. -1.
          2    1    6    6  502    0 -0.40511882732E+03  0.20742580430E+03  0.40785116717E+03  0.61113771206E+03  0.00000000000E+00 0. -1.
          3    1    5    5  503    0  0.23343620621E+03 -0.17834835973E+03  0.51586347136E+03  0.59364612428E+03  0.00000000000E+00 0. -1.
         -4    1    5    5    0  503  0.60530239950E+02 -0.11103385695E+02  0.15916194647E+03  0.17064501260E+03  0.00000000000E+00 0.  1.
         -1    1    6    6    0  502 -0.91930190632E+01 -0.49820052062E+01  0.22249329080E+02  0.24583828422E+02  0.00000000000E+00 0.  1.
<mgrwt>
<rscale>  0 0.12510736E+04</rscale>
<asrwt>0</asrwt>
<pdfrwt beam="1">  1        1 0.19847439E+00 0.12510736E+04</pdfrwt>
<pdfrwt beam="2">  1       -1 0.46663206E-01 0.12510736E+04</pdfrwt>
<totfact> 0.41468373E+01</totfact>
</mgrwt>
</event>
<event>
12    1  0.1097093E-007  0.1848734E+04  0.7818608E-02  0.8680804E-01
          2   -1    0    0  501    0  0.00000000000E+00  0.00000000000E+00  0.23694039950E+04  0.23694039950E+04  0.00000000000E+00 0. -1.
         -2   -1    0    0    0  501 -0.00000000000E+00 -0.00000000000E+00 -0.36061999825E+03  0.36061999825E+03  0.00000000000E+00 0.  1.
         23    2    1    2    0    0 -0.67697271509E+03  0.16935088881E+03  0.60847108622E+03  0.93027279325E+03  0.90546267619E+02 0.  0.
        254    2    1    2    0    0  0.67697271509E+03 -0.16935088881E+03  0.14003129106E+04  0.17997512000E+04  0.88952591532E+03 0.  0.
        -24    2    4    4    0    0  0.42347851289E+02 -0.20970089449E+03 -0.31684718814E+02  0.23092967665E+03  0.80973998864E+02 0.  0.
         24    2    4    4    0    0  0.63462486380E+03  0.40350005678E+02  0.14319976294E+04  0.15688215234E+04  0.78784014857E+02 0.  0.
         13    1    3    3    0    0 -0.46655479831E+03  0.79380746039E+02  0.38047416529E+03  0.60723576404E+03  0.00000000000E+00 0. -1.
        -13    1    3    3    0    0 -0.21041791678E+03  0.89970142770E+02  0.22799692092E+03  0.32303702921E+03  0.00000000000E+00 0.  1.
          4    1    6    6  502    0  0.73643928494E+02 -0.60461076751E+00  0.11276816319E+03  0.13468649668E+03  0.00000000000E+00 0. -1.
          1    1    5    5  503    0 -0.19628538812E+01 -0.11591334728E+03  0.15522395952E+02  0.11696453159E+03  0.00000000000E+00 0. -1.
         -2    1    5    5    0  503  0.44310705170E+02 -0.93787547204E+02 -0.47207114767E+02  0.11396514506E+03  0.00000000000E+00 0.  1.
         -3    1    6    6    0  502  0.56098093531E+03  0.40954616445E+02  0.13192294662E+04  0.14341350267E+04  0.00000000000E+00 0.  1.
<mgrwt>
<rscale>  0 0.18487341E+04</rscale>
<asrwt>0</asrwt>
<pdfrwt beam="1">  1        2 0.36452368E+00 0.18487341E+04</pdfrwt>
<pdfrwt beam="2">  1       -2 0.55480001E-01 0.18487341E+04</pdfrwt>
<totfact> 0.11891297E+01</totfact>
</mgrwt>
</event>
<event>
12    1  0.1097093E-007  0.2242941E+04  0.7818608E-02  0.8500765E-01
         -2   -1    0    0    0  501 -0.00000000000E+00  0.00000000000E+00  0.46764405642E+03  0.46764405642E+03  0.00000000000E+00 0.  1.
          2   -1    0    0  501    0  0.00000000000E+00 -0.00000000000E+00 -0.26894314496E+04  0.26894314496E+04  0.00000000000E+00 0. -1.
         23    2    1    2    0    0  0.35388028341E+03 -0.83890790344E+03 -0.69563512844E+03  0.11493804643E+04  0.90385255148E+02 0.  0.
        254    2    1    2    0    0 -0.35388028341E+03  0.83890790344E+03 -0.15261522648E+04  0.20076950417E+04  0.93418462841E+03 0.  0.
        -24    2    4    4    0    0  0.12803687937E+03 -0.12125332419E+03 -0.93817441351E+02  0.21513749226E+03  0.79916313530E+02 0.  0.
         24    2    4    4    0    0 -0.48191716278E+03  0.96016122763E+03 -0.14323348234E+04  0.17925575495E+04  0.86751293921E+02 0.  0.
         11    1    3    3    0    0  0.57554013002E+02 -0.16712637468E+03 -0.17925307643E+03  0.25174462246E+03  0.00000000000E+00 0. -1.
        -11    1    3    3    0    0  0.29632627041E+03 -0.67178152876E+03 -0.51638205201E+03  0.89763584184E+03  0.00000000000E+00 0.  1.
          4    1    6    6  502    0 -0.48247478826E+02  0.90766514037E+02 -0.98256735535E+02  0.14219973756E+03  0.00000000000E+00 0. -1.
          1    1    5    5  503    0  0.42263346895E+02 -0.47667962099E+02 -0.78490608881E+02  0.10109006274E+03  0.00000000000E+00 0. -1.
         -2    1    5    5    0  503  0.85773532480E+02 -0.73585362092E+02 -0.15326832470E+02  0.11404742953E+03  0.00000000000E+00 0.  1.
         -3    1    6    6    0  502 -0.43366968396E+03  0.86939471360E+03 -0.13340780879E+04  0.16503578119E+04  0.00000000000E+00 0.  1.
<mgrwt>
<rscale>  0 0.22429415E+04</rscale>
<asrwt>0</asrwt>
<pdfrwt beam="1">  1        2 0.41375869E+00 0.22429415E+04</pdfrwt>
<pdfrwt beam="2">  1       -2 0.71945239E-01 0.22429415E+04</pdfrwt>
<totfact> 0.42970296E+00</totfact>
</mgrwt>
</event>
<event>
12    1  0.1097093E-007  0.1631412E+04  0.7818608E-02  0.8801480E-01
          1   -1    0    0  501    0  0.00000000000E+00  0.00000000000E+00  0.47355193232E+03  0.47355193232E+03  0.00000000000E+00 0. -1.
         -1   -1    0    0    0  501 -0.00000000000E+00 -0.00000000000E+00 -0.14050749846E+04  0.14050749846E+04  0.00000000000E+00 0.  1.
         23    2    1    2    0    0 -0.52578490090E+03  0.11539889775E+03 -0.12285590279E+03  0.55921356778E+03  0.88654238067E+02 0.  0.
        254    2    1    2    0    0  0.52578490090E+03 -0.11539889775E+03 -0.80866714946E+03  0.13194133491E+04  0.89282829233E+03 0.  0.
        -24    2    4    4    0    0  0.38447709165E+01 -0.38776902986E+03 -0.53398931899E+03  0.66474425501E+03  0.79754178493E+02 0.  0.
         24    2    4    4    0    0  0.52194012998E+03  0.27237013210E+03 -0.27467783047E+03  0.65466909411E+03  0.80850009763E+02 0.  0.
         13    1    3    3    0    0 -0.27636716854E+03  0.98549370711E+02 -0.91034661554E+02  0.30721018850E+03  0.00000000000E+00 0. -1.
        -13    1    3    3    0    0 -0.24941773235E+03  0.16849527040E+02 -0.31821241241E+02  0.25200337928E+03  0.00000000000E+00 0.  1.
          2    1    6    6  502    0  0.53668250502E+02  0.52098192150E+02 -0.17599621755E+02  0.76839113888E+02  0.00000000000E+00 0. -1.
          1    1    5    5  503    0  0.34769248805E+02 -0.16055958844E+03 -0.18796600329E+03  0.24963873998E+03  0.00000000000E+00 0. -1.
         -2    1    5    5    0  503 -0.30924477889E+02 -0.22720944141E+03 -0.34602331570E+03  0.41510551503E+03  0.00000000000E+00 0.  1.
         -1    1    6    6    0  502  0.46827187948E+03  0.22027193995E+03 -0.25707820872E+03  0.57782998022E+03  0.00000000000E+00 0.  1.
<mgrwt>
<rscale>  0 0.16314116E+04</rscale>
<asrwt>0</asrwt>
<pdfrwt beam="1">  1        1 0.72854144E-01 0.16314116E+04</pdfrwt>
<pdfrwt beam="2">  1       -1 0.21616538E+00 0.16314116E+04</pdfrwt>
<totfact> 0.53377351E+00</totfact>
</mgrwt>
</event>
<event>
12    1  0.1097093E-007  0.2457976E+04  0.7818608E-02  0.8418112E-01
         -2   -1    0    0    0  501 -0.00000000000E+00  0.00000000000E+00  0.12738447899E+04  0.12738447899E+04  0.00000000000E+00 0. -1.
          2   -1    0    0  501    0  0.00000000000E+00 -0.00000000000E+00 -0.11857107868E+04  0.11857107868E+04  0.00000000000E+00 0.  1.
         23    2    1    2    0    0  0.49890264516E+02  0.10274200569E+04 -0.22067811598E+03  0.10558020885E+04  0.89096618141E+02 0.  0.
        254    2    1    2    0    0 -0.49890264516E+02 -0.10274200569E+04  0.30881211907E+03  0.14037534883E+04  0.90392362463E+03 0.  0.
        -24    2    4    4    0    0  0.40470830189E+03 -0.56078167065E+03  0.26830428500E+03  0.74604238567E+03  0.79543447959E+02 0.  0.
         24    2    4    4    0    0 -0.45459856640E+03 -0.46663838627E+03  0.40507834071E+02  0.65771110262E+03  0.80819365116E+02 0.  0.
         11    1    3    3    0    0  0.64078555084E+02  0.91898561675E+03 -0.21675087787E+03  0.94637284834E+03  0.00000000000E+00 0. -1.
        -11    1    3    3    0    0 -0.14188290569E+02  0.10843444016E+03 -0.39272381092E+01  0.10942924016E+03  0.00000000000E+00 0.  1.
          4    1    6    6  502    0 -0.59245349155E+02 -0.86037903613E+02 -0.17328445695E+02  0.10589054389E+03  0.00000000000E+00 0. -1.
          3    1    5    5  503    0 -0.31180192943E+01 -0.96164376320E+01  0.10837027930E+01  0.10167218341E+02  0.00000000000E+00 0. -1.
         -4    1    5    5    0  503  0.40782632118E+03 -0.55116523302E+03  0.26722058221E+03  0.73587516733E+03  0.00000000000E+00 0.  1.
         -3    1    6    6    0  502 -0.39535321725E+03 -0.38060048265E+03  0.57836279767E+02  0.55182055873E+03  0.00000000000E+00 0.  1.
<mgrwt>
<rscale>  0 0.24579760E+04</rscale>
<asrwt>0</asrwt>
<pdfrwt beam="1">  1        2 0.18241704E+00 0.24579760E+04</pdfrwt>
<pdfrwt beam="2">  1       -2 0.19597612E+00 0.24579760E+04</pdfrwt>
<totfact> 0.24444543E+00</totfact>
</mgrwt>
</event>
<event>
12    1  0.1097093E-007  0.2408951E+04  0.7818608E-02  0.8436160E-01
         -1   -1    0    0    0  501 -0.00000000000E+00  0.00000000000E+00  0.13028889277E+04  0.13028889277E+04  0.00000000000E+00 0.  1.
          1   -1    0    0  501    0  0.00000000000E+00 -0.00000000000E+00 -0.11134956907E+04  0.11134956907E+04  0.00000000000E+00 0. -1.
         23    2    1    2    0    0 -0.46572173644E+02  0.66058503753E+03 -0.71595460543E+03  0.97949286766E+03  0.90959999990E+02 0.  0.
        254    2    1    2    0    0  0.46572173644E+02 -0.66058503753E+03  0.90534784245E+03  0.14368917507E+04  0.89803208640E+03 0.  0.
        -24    2    4    4    0    0  0.44267186199E+03 -0.45652274548E+03  0.38546656006E+03  0.74758578892E+03  0.76997716358E+02 0.  0.
         24    2    4    4    0    0 -0.39609968834E+03 -0.20406229205E+03  0.51988128239E+03  0.68930596178E+03  0.79559908395E+02 0.  0.
         13    1    3    3    0    0 -0.61935705713E+02  0.60459636586E+03 -0.67587300208E+03  0.90894285420E+03  0.00000000000E+00 0. -1.
        -13    1    3    3    0    0  0.15363532069E+02  0.55988671668E+02 -0.40081603349E+02  0.70550013464E+02  0.00000000000E+00 0.  1.
          2    1    6    6  502    0 -0.30747612283E+02 -0.44121311242E+02  0.63648208674E+02  0.83325867738E+02  0.00000000000E+00 0. -1.
          1    1    5    5  503    0  0.16204647508E+03 -0.13409105989E+03  0.16033098175E+03  0.26447210842E+03  0.00000000000E+00 0. -1.
         -2    1    5    5    0  503  0.28062538691E+03 -0.32243168559E+03  0.22513557832E+03  0.48311368049E+03  0.00000000000E+00 0.  1.
         -1    1    6    6    0  502 -0.36535207606E+03 -0.15994098081E+03  0.45623307371E+03  0.60598009404E+03  0.00000000000E+00 0.  1.
<mgrwt>
<rscale>  0 0.24089510E+04</rscale>
<asrwt>0</asrwt>
<pdfrwt beam="1">  1        1 0.17130703E+00 0.24089510E+04</pdfrwt>
<pdfrwt beam="2">  1       -1 0.20044445E+00 0.24089510E+04</pdfrwt>
<totfact> 0.16574262E+00</totfact>
</mgrwt>
</event>
<event>
12    1  0.1097093E-007  0.1527494E+04  0.7818608E-02  0.8866373E-01
          2   -1    0    0  501    0  0.00000000000E+00  0.00000000000E+00  0.42318999261E+03  0.42318999261E+03  0.00000000000E+00 0.  1.
         -2   -1    0    0    0  501 -0.00000000000E+00 -0.00000000000E+00 -0.13783630754E+04  0.13783630754E+04  0.00000000000E+00 0. -1.
         23    2    1    2    0    0 -0.25858714849E+03  0.32627115477E+03  0.19466741567E+02  0.42717051617E+03  0.93677724496E+02 0.  0.
        254    2    1    2    0    0  0.25858714849E+03 -0.32627115477E+03 -0.97463982434E+03  0.13743825518E+04  0.87503396034E+03 0.  0.
        -24    2    4    4    0    0 -0.23130393806E+03 -0.38958014715E+03 -0.37720186685E+03  0.59489332197E+03  0.79640525847E+02 0.  0.
         24    2    4    4    0    0  0.48989108655E+03  0.63308992384E+02 -0.59743795749E+03  0.77948922984E+03  0.81670320156E+02 0.  0.
         13    1    3    3    0    0 -0.14131457998E+03  0.19795648505E+03 -0.33337928663E+02  0.24549541335E+03  0.00000000000E+00 0. -1.
        -13    1    3    3    0    0 -0.11727256850E+03  0.12831466972E+03  0.52804670230E+02  0.18167510282E+03  0.00000000000E+00 0.  1.
          2    1    6    6  502    0  0.41474912649E+03  0.77330942547E+02 -0.47665692727E+03  0.63655222795E+03  0.00000000000E+00 0. -1.
          1    1    5    5  503    0 -0.20112310911E+03 -0.36801324329E+03 -0.36460928508E+03  0.55571951830E+03  0.00000000000E+00 0. -1.
         -2    1    5    5    0  503 -0.30180828956E+02 -0.21566903856E+02 -0.12592581771E+02  0.39173803671E+02  0.00000000000E+00 0.  1.
         -3    1    6    6    0  502  0.75141960063E+02 -0.14021950163E+02 -0.12078103022E+03  0.14293700189E+03  0.00000000000E+00 0.  1.
<mgrwt>
<rscale>  0 0.15274940E+04</rscale>
<asrwt>0</asrwt>
<pdfrwt beam="1">  1        2 0.65106151E-01 0.15274940E+04</pdfrwt>
<pdfrwt beam="2">  1       -2 0.21205586E+00 0.15274940E+04</pdfrwt>
<totfact> 0.79827255E+00</totfact>
</mgrwt>
</event>
<event>
12    1  0.1097093E-007  0.1163519E+04  0.7818608E-02  0.9145401E-01
         -1   -1    0    0    0  501 -0.00000000000E+00  0.00000000000E+00  0.20181192886E+03  0.20181192886E+03  0.00000000000E+00 0.  1.
          1   -1    0    0  501    0  0.00000000000E+00 -0.00000000000E+00 -0.16770275331E+04  0.16770275331E+04  0.00000000000E+00 0. -1.
         23    2    1    2    0    0  0.42865560820E+02  0.13945889625E+03 -0.57392442961E+03  0.59934411788E+03  0.92400653031E+02 0.  0.
        254    2    1    2    0    0 -0.42865560820E+02 -0.13945889625E+03 -0.90129117463E+03  0.12794953441E+04  0.89637955913E+03 0.  0.
        -24    2    4    4    0    0  0.26148065489E+03  0.23059289598E+03 -0.62774714624E+03  0.72221806770E+03  0.77377265064E+02 0.  0.
         24    2    4    4    0    0 -0.30434621571E+03 -0.37005179223E+03 -0.27354402839E+03  0.55727727638E+03  0.78528207375E+02 0.  0.
         13    1    3    3    0    0  0.45940865327E+02  0.22324431473E+02 -0.11755606791E+03  0.12817321268E+03  0.00000000000E+00 0.  1.
        -13    1    3    3    0    0 -0.30753045071E+01  0.11713446478E+03 -0.45636836170E+03  0.47117090519E+03  0.00000000000E+00 0. -1.
          4    1    6    6  502    0 -0.93853261097E+02 -0.78945975330E+02 -0.10038471295E+03  0.15848656799E+03  0.00000000000E+00 0. -1.
          1    1    5    5  503    0  0.26029387607E+02 -0.16470073835E+01 -0.54343845418E+02  0.60278480301E+02  0.00000000000E+00 0. -1.
         -2    1    5    5    0  503  0.23545126728E+03  0.23223990336E+03 -0.57340330082E+03  0.66193958740E+03  0.00000000000E+00 0.  1.
         -3    1    6    6    0  502 -0.21049295461E+03 -0.29110581691E+03 -0.17315931544E+03  0.39879070839E+03  0.00000000000E+00 0.  1.
<mgrwt>
<rscale>  0 0.11635191E+04</rscale>
<asrwt>0</asrwt>
<pdfrwt beam="1">  1        1 0.25800424E+00 0.11635191E+04</pdfrwt>
<pdfrwt beam="2">  1       -1 0.31047988E-01 0.11635191E+04</pdfrwt>
<totfact> 0.47109131E+01</totfact>
</mgrwt>
</event>
<event>
12    1  0.1097093E-007  0.1894278E+04  0.7818608E-02  0.8657710E-01
          2   -1    0    0  501    0  0.00000000000E+00  0.00000000000E+00  0.22572544716E+04  0.22572544716E+04  0.00000000000E+00 0. -1.
         -2   -1    0    0    0  501 -0.00000000000E+00 -0.00000000000E+00 -0.39741725014E+03  0.39741725014E+03  0.00000000000E+00 0.  1.
         23    2    1    2    0    0 -0.25009479257E+03  0.49676766589E+03  0.57769050140E+02  0.56529728487E+03  0.83055631828E+02 0.  0.
        254    2    1    2    0    0  0.25009479257E+03 -0.49676766589E+03  0.18020681713E+04  0.20893744369E+04  0.89928322805E+03 0.  0.
        -24    2    4    4    0    0  0.30994403325E+03  0.18275359990E+03  0.57105755871E+03  0.67973554963E+03  0.80433202412E+02 0.  0.
         24    2    4    4    0    0 -0.59849240679E+02 -0.67952126579E+03  0.12310106126E+04  0.14096388872E+04  0.79772061643E+02 0.  0.
         13    1    3    3    0    0 -0.80704686252E+02  0.24386378687E+03  0.43866074834E+02  0.26058976467E+03  0.00000000000E+00 0. -1.
        -13    1    3    3    0    0 -0.16939010631E+03  0.25290387902E+03  0.13902975306E+02  0.30470752020E+03  0.00000000000E+00 0.  1.
          4    1    6    6  502    0 -0.83996607828E+01 -0.47085622279E+03  0.87910214211E+03  0.99729469722E+03  0.00000000000E+00 0. -1.
          1    1    5    5  503    0  0.23425078829E+03  0.16135247824E+03  0.39356784541E+03  0.48559623453E+03  0.00000000000E+00 0. -1.
         -2    1    5    5    0  503  0.75693244955E+02  0.21401121657E+02  0.17748971330E+03  0.19413931510E+03  0.00000000000E+00 0.  1.
         -3    1    6    6    0  502 -0.51449579896E+02 -0.20866504300E+03  0.35190847049E+03  0.41234419002E+03  0.00000000000E+00 0.  1.
<mgrwt>
<rscale>  0 0.18942776E+04</rscale>
<asrwt>0</asrwt>
<pdfrwt beam="1">  1        2 0.34726991E+00 0.18942776E+04</pdfrwt>
<pdfrwt beam="2">  1       -2 0.61141117E-01 0.18942776E+04</pdfrwt>
<totfact> 0.11179944E+01</totfact>
</mgrwt>
</event>
<event>
12    1  0.1097093E-007  0.1420022E+04  0.7818608E-02  0.8939451E-01
         -2   -1    0    0    0  501 -0.00000000000E+00  0.00000000000E+00  0.39013172667E+03  0.39013172667E+03  0.00000000000E+00 0.  1.
          2   -1    0    0  501    0  0.00000000000E+00 -0.00000000000E+00 -0.12921685179E+04  0.12921685179E+04  0.00000000000E+00 0. -1.
         23    2    1    2    0    0  0.71745411286E+02 -0.98407317104E+02  0.20330824282E+03  0.25481826706E+03  0.93630676233E+02 0.  0.
        254    2    1    2    0    0 -0.71745411286E+02  0.98407317104E+02 -0.11053450341E+04  0.14274819775E+04  0.89503393662E+03 0.  0.
        -24    2    4    4    0    0 -0.23883656236E+03  0.41574171930E+03 -0.85119244625E+03  0.98022392707E+03  0.80164118879E+02 0.  0.
         24    2    4    4    0    0  0.16709115107E+03 -0.31733440220E+03 -0.25415258784E+03  0.44725805047E+03  0.82617493413E+02 0.  0.
         13    1    3    3    0    0  0.28983976622E+02 -0.29503363640E+02  0.63816228929E+01  0.41847873036E+02  0.00000000000E+00 0. -1.
        -13    1    3    3    0    0  0.42761434663E+02 -0.68903953465E+02  0.19692661993E+03  0.21297039403E+03  0.00000000000E+00 0.  1.
          4    1    6    6  502    0  0.36240671929E+02 -0.10532939758E+03 -0.38816091672E+02  0.11795913389E+03  0.00000000000E+00 0. -1.
          1    1    5    5  503    0 -0.83032231468E+01  0.66050739122E+02 -0.99456896604E+02  0.11968006490E+03  0.00000000000E+00 0. -1.
         -2    1    5    5    0  503 -0.23053333921E+03  0.34969098018E+03 -0.75173554964E+03  0.86054386216E+03  0.00000000000E+00 0.  1.
         -3    1    6    6    0  502  0.13085047914E+03 -0.21200500462E+03 -0.21533649617E+03  0.32929891657E+03  0.00000000000E+00 0.  1.
<mgrwt>
<rscale>  0 0.14200224E+04</rscale>
<asrwt>0</asrwt>
<pdfrwt beam="1">  1        2 0.19879516E+00 0.14200224E+04</pdfrwt>
<pdfrwt beam="2">  1       -2 0.60020264E-01 0.14200224E+04</pdfrwt>
<totfact> 0.42020574E+01</totfact>
</mgrwt>
</event>
<event>
12    1  0.1097093E-007  0.2059945E+04  0.7818608E-02  0.8579096E-01
          2   -1    0    0  501    0  0.00000000000E+00  0.00000000000E+00  0.17201373956E+04  0.17201373956E+04  0.00000000000E+00 0.  1.
         -2   -1    0    0    0  501 -0.00000000000E+00 -0.00000000000E+00 -0.61671999107E+03  0.61671999107E+03  0.00000000000E+00 0. -1.
         23    2    1    2    0    0  0.25251610397E+03 -0.71258164517E+03  0.82939644709E+03  0.11260201040E+04  0.92118533743E+02 0.  0.
        254    2    1    2    0    0 -0.25251610397E+03  0.71258164517E+03  0.27402095742E+03  0.12108372827E+04  0.90526374956E+03 0.  0.
        -24    2    4    4    0    0 -0.39474492796E+03  0.76067863976E+03  0.44475879639E+03  0.96935840517E+03  0.85963827159E+02 0.  0.
         24    2    4    4    0    0  0.14222882399E+03 -0.48096994588E+02 -0.17073783897E+03  0.24147887753E+03  0.81352808027E+02 0.  0.
         13    1    3    3    0    0  0.15833649894E+03 -0.37641041388E+03  0.38846849707E+03  0.56361602159E+03  0.00000000000E+00 0. -1.
        -13    1    3    3    0    0  0.94179605029E+02 -0.33617123129E+03  0.44092795002E+03  0.56240408237E+03  0.00000000000E+00 0.  1.
          4    1    6    6  502    0  0.60758489531E+02  0.14975655154E+01 -0.11740129600E+03  0.13220023092E+03  0.00000000000E+00 0. -1.
          1    1    5    5  503    0 -0.36292706999E+03  0.66031796321E+03  0.41372912884E+03  0.85959738408E+03  0.00000000000E+00 0. -1.
         -2    1    5    5    0  503 -0.31817857967E+02  0.10036067654E+03  0.31029667551E+02  0.10976102109E+03  0.00000000000E+00 0.  1.
         -3    1    6    6    0  502  0.81470334454E+02 -0.49594560103E+02 -0.53336542970E+02  0.10927864661E+03  0.00000000000E+00 0.  1.
<mgrwt>
<rscale>  0 0.20599448E+04</rscale>
<asrwt>0</asrwt>
<pdfrwt beam="1">  1        2 0.26463652E+00 0.20599448E+04</pdfrwt>
<pdfrwt beam="2">  1       -2 0.94879999E-01 0.20599448E+04</pdfrwt>
<totfact> 0.82597823E+00</totfact>
</mgrwt>
</event>
<event>
12    1  0.1097093E-007  0.3135105E+04  0.7818608E-02  0.8206169E-01
          2   -1    0    0  501    0  0.00000000000E+00  0.00000000000E+00  0.24001193473E+04  0.24001193473E+04  0.00000000000E+00 0. -1.
         -2   -1    0    0    0  501 -0.00000000000E+00 -0.00000000000E+00 -0.10237911680E+04  0.10237911680E+04  0.00000000000E+00 0.  1.
         23    2    1    2    0    0  0.33670499453E+03  0.13743964019E+03  0.21479719230E+04  0.21804471579E+04  0.91140102446E+02 0.  0.
        254    2    1    2    0    0 -0.33670499453E+03 -0.13743964019E+03 -0.77164374374E+03  0.12434633574E+04  0.90471384751E+03 0.  0.
        -24    2    4    4    0    0 -0.14527969236E+03 -0.51166454063E+03 -0.51057592986E+03  0.74161083180E+03  0.79950325493E+02 0.  0.
         24    2    4    4    0    0 -0.19142530217E+03  0.37422490044E+03 -0.26106781389E+03  0.50185252559E+03  0.83735485758E+02 0.  0.
         13    1    3    3    0    0  0.15193577507E+03  0.30393661151E+02  0.11077234718E+04  0.11185077310E+04  0.00000000000E+00 0.  1.
        -13    1    3    3    0    0  0.18476921946E+03  0.10704597904E+03  0.10402484513E+04  0.10619394269E+04  0.00000000000E+00 0. -1.
          4    1    6    6  502    0 -0.78554827355E+02  0.83028958627E+02 -0.49061354462E+02  0.12438522972E+03  0.00000000000E+00 0. -1.
          1    1    5    5  503    0  0.30125483224E+01 -0.32391866376E+01 -0.17329168414E+02  0.17884849884E+02  0.00000000000E+00 0. -1.
         -2    1    5    5    0  503 -0.14829224068E+03 -0.50842535399E+03 -0.49324676144E+03  0.72372598191E+03  0.00000000000E+00 0.  1.
         -3    1    6    6    0  502 -0.11287047482E+03  0.29119594181E+03 -0.21200645942E+03  0.37746729587E+03  0.00000000000E+00 0.  1.
<mgrwt>
<rscale>  0 0.31351051E+04</rscale>
<asrwt>0</asrwt>
<pdfrwt beam="1">  1        2 0.36924913E+00 0.31351051E+04</pdfrwt>
<pdfrwt beam="2">  1       -2 0.15750633E+00 0.31351051E+04</pdfrwt>
<totfact> 0.88448107E-01</totfact>
</mgrwt>
</event>
<event>
12    1  0.1097093E-007  0.1836215E+04  0.7818608E-02  0.8687274E-01
         -1   -1    0    0    0  501 -0.00000000000E+00  0.00000000000E+00  0.35260077540E+03  0.35260077540E+03  0.00000000000E+00 0.  1.
          1   -1    0    0  501    0  0.00000000000E+00 -0.00000000000E+00 -0.23905830588E+04  0.23905830588E+04  0.00000000000E+00 0. -1.
         23    2    1    2    0    0 -0.44465529062E+03 -0.17444081837E+02 -0.21214155620E+02  0.45495839164E+03  0.92273908867E+02 0.  0.
        254    2    1    2    0    0  0.44465529062E+03  0.17444081837E+02 -0.20167681278E+04  0.22882254426E+04  0.98519001788E+03 0.  0.
        -24    2    4    4    0    0  0.24745415990E+03  0.21986639830E+03 -0.19602740659E+04  0.19899407175E+04  0.87263115759E+02 0.  0.
         24    2    4    4    0    0  0.19720113072E+03 -0.20242231647E+03 -0.56494061948E+02  0.29828472513E+03  0.76935804737E+02 0.  0.
         11    1    3    3    0    0 -0.21947724515E+03 -0.15727084026E+02 -0.56121681576E+02  0.22708422547E+03  0.00000000000E+00 0. -1.
        -11    1    3    3    0    0 -0.22517804547E+03 -0.17169978112E+01  0.34907525956E+02  0.22787416618E+03  0.00000000000E+00 0.  1.
          4    1    6    6  502    0  0.11322490605E+03 -0.15805132646E+03 -0.16145511521E+02  0.19509171866E+03  0.00000000000E+00 0. -1.
          3    1    5    5  503    0  0.20835664346E+03  0.14270381011E+03 -0.15712398878E+04  0.15914055590E+04  0.00000000000E+00 0. -1.
         -4    1    5    5    0  503  0.39097516437E+02  0.77162588191E+02 -0.38903417810E+03  0.39853515847E+03  0.00000000000E+00 0.  1.
         -3    1    6    6    0  502  0.83976224669E+02 -0.44370990006E+02 -0.40348550427E+02  0.10319300647E+03  0.00000000000E+00 0.  1.
<mgrwt>
<rscale>  0 0.18362151E+04</rscale>
<asrwt>0</asrwt>
<pdfrwt beam="1">  1        1 0.36778202E+00 0.18362151E+04</pdfrwt>
<pdfrwt beam="2">  1       -1 0.54246271E-01 0.18362151E+04</pdfrwt>
<totfact> 0.52094685E+00</totfact>
</mgrwt>
</event>
<event>
12    1  0.1097093E-007  0.1135412E+04  0.7818608E-02  0.9171348E-01
          1   -1    0    0  501    0  0.00000000000E+00  0.00000000000E+00  0.56791659546E+03  0.56791659546E+03  0.00000000000E+00 0. -1.
         -1   -1    0    0    0  501 -0.00000000000E+00 -0.00000000000E+00 -0.56749590200E+03  0.56749590200E+03  0.00000000000E+00 0.  1.
         23    2    1    2    0    0  0.45330548276E+02  0.14252336750E+03  0.12402482663E+03  0.21459799668E+03  0.91117362051E+02 0.  0.
        254    2    1    2    0    0 -0.45330548276E+02 -0.14252336750E+03 -0.12360413316E+03  0.92081450078E+03  0.90014087466E+03 0.  0.
        -24    2    4    4    0    0 -0.36428655782E+03  0.13276580352E+03  0.13705516448E+03  0.41908449783E+03  0.80723252052E+02 0.  0.
         24    2    4    4    0    0  0.31895600955E+03 -0.27528917102E+03 -0.26065929764E+03  0.50173000295E+03  0.79200143370E+02 0.  0.
         11    1    3    3    0    0 -0.27321866154E+02  0.25465999401E+02  0.27315660678E+02  0.46272527637E+02  0.00000000000E+00 0.  1.
        -11    1    3    3    0    0  0.72652414431E+02  0.11705736809E+03  0.96709165954E+02  0.16832546904E+03  0.00000000000E+00 0. -1.
          2    1    6    6  502    0  0.25525794686E+03 -0.25716356664E+03 -0.21566665364E+03  0.42166553681E+03  0.00000000000E+00 0. -1.
          3    1    5    5  503    0 -0.24933310602E+03  0.12631517820E+03  0.11289330971E+03  0.30144223556E+03  0.00000000000E+00 0. -1.
         -4    1    5    5    0  503 -0.11495345180E+03  0.64506253236E+01  0.24161854767E+02  0.11764226228E+03  0.00000000000E+00 0.  1.
         -1    1    6    6    0  502  0.63698062683E+02 -0.18125604375E+02 -0.44992644003E+02  0.80064466138E+02  0.00000000000E+00 0.  1.
<mgrwt>
<rscale>  0 0.11354124E+04</rscale>
<asrwt>0</asrwt>
<pdfrwt beam="1">  1        1 0.87371784E-01 0.11354124E+04</pdfrwt>
<pdfrwt beam="2">  1       -1 0.87307062E-01 0.11354124E+04</pdfrwt>
<totfact> 0.47612722E+01</totfact>
</mgrwt>
</event>
<event>
12    1  0.1097093E-007  0.1748440E+04  0.7818608E-02  0.8734210E-01
         -2   -1    0    0    0  501 -0.00000000000E+00  0.00000000000E+00  0.22808366283E+03  0.22808366283E+03  0.00000000000E+00 0. -1.
          2   -1    0    0  501    0  0.00000000000E+00 -0.00000000000E+00 -0.33507901192E+04  0.33507901192E+04  0.00000000000E+00 0.  1.
         23    2    1    2    0    0 -0.42960846595E+02  0.63533488847E+03 -0.10160669228E+04  0.12019407437E+04  0.82301306280E+02 0.  0.
        254    2    1    2    0    0  0.42960846595E+02 -0.63533488847E+03 -0.21066395336E+04  0.23769330383E+04  0.89798913648E+03 0.  0.
        -24    2    4    4    0    0 -0.13661568466E+03  0.16536010181E+02  0.38468236536E+01  0.15916754033E+03  0.79888815942E+02 0.  0.
         24    2    4    4    0    0  0.17957653126E+03 -0.65187089865E+03 -0.21104863572E+04  0.22177654980E+04  0.84544312627E+02 0.  0.
         11    1    3    3    0    0 -0.19927175461E+01  0.28319022883E+03 -0.52150967968E+03  0.59344167585E+03  0.00000000000E+00 0. -1.
        -11    1    3    3    0    0 -0.40968129049E+02  0.35214465964E+03 -0.49455724307E+03  0.60849906786E+03  0.00000000000E+00 0.  1.
          4    1    6    6  502    0  0.95759865036E+02 -0.24305945427E+03 -0.71576746174E+03  0.76195203875E+03  0.00000000000E+00 0. -1.
          3    1    5    5  503    0 -0.24122852910E+02 -0.24464578633E+02 -0.15831646918E+02  0.37829468465E+02  0.00000000000E+00 0. -1.
         -4    1    5    5    0  503 -0.11249283175E+03  0.41000588814E+02  0.19678470571E+02  0.12133807186E+03  0.00000000000E+00 0.  1.
         -3    1    6    6    0  502  0.83816666224E+02 -0.40881144439E+03 -0.13947188955E+04  0.14558134592E+04  0.00000000000E+00 0.  1.
<mgrwt>
<rscale>  0 0.17484399E+04</rscale>
<asrwt>0</asrwt>
<pdfrwt beam="1">  1        2 0.51550618E+00 0.17484399E+04</pdfrwt>
<pdfrwt beam="2">  1       -2 0.35089793E-01 0.17484399E+04</pdfrwt>
<totfact> 0.74969987E+00</totfact>
</mgrwt>
</event>
<event>
12    1  0.1097093E-007  0.2731893E+04  0.7818608E-02  0.8324730E-01
          2   -1    0    0  501    0  0.00000000000E+00  0.00000000000E+00  0.14646680116E+04  0.14646680116E+04  0.00000000000E+00 0. -1.
         -2   -1    0    0    0  501 -0.00000000000E+00 -0.00000000000E+00 -0.12738793545E+04  0.12738793545E+04  0.00000000000E+00 0.  1.
         23    2    1    2    0    0  0.72895054510E+03  0.96605437682E+03  0.20936540665E+03  0.12315579317E+04  0.90945640619E+02 0.  0.
        254    2    1    2    0    0 -0.72895054510E+03 -0.96605437682E+03 -0.18576749501E+02  0.15069894344E+04  0.89779847601E+03 0.  0.
        -24    2    4    4    0    0 -0.84111630555E+03 -0.10316525001E+04 -0.94939594556E+02  0.13368143747E+04  0.79218845399E+02 0.  0.
         24    2    4    4    0    0  0.11216576045E+03  0.65598123251E+02  0.76362845055E+02  0.17017505966E+03  0.79018954914E+02 0.  0.
         13    1    3    3    0    0  0.68536182116E+03  0.92083807509E+03  0.21720824063E+03  0.11682649555E+04  0.00000000000E+00 0.  1.
        -13    1    3    3    0    0  0.43588723942E+02  0.45216301737E+02 -0.78428339784E+01  0.63292976249E+02  0.00000000000E+00 0. -1.
          4    1    6    6  502    0  0.11914712957E+03  0.63502688806E+02  0.51893090594E+02  0.14464274203E+03  0.00000000000E+00 0. -1.
          3    1    5    5  503    0 -0.60927391622E+03 -0.68955536882E+03 -0.62293195367E+02  0.92226989208E+03  0.00000000000E+00 0. -1.
         -4    1    5    5    0  503 -0.23184238933E+03 -0.34209713125E+03 -0.32646399189E+02  0.41454448263E+03  0.00000000000E+00 0.  1.
         -3    1    6    6    0  502 -0.69813691234E+01  0.20954344454E+01  0.24469754461E+02  0.25532317634E+02  0.00000000000E+00 0.  1.
<mgrwt>
<rscale>  0 0.27318934E+04</rscale>
<asrwt>0</asrwt>
<pdfrwt beam="1">  1        2 0.22533354E+00 0.27318934E+04</pdfrwt>
<pdfrwt beam="2">  1       -2 0.19598144E+00 0.27318934E+04</pdfrwt>
<totfact> 0.16445856E+00</totfact>
</mgrwt>
</event>
<event>
12    1  0.1097093E-007  0.3233215E+04  0.7818608E-02  0.8180100E-01
          1   -1    0    0  501    0  0.00000000000E+00  0.00000000000E+00  0.23241424055E+04  0.23241424055E+04  0.00000000000E+00 0. -1.
         -1   -1    0    0    0  501 -0.00000000000E+00 -0.00000000000E+00 -0.11244663827E+04  0.11244663827E+04  0.00000000000E+00 0.  1.
         23    2    1    2    0    0 -0.23195933791E+03 -0.47168334567E+03 -0.93076738219E+03  0.10749059902E+04  0.11315765544E+03 0.  0.
        254    2    1    2    0    0  0.23195933791E+03  0.47168334567E+03  0.21304434049E+04  0.23737027980E+04  0.90519918178E+03 0.  0.
        -24    2    4    4    0    0  0.16807153881E+03 -0.91736512240E+02  0.47014574569E+02  0.21313173176E+03  0.80939082173E+02 0.  0.
         24    2    4    4    0    0  0.63887799098E+02  0.56341985791E+03  0.20834288303E+04  0.21605710662E+04  0.76603224748E+02 0.  0.
         11    1    3    3    0    0 -0.18952619077E+03 -0.44217936999E+03 -0.87726427775E+03  0.10005175587E+04  0.00000000000E+00 0.  1.
        -11    1    3    3    0    0 -0.42433147139E+02 -0.29503975676E+02 -0.53503104442E+02  0.74388431506E+02  0.00000000000E+00 0. -1.
          2    1    6    6  502    0  0.33685341746E+02  0.22812522016E+03  0.71123718769E+03  0.74768586684E+03  0.00000000000E+00 0. -1.
          3    1    5    5  503    0  0.16421960769E+02 -0.20524824422E+02  0.36879252111E+02  0.45288281590E+02  0.00000000000E+00 0. -1.
         -4    1    5    5    0  503  0.15164957804E+03 -0.71211687819E+02  0.10135322457E+02  0.16784345017E+03  0.00000000000E+00 0.  1.
         -1    1    6    6    0  502  0.30202457352E+02  0.33529463775E+03  0.13721916426E+04  0.14128851994E+04  0.00000000000E+00 0.  1.
<mgrwt>
<rscale>  0 0.32332151E+04</rscale>
<asrwt>0</asrwt>
<pdfrwt beam="1">  1        1 0.35756037E+00 0.32332151E+04</pdfrwt>
<pdfrwt beam="2">  1       -1 0.17299483E+00 0.32332151E+04</pdfrwt>
<totfact> 0.34959998E-01</totfact>
</mgrwt>
</event>
<event>
12    1  0.1097093E-007  0.1840478E+04  0.7818608E-02  0.8685065E-01
          1   -1    0    0  501    0  0.00000000000E+00  0.00000000000E+00  0.52772396393E+03  0.52772396393E+03  0.00000000000E+00 0. -1.
         -1   -1    0    0    0  501 -0.00000000000E+00 -0.00000000000E+00 -0.16047019488E+04  0.16047019488E+04  0.00000000000E+00 0.  1.
         23    2    1    2    0    0 -0.18276708410E+03  0.43248904895E+03 -0.10013116588E+04  0.11096484410E+04  0.90796696270E+02 0.  0.
        254    2    1    2    0    0  0.18276708410E+03 -0.43248904895E+03 -0.75666326105E+02  0.10227774718E+04  0.90548207015E+03 0.  0.
        -24    2    4    4    0    0 -0.34898461671E+03 -0.28385281343E+03 -0.86607567797E+02  0.46514599570E+03  0.80605484476E+02 0.  0.
         24    2    4    4    0    0  0.53175170081E+03 -0.14863623552E+03  0.10941241692E+02  0.55763147607E+03  0.77334019152E+02 0.  0.
         13    1    3    3    0    0 -0.38428334762E+02  0.16442201862E+03 -0.28409462323E+03  0.33048614505E+03  0.00000000000E+00 0. -1.
        -13    1    3    3    0    0 -0.14433874934E+03  0.26806703033E+03 -0.71721703556E+03  0.77916229594E+03  0.00000000000E+00 0.  1.
          2    1    6    6  502    0  0.35780922971E+03 -0.13580099815E+03  0.17253988568E+02  0.38310188735E+03  0.00000000000E+00 0. -1.
          3    1    5    5  503    0 -0.21013746579E+03 -0.13753487084E+03 -0.16834869940E+02  0.25170818039E+03  0.00000000000E+00 0. -1.
         -4    1    5    5    0  503 -0.13884715091E+03 -0.14631794259E+03 -0.69772697857E+02  0.21343781532E+03  0.00000000000E+00 0.  1.
         -1    1    6    6    0  502  0.17394247109E+03 -0.12835237371E+02 -0.63127468761E+01  0.17452958873E+03  0.00000000000E+00 0.  1.
<mgrwt>
<rscale>  0 0.18404778E+04</rscale>
<asrwt>0</asrwt>
<pdfrwt beam="1">  1        1 0.81188304E-01 0.18404778E+04</pdfrwt>
<pdfrwt beam="2">  1       -1 0.24687722E+00 0.18404778E+04</pdfrwt>
<totfact> 0.28255073E+00</totfact>
</mgrwt>
</event>
<event>
12    1  0.1097093E-007  0.1080186E+04  0.7818608E-02  0.9224722E-01
         -3   -1    0    0    0  501 -0.00000000000E+00  0.00000000000E+00  0.69662379095E+03  0.69662379095E+03  0.00000000000E+00 0.  1.
          3   -1    0    0  501    0  0.00000000000E+00 -0.00000000000E+00 -0.41873470438E+03  0.41873470438E+03  0.00000000000E+00 0. -1.
         23    2    1    2    0    0 -0.11618640216E+03 -0.99725442192E+02  0.85568856021E+02  0.19712888820E+03  0.89962912213E+02 0.  0.
        254    2    1    2    0    0  0.11618640216E+03  0.99725442192E+02  0.19232023056E+03  0.91822960713E+03  0.88471130685E+03 0.  0.
        -24    2    4    4    0    0 -0.27239656355E+03 -0.18368163203E+03 -0.97674728435E+02  0.35204556048E+03  0.80354802561E+02 0.  0.
         24    2    4    4    0    0  0.38858296571E+03  0.28340707422E+03  0.28999495899E+03  0.56618404666E+03  0.71770519616E+02 0.  0.
         11    1    3    3    0    0 -0.10397334300E+03 -0.11680537976E+03  0.72230453054E+02  0.17225327615E+03  0.00000000000E+00 0.  1.
        -11    1    3    3    0    0 -0.12213059159E+02  0.17079937564E+02  0.13338402966E+02  0.24875612051E+02  0.00000000000E+00 0. -1.
          4    1    6    6  502    0  0.99235015370E+02  0.11206291038E+03  0.79937149309E+02  0.16969275765E+03  0.00000000000E+00 0. -1.
          1    1    5    5  503    0  0.53853482665E+01 -0.23434736529E+01 -0.47232891787E+01  0.75367967585E+01  0.00000000000E+00 0. -1.
         -2    1    5    5    0  503 -0.27778191182E+03 -0.18133815838E+03 -0.92951439257E+02  0.34450876372E+03  0.00000000000E+00 0.  1.
         -3    1    6    6    0  502  0.28934795034E+03  0.17134416384E+03  0.21005780968E+03  0.39649128901E+03  0.00000000000E+00 0.  1.
<mgrwt>
<rscale>  0 0.10801862E+04</rscale>
<asrwt>0</asrwt>
<pdfrwt beam="1">  1        3 0.64420724E-01 0.10801862E+04</pdfrwt>
<pdfrwt beam="2">  1       -3 0.10717289E+00 0.10801862E+04</pdfrwt>
<totfact> 0.45127232E+00</totfact>
</mgrwt>
</event>
<event>
12    1  0.1097093E-007  0.2217102E+04  0.7818608E-02  0.8511343E-01
         -2   -1    0    0    0  501 -0.00000000000E+00  0.00000000000E+00  0.32169705878E+03  0.32169705878E+03  0.00000000000E+00 0.  1.
          2   -1    0    0  501    0  0.00000000000E+00 -0.00000000000E+00 -0.38200077084E+04  0.38200077084E+04  0.00000000000E+00 0. -1.
         23    2    1    2    0    0 -0.55734457909E+03  0.74061610538E+03 -0.14585546923E+04  0.17306416877E+04  0.92702023858E+02 0.  0.
        254    2    1    2    0    0  0.55734457909E+03 -0.74061610538E+03 -0.20397559574E+04  0.24110630796E+04  0.89077248086E+03 0.  0.
        -24    2    4    4    0    0 -0.41472754172E+02 -0.27151202860E+03 -0.13547376882E+04  0.13845891718E+04  0.79587685943E+02 0.  0.
         24    2    4    4    0    0  0.59881733326E+03 -0.46910407678E+03 -0.68501826918E+03  0.10264739078E+04  0.75880305966E+02 0.  0.
         13    1    3    3    0    0 -0.93253550651E+02  0.17359572430E+03 -0.26746681759E+03  0.33222010582E+03  0.00000000000E+00 0. -1.
        -13    1    3    3    0    0 -0.46409102844E+03  0.56702038108E+03 -0.11910878747E+04  0.13984215818E+04  0.00000000000E+00 0.  1.
          4    1    6    6  502    0  0.17081569336E+03 -0.13662196742E+03 -0.15232800507E+03  0.26654715194E+03  0.00000000000E+00 0. -1.
          3    1    5    5  503    0  0.14270191841E+02 -0.63725159710E+02 -0.21398759305E+03  0.22373024904E+03  0.00000000000E+00 0. -1.
         -4    1    5    5    0  503 -0.55742946013E+02 -0.20778686889E+03 -0.11407500951E+04  0.11608589227E+04  0.00000000000E+00 0.  1.
         -3    1    6    6    0  502  0.42800163990E+03 -0.33248210936E+03 -0.53269026411E+03  0.75992675586E+03  0.00000000000E+00 0.  1.
<mgrwt>
<rscale>  0 0.22171019E+04</rscale>
<asrwt>0</asrwt>
<pdfrwt beam="1">  1        2 0.58769352E+00 0.22171019E+04</pdfrwt>
<pdfrwt beam="2">  1       -2 0.49491853E-01 0.22171019E+04</pdfrwt>
<totfact> 0.16814457E+00</totfact>
</mgrwt>
</event>
<event>
12    1  0.1097093E-007  0.1624492E+04  0.7818608E-02  0.8805641E-01
         -2   -1    0    0    0  501 -0.00000000000E+00  0.00000000000E+00  0.28286243268E+03  0.28286243268E+03  0.00000000000E+00 0.  1.
          2   -1    0    0  501    0  0.00000000000E+00 -0.00000000000E+00 -0.23323828618E+04  0.23323828618E+04  0.00000000000E+00 0. -1.
         23    2    1    2    0    0 -0.49148762575E+03  0.62540364616E+02 -0.29742560883E+03  0.58464967007E+03  0.88779842635E+02 0.  0.
        254    2    1    2    0    0  0.49148762575E+03 -0.62540364616E+02 -0.17520948203E+04  0.20305956244E+04  0.89889429140E+03 0.  0.
        -24    2    4    4    0    0  0.39549453940E+03 -0.30281607340E+03 -0.16756816252E+04  0.17495710181E+04  0.70543130679E+02 0.  0.
         24    2    4    4    0    0  0.95993086350E+02  0.24027570878E+03 -0.76413195128E+02  0.28102460636E+03  0.78668698539E+02 0.  0.
         11    1    3    3    0    0 -0.48595335255E+03  0.56955572313E+02 -0.30254869155E+03  0.57526542468E+03  0.00000000000E+00 0.  1.
        -11    1    3    3    0    0 -0.55342732037E+01  0.55847923034E+01  0.51230827292E+01  0.93842453940E+01  0.00000000000E+00 0. -1.
          2    1    6    6  502    0  0.85314736080E+01  0.10589375240E+03 -0.74883581232E+01  0.10650046172E+03  0.00000000000E+00 0. -1.
          1    1    5    5  503    0  0.39386271808E+03 -0.30648097816E+03 -0.16633136637E+04  0.17365686783E+04  0.00000000000E+00 0. -1.
         -2    1    5    5    0  503  0.16318213229E+01  0.36649047613E+01 -0.12367961483E+02  0.13002339750E+02  0.00000000000E+00 0.  1.
         -1    1    6    6    0  502  0.87461612742E+02  0.13438195638E+03 -0.68924837004E+02  0.17452414464E+03  0.00000000000E+00 0.  1.
<mgrwt>
<rscale>  0 0.16244919E+04</rscale>
<asrwt>0</asrwt>
<pdfrwt beam="1">  1        2 0.35882814E+00 0.16244919E+04</pdfrwt>
<pdfrwt beam="2">  1       -2 0.43517296E-01 0.16244919E+04</pdfrwt>
<totfact> 0.20850694E+01</totfact>
</mgrwt>
</event>
<event>
12    1  0.1097093E-007  0.2307409E+04  0.7818608E-02  0.8475006E-01
         -2   -1    0    0    0  501 -0.00000000000E+00  0.00000000000E+00  0.50874429781E+03  0.50874429781E+03  0.00000000000E+00 0. -1.
          2   -1    0    0  501    0  0.00000000000E+00 -0.00000000000E+00 -0.26163128878E+04  0.26163128878E+04  0.00000000000E+00 0.  1.
         23    2    1    2    0    0 -0.87011212133E+03 -0.14645843032E+03 -0.32726039650E+03  0.94549930409E+03  0.91238102957E+02 0.  0.
        254    2    1    2    0    0  0.87011212133E+03  0.14645843032E+03 -0.17803081934E+04  0.21795578815E+04  0.89578463905E+03 0.  0.
        -24    2    4    4    0    0  0.17763538052E+03  0.41426593939E+03 -0.39035256926E+03  0.60168034367E+03  0.80458129987E+02 0.  0.
         24    2    4    4    0    0  0.69247674080E+03 -0.26780750907E+03 -0.13899556242E+04  0.15778775378E+04  0.80473527465E+02 0.  0.
         13    1    3    3    0    0 -0.96488400003E+02 -0.66321777428E+01 -0.65903710069E+02  0.11703544812E+03  0.00000000000E+00 0.  1.
        -13    1    3    3    0    0 -0.77362372133E+03 -0.13982625258E+03 -0.26135668643E+03  0.82846385597E+03  0.00000000000E+00 0. -1.
          2    1    6    6  502    0  0.15428420671E+03 -0.90955086302E+02 -0.37330880877E+03  0.41404819873E+03  0.00000000000E+00 0. -1.
          1    1    5    5  503    0  0.20322790379E+02  0.59293571898E+02 -0.21847925281E+02  0.66378274429E+02  0.00000000000E+00 0. -1.
         -2    1    5    5    0  503  0.15731259014E+03  0.35497236750E+03 -0.36850464398E+03  0.53530206924E+03  0.00000000000E+00 0.  1.
         -3    1    6    6    0  502  0.53819253409E+03 -0.17685242277E+03 -0.10166468154E+04  0.11638293391E+04  0.00000000000E+00 0.  1.
<mgrwt>
<rscale>  0 0.23074092E+04</rscale>
<asrwt>0</asrwt>
<pdfrwt beam="1">  1        2 0.40250968E+00 0.23074092E+04</pdfrwt>
<pdfrwt beam="2">  1       -2 0.78268353E-01 0.23074092E+04</pdfrwt>
<totfact> 0.39162952E+00</totfact>
</mgrwt>
</event>
<event>
12    1  0.1097093E-007  0.1727112E+04  0.7818608E-02  0.8746051E-01
          2   -1    0    0  501    0  0.00000000000E+00  0.00000000000E+00  0.13345122269E+04  0.13345122269E+04  0.00000000000E+00 0.  1.
         -2   -1    0    0    0  501 -0.00000000000E+00 -0.00000000000E+00 -0.55880286823E+03  0.55880286823E+03  0.00000000000E+00 0. -1.
         23    2    1    2    0    0  0.57194470011E+03 -0.23111953460E+03  0.39807468393E+03  0.73980664920E+03  0.91178094744E+02 0.  0.
        254    2    1    2    0    0 -0.57194470011E+03  0.23111953460E+03  0.37763467472E+03  0.11535084459E+04  0.89857487610E+03 0.  0.
        -24    2    4    4    0    0  0.15541745235E+03  0.72305476179E+02  0.35810441475E+03  0.40490225417E+03  0.79526078656E+02 0.  0.
         24    2    4    4    0    0 -0.72736215246E+03  0.15881405842E+03  0.19530259965E+02  0.74860619173E+03  0.75843214982E+02 0.  0.
         11    1    3    3    0    0  0.43075652951E+02 -0.25319288171E+01  0.52514817966E+02  0.67968585734E+02  0.00000000000E+00 0. -1.
        -11    1    3    3    0    0  0.52886904716E+03 -0.22858760579E+03  0.34555986597E+03  0.67183806347E+03  0.00000000000E+00 0.  1.
          2    1    6    6  502    0 -0.99692732041E+02 -0.44161210383E+01  0.41646898138E+01  0.99877362740E+02  0.00000000000E+00 0. -1.
          3    1    5    5  503    0  0.41400117073E+02  0.55043988873E+02  0.92337713054E+02  0.11519576232E+03  0.00000000000E+00 0. -1.
         -4    1    5    5    0  503  0.11401733528E+03  0.17261487306E+02  0.26576670170E+03  0.28970649185E+03  0.00000000000E+00 0.  1.
         -1    1    6    6    0  502 -0.62766942042E+03  0.16323017946E+03  0.15365570151E+02  0.64872882899E+03  0.00000000000E+00 0.  1.
<mgrwt>
<rscale>  0 0.17271123E+04</rscale>
<asrwt>0</asrwt>
<pdfrwt beam="1">  1        2 0.20530957E+00 0.17271123E+04</pdfrwt>
<pdfrwt beam="2">  1       -2 0.85969672E-01 0.17271123E+04</pdfrwt>
<totfact> 0.17599000E+01</totfact>
</mgrwt>
</event>
<event>
12    1  0.1097093E-007  0.2926155E+04  0.7818608E-02  0.8265138E-01
          2   -1    0    0  501    0  0.00000000000E+00  0.00000000000E+00  0.25099934718E+04  0.25099934718E+04  0.00000000000E+00 0. -1.
         -2   -1    0    0    0  501 -0.00000000000E+00 -0.00000000000E+00 -0.85282902775E+03  0.85282902775E+03  0.00000000000E+00 0.  1.
         23    2    1    2    0    0 -0.56279300937E+03  0.19064281474E+03  0.21158659714E+04  0.21996001256E+04  0.90946409036E+02 0.  0.
        254    2    1    2    0    0  0.56279300937E+03 -0.19064281474E+03 -0.45870152735E+03  0.11632223740E+04  0.88859357747E+03 0.  0.
        -24    2    4    4    0    0  0.35391134572E+03 -0.38337469170E+01  0.22103843224E+03  0.42374749780E+03  0.73729336880E+02 0.  0.
         24    2    4    4    0    0  0.20888166365E+03 -0.18680906782E+03 -0.67973995959E+03  0.73947487618E+03  0.79041145055E+02 0.  0.
         11    1    3    3    0    0 -0.19924574240E+03  0.29864625776E+02  0.80182478886E+03  0.82674890611E+03  0.00000000000E+00 0.  1.
        -11    1    3    3    0    0 -0.36354726697E+03  0.16077818896E+03  0.13140411826E+04  0.13728512195E+04  0.00000000000E+00 0. -1.
          4    1    6    6  502    0 -0.27550186252E+01  0.45043998753E+01 -0.72183455653E+01  0.89433918936E+01  0.00000000000E+00 0. -1.
          1    1    5    5  503    0  0.60314074826E+02 -0.30565321909E+00  0.76921608641E+01  0.60803374781E+02  0.00000000000E+00 0. -1.
         -2    1    5    5    0  503  0.29359727090E+03 -0.35280936979E+01  0.21334627137E+03  0.36294412301E+03  0.00000000000E+00 0.  1.
         -3    1    6    6    0  502  0.21163668227E+03 -0.19131346769E+03 -0.67252161402E+03  0.73053148428E+03  0.00000000000E+00 0.  1.
<mgrwt>
<rscale>  0 0.29261547E+04</rscale>
<asrwt>0</asrwt>
<pdfrwt beam="1">  1        2 0.38615284E+00 0.29261547E+04</pdfrwt>
<pdfrwt beam="2">  1       -2 0.13120447E+00 0.29261547E+04</pdfrwt>
<totfact> 0.12547572E+00</totfact>
</mgrwt>
</event>
<event>
12    1  0.1097093E-007  0.1227246E+04  0.7818608E-02  0.9089337E-01
          1   -1    0    0  501    0  0.00000000000E+00  0.00000000000E+00  0.58158221298E+03  0.58158221298E+03  0.00000000000E+00 0. -1.
         -1   -1    0    0    0  501 -0.00000000000E+00 -0.00000000000E+00 -0.64742931897E+03  0.64742931897E+03  0.00000000000E+00 0.  1.
         23    2    1    2    0    0 -0.14618275642E+03 -0.95412105475E+02 -0.21229281082E+03  0.29423676049E+03  0.10504363642E+03 0.  0.
        254    2    1    2    0    0  0.14618275642E+03  0.95412105475E+02  0.14644570483E+03  0.93477477145E+03  0.90657854637E+03 0.  0.
        -24    2    4    4    0    0 -0.49514765667E+02 -0.38212084460E+03  0.30598659476E+01  0.39321440738E+03  0.78359144297E+02 0.  0.
         24    2    4    4    0    0  0.19569752209E+03  0.47753295008E+03  0.14338583888E+03  0.54156036407E+03  0.79955553763E+02 0.  0.
         11    1    3    3    0    0 -0.88780431550E+02 -0.78839465299E+02 -0.20097435836E+03  0.23342733138E+03  0.00000000000E+00 0.  1.
        -11    1    3    3    0    0 -0.57402324872E+02 -0.16572640175E+02 -0.11318452459E+02  0.60809429114E+02  0.00000000000E+00 0. -1.
          4    1    6    6  502    0  0.42285749353E+02  0.48856255701E+02  0.13842632572E+01  0.64629207826E+02  0.00000000000E+00 0. -1.
          1    1    5    5  503    0  0.14624122620E+02 -0.16963645582E+02 -0.13925250626E+01  0.22440351153E+02  0.00000000000E+00 0. -1.
         -2    1    5    5    0  503 -0.64138888287E+02 -0.36515719902E+03  0.44523910102E+01  0.37077405623E+03  0.00000000000E+00 0.  1.
         -3    1    6    6    0  502  0.15341177274E+03  0.42867669438E+03  0.14200157563E+03  0.47693115624E+03  0.00000000000E+00 0.  1.
<mgrwt>
<rscale>  0 0.12272463E+04</rscale>
<asrwt>0</asrwt>
<pdfrwt beam="1">  1        1 0.89474187E-01 0.12272463E+04</pdfrwt>
<pdfrwt beam="2">  1       -1 0.99604510E-01 0.12272463E+04</pdfrwt>
<totfact> 0.34053194E+01</totfact>
</mgrwt>
</event>
<event>
12    1  0.1097093E-007  0.1692056E+04  0.7818608E-02  0.8765908E-01
          2   -1    0    0  501    0  0.00000000000E+00  0.00000000000E+00  0.18209798736E+04  0.18209798736E+04  0.00000000000E+00 0.  1.
         -2   -1    0    0    0  501 -0.00000000000E+00 -0.00000000000E+00 -0.39306504816E+03  0.39306504816E+03  0.00000000000E+00 0. -1.
         23    2    1    2    0    0  0.77730243554E+02 -0.59186498023E+03  0.57808233779E+03  0.83588805271E+03  0.90462709526E+02 0.  0.
        254    2    1    2    0    0 -0.77730243554E+02  0.59186498023E+03  0.84983248769E+03  0.13781568691E+04  0.90595527103E+03 0.  0.
        -24    2    4    4    0    0  0.92477417170E+02 -0.80185932649E+01 -0.15219445524E+03  0.19541426834E+03  0.80045071926E+02 0.  0.
         24    2    4    4    0    0 -0.17020766072E+03  0.59988357350E+03  0.10020269429E+04  0.11827426008E+04  0.77402298110E+02 0.  0.
         13    1    3    3    0    0  0.24351078141E+02 -0.22279076190E+03  0.15828742289E+03  0.27437858306E+03  0.00000000000E+00 0.  1.
        -13    1    3    3    0    0  0.53379165413E+02 -0.36907421833E+03  0.41979491490E+03  0.56150946966E+03  0.00000000000E+00 0. -1.
          2    1    6    6  502    0 -0.17543881152E+03  0.58210400992E+03  0.95391150723E+03  0.11311812492E+04  0.00000000000E+00 0. -1.
          3    1    5    5  503    0  0.54791702770E+02 -0.11297506002E+02 -0.14693178324E+03  0.15722185999E+03  0.00000000000E+00 0. -1.
         -4    1    5    5    0  503  0.37685714400E+02  0.32789127372E+01 -0.52626720036E+01  0.38192408345E+02  0.00000000000E+00 0.  1.
         -1    1    6    6    0  502  0.52311507913E+01  0.17779563580E+02  0.48115435703E+02  0.51561351540E+02  0.00000000000E+00 0.  1.
<mgrwt>
<rscale>  0 0.16920562E+04</rscale>
<asrwt>0</asrwt>
<pdfrwt beam="1">  1        2 0.28015075E+00 0.16920562E+04</pdfrwt>
<pdfrwt beam="2">  1       -2 0.60471547E-01 0.16920562E+04</pdfrwt>
<totfact> 0.20373165E+01</totfact>
</mgrwt>
</event>
<event>
12    1  0.1097093E-007  0.1515860E+04  0.7818608E-02  0.8873974E-01
          2   -1    0    0  501    0  0.00000000000E+00  0.00000000000E+00  0.38478541296E+04  0.38478541296E+04  0.00000000000E+00 0. -1.
         -2   -1    0    0    0  501 -0.00000000000E+00 -0.00000000000E+00 -0.14929304130E+03  0.14929304130E+03  0.00000000000E+00 0.  1.
         23    2    1    2    0    0  0.10392005379E+03 -0.16267943624E+02  0.24576573073E+04  0.24616473544E+04  0.92543145368E+02 0.  0.
        254    2    1    2    0    0 -0.10392005379E+03  0.16267943624E+02  0.12409037810E+04  0.15354998165E+04  0.89825022639E+03 0.  0.
        -24    2    4    4    0    0 -0.36630306281E+02  0.43533729001E+03  0.44012462909E+03  0.62564728143E+03  0.82852255379E+02 0.  0.
         24    2    4    4    0    0 -0.67289747508E+02 -0.41906934639E+03  0.80077915193E+03  0.90985253508E+03  0.80233149212E+02 0.  0.
         13    1    3    3    0    0 -0.12456771093E+02  0.10464165582E+02  0.14506932191E+03  0.14597869046E+03  0.00000000000E+00 0.  1.
        -13    1    3    3    0    0  0.11637682488E+03 -0.26732109205E+02  0.23125879854E+04  0.23156686639E+04  0.00000000000E+00 0. -1.
          2    1    6    6  502    0 -0.25516001129E+02 -0.30716003558E+03  0.63111459812E+03  0.70235602776E+03  0.00000000000E+00 0. -1.
          1    1    5    5  503    0 -0.49931598721E+02  0.37641739188E+03  0.40752211666E+03  0.55700762385E+03  0.00000000000E+00 0. -1.
         -2    1    5    5    0  503  0.13301292439E+02  0.58919898131E+02  0.32602512428E+02  0.68639657582E+02  0.00000000000E+00 0.  1.
         -1    1    6    6    0  502 -0.41773746379E+02 -0.11190931081E+03  0.16966455381E+03  0.20749650732E+03  0.00000000000E+00 0.  1.
<mgrwt>
<rscale>  0 0.15158599E+04</rscale>
<asrwt>0</asrwt>
<pdfrwt beam="1">  1        2 0.59197748E+00 0.15158599E+04</pdfrwt>
<pdfrwt beam="2">  1       -2 0.22968163E-01 0.15158599E+04</pdfrwt>
<totfact> 0.74285069E+00</totfact>
</mgrwt>
</event>
<event>
12    1  0.1097093E-007  0.1276386E+04  0.7818608E-02  0.9048504E-01
          1   -1    0    0  501    0  0.00000000000E+00  0.00000000000E+00  0.59152136329E+03  0.59152136329E+03  0.00000000000E+00 0. -1.
         -1   -1    0    0    0  501 -0.00000000000E+00 -0.00000000000E+00 -0.68854710337E+03  0.68854710337E+03  0.00000000000E+00 0.  1.
         23    2    1    2    0    0 -0.17546720144E+02  0.27574878732E+03  0.12401256875E+03  0.31634353507E+03  0.91371953449E+02 0.  0.
        254    2    1    2    0    0  0.17546720144E+02 -0.27574878732E+03 -0.22103830883E+03  0.96372493159E+03  0.89641649287E+03 0.  0.
        -24    2    4    4    0    0  0.19699194059E+02  0.23968516874E+01  0.33073352543E+03  0.34074365027E+03  0.79547264010E+02 0.  0.
         24    2    4    4    0    0 -0.21524739151E+01 -0.27814563901E+03 -0.55177183426E+03  0.62298128132E+03  0.79270991858E+02 0.  0.
         11    1    3    3    0    0 -0.17938347699E+02  0.25358023608E+03  0.79066003880E+02  0.26622575649E+03  0.00000000000E+00 0. -1.
        -11    1    3    3    0    0  0.39162755465E+00  0.22168551237E+02  0.44946564871E+02  0.50117778580E+02  0.00000000000E+00 0.  1.
          2    1    6    6  502    0  0.28636145973E+02 -0.22334629739E+03 -0.40662999200E+03  0.46481345484E+03  0.00000000000E+00 0. -1.
          1    1    5    5  503    0 -0.11315911102E+02 -0.13765500476E+02  0.27054899761E+03  0.27113520420E+03  0.00000000000E+00 0. -1.
         -2    1    5    5    0  503  0.31015105161E+02  0.16162352164E+02  0.60184527812E+02  0.69608446065E+02  0.00000000000E+00 0.  1.
         -1    1    6    6    0  502 -0.30788619888E+02 -0.54799341619E+02 -0.14514184226E+03  0.15816782648E+03  0.00000000000E+00 0.  1.
<mgrwt>
<rscale>  0 0.12763860E+04</rscale>
<asrwt>0</asrwt>
<pdfrwt beam="1">  1        1 0.91003287E-01 0.12763860E+04</pdfrwt>
<pdfrwt beam="2">  1       -1 0.10593032E+00 0.12763860E+04</pdfrwt>
<totfact> 0.28712044E+01</totfact>
</mgrwt>
</event>
<event>
12    1  0.1097093E-007  0.2700967E+04  0.7818608E-02  0.8334691E-01
          2   -1    0    0  501    0  0.00000000000E+00  0.00000000000E+00  0.43164655310E+04  0.43164655310E+04  0.00000000000E+00 0. -1.
         -2   -1    0    0    0  501 -0.00000000000E+00 -0.00000000000E+00 -0.42252286480E+03  0.42252286480E+03  0.00000000000E+00 0.  1.
         23    2    1    2    0    0 -0.19126227470E+03 -0.91496151590E+02 -0.33712892274E+03  0.40860152679E+03  0.91359146607E+02 0.  0.
        254    2    1    2    0    0  0.19126227470E+03  0.91496151590E+02  0.42310715889E+04  0.43303868690E+04  0.89740227384E+03 0.  0.
        -24    2    4    4    0    0  0.17715206138E+02  0.10660220642E+03  0.46542176376E+02  0.14147949324E+03  0.78564711430E+02 0.  0.
         24    2    4    4    0    0  0.17354706856E+03 -0.15106054833E+02  0.41845294126E+04  0.41889073758E+04  0.79446965419E+02 0.  0.
         13    1    3    3    0    0 -0.47000002201E+02 -0.50409040804E+02 -0.17316563116E+03  0.18637705711E+03  0.00000000000E+00 0.  1.
        -13    1    3    3    0    0 -0.14426227250E+03 -0.41087110786E+02 -0.16396329158E+03  0.22222446968E+03  0.00000000000E+00 0. -1.
          2    1    6    6  502    0  0.14075823275E+03 -0.44128803561E+02  0.31522821149E+04  0.31557317318E+04  0.00000000000E+00 0. -1.
          3    1    5    5  503    0  0.21066743925E+02  0.93593861750E+02  0.30758875225E+01  0.95984789113E+02  0.00000000000E+00 0. -1.
         -4    1    5    5    0  503 -0.33515377871E+01  0.13008344673E+02  0.43466288854E+02  0.45494704125E+02  0.00000000000E+00 0.  1.
         -1    1    6    6    0  502  0.32788835810E+02  0.29022748728E+02  0.10322472976E+04  0.10331756439E+04  0.00000000000E+00 0.  1.
<mgrwt>
<rscale>  0 0.27009668E+04</rscale>
<asrwt>0</asrwt>
<pdfrwt beam="1">  1        2 0.66407159E+00 0.27009668E+04</pdfrwt>
<pdfrwt beam="2">  1       -2 0.65003521E-01 0.27009668E+04</pdfrwt>
<totfact> 0.35176411E-01</totfact>
</mgrwt>
</event>
<event>
12    1  0.1097093E-007  0.4451068E+04  0.7818608E-02  0.7919260E-01
          2   -1    0    0  501    0  0.00000000000E+00  0.00000000000E+00  0.39626343190E+04  0.39626343190E+04  0.00000000000E+00 0. -1.
         -2   -1    0    0    0  501 -0.00000000000E+00 -0.00000000000E+00 -0.12499262545E+04  0.12499262545E+04  0.00000000000E+00 0.  1.
         23    2    1    2    0    0 -0.84207979039E+03  0.17400096100E+04  0.23600284576E+04  0.30520784717E+04  0.93364129476E+02 0.  0.
        254    2    1    2    0    0  0.84207979039E+03 -0.17400096100E+04  0.35267960693E+03  0.21604821018E+04  0.89809141566E+03 0.  0.
        -24    2    4    4    0    0  0.55363813015E+03 -0.16518843204E+04  0.50142083731E+03  0.18147788822E+04  0.82234714458E+02 0.  0.
         24    2    4    4    0    0  0.28844166024E+03 -0.88125289663E+02 -0.14874123038E+03  0.34570321962E+03  0.80138033419E+02 0.  0.
         13    1    3    3    0    0 -0.58867832691E+02  0.11077632492E+03  0.19105256187E+03  0.22855611408E+03  0.00000000000E+00 0.  1.
        -13    1    3    3    0    0 -0.78321195770E+03  0.16292332851E+04  0.21689758957E+04  0.28235223576E+04  0.00000000000E+00 0. -1.
          2    1    6    6  502    0  0.22092848811E+03 -0.48540988422E+02 -0.14216846019E+03  0.26716567049E+03  0.00000000000E+00 0. -1.
          3    1    5    5  503    0  0.55549786216E+03 -0.16287433498E+04  0.49314969167E+03  0.17901339036E+04  0.00000000000E+00 0. -1.
         -4    1    5    5    0  503 -0.18597320098E+01 -0.23140970582E+02  0.82711456422E+01  0.24644978654E+02  0.00000000000E+00 0.  1.
         -1    1    6    6    0  502  0.67513172130E+02 -0.39584301241E+02 -0.65727701977E+01  0.78537549134E+02  0.00000000000E+00 0.  1.
<mgrwt>
<rscale>  0 0.44510676E+04</rscale>
<asrwt>0</asrwt>
<pdfrwt beam="1">  1        2 0.60963604E+00 0.44510676E+04</pdfrwt>
<pdfrwt beam="2">  1       -2 0.19229635E+00 0.44510676E+04</pdfrwt>
<totfact> 0.41564479E-02</totfact>
</mgrwt>
</event>
<event>
12    1  0.1097093E-007  0.2619547E+04  0.7818608E-02  0.8361592E-01
          2   -1    0    0  501    0  0.00000000000E+00  0.00000000000E+00  0.18023224517E+04  0.18023224517E+04  0.00000000000E+00 0. -1.
         -2   -1    0    0    0  501 -0.00000000000E+00 -0.00000000000E+00 -0.95183078836E+03  0.95183078836E+03  0.00000000000E+00 0.  1.
         23    2    1    2    0    0  0.42474206442E+03 -0.95132319325E+03  0.89098383792E+03  0.13752314863E+04  0.10948882155E+03 0.  0.
        254    2    1    2    0    0 -0.42474206442E+03  0.95132319325E+03 -0.40492174579E+02  0.13789217538E+04  0.90242115867E+03 0.  0.
        -24    2    4    4    0    0  0.26270782329E+02  0.78658204476E+03  0.22750466729E+03  0.82336739409E+03  0.82304464481E+02 0.  0.
         24    2    4    4    0    0 -0.45101284675E+03  0.16474114850E+03 -0.26799684187E+03  0.55555435972E+03  0.79158735513E+02 0.  0.
         11    1    3    3    0    0  0.77038811415E+02 -0.16548438127E+03  0.21397360219E+03  0.28125568678E+03  0.00000000000E+00 0.  1.
        -11    1    3    3    0    0  0.34770325300E+03 -0.78583881198E+03  0.67701023573E+03  0.10939757995E+04  0.00000000000E+00 0. -1.
          2    1    6    6  502    0 -0.18785514422E+03  0.28969678788E+02 -0.11643114969E+03  0.22290134615E+03  0.00000000000E+00 0. -1.
          3    1    5    5  503    0 -0.19600267784E+01  0.50846719480E+02 -0.53050767879E+01  0.51160281729E+02  0.00000000000E+00 0. -1.
         -4    1    5    5    0  503  0.28230809107E+02  0.73573532528E+03  0.23280974408E+03  0.77220711236E+03  0.00000000000E+00 0.  1.
         -1    1    6    6    0  502 -0.26315770253E+03  0.13577146971E+03 -0.15156569219E+03  0.33265301357E+03  0.00000000000E+00 0.  1.
<mgrwt>
<rscale>  0 0.26195465E+04</rscale>
<asrwt>0</asrwt>
<pdfrwt beam="1">  1        2 0.27728038E+00 0.26195465E+04</pdfrwt>
<pdfrwt beam="2">  1       -2 0.14643551E+00 0.26195465E+04</pdfrwt>
<totfact> 0.24262449E+00</totfact>
</mgrwt>
</event>
<event>
12    1  0.1097093E-007  0.1817785E+04  0.7818608E-02  0.8696899E-01
          2   -1    0    0  501    0  0.00000000000E+00  0.00000000000E+00  0.12317670083E+04  0.12317670083E+04  0.00000000000E+00 0. -1.
         -2   -1    0    0    0  501 -0.00000000000E+00 -0.00000000000E+00 -0.67065052406E+03  0.67065052406E+03  0.00000000000E+00 0.  1.
         23    2    1    2    0    0 -0.32615082287E+03 -0.43764346902E+03 -0.21948033619E+03  0.59550500782E+03  0.92457726139E+02 0.  0.
        254    2    1    2    0    0  0.32615082287E+03  0.43764346902E+03  0.78059682042E+03  0.13069125245E+04  0.89486467439E+03 0.  0.
        -24    2    4    4    0    0  0.63083122665E+03  0.31006074478E+03  0.54606741207E+03  0.89370998421E+03  0.80263412467E+02 0.  0.
         24    2    4    4    0    0 -0.30468040378E+03  0.12758272425E+03  0.23452940835E+03  0.41320254032E+03  0.81392849621E+02 0.  0.
         13    1    3    3    0    0 -0.15228200620E+03 -0.15412814934E+03 -0.50588924912E+02  0.22249614638E+03  0.00000000000E+00 0.  1.
        -13    1    3    3    0    0 -0.17386881667E+03 -0.28351531968E+03 -0.16889141128E+03  0.37300886143E+03  0.00000000000E+00 0. -1.
          2    1    6    6  502    0 -0.96449431692E+02  0.37206699489E+01  0.84073849548E+02  0.12800292355E+03  0.00000000000E+00 0. -1.
          1    1    5    5  503    0  0.17525238297E+03  0.80088937474E+02  0.10644461657E+03  0.22013198777E+03  0.00000000000E+00 0. -1.
         -2    1    5    5    0  503  0.45557884368E+03  0.22997180730E+03  0.43962279551E+03  0.67357799644E+03  0.00000000000E+00 0.  1.
         -1    1    6    6    0  502 -0.20823097209E+03  0.12386205430E+03  0.15045555880E+03  0.28519961677E+03  0.00000000000E+00 0.  1.
<mgrwt>
<rscale>  0 0.18177846E+04</rscale>
<asrwt>0</asrwt>
<pdfrwt beam="1">  1        2 0.18950262E+00 0.18177846E+04</pdfrwt>
<pdfrwt beam="2">  1       -2 0.10317700E+00 0.18177846E+04</pdfrwt>
<totfact> 0.13107205E+01</totfact>
</mgrwt>
</event>
<event>
12    1  0.1097093E-007  0.2369298E+04  0.7818608E-02  0.8451088E-01
         -2   -1    0    0    0  501 -0.00000000000E+00  0.00000000000E+00  0.35229502323E+04  0.35229502323E+04  0.00000000000E+00 0.  1.
          2   -1    0    0  501    0  0.00000000000E+00 -0.00000000000E+00 -0.39835733885E+03  0.39835733885E+03  0.00000000000E+00 0. -1.
         23    2    1    2    0    0  0.48023723198E+03  0.86456018823E+03  0.16680632674E+04  0.19414105506E+04  0.92454009003E+02 0.  0.
        254    2    1    2    0    0 -0.48023723198E+03 -0.86456018823E+03  0.14565296260E+04  0.19798970205E+04  0.90577124178E+03 0.  0.
        -24    2    4    4    0    0 -0.43755320628E+03 -0.19268379314E+03  0.11244988787E+04  0.12247590835E+04  0.83410023778E+02 0.  0.
         24    2    4    4    0    0 -0.42684025705E+02 -0.67187639509E+03  0.33203074729E+03  0.75513793698E+03  0.82152726024E+02 0.  0.
         11    1    3    3    0    0  0.68618455333E+02  0.19439928118E+03  0.31823052134E+03  0.37917045989E+03  0.00000000000E+00 0.  1.
        -11    1    3    3    0    0  0.41161877665E+03  0.67016090705E+03  0.13498327461E+04  0.15622400907E+04  0.00000000000E+00 0. -1.
          2    1    6    6  502    0 -0.16214051144E+02 -0.12827146541E+03  0.30106211848E+02  0.13275107639E+03  0.00000000000E+00 0. -1.
          3    1    5    5  503    0 -0.22893333836E+03 -0.14256589689E+03  0.66638471398E+03  0.71889087864E+03  0.00000000000E+00 0. -1.
         -4    1    5    5    0  503 -0.20861986791E+03 -0.50117896247E+02  0.45811416470E+03  0.50586820488E+03  0.00000000000E+00 0.  1.
         -1    1    6    6    0  502 -0.26469974561E+02 -0.54360492968E+03  0.30192453544E+03  0.62238686059E+03  0.00000000000E+00 0.  1.
<mgrwt>
<rscale>  0 0.23692979E+04</rscale>
<asrwt>0</asrwt>
<pdfrwt beam="1">  1        2 0.61285747E-01 0.23692979E+04</pdfrwt>
<pdfrwt beam="2">  1       -2 0.54199232E+00 0.23692979E+04</pdfrwt>
<totfact> 0.67037909E-02</totfact>
</mgrwt>
</event>
<event>
12    1  0.1097093E-007  0.1895351E+04  0.7818608E-02  0.8657174E-01
         -2   -1    0    0    0  501 -0.00000000000E+00  0.00000000000E+00  0.42877195284E+03  0.42877195284E+03  0.00000000000E+00 0. -1.
          2   -1    0    0  501    0  0.00000000000E+00 -0.00000000000E+00 -0.20945596441E+04  0.20945596441E+04  0.00000000000E+00 0.  1.
         23    2    1    2    0    0 -0.35793044904E+03 -0.14832193881E+03 -0.14557963305E+04  0.15092408922E+04  0.91386600619E+02 0.  0.
        254    2    1    2    0    0  0.35793044904E+03  0.14832193881E+03 -0.20999136072E+03  0.10140907047E+04  0.91332906555E+03 0.  0.
        -24    2    4    4    0    0  0.32366126521E+02  0.72153917111E+02 -0.53228502362E+03  0.54290518911E+03  0.71867545503E+02 0.  0.
         24    2    4    4    0    0  0.32556432252E+03  0.76168021703E+02  0.32229366290E+03  0.47118551563E+03  0.79679918169E+02 0.  0.
         11    1    3    3    0    0  0.11669413619E+00 -0.15616549468E+02 -0.75637506357E+02  0.77232911396E+02  0.00000000000E+00 0. -1.
        -11    1    3    3    0    0 -0.35804714318E+03 -0.13270538935E+03 -0.13801588242E+04  0.14320079808E+04  0.00000000000E+00 0.  1.
          4    1    6    6  502    0  0.20789890409E+03  0.45684754322E+02  0.25529976863E+03  0.33239588289E+03  0.00000000000E+00 0. -1.
          3    1    5    5  503    0  0.16269096380E+02  0.83134561338E+02 -0.37686210760E+03  0.38626556530E+03  0.00000000000E+00 0. -1.
         -4    1    5    5    0  503  0.16097030141E+02 -0.10980644226E+02 -0.15542291601E+03  0.15663962382E+03  0.00000000000E+00 0.  1.
         -3    1    6    6    0  502  0.11766541843E+03  0.30483267380E+02  0.66993894267E+02  0.13878963273E+03  0.00000000000E+00 0.  1.
<mgrwt>
<rscale>  0 0.18953506E+04</rscale>
<asrwt>0</asrwt>
<pdfrwt beam="1">  1        2 0.32223994E+00 0.18953506E+04</pdfrwt>
<pdfrwt beam="2">  1       -2 0.65964917E-01 0.18953506E+04</pdfrwt>
<totfact> 0.11724774E+01</totfact>
</mgrwt>
</event>
<event>
12    1  0.1097093E-007  0.1537030E+04  0.7818608E-02  0.8860195E-01
          1   -1    0    0  501    0  0.00000000000E+00  0.00000000000E+00  0.38073578841E+04  0.38073578841E+04  0.00000000000E+00 0. -1.
         -1   -1    0    0    0  501 -0.00000000000E+00 -0.00000000000E+00 -0.15512478769E+03  0.15512478769E+03  0.00000000000E+00 0.  1.
         23    2    1    2    0    0 -0.20256594737E+03  0.58207055071E+02  0.41656677951E+02  0.23420467367E+03  0.93249804610E+02 0.  0.
        254    2    1    2    0    0  0.20256594737E+03 -0.58207055071E+02  0.36105764185E+04  0.37282779981E+04  0.90519264986E+03 0.  0.
        -24    2    4    4    0    0  0.21563001716E+03 -0.14799121036E+03  0.35966348977E+04  0.36070322812E+04  0.80632420705E+02 0.  0.
         24    2    4    4    0    0 -0.13064069789E+02  0.89784155286E+02  0.13941520754E+02  0.12124571695E+03  0.79210437560E+02 0.  0.
         13    1    3    3    0    0 -0.13966425944E+02  0.36579177320E+02  0.17323652827E+02  0.42815957473E+02  0.00000000000E+00 0. -1.
        -13    1    3    3    0    0 -0.18859952142E+03  0.21627877751E+02  0.24333025125E+02  0.19138871620E+03  0.00000000000E+00 0.  1.
          2    1    6    6  502    0 -0.11691117163E+02  0.48489642618E+02 -0.32152760132E+02  0.59344145843E+02  0.00000000000E+00 0. -1.
          1    1    5    5  503    0  0.19880409780E+03 -0.15794036680E+03  0.33746963478E+04  0.33842345765E+04  0.00000000000E+00 0. -1.
         -2    1    5    5    0  503  0.16825919357E+02  0.99491564467E+01  0.22193854994E+03  0.22279770471E+03  0.00000000000E+00 0.  1.
         -1    1    6    6    0  502 -0.13729526265E+01  0.41294512668E+02  0.46094280886E+02  0.61901571109E+02  0.00000000000E+00 0.  1.
<mgrwt>
<rscale>  0 0.15370304E+04</rscale>
<asrwt>0</asrwt>
<pdfrwt beam="1">  1        1 0.58574729E+00 0.15370304E+04</pdfrwt>
<pdfrwt beam="2">  1       -1 0.23865355E-01 0.15370304E+04</pdfrwt>
<totfact> 0.20867588E+00</totfact>
</mgrwt>
</event>
<event>
12    1  0.1097093E-007  0.1682113E+04  0.7818608E-02  0.8771632E-01
          2   -1    0    0  501    0  0.00000000000E+00  0.00000000000E+00  0.28926560844E+04  0.28926560844E+04  0.00000000000E+00 0. -1.
         -2   -1    0    0    0  501 -0.00000000000E+00 -0.00000000000E+00 -0.24454208810E+03  0.24454208810E+03  0.00000000000E+00 0.  1.
         23    2    1    2    0    0  0.42221177408E+03 -0.35789188857E+03  0.13579553616E+04  0.14693008221E+04  0.91938869962E+02 0.  0.
        254    2    1    2    0    0 -0.42221177408E+03  0.35789188857E+03  0.12901586347E+04  0.16678973504E+04  0.90056808878E+03 0.  0.
        -24    2    4    4    0    0 -0.42467392099E+03  0.63392013825E+03  0.99131927925E+03  0.12535782198E+04  0.80881140534E+02 0.  0.
         24    2    4    4    0    0  0.24621469055E+01 -0.27602824968E+03  0.29883935547E+03  0.41431913056E+03  0.78471171676E+02 0.  0.
         13    1    3    3    0    0  0.35347502594E+03 -0.25019086459E+03  0.10665486695E+04  0.11511151667E+04  0.00000000000E+00 0. -1.
        -13    1    3    3    0    0  0.68736748142E+02 -0.10770102398E+03  0.29140669213E+03  0.31818565545E+03  0.00000000000E+00 0.  1.
          2    1    6    6  502    0 -0.34584691820E+02 -0.19275422281E+03  0.20340629211E+03  0.28235511504E+03  0.00000000000E+00 0. -1.
          3    1    5    5  503    0 -0.13478506744E+03  0.25681310729E+03  0.33662911599E+03  0.44434125198E+03  0.00000000000E+00 0. -1.
         -4    1    5    5    0  503 -0.28988885355E+03  0.37710703096E+03  0.65469016326E+03  0.80923696782E+03  0.00000000000E+00 0.  1.
         -1    1    6    6    0  502  0.37046838726E+02 -0.83274026868E+02  0.95433063359E+02  0.13196401552E+03  0.00000000000E+00 0.  1.
<mgrwt>
<rscale>  0 0.16821131E+04</rscale>
<asrwt>0</asrwt>
<pdfrwt beam="1">  1        2 0.44502399E+00 0.16821131E+04</pdfrwt>
<pdfrwt beam="2">  1       -2 0.37621862E-01 0.16821131E+04</pdfrwt>
<totfact> 0.12947032E+01</totfact>
</mgrwt>
</event>
<event>
12    1  0.1132548E-007  0.3237113E+04  0.7818608E-02  0.8179084E-01
         -1   -1    0    0    0  501 -0.00000000000E+00  0.00000000000E+00  0.10498027774E+04  0.10498027774E+04  0.00000000000E+00 0.  1.
          1   -1    0    0  501    0  0.00000000000E+00 -0.00000000000E+00 -0.24954452042E+04  0.24954452042E+04  0.00000000000E+00 0. -1.
         23    2    1    2    0    0  0.11591955488E+04 -0.52232056621E+03  0.18856752100E+03  0.12888301313E+04  0.94722241144E+02 0.  0.
        254    2    1    2    0    0 -0.11591955488E+04  0.52232056621E+03 -0.16342099478E+04  0.22564178503E+04  0.89678663426E+03 0.  0.
        -24    2    4    4    0    0  0.97503871717E+02  0.22699893213E+03 -0.21634034194E+03  0.33723557123E+03  0.76740906703E+02 0.  0.
         24    2    4    4    0    0 -0.12566994205E+04  0.29532163408E+03 -0.14178696059E+04  0.19191822791E+04  0.79988123843E+02 0.  0.
         11    1    3    3    0    0  0.31787951995E+03 -0.15466349242E+03  0.94248139645E+02  0.36585638838E+03  0.00000000000E+00 0. -1.
        -11    1    3    3    0    0  0.84131602888E+03 -0.36765707379E+03  0.94319381356E+02  0.92297374289E+03  0.00000000000E+00 0.  1.
          4    1    6    6  502    0 -0.56865043005E+02  0.16133353279E+00 -0.78357178126E+02  0.96816870990E+02  0.00000000000E+00 0. -1.
          3    1    5    5  503    0  0.19907157183E+02  0.81280753067E+02 -0.31531442527E+02  0.89426436774E+02  0.00000000000E+00 0. -1.
         -4    1    5    5    0  503  0.77596714533E+02  0.14571817907E+03 -0.18480889941E+03  0.24780913445E+03  0.00000000000E+00 0.  1.
         -3    1    6    6    0  502 -0.11998343775E+04  0.29516030054E+03 -0.13395124278E+04  0.18223654081E+04  0.00000000000E+00 0.  1.
<mgrwt>
<rscale>  0 0.32371131E+04</rscale>
<asrwt>0</asrwt>
<pdfrwt beam="1">  1        1 0.38391464E+00 0.32371131E+04</pdfrwt>
<pdfrwt beam="2">  1       -1 0.16150812E+00 0.32371131E+04</pdfrwt>
<totfact> 0.32388037E-01</totfact>
</mgrwt>
</event>
<event>
12    1  0.1097093E-007  0.2584531E+04  0.7818608E-02  0.8373475E-01
          2   -1    0    0  501    0  0.00000000000E+00  0.00000000000E+00  0.84635250867E+03  0.84635250867E+03  0.00000000000E+00 0.  1.
         -2   -1    0    0    0  501 -0.00000000000E+00 -0.00000000000E+00 -0.19731145812E+04  0.19731145812E+04  0.00000000000E+00 0. -1.
         23    2    1    2    0    0 -0.18761252165E+02 -0.54989155074E+03 -0.15524563227E+04  0.16496480639E+04  0.92116224230E+02 0.  0.
        254    2    1    2    0    0  0.18761252165E+02  0.54989155074E+03  0.42569425014E+03  0.11698190260E+04  0.94049362399E+03 0.  0.
        -24    2    4    4    0    0 -0.28338005185E+03 -0.53081285921E+02 -0.95394620007E+02  0.31381068745E+03  0.79089426135E+02 0.  0.
         24    2    4    4    0    0  0.30214130402E+03  0.60297283666E+03  0.52108887015E+03  0.85600833853E+03  0.79693510946E+02 0.  0.
         13    1    3    3    0    0 -0.32068386830E+02 -0.51065561683E+03 -0.13669599090E+04  0.14595810814E+04  0.00000000000E+00 0. -1.
        -13    1    3    3    0    0  0.13307134665E+02 -0.39235933915E+02 -0.18549641369E+03  0.19006698250E+03  0.00000000000E+00 0.  1.
          2    1    6    6  502    0  0.46599676416E+02  0.15012164507E+03  0.94262666259E+02  0.18328526512E+03  0.00000000000E+00 0. -1.
          3    1    5    5  503    0 -0.47537375163E+02 -0.12047974938E+02 -0.50233609038E+02  0.70202359038E+02  0.00000000000E+00 0. -1.
         -4    1    5    5    0  503 -0.23584267669E+03 -0.41033310982E+02 -0.45161010969E+02  0.24360832841E+03  0.00000000000E+00 0.  1.
         -1    1    6    6    0  502  0.25554162760E+03  0.45285119160E+03  0.42682620389E+03  0.67272307341E+03  0.00000000000E+00 0.  1.
<mgrwt>
<rscale>  0 0.25845313E+04</rscale>
<asrwt>0</asrwt>
<pdfrwt beam="1">  1        2 0.13020808E+00 0.25845313E+04</pdfrwt>
<pdfrwt beam="2">  1       -2 0.30355609E+00 0.25845313E+04</pdfrwt>
<totfact> 0.85485091E-01</totfact>
</mgrwt>
</event>
<event>
12    1  0.1097093E-007  0.2434006E+04  0.7818608E-02  0.8426881E-01
         -1   -1    0    0    0  501 -0.00000000000E+00  0.00000000000E+00  0.76051581381E+03  0.76051581381E+03  0.00000000000E+00 0.  1.
          1   -1    0    0  501    0  0.00000000000E+00 -0.00000000000E+00 -0.19474891368E+04  0.19474891368E+04  0.00000000000E+00 0. -1.
         23    2    1    2    0    0 -0.82877972302E+03  0.58243200864E+03 -0.79943352400E+03  0.12930893167E+04  0.82964737419E+02 0.  0.
        254    2    1    2    0    0  0.82877972302E+03 -0.58243200864E+03 -0.38753979903E+03  0.14149156340E+04  0.90867831569E+03 0.  0.
        -24    2    4    4    0    0  0.54952708858E+03  0.97426256457E+01 -0.49774876793E+03  0.74625457012E+03  0.84066090730E+02 0.  0.
         24    2    4    4    0    0  0.27925263444E+03 -0.59217463429E+03  0.11020896889E+03  0.66866106384E+03  0.79427766815E+02 0.  0.
         13    1    3    3    0    0 -0.26910423274E+03  0.14740282286E+03 -0.26320006742E+03  0.40425110483E+03  0.00000000000E+00 0.  1.
        -13    1    3    3    0    0 -0.55967549028E+03  0.43502918578E+03 -0.53623345657E+03  0.88883821185E+03  0.00000000000E+00 0. -1.
          2    1    6    6  502    0  0.31517954905E+02 -0.34720789213E+02  0.23679894857E+02  0.52532391012E+02  0.00000000000E+00 0. -1.
          3    1    5    5  503    0  0.26682276639E+03 -0.13950686981E+02 -0.29206475682E+03  0.39584192869E+03  0.00000000000E+00 0. -1.
         -4    1    5    5    0  503  0.28270432219E+03  0.23693312626E+02 -0.20568401111E+03  0.35041264143E+03  0.00000000000E+00 0.  1.
         -1    1    6    6    0  502  0.24773467953E+03 -0.55745384507E+03  0.86529074037E+02  0.61612867283E+03  0.00000000000E+00 0.  1.
<mgrwt>
<rscale>  0 0.24340060E+04</rscale>
<asrwt>0</asrwt>
<pdfrwt beam="1">  1        1 0.29961371E+00 0.24340060E+04</pdfrwt>
<pdfrwt beam="2">  1       -1 0.11700243E+00 0.24340060E+04</pdfrwt>
<totfact> 0.19027928E+00</totfact>
</mgrwt>
</event>
<event>
12    1  0.1284074E-007  0.1874655E+04  0.7818608E-02  0.8667576E-01
          2   -1    0    0  501    0  0.00000000000E+00  0.00000000000E+00  0.11587665023E+04  0.11587665023E+04  0.00000000000E+00 0. -1.
         -2   -1    0    0    0  501 -0.00000000000E+00 -0.00000000000E+00 -0.75820502472E+03  0.75820502472E+03  0.00000000000E+00 0.  1.
         23    2    1    2    0    0  0.87785500968E+02  0.46777099586E+03  0.69048817103E+03  0.84345619932E+03  0.90157900865E+02 0.  0.
        254    2    1    2    0    0 -0.87785500968E+02 -0.46777099586E+03 -0.28992669343E+03  0.10735153277E+04  0.91753020252E+03 0.  0.
        -24    2    4    4    0    0  0.36897955242E+03 -0.29361776838E+02 -0.15141015084E+02  0.37876301704E+03  0.78893274115E+02 0.  0.
         24    2    4    4    0    0 -0.45676505338E+03 -0.43840921902E+03 -0.27478567835E+03  0.69475231068E+03  0.79603058042E+02 0.  0.
         13    1    3    3    0    0  0.89260131687E+01  0.19475354923E+02  0.74626445538E+02  0.77640643571E+02  0.00000000000E+00 0.  1.
        -13    1    3    3    0    0  0.78859487800E+02  0.44829564094E+03  0.61586172550E+03  0.76581555575E+03  0.00000000000E+00 0. -1.
          2    1    6    6  502    0 -0.28147923031E+02 -0.99921666734E+01 -0.13324183569E+01  0.29898566930E+02  0.00000000000E+00 0. -1.
          3    1    5    5  503    0 -0.15461853376E+01  0.27384976375E+01  0.54364816640E+01  0.62805566069E+01  0.00000000000E+00 0. -1.
         -4    1    5    5    0  503  0.37052573775E+03 -0.32100274476E+02 -0.20577496748E+02  0.37248246044E+03  0.00000000000E+00 0.  1.
         -1    1    6    6    0  502 -0.42861713035E+03 -0.42841705235E+03 -0.27345325999E+03  0.66485374375E+03  0.00000000000E+00 0.  1.
<mgrwt>
<rscale>  0 0.18746547E+04</rscale>
<asrwt>0</asrwt>
<pdfrwt beam="1">  1        2 0.17827177E+00 0.18746547E+04</pdfrwt>
<pdfrwt beam="2">  1       -2 0.11664693E+00 0.18746547E+04</pdfrwt>
<totfact> 0.10719956E+01</totfact>
</mgrwt>
</event>
<event>
12    1  0.1097093E-007  0.2419608E+04  0.7818608E-02  0.8432199E-01
          2   -1    0    0  501    0  0.00000000000E+00  0.00000000000E+00  0.25200720635E+04  0.25200720635E+04  0.00000000000E+00 0.  1.
         -2   -1    0    0    0  501 -0.00000000000E+00 -0.00000000000E+00 -0.58078720446E+03  0.58078720446E+03  0.00000000000E+00 0. -1.
         23    2    1    2    0    0 -0.17194509927E+03 -0.92962192703E+03  0.13972687003E+04  0.16895427265E+04  0.91830056901E+02 0.  0.
        254    2    1    2    0    0  0.17194509927E+03  0.92962192703E+03  0.54201615871E+03  0.14113165415E+04  0.89681147380E+03 0.  0.
        -24    2    4    4    0    0  0.46230158785E+03  0.70746216223E+03  0.59023587075E+03  0.10340219594E+04  0.81225367829E+02 0.  0.
         24    2    4    4    0    0 -0.29035648858E+03  0.22215976480E+03 -0.48219712037E+02  0.37729458203E+03  0.79775995399E+02 0.  0.
         13    1    3    3    0    0 -0.14526593540E+03 -0.62940602116E+03  0.89445461919E+03  0.11033146411E+04  0.00000000000E+00 0.  1.
        -13    1    3    3    0    0 -0.26679163869E+02 -0.30021590586E+03  0.50281408109E+03  0.58622808536E+03  0.00000000000E+00 0. -1.
          4    1    6    6  502    0 -0.21300600795E+03  0.15859428439E+03  0.13734910521E+01  0.26556655087E+03  0.00000000000E+00 0. -1.
          3    1    5    5  503    0  0.42510250158E+03  0.65288032849E+03  0.56863826276E+03  0.96452803694E+03  0.00000000000E+00 0. -1.
         -4    1    5    5    0  503  0.37199086263E+02  0.54581833740E+02  0.21597607993E+02  0.69493922499E+02  0.00000000000E+00 0.  1.
         -3    1    6    6    0  502 -0.77350480629E+02  0.63565480409E+02 -0.49593203089E+02  0.11172803115E+03  0.00000000000E+00 0.  1.
<mgrwt>
<rscale>  0 0.24196079E+04</rscale>
<asrwt>0</asrwt>
<pdfrwt beam="1">  1        2 0.38770339E+00 0.24196079E+04</pdfrwt>
<pdfrwt beam="2">  1       -2 0.89351879E-01 0.24196079E+04</pdfrwt>
<totfact> 0.32690571E+00</totfact>
</mgrwt>
</event>
<event>
12    1  0.1097093E-007  0.4208230E+04  0.7818608E-02  0.7963809E-01
          1   -1    0    0  501    0  0.00000000000E+00  0.00000000000E+00  0.41109320531E+04  0.41109320531E+04  0.00000000000E+00 0. -1.
         -1   -1    0    0    0  501 -0.00000000000E+00 -0.00000000000E+00 -0.10769574543E+04  0.10769574543E+04  0.00000000000E+00 0.  1.
         23    2    1    2    0    0  0.65558121980E+03  0.10711036020E+04  0.33813753938E+04  0.36081748585E+04  0.90424520270E+02 0.  0.
        254    2    1    2    0    0 -0.65558121980E+03 -0.10711036020E+04 -0.34740079499E+03  0.15797146488E+04  0.89317489740E+03 0.  0.
        -24    2    4    4    0    0 -0.47370453117E+03 -0.11333843325E+04 -0.49194827994E+03  0.13256421633E+04  0.79737110711E+02 0.  0.
         24    2    4    4    0    0 -0.18187668863E+03  0.62280730532E+02  0.14454748495E+03  0.25407248554E+03  0.81858617409E+02 0.  0.
         11    1    3    3    0    0  0.55662010359E+03  0.94229720738E+03  0.28681865022E+04  0.30698931216E+04  0.00000000000E+00 0. -1.
        -11    1    3    3    0    0  0.98961116212E+02  0.12880639462E+03  0.51318889162E+03  0.53828173692E+03  0.00000000000E+00 0.  1.
          2    1    6    6  502    0 -0.15074906138E+03  0.13966444453E+02  0.10786636984E+03  0.18589108322E+03  0.00000000000E+00 0. -1.
          3    1    5    5  503    0 -0.22176210734E+03 -0.61664276354E+03 -0.28566175606E+03  0.71486318198E+03  0.00000000000E+00 0. -1.
         -4    1    5    5    0  503 -0.25194242383E+03 -0.51674156900E+03 -0.20628652388E+03  0.61077898130E+03  0.00000000000E+00 0.  1.
         -1    1    6    6    0  502 -0.31127627244E+02  0.48314286079E+02  0.36681115103E+02  0.68181402320E+02  0.00000000000E+00 0.  1.
<mgrwt>
<rscale>  0 0.42082295E+04</rscale>
<asrwt>0</asrwt>
<pdfrwt beam="1">  1        1 0.63245107E+00 0.42082295E+04</pdfrwt>
<pdfrwt beam="2">  1       -1 0.16568576E+00 0.42082295E+04</pdfrwt>
<totfact> 0.15501272E-02</totfact>
</mgrwt>
</event>
<event>
12    1  0.1097093E-007  0.2025644E+04  0.7818608E-02  0.8594724E-01
          1   -1    0    0  501    0  0.00000000000E+00  0.00000000000E+00  0.15501525722E+04  0.15501525722E+04  0.00000000000E+00 0. -1.
         -1   -1    0    0    0  501 -0.00000000000E+00 -0.00000000000E+00 -0.66174696097E+03  0.66174696097E+03  0.00000000000E+00 0.  1.
         23    2    1    2    0    0 -0.26758105342E+03 -0.75201039250E+03  0.50199919765E+03  0.94709996427E+03  0.88746252346E+02 0.  0.
        254    2    1    2    0    0  0.26758105342E+03  0.75201039250E+03  0.38640641362E+03  0.12647995689E+04  0.90182525055E+03 0.  0.
        -24    2    4    4    0    0  0.66939365365E+02 -0.42663113045E+02  0.42629837126E+03  0.44030994961E+03  0.76429906038E+02 0.  0.
         24    2    4    4    0    0  0.20064168805E+03  0.79467350554E+03 -0.39891957645E+02  0.82448961932E+03  0.80179153703E+02 0.  0.
         11    1    3    3    0    0 -0.25061453488E+03 -0.71365760065E+03  0.44935247381E+03  0.87979114668E+03  0.00000000000E+00 0. -1.
        -11    1    3    3    0    0 -0.16966518543E+02 -0.38352791844E+02  0.52646723846E+02  0.67308817591E+02  0.00000000000E+00 0.  1.
          2    1    6    6  502    0  0.31004474649E+02  0.22353586766E+03 -0.36974759501E+02  0.22868470526E+03  0.00000000000E+00 0. -1.
          1    1    5    5  503    0  0.80892735669E+02 -0.20560862859E+02  0.30401050278E+03  0.31525984452E+03  0.00000000000E+00 0. -1.
         -2    1    5    5    0  503 -0.13953370303E+02 -0.22102250186E+02  0.12228786848E+03  0.12505010510E+03  0.00000000000E+00 0.  1.
         -1    1    6    6    0  502  0.16963721340E+03  0.57113763788E+03 -0.29171981434E+01  0.59580491406E+03  0.00000000000E+00 0.  1.
<mgrwt>
<rscale>  0 0.20256443E+04</rscale>
<asrwt>0</asrwt>
<pdfrwt beam="1">  1        1 0.23848501E+00 0.20256443E+04</pdfrwt>
<pdfrwt beam="2">  1       -1 0.10180723E+00 0.20256443E+04</pdfrwt>
<totfact> 0.51123761E+00</totfact>
</mgrwt>
</event>
<event>
12    1  0.1097093E-007  0.2089542E+04  0.7818608E-02  0.8565864E-01
         -2   -1    0    0    0  501 -0.00000000000E+00  0.00000000000E+00  0.87648520315E+03  0.87648520315E+03  0.00000000000E+00 0. -1.
          2   -1    0    0  501    0  0.00000000000E+00 -0.00000000000E+00 -0.12453674723E+04  0.12453674723E+04  0.00000000000E+00 0.  1.
         23    2    1    2    0    0 -0.16997885745E+03 -0.72772828640E+03  0.26169963556E+03  0.79699192972E+03  0.90709238731E+02 0.  0.
        254    2    1    2    0    0  0.16997885745E+03  0.72772828640E+03 -0.63058190469E+03  0.13248607457E+04  0.89394697056E+03 0.  0.
        -24    2    4    4    0    0  0.29788632570E+03  0.88107377160E+03 -0.59391043947E+03  0.11064053106E+04  0.79848902010E+02 0.  0.
         24    2    4    4    0    0 -0.12790746825E+03 -0.15334548520E+03 -0.36671465218E+02  0.21845543511E+03  0.80640079990E+02 0.  0.
         13    1    3    3    0    0 -0.88107344551E+02 -0.22813253661E+03  0.11260346902E+03  0.26923391254E+03  0.00000000000E+00 0.  1.
        -13    1    3    3    0    0 -0.81871512895E+02 -0.49959574978E+03  0.14909616653E+03  0.52775801718E+03  0.00000000000E+00 0. -1.
          4    1    6    6  502    0 -0.16318405840E+02 -0.38595224625E+01  0.17469249399E+02  0.24214891232E+02  0.00000000000E+00 0. -1.
          1    1    5    5  503    0  0.18141602636E+03  0.45334373165E+03 -0.34638776906E+03  0.59867921311E+03  0.00000000000E+00 0. -1.
         -2    1    5    5    0  503  0.11647029933E+03  0.42773003995E+03 -0.24752267041E+03  0.50772609749E+03  0.00000000000E+00 0.  1.
         -3    1    6    6    0  502 -0.11158906241E+03 -0.14948596274E+03 -0.54140714618E+02  0.19424054388E+03  0.00000000000E+00 0.  1.
<mgrwt>
<rscale>  0 0.20895417E+04</rscale>
<asrwt>0</asrwt>
<pdfrwt beam="1">  1        2 0.19159500E+00 0.20895417E+04</pdfrwt>
<pdfrwt beam="2">  1       -2 0.13484388E+00 0.20895417E+04</pdfrwt>
<totfact> 0.64969337E+00</totfact>
</mgrwt>
</event>
<event>
12    1  0.1097093E-007  0.1799567E+04  0.7818608E-02  0.8706530E-01
          2   -1    0    0  501    0  0.00000000000E+00  0.00000000000E+00  0.13554805199E+04  0.13554805199E+04  0.00000000000E+00 0. -1.
         -2   -1    0    0    0  501 -0.00000000000E+00 -0.00000000000E+00 -0.59728631187E+03  0.59728631187E+03  0.00000000000E+00 0.  1.
         23    2    1    2    0    0 -0.88444794242E+02  0.61235062027E+03  0.64729601783E+01  0.62602048092E+03  0.95204934464E+02 0.  0.
        254    2    1    2    0    0  0.88444794242E+02 -0.61235062027E+03  0.75172124783E+03  0.13267463508E+04  0.90131863468E+03 0.  0.
        -24    2    4    4    0    0  0.18171036275E+03 -0.82390099265E+03  0.60672107317E+03  0.10423886622E+04  0.81438079186E+02 0.  0.
         24    2    4    4    0    0 -0.93265568507E+02  0.21155037237E+03  0.14500017466E+03  0.28435768867E+03  0.79888786057E+02 0.  0.
         11    1    3    3    0    0 -0.32712004249E+02  0.30912326757E+03 -0.42865849280E+02  0.31379093487E+03  0.00000000000E+00 0. -1.
        -11    1    3    3    0    0 -0.55732789992E+02  0.30322735271E+03  0.49338809458E+02  0.31222954605E+03  0.00000000000E+00 0.  1.
          2    1    6    6  502    0 -0.10584805004E+03  0.20175489080E+03  0.14093406264E+03  0.26790157833E+03  0.00000000000E+00 0. -1.
          3    1    5    5  503    0  0.90215007563E+02 -0.23719059109E+03  0.18699874691E+03  0.31522476970E+03  0.00000000000E+00 0. -1.
         -4    1    5    5    0  503  0.91495355186E+02 -0.58671040156E+03  0.41972232627E+03  0.72716389245E+03  0.00000000000E+00 0.  1.
         -1    1    6    6    0  502  0.12582481532E+02  0.97954815724E+01  0.40661120137E+01  0.16456110344E+02  0.00000000000E+00 0.  1.
<mgrwt>
<rscale>  0 0.17995666E+04</rscale>
<asrwt>0</asrwt>
<pdfrwt beam="1">  1        2 0.20853546E+00 0.17995666E+04</pdfrwt>
<pdfrwt beam="2">  1       -2 0.91890202E-01 0.17995666E+04</pdfrwt>
<totfact> 0.14596926E+01</totfact>
</mgrwt>
</event>
<event>
12    1  0.1097093E-007  0.2074475E+04  0.7818608E-02  0.8572571E-01
          2   -1    0    0  501    0  0.00000000000E+00  0.00000000000E+00  0.30577753231E+04  0.30577753231E+04  0.00000000000E+00 0. -1.
         -2   -1    0    0    0  501 -0.00000000000E+00 -0.00000000000E+00 -0.35184472278E+03  0.35184472278E+03  0.00000000000E+00 0.  1.
         23    2    1    2    0    0 -0.30940414624E+03  0.47508157557E+03  0.85273278294E+02  0.58173493646E+03  0.98542250565E+02 0.  0.
        254    2    1    2    0    0  0.30940414624E+03 -0.47508157557E+03  0.26206573220E+04  0.28278851094E+04  0.89869681400E+03 0.  0.
        -24    2    4    4    0    0 -0.28930792650E+03 -0.93567243356E+02  0.11553671015E+04  0.11973833216E+04  0.79998588943E+02 0.  0.
         24    2    4    4    0    0  0.59871207274E+03 -0.38151433221E+03  0.14652902206E+04  0.16305017879E+04  0.86321017452E+02 0.  0.
         11    1    3    3    0    0 -0.28671362431E+02  0.28135469615E+02 -0.17847343259E+02  0.43956561916E+02  0.00000000000E+00 0. -1.
        -11    1    3    3    0    0 -0.28073278381E+03  0.44694610596E+03  0.10312062155E+03  0.53777837454E+03  0.00000000000E+00 0.  1.
          4    1    6    6  502    0  0.48602198569E+03 -0.34312630387E+03  0.12542521870E+04  0.13882008427E+04  0.00000000000E+00 0. -1.
          1    1    5    5  503    0 -0.16099660784E+03 -0.58048224383E+02  0.79491473185E+03  0.81312910107E+03  0.00000000000E+00 0. -1.
         -2    1    5    5    0  503 -0.12831131865E+03 -0.35519018973E+02  0.36045236964E+03  0.38425422051E+03  0.00000000000E+00 0.  1.
         -3    1    6    6    0  502  0.11269008705E+03 -0.38388028347E+02  0.21103803357E+03  0.24230094522E+03  0.00000000000E+00 0.  1.
<mgrwt>
<rscale>  0 0.20744755E+04</rscale>
<asrwt>0</asrwt>
<pdfrwt beam="1">  1        2 0.47042695E+00 0.20744755E+04</pdfrwt>
<pdfrwt beam="2">  1       -2 0.54129959E-01 0.20744755E+04</pdfrwt>
<totfact> 0.47618688E+00</totfact>
</mgrwt>
</event>
<event>
12    1  0.1097093E-007  0.2793833E+04  0.7818608E-02  0.8305186E-01
         -2   -1    0    0    0  501 -0.00000000000E+00  0.00000000000E+00  0.44460554667E+03  0.44460554667E+03  0.00000000000E+00 0.  1.
          2   -1    0    0  501    0  0.00000000000E+00 -0.00000000000E+00 -0.43890045998E+04  0.43890045998E+04  0.00000000000E+00 0. -1.
         23    2    1    2    0    0  0.12489230829E+04  0.37025840407E+01 -0.18187330781E+04  0.22081260229E+04  0.90597724567E+02 0.  0.
        254    2    1    2    0    0 -0.12489230829E+04 -0.37025840407E+01 -0.21256659751E+04  0.26254841235E+04  0.90271173105E+03 0.  0.
        -24    2    4    4    0    0  0.80185200464E+01  0.75295571054E+02  0.43023484113E+02  0.11630143758E+03  0.77079728287E+02 0.  0.
         24    2    4    4    0    0 -0.12569416029E+04 -0.78998155095E+02 -0.21686894592E+04  0.25091826860E+04  0.81491591932E+02 0.  0.
         11    1    3    3    0    0  0.45149038631E+03 -0.23119121552E+02 -0.72220034295E+03  0.85202781531E+03  0.00000000000E+00 0.  1.
        -11    1    3    3    0    0  0.79743269659E+03  0.26821705592E+02 -0.10965327352E+04  0.13560982076E+04  0.00000000000E+00 0. -1.
          2    1    6    6  502    0 -0.80341033981E+03 -0.19404211952E+02 -0.13340198634E+04  0.15573868156E+04  0.00000000000E+00 0. -1.
          3    1    5    5  503    0  0.14529377595E+02 -0.98788421809E+01  0.22319755261E+02  0.28405383487E+02  0.00000000000E+00 0. -1.
         -4    1    5    5    0  503 -0.65108575485E+01  0.85174413235E+02  0.20703728852E+02  0.87896054088E+02  0.00000000000E+00 0.  1.
         -1    1    6    6    0  502 -0.45353126313E+03 -0.59593943142E+02 -0.83466959576E+03  0.95179587033E+03  0.00000000000E+00 0.  1.
<mgrwt>
<rscale>  0 0.27938331E+04</rscale>
<asrwt>0</asrwt>
<pdfrwt beam="1">  1        2 0.67523148E+00 0.27938331E+04</pdfrwt>
<pdfrwt beam="2">  1       -2 0.68400853E-01 0.27938331E+04</pdfrwt>
<totfact> 0.26786051E-01</totfact>
</mgrwt>
</event>
<event>
12    1  0.1097093E-007  0.2834824E+04  0.7818608E-02  0.8292538E-01
          2   -1    0    0  501    0  0.00000000000E+00  0.00000000000E+00  0.92891772678E+03  0.92891772678E+03  0.00000000000E+00 0. -1.
         -2   -1    0    0    0  501 -0.00000000000E+00 -0.00000000000E+00 -0.21627937128E+04  0.21627937128E+04  0.00000000000E+00 0.  1.
         23    2    1    2    0    0 -0.54702010574E+03 -0.89684515792E+03  0.22691732746E+03  0.10786397141E+04  0.91705649030E+02 0.  0.
        254    2    1    2    0    0  0.54702010574E+03  0.89684515792E+03 -0.14607933135E+04  0.20130717255E+04  0.90276155971E+03 0.  0.
        -24    2    4    4    0    0 -0.34522862947E+02  0.22681314541E+03  0.60354381612E+02  0.25016267403E+03  0.79389426892E+02 0.  0.
         24    2    4    4    0    0  0.58154296868E+03  0.67003201251E+03 -0.15211476951E+04  0.17629090514E+04  0.82600793045E+02 0.  0.
         13    1    3    3    0    0 -0.11630954559E+00 -0.19819582981E+01  0.67358435290E+01  0.70223411092E+01  0.00000000000E+00 0.  1.
        -13    1    3    3    0    0 -0.54690379619E+03 -0.89486319962E+03  0.22018148393E+03  0.10716173730E+04  0.00000000000E+00 0. -1.
          2    1    6    6  502    0  0.56856706205E+03  0.65556317074E+03 -0.15065648687E+04  0.17386113075E+04  0.00000000000E+00 0. -1.
          3    1    5    5  503    0 -0.23131564091E+02  0.19299327040E+03  0.79098909270E+02  0.20985258904E+03  0.00000000000E+00 0. -1.
         -4    1    5    5    0  503 -0.11391298855E+02  0.33819875008E+02 -0.18744527658E+02  0.40310084995E+02  0.00000000000E+00 0.  1.
         -1    1    6    6    0  502  0.12975906636E+02  0.14468841768E+02 -0.14582826459E+02  0.24297743983E+02  0.00000000000E+00 0.  1.
<mgrwt>
<rscale>  0 0.28348245E+04</rscale>
<asrwt>0</asrwt>
<pdfrwt beam="1">  1        2 0.14291042E+00 0.28348245E+04</pdfrwt>
<pdfrwt beam="2">  1       -2 0.33273749E+00 0.28348245E+04</pdfrwt>
<totfact> 0.48556834E-01</totfact>
</mgrwt>
</event>
<event>
12    1  0.1097093E-007  0.1336578E+04  0.7818608E-02  0.9001051E-01
          2   -1    0    0  501    0  0.00000000000E+00  0.00000000000E+00  0.19174201108E+04  0.19174201108E+04  0.00000000000E+00 0. -1.
         -2   -1    0    0    0  501 -0.00000000000E+00 -0.00000000000E+00 -0.23292254985E+03  0.23292254985E+03  0.00000000000E+00 0.  1.
         23    2    1    2    0    0 -0.17577420096E+03 -0.29953467065E+03  0.28412173393E+03  0.45567182688E+03  0.79335146531E+02 0.  0.
        254    2    1    2    0    0  0.17577420096E+03  0.29953467065E+03  0.14003758270E+04  0.16946708338E+04  0.88895398605E+03 0.  0.
        -24    2    4    4    0    0 -0.12830037393E+03  0.17517815206E+03  0.13290890399E+04  0.13491220683E+04  0.80649291897E+02 0.  0.
         24    2    4    4    0    0  0.30407457488E+03  0.12435651859E+03  0.71286787100E+02  0.34554876546E+03  0.79976574616E+02 0.  0.
         11    1    3    3    0    0 -0.11286254478E+03 -0.19878166319E+03  0.13667107772E+03  0.26632890778E+03  0.00000000000E+00 0. -1.
        -11    1    3    3    0    0 -0.62911656178E+02 -0.10075300746E+03  0.14745065621E+03  0.18934291910E+03  0.00000000000E+00 0.  1.
          2    1    6    6  502    0  0.60624386298E+02 -0.18849442180E+01 -0.51172286124E+01  0.60869165079E+02  0.00000000000E+00 0. -1.
          3    1    5    5  503    0 -0.75348826820E+02  0.43656065770E+02  0.40847255123E+03  0.41765191594E+03  0.00000000000E+00 0. -1.
         -4    1    5    5    0  503 -0.52951547106E+02  0.13152208629E+03  0.92061648869E+03  0.93147015238E+03  0.00000000000E+00 0.  1.
         -1    1    6    6    0  502  0.24345018858E+03  0.12624146281E+03  0.76404015712E+02  0.28467960038E+03  0.00000000000E+00 0.  1.
<mgrwt>
<rscale>  0 0.13365783E+04</rscale>
<asrwt>0</asrwt>
<pdfrwt beam="1">  1        2 0.29498770E+00 0.13365783E+04</pdfrwt>
<pdfrwt beam="2">  1       -2 0.35834240E-01 0.13365783E+04</pdfrwt>
<totfact> 0.53186109E+01</totfact>
</mgrwt>
</event>
<event>
12    1  0.1097093E-007  0.1434410E+04  0.7818608E-02  0.8929281E-01
         -1   -1    0    0    0  501 -0.00000000000E+00  0.00000000000E+00  0.41459548805E+03  0.41459548805E+03  0.00000000000E+00 0.  1.
          1   -1    0    0  501    0  0.00000000000E+00 -0.00000000000E+00 -0.12406856111E+04  0.12406856111E+04  0.00000000000E+00 0. -1.
         23    2    1    2    0    0 -0.13801957593E+03  0.25961337692E+03  0.10689599055E+03  0.32635718177E+03  0.92917966420E+02 0.  0.
        254    2    1    2    0    0  0.13801957593E+03 -0.25961337692E+03 -0.93298611358E+03  0.13289239173E+04  0.89951496994E+03 0.  0.
        -24    2    4    4    0    0  0.45219581139E+03 -0.91614350600E+02 -0.19781489964E+03  0.50831280982E+03  0.79855726393E+02 0.  0.
         24    2    4    4    0    0 -0.31417623546E+03 -0.16799902632E+03 -0.73517121394E+03  0.82061110752E+03  0.77430589617E+02 0.  0.
         13    1    3    3    0    0 -0.39184923928E+02  0.65469644905E+02 -0.13444717223E+02  0.77475758070E+02  0.00000000000E+00 0.  1.
        -13    1    3    3    0    0 -0.98834652002E+02  0.19414373201E+03  0.12034070778E+03  0.24888142370E+03  0.00000000000E+00 0. -1.
          2    1    6    6  502    0 -0.26196937234E+03 -0.15784730995E+03 -0.66988818122E+03  0.73640607048E+03  0.00000000000E+00 0. -1.
          3    1    5    5  503    0  0.22199948469E+03 -0.34686350869E+02 -0.54392843932E+02  0.23118281859E+03  0.00000000000E+00 0. -1.
         -4    1    5    5    0  503  0.23019632670E+03 -0.56927999731E+02 -0.14342205570E+03  0.27712999123E+03  0.00000000000E+00 0.  1.
         -1    1    6    6    0  502 -0.52206863114E+02 -0.10151716371E+02 -0.65283032719E+02  0.84205037037E+02  0.00000000000E+00 0.  1.
<mgrwt>
<rscale>  0 0.14344095E+04</rscale>
<asrwt>0</asrwt>
<pdfrwt beam="1">  1        1 0.19087471E+00 0.14344095E+04</pdfrwt>
<pdfrwt beam="2">  1       -1 0.63783922E-01 0.14344095E+04</pdfrwt>
<totfact> 0.24193485E+01</totfact>
</mgrwt>
</event>
<event>
12    1  0.1097093E-007  0.1502648E+04  0.7818608E-02  0.8882694E-01
          1   -1    0    0  501    0  0.00000000000E+00  0.00000000000E+00  0.11498593735E+04  0.11498593735E+04  0.00000000000E+00 0. -1.
         -1   -1    0    0    0  501 -0.00000000000E+00 -0.00000000000E+00 -0.49091869533E+03  0.49091869533E+03  0.00000000000E+00 0.  1.
         23    2    1    2    0    0 -0.20216159940E+03  0.25266277815E+03  0.61127114074E+03  0.69784705436E+03  0.92899472765E+02 0.  0.
        254    2    1    2    0    0  0.20216159940E+03 -0.25266277815E+03  0.47669537382E+02  0.94293101442E+03  0.88438607035E+03 0.  0.
        -24    2    4    4    0    0 -0.11197089355E+03 -0.37260154493E+03  0.31450437119E+03  0.50651744692E+03  0.79230879389E+02 0.  0.
         24    2    4    4    0    0  0.31413249295E+03  0.11993876678E+03 -0.26683483381E+03  0.43641356751E+03  0.78685719616E+02 0.  0.
         13    1    3    3    0    0 -0.19221618736E+03  0.21703861987E+03  0.58363300107E+03  0.65167499963E+03  0.00000000000E+00 0. -1.
        -13    1    3    3    0    0 -0.99454120413E+01  0.35624158281E+02  0.27638139670E+02  0.46172054734E+02  0.00000000000E+00 0.  1.
          2    1    6    6  502    0  0.29360458746E+01 -0.71712348463E+01 -0.13201854950E+02  0.15308035430E+02  0.00000000000E+00 0. -1.
          3    1    5    5  503    0 -0.53063036209E+02 -0.13429857461E+03  0.71609233933E+02  0.16118211855E+03  0.00000000000E+00 0. -1.
         -2    1    5    5    0  503 -0.58907857337E+02 -0.23830297032E+03  0.24289513725E+03  0.34533532837E+03  0.00000000000E+00 0.  1.
         -1    1    6    6    0  502  0.31119644707E+03  0.12711000163E+03 -0.25363297885E+03  0.42110553208E+03  0.00000000000E+00 0.  1.
<mgrwt>
<rscale>  0 0.15026476E+04</rscale>
<asrwt>0</asrwt>
<pdfrwt beam="1">  1        1 0.17690144E+00 0.15026476E+04</pdfrwt>
<pdfrwt beam="2">  1       -1 0.75525953E-01 0.15026476E+04</pdfrwt>
<totfact> 0.19828426E+01</totfact>
</mgrwt>
</event>
<event>
12    1  0.1097093E-007  0.1984165E+04  0.7818608E-02  0.8614060E-01
          1   -1    0    0  501    0  0.00000000000E+00  0.00000000000E+00  0.20090544772E+04  0.20090544772E+04  0.00000000000E+00 0. -1.
         -1   -1    0    0    0  501 -0.00000000000E+00 -0.00000000000E+00 -0.48989593353E+03  0.48989593353E+03  0.00000000000E+00 0.  1.
         23    2    1    2    0    0 -0.46347938813E+03 -0.89270245026E+02 -0.18161651739E+03  0.51374044527E+03  0.90345812581E+02 0.  0.
        254    2    1    2    0    0  0.46347938813E+03  0.89270245026E+02  0.17007750611E+04  0.19852099654E+04  0.90864760976E+03 0.  0.
        -24    2    4    4    0    0  0.57382398917E+03  0.28843562762E+03  0.15948425143E+04  0.17211533975E+04  0.79857937917E+02 0.  0.
         24    2    4    4    0    0 -0.11034460104E+03 -0.19916538260E+03  0.10593254671E+03  0.26405656797E+03  0.81617314526E+02 0.  0.
         11    1    3    3    0    0 -0.31787706783E+03 -0.18280632244E+02 -0.12697248757E+03  0.34278568285E+03  0.00000000000E+00 0. -1.
        -11    1    3    3    0    0 -0.14560232030E+03 -0.70989612782E+02 -0.54644029823E+02  0.17095476242E+03  0.00000000000E+00 0.  1.
          4    1    6    6  502    0 -0.73850207967E+02 -0.11051206594E+03  0.18301879078E+02  0.13417052103E+03  0.00000000000E+00 0. -1.
          1    1    5    5  503    0  0.55492735340E+03  0.28552962494E+03  0.15721127744E+04  0.16914520714E+04  0.00000000000E+00 0. -1.
         -2    1    5    5    0  503  0.18896635774E+02  0.29060026848E+01  0.22729739939E+02  0.29701326113E+02  0.00000000000E+00 0.  1.
         -3    1    6    6    0  502 -0.36494393077E+02 -0.88653316662E+02  0.87630667634E+02  0.12988604695E+03  0.00000000000E+00 0.  1.
<mgrwt>
<rscale>  0 0.19841649E+04</rscale>
<asrwt>0</asrwt>
<pdfrwt beam="1">  1        1 0.30908530E+00 0.19841649E+04</pdfrwt>
<pdfrwt beam="2">  1       -1 0.75368606E-01 0.19841649E+04</pdfrwt>
<totfact> 0.48294726E+00</totfact>
</mgrwt>
</event>
<event>
12    1  0.1097093E-007  0.2704474E+04  0.7818608E-02  0.8333555E-01
          2   -1    0    0  501    0  0.00000000000E+00  0.00000000000E+00  0.11425519212E+04  0.11425519212E+04  0.00000000000E+00 0. -1.
         -2   -1    0    0    0  501 -0.00000000000E+00 -0.00000000000E+00 -0.16004046023E+04  0.16004046023E+04  0.00000000000E+00 0.  1.
         23    2    1    2    0    0  0.55790794067E+03  0.16853701178E+01  0.87562386974E+03  0.10423063811E+04  0.91767750772E+02 0.  0.
        254    2    1    2    0    0 -0.55790794067E+03 -0.16853701178E+01 -0.13334765508E+04  0.17006501423E+04  0.89598386385E+03 0.  0.
        -24    2    4    4    0    0 -0.60932055956E+03 -0.21996069582E+03 -0.13074362157E+04  0.14613720778E+04  0.81022463825E+02 0.  0.
         24    2    4    4    0    0  0.51412618885E+02  0.21827532571E+03 -0.26040335102E+02  0.23927806451E+03  0.79300175989E+02 0.  0.
         11    1    3    3    0    0  0.41653245819E+03  0.24558360498E+02  0.70827042964E+03  0.82203978207E+03  0.00000000000E+00 0.  1.
        -11    1    3    3    0    0  0.14137548248E+03 -0.22872990380E+02  0.16735344010E+03  0.22026659903E+03  0.00000000000E+00 0. -1.
          4    1    6    6  502    0  0.51879608378E+02  0.18164569886E+03 -0.50114019439E+02  0.19544326190E+03  0.00000000000E+00 0. -1.
          1    1    5    5  503    0 -0.52730799073E+03 -0.19170577523E+03 -0.11872555104E+04  0.13131566808E+04  0.00000000000E+00 0. -1.
         -2    1    5    5    0  503 -0.82012568832E+02 -0.28254920598E+02 -0.12018070534E+03  0.14821539704E+03  0.00000000000E+00 0.  1.
         -3    1    6    6    0  502 -0.46698949302E+00  0.36629626847E+02  0.24073684337E+02  0.43834802608E+02  0.00000000000E+00 0.  1.
<mgrwt>
<rscale>  0 0.27044743E+04</rscale>
<asrwt>0</asrwt>
<pdfrwt beam="1">  1        2 0.17577722E+00 0.27044743E+04</pdfrwt>
<pdfrwt beam="2">  1       -2 0.24621609E+00 0.27044743E+04</pdfrwt>
<totfact> 0.12198758E+00</totfact>
</mgrwt>
</event>
<event>
12    1  0.1097093E-007  0.1766015E+04  0.7818608E-02  0.8724584E-01
         -1   -1    0    0    0  501 -0.00000000000E+00  0.00000000000E+00  0.89994592817E+03  0.89994592817E+03  0.00000000000E+00 0. -1.
          1   -1    0    0  501    0  0.00000000000E+00 -0.00000000000E+00 -0.86638756051E+03  0.86638756051E+03  0.00000000000E+00 0.  1.
         23    2    1    2    0    0  0.66964339625E+02  0.22878167992E+03  0.61817818675E+03  0.66911934959E+03  0.93547600554E+02 0.  0.
        254    2    1    2    0    0 -0.66964339625E+02 -0.22878167992E+03 -0.58461981909E+03  0.10972141391E+04  0.89737018799E+03 0.  0.
        -24    2    4    4    0    0  0.11928541400E+03  0.18829995466E+03 -0.58890895104E+03  0.63488421256E+03  0.81106891381E+02 0.  0.
         24    2    4    4    0    0 -0.18624975362E+03 -0.41708163458E+03  0.42891319473E+01  0.46232992653E+03  0.71305705792E+02 0.  0.
         13    1    3    3    0    0  0.45239828646E+02  0.91998378855E+02  0.15629417603E+03  0.18691766441E+03  0.00000000000E+00 0.  1.
        -13    1    3    3    0    0  0.21724510979E+02  0.13678330107E+03  0.46188401072E+03  0.48220168518E+03  0.00000000000E+00 0. -1.
          2    1    6    6  502    0 -0.47953179363E+02 -0.18219309016E+03  0.19012245593E+02  0.18935494447E+03  0.00000000000E+00 0. -1.
          1    1    5    5  503    0  0.12400808522E+03  0.17456089463E+03 -0.48767109056E+03  0.53260924110E+03  0.00000000000E+00 0. -1.
         -2    1    5    5    0  503 -0.47226712184E+01  0.13739060027E+02 -0.10123786048E+03  0.10227497146E+03  0.00000000000E+00 0.  1.
         -1    1    6    6    0  502 -0.13829657426E+03 -0.23488854442E+03 -0.14723113646E+02  0.27297498206E+03  0.00000000000E+00 0.  1.
<mgrwt>
<rscale>  0 0.17660147E+04</rscale>
<asrwt>0</asrwt>
<pdfrwt beam="1">  1        1 0.13329039E+00 0.17660147E+04</pdfrwt>
<pdfrwt beam="2">  1       -1 0.13845322E+00 0.17660147E+04</pdfrwt>
<totfact> 0.79240287E+00</totfact>
</mgrwt>
</event>
<event>
12    1  0.1097093E-007  0.1731825E+04  0.7818608E-02  0.8743419E-01
         -1   -1    0    0    0  501 -0.00000000000E+00  0.00000000000E+00  0.15076194376E+04  0.15076194376E+04  0.00000000000E+00 0.  1.
          1   -1    0    0  501    0  0.00000000000E+00 -0.00000000000E+00 -0.49734347376E+03  0.49734347376E+03  0.00000000000E+00 0. -1.
         23    2    1    2    0    0 -0.14646401888E+03  0.42405815300E+03  0.87011003693E+03  0.98333388387E+03  0.92612228490E+02 0.  0.
        254    2    1    2    0    0  0.14646401888E+03 -0.42405815300E+03  0.14016592688E+03  0.10216290275E+04  0.90708453671E+03 0.  0.
        -24    2    4    4    0    0  0.27252758181E+03  0.62311925040E+02  0.36374829031E+03  0.46588009157E+03  0.81101061445E+02 0.  0.
         24    2    4    4    0    0 -0.12606356292E+03 -0.48637007804E+03 -0.22358236343E+03  0.55574893589E+03  0.80124476864E+02 0.  0.
         13    1    3    3    0    0  0.10781840750E+02  0.32764623047E+02  0.44950581441E+02  0.56659715718E+02  0.00000000000E+00 0. -1.
        -13    1    3    3    0    0 -0.15724585963E+03  0.39129352995E+03  0.82515945549E+03  0.92667416816E+03  0.00000000000E+00 0.  1.
          4    1    6    6  502    0 -0.96496977720E+02 -0.41834058684E+03 -0.16039983969E+03  0.45831061724E+03  0.00000000000E+00 0. -1.
          1    1    5    5  503    0  0.12518157571E+03  0.69987940730E+02  0.17253167102E+03  0.22435667196E+03  0.00000000000E+00 0. -1.
         -2    1    5    5    0  503  0.14734600609E+03 -0.76760156894E+01  0.19121661929E+03  0.24152341961E+03  0.00000000000E+00 0.  1.
         -3    1    6    6    0  502 -0.29566585203E+02 -0.68029491198E+02 -0.63182523741E+02  0.97438318641E+02  0.00000000000E+00 0.  1.
<mgrwt>
<rscale>  0 0.17318253E+04</rscale>
<asrwt>0</asrwt>
<pdfrwt beam="1">  1        1 0.76514381E-01 0.17318253E+04</pdfrwt>
<pdfrwt beam="2">  1       -1 0.23194145E+00 0.17318253E+04</pdfrwt>
<totfact> 0.38829770E+00</totfact>
</mgrwt>
</event>
<event>
12    1  0.1097093E-007  0.1111271E+04  0.7818608E-02  0.9194275E-01
          1   -1    0    0  501    0  0.00000000000E+00  0.00000000000E+00  0.48830320069E+03  0.48830320069E+03  0.00000000000E+00 0. -1.
         -1   -1    0    0    0  501 -0.00000000000E+00 -0.00000000000E+00 -0.63225263395E+03  0.63225263395E+03  0.00000000000E+00 0.  1.
         23    2    1    2    0    0  0.19940494268E+03  0.17130642896E+02 -0.41304437213E+00  0.21983339113E+03  0.90943714227E+02 0.  0.
        254    2    1    2    0    0 -0.19940494268E+03 -0.17130642896E+02 -0.14353638889E+03  0.90072244351E+03  0.86639623453E+03 0.  0.
        -24    2    4    4    0    0  0.31978410557E+03 -0.11604695760E+02 -0.17558103947E+03  0.37460770192E+03  0.84295229834E+02 0.  0.
         24    2    4    4    0    0 -0.51918904825E+03 -0.55259471358E+01  0.32044650580E+02  0.52611474159E+03  0.78626062908E+02 0.  0.
         11    1    3    3    0    0  0.19769501738E+03  0.17095170265E+02 -0.20668126168E+02  0.19950623094E+03  0.00000000000E+00 0.  1.
        -11    1    3    3    0    0  0.17099253004E+01  0.35472631353E-01  0.20255081796E+02  0.20327160191E+02  0.00000000000E+00 0. -1.
          4    1    6    6  502    0 -0.45282795611E+03  0.19307098874E+02  0.16306407215E+02  0.45353260171E+03  0.00000000000E+00 0. -1.
          1    1    5    5  503    0  0.32396848437E+03 -0.62673565329E+01 -0.17324033877E+03  0.36743308724E+03  0.00000000000E+00 0. -1.
         -2    1    5    5    0  503 -0.41843787979E+01 -0.53373392271E+01 -0.23407007010E+01  0.71746146741E+01  0.00000000000E+00 0.  1.
         -3    1    6    6    0  502 -0.66361092148E+02 -0.24833046009E+02  0.15738243366E+02  0.72582139879E+02  0.00000000000E+00 0.  1.
<mgrwt>
<rscale>  0 0.11112713E+04</rscale>
<asrwt>0</asrwt>
<pdfrwt beam="1">  1        1 0.75123570E-01 0.11112713E+04</pdfrwt>
<pdfrwt beam="2">  1       -1 0.97269636E-01 0.11112713E+04</pdfrwt>
<totfact> 0.46318501E+01</totfact>
</mgrwt>
</event>
<event>
12    1  0.1097093E-007  0.1692832E+04  0.7818608E-02  0.8765463E-01
         -2   -1    0    0    0  501 -0.00000000000E+00  0.00000000000E+00  0.69292150542E+03  0.69292150542E+03  0.00000000000E+00 0.  1.
          2   -1    0    0  501    0  0.00000000000E+00 -0.00000000000E+00 -0.10339117472E+04  0.10339117472E+04  0.00000000000E+00 0. -1.
         23    2    1    2    0    0 -0.12623738979E+03  0.55722287474E+03 -0.51731408301E+01  0.57863521685E+03  0.91426156410E+02 0.  0.
        254    2    1    2    0    0  0.12623738979E+03 -0.55722287474E+03 -0.33581710091E+03  0.11481980357E+04  0.93763126722E+03 0.  0.
        -24    2    4    4    0    0  0.15861812310E+03 -0.75893382565E+03 -0.42286301140E+02  0.78076187005E+03  0.81613146997E+02 0.  0.
         24    2    4    4    0    0 -0.32380733313E+02  0.20171095091E+03 -0.29353079977E+03  0.36743616568E+03  0.84339704949E+02 0.  0.
         11    1    3    3    0    0 -0.18401943452E+02  0.20229468582E+03 -0.36436626893E+02  0.20637199231E+03  0.00000000000E+00 0.  1.
        -11    1    3    3    0    0 -0.10783544634E+03  0.35492818892E+03  0.31263486062E+02  0.37226322453E+03  0.00000000000E+00 0. -1.
          4    1    6    6  502    0 -0.44358104542E+01  0.96365818532E+02 -0.71428127616E+02  0.12003343205E+03  0.00000000000E+00 0. -1.
          1    1    5    5  503    0 -0.63040519580E+01 -0.46001949164E+02 -0.13838170917E+02  0.48450132841E+02  0.00000000000E+00 0. -1.
         -4    1    5    5    0  503  0.16492217506E+03 -0.71293187649E+03 -0.28448130223E+02  0.73231173721E+03  0.00000000000E+00 0.  1.
         -3    1    6    6    0  502 -0.27944922859E+02  0.10534513238E+03 -0.22210267215E+03  0.24740273363E+03  0.00000000000E+00 0.  1.
<mgrwt>
<rscale>  0 0.16928316E+04</rscale>
<asrwt>0</asrwt>
<pdfrwt beam="1">  1        2 0.15906335E+00 0.16928316E+04</pdfrwt>
<pdfrwt beam="2">  1       -2 0.10660331E+00 0.16928316E+04</pdfrwt>
<totfact> 0.16172728E+01</totfact>
</mgrwt>
</event>
<event>
12    1  0.1097093E-007  0.1712457E+04  0.7818608E-02  0.8754291E-01
          2   -1    0    0  501    0  0.00000000000E+00  0.00000000000E+00  0.29950677772E+04  0.29950677772E+04  0.00000000000E+00 0. -1.
         -2   -1    0    0    0  501 -0.00000000000E+00 -0.00000000000E+00 -0.24477821067E+03  0.24477821067E+03  0.00000000000E+00 0.  1.
         23    2    1    2    0    0 -0.14080017537E+03  0.51374771377E+03  0.41462720725E+03  0.68127204263E+03  0.91948204395E+02 0.  0.
        254    2    1    2    0    0  0.14080017537E+03 -0.51374771377E+03  0.23356623593E+04  0.25585739452E+04  0.89845454748E+03 0.  0.
        -24    2    4    4    0    0  0.28296077713E+03 -0.21530974302E+03  0.24146655307E+03  0.43683639401E+03  0.78069533379E+02 0.  0.
         24    2    4    4    0    0 -0.14216060176E+03 -0.29843797075E+03  0.20941958062E+04  0.21217375512E+04  0.82700075399E+02 0.  0.
         11    1    3    3    0    0 -0.89448860862E+02  0.16362338445E+03  0.13384478540E+03  0.22953896669E+03  0.00000000000E+00 0. -1.
        -11    1    3    3    0    0 -0.51351314504E+02  0.35012432932E+03  0.28078242184E+03  0.45173307594E+03  0.00000000000E+00 0.  1.
          4    1    6    6  502    0 -0.50634931270E+02 -0.13698366456E+03  0.68666305706E+03  0.70202177641E+03  0.00000000000E+00 0. -1.
          3    1    5    5  503    0  0.26919119742E+02 -0.19465605895E+01  0.32858092915E+01  0.27188686038E+02  0.00000000000E+00 0. -1.
         -4    1    5    5    0  503  0.25604165739E+03 -0.21336318243E+03  0.23818074378E+03  0.40964770797E+03  0.00000000000E+00 0.  1.
         -3    1    6    6    0  502 -0.91525670494E+02 -0.16145430619E+03  0.14075327492E+04  0.14197157748E+04  0.00000000000E+00 0.  1.
<mgrwt>
<rscale>  0 0.17124571E+04</rscale>
<asrwt>0</asrwt>
<pdfrwt beam="1">  1        2 0.46077963E+00 0.17124571E+04</pdfrwt>
<pdfrwt beam="2">  1       -2 0.37658188E-01 0.17124571E+04</pdfrwt>
<totfact> 0.11141976E+01</totfact>
</mgrwt>
</event>
<event>
12    1  0.1097093E-007  0.2115140E+04  0.7818608E-02  0.8554603E-01
          2   -1    0    0  501    0  0.00000000000E+00  0.00000000000E+00  0.51497556030E+04  0.51497556030E+04  0.00000000000E+00 0. -1.
         -2   -1    0    0    0  501 -0.00000000000E+00 -0.00000000000E+00 -0.21718584003E+03  0.21718584003E+03  0.00000000000E+00 0.  1.
         23    2    1    2    0    0 -0.45327746396E+03 -0.13162329517E+02  0.15948654188E+03  0.48865451789E+03  0.87826958052E+02 0.  0.
        254    2    1    2    0    0  0.45327746396E+03  0.13162329517E+02  0.47730832211E+04  0.48782869251E+04  0.89984786615E+03 0.  0.
        -24    2    4    4    0    0  0.41934078650E+03  0.17490946277E+03  0.46120764639E+04  0.46351090373E+04  0.80910221311E+02 0.  0.
         24    2    4    4    0    0  0.33936677465E+02 -0.16174713326E+03  0.16100675717E+03  0.24317788776E+03  0.76801536750E+02 0.  0.
         13    1    3    3    0    0 -0.43325452291E+03 -0.31372224306E+02  0.15503305184E+03  0.46122548200E+03  0.00000000000E+00 0.  1.
        -13    1    3    3    0    0 -0.20022941052E+02  0.18209894790E+02  0.44534900424E+01  0.27429035896E+02  0.00000000000E+00 0. -1.
          2    1    6    6  502    0  0.35780081003E+02 -0.78553145171E+02  0.37173510777E+02  0.93982342577E+02  0.00000000000E+00 0. -1.
          3    1    5    5  503    0  0.40802474813E+03  0.18259621050E+03  0.45146573348E+04  0.45367341141E+04  0.00000000000E+00 0. -1.
         -4    1    5    5    0  503  0.11316038367E+02 -0.76867477275E+01  0.97419129100E+02  0.98374923276E+02  0.00000000000E+00 0.  1.
         -1    1    6    6    0  502 -0.18434035376E+01 -0.83193988086E+02  0.12383324640E+03  0.14919554519E+03  0.00000000000E+00 0.  1.
<mgrwt>
<rscale>  0 0.21151397E+04</rscale>
<asrwt>0</asrwt>
<pdfrwt beam="1">  1        2 0.79227000E+00 0.21151397E+04</pdfrwt>
<pdfrwt beam="2">  1       -2 0.33413210E-01 0.21151397E+04</pdfrwt>
<totfact> 0.17143041E-01</totfact>
</mgrwt>
</event>
<event>
12    1  0.1097093E-007  0.1821460E+04  0.7818608E-02  0.8694970E-01
          2   -1    0    0  501    0  0.00000000000E+00  0.00000000000E+00  0.12560274420E+04  0.12560274420E+04  0.00000000000E+00 0. -1.
         -2   -1    0    0    0  501 -0.00000000000E+00 -0.00000000000E+00 -0.66035935313E+03  0.66035935313E+03  0.00000000000E+00 0.  1.
         23    2    1    2    0    0 -0.49491029919E+03 -0.27193922207E+03 -0.18077201651E+03  0.59994934677E+03  0.91507114440E+02 0.  0.
        254    2    1    2    0    0  0.49491029919E+03  0.27193922207E+03  0.77644010536E+03  0.13164374483E+04  0.90070037939E+03 0.  0.
        -24    2    4    4    0    0  0.73122177636E+03  0.64109021551E+02  0.55836235808E+03  0.92550672057E+03  0.77452656686E+02 0.  0.
         24    2    4    4    0    0 -0.23631147717E+03  0.20783020052E+03  0.21807774729E+03  0.39093072778E+03  0.78945700143E+02 0.  0.
         13    1    3    3    0    0 -0.49152341265E+03 -0.27761935652E+03 -0.18220370971E+03  0.59318290951E+03  0.00000000000E+00 0.  1.
        -13    1    3    3    0    0 -0.33868865436E+01  0.56801344522E+01  0.14316932020E+01  0.67664372663E+01  0.00000000000E+00 0. -1.
          2    1    6    6  502    0 -0.19486186382E+03  0.16154047253E+03  0.20876865148E+03  0.32810184406E+03  0.00000000000E+00 0. -1.
          1    1    5    5  503    0  0.63163466419E+03  0.79654952662E+02  0.46810818785E+03  0.79021043781E+03  0.00000000000E+00 0. -1.
         -2    1    5    5    0  503  0.99587112168E+02 -0.15545931111E+02  0.90254170225E+02  0.13529628275E+03  0.00000000000E+00 0.  1.
         -3    1    6    6    0  502 -0.41449613352E+02  0.46289727990E+02  0.93090958026E+01  0.62828883716E+02  0.00000000000E+00 0.  1.
<mgrwt>
<rscale>  0 0.18214604E+04</rscale>
<asrwt>0</asrwt>
<pdfrwt beam="1">  1        2 0.19323499E+00 0.18214604E+04</pdfrwt>
<pdfrwt beam="2">  1       -2 0.10159375E+00 0.18214604E+04</pdfrwt>
<totfact> 0.13154658E+01</totfact>
</mgrwt>
</event>
<event>
12    1  0.1097093E-007  0.1578946E+04  0.7818608E-02  0.8833588E-01
         -1   -1    0    0    0  501 -0.00000000000E+00  0.00000000000E+00  0.37832643198E+03  0.37832643198E+03  0.00000000000E+00 0.  1.
          1   -1    0    0  501    0  0.00000000000E+00 -0.00000000000E+00 -0.16474339110E+04  0.16474339110E+04  0.00000000000E+00 0. -1.
         23    2    1    2    0    0 -0.19118295297E+03  0.30326343904E+02  0.19782133508E+03  0.29085935744E+03  0.89416310339E+02 0.  0.
        254    2    1    2    0    0  0.19118295297E+03 -0.30326343904E+02 -0.14669288141E+04  0.17349009856E+04  0.90583148290E+03 0.  0.
        -24    2    4    4    0    0 -0.18906874896E+03  0.24611860392E+02 -0.12866077042E+04  0.13029474469E+04  0.77200580359E+02 0.  0.
         24    2    4    4    0    0  0.38025170193E+03 -0.54938204296E+02 -0.18032110998E+03  0.43195353864E+03  0.80365376416E+02 0.  0.
         13    1    3    3    0    0 -0.96391098838E+02 -0.26364981815E+02  0.70449074506E+02  0.12226785473E+03  0.00000000000E+00 0. -1.
        -13    1    3    3    0    0 -0.94791854137E+02  0.56691325719E+02  0.12737226057E+03  0.16859150271E+03  0.00000000000E+00 0.  1.
          2    1    6    6  502    0  0.26957887862E+03 -0.33953766574E+01 -0.11097722875E+03  0.29154801608E+03  0.00000000000E+00 0. -1.
          1    1    5    5  503    0 -0.10791027381E+02 -0.19250121731E+02 -0.14598433429E+03  0.14764294537E+03  0.00000000000E+00 0. -1.
         -2    1    5    5    0  503 -0.17827772158E+03  0.43861982123E+02 -0.11406233699E+04  0.11553045016E+04  0.00000000000E+00 0.  1.
         -1    1    6    6    0  502  0.11067282331E+03 -0.51542827638E+02 -0.69343881229E+02  0.14040552256E+03  0.00000000000E+00 0.  1.
<mgrwt>
<rscale>  0 0.15789462E+04</rscale>
<asrwt>0</asrwt>
<pdfrwt beam="1">  1        1 0.25345137E+00 0.15789462E+04</pdfrwt>
<pdfrwt beam="2">  1       -1 0.58204067E-01 0.15789462E+04</pdfrwt>
<totfact> 0.14883119E+01</totfact>
</mgrwt>
</event>
<event>
12    1  0.1097093E-007  0.1319813E+04  0.7818608E-02  0.9013999E-01
         -2   -1    0    0    0  501 -0.00000000000E+00  0.00000000000E+00  0.49812270368E+03  0.49812270368E+03  0.00000000000E+00 0.  1.
          2   -1    0    0  501    0  0.00000000000E+00 -0.00000000000E+00 -0.87423513870E+03  0.87423513870E+03  0.00000000000E+00 0. -1.
         23    2    1    2    0    0 -0.33729333784E+02  0.23764881561E+03 -0.36213071051E+03  0.44387743085E+03  0.90960951005E+02 0.  0.
        254    2    1    2    0    0  0.33729333784E+02 -0.23764881561E+03 -0.13981724519E+02  0.92848041153E+03  0.89680865209E+03 0.  0.
        -24    2    4    4    0    0  0.13898410281E+03 -0.55761388451E+03 -0.36747986016E+02  0.58113421728E+03  0.78209583642E+02 0.  0.
         24    2    4    4    0    0 -0.10525476903E+03  0.31996506891E+03  0.22766261497E+02  0.34734619426E+03  0.81699842602E+02 0.  0.
         11    1    3    3    0    0 -0.18411774481E+02  0.13562838854E+03 -0.28125344629E+03  0.31278995231E+03  0.00000000000E+00 0. -1.
        -11    1    3    3    0    0 -0.15317559303E+02  0.10202042707E+03 -0.80877264219E+02  0.13108747854E+03  0.00000000000E+00 0.  1.
          4    1    6    6  502    0  0.60657863640E+01  0.96304699881E+02  0.12513245206E+02  0.97303495769E+02  0.00000000000E+00 0. -1.
          3    1    5    5  503    0  0.13684880583E+02 -0.91307457375E+02 -0.33675750558E+02  0.98277077208E+02  0.00000000000E+00 0. -1.
         -4    1    5    5    0  503  0.12529922223E+03 -0.46630642714E+03 -0.30722354571E+01  0.48285714007E+03  0.00000000000E+00 0.  1.
         -3    1    6    6    0  502 -0.11132055539E+03  0.22366036902E+03  0.10253016290E+02  0.25004269849E+03  0.00000000000E+00 0.  1.
<mgrwt>
<rscale>  0 0.13198127E+04</rscale>
<asrwt>0</asrwt>
<pdfrwt beam="1">  1        2 0.13449771E+00 0.13198127E+04</pdfrwt>
<pdfrwt beam="2">  1       -2 0.76634262E-01 0.13198127E+04</pdfrwt>
<totfact> 0.45506883E+01</totfact>
</mgrwt>
</event>
<event>
12    1  0.1097093E-007  0.1258058E+04  0.7818608E-02  0.9063503E-01
          2   -1    0    0  501    0  0.00000000000E+00  0.00000000000E+00  0.80580985347E+03  0.80580985347E+03  0.00000000000E+00 0. -1.
         -2   -1    0    0    0  501 -0.00000000000E+00 -0.00000000000E+00 -0.49103096629E+03  0.49103096629E+03  0.00000000000E+00 0.  1.
         23    2    1    2    0    0 -0.15111279667E+03  0.60181112730E+02  0.29443119348E+03  0.34874494858E+03  0.92067734960E+02 0.  0.
        254    2    1    2    0    0  0.15111279667E+03 -0.60181112730E+02  0.20347693700E+02  0.94809587117E+03  0.93381738506E+03 0.  0.
        -24    2    4    4    0    0  0.68641716710E+02 -0.64745213592E+02  0.46904790645E+03  0.48499649738E+03  0.79448322623E+02 0.  0.
         24    2    4    4    0    0  0.82471079963E+02  0.45641008616E+01 -0.44870021275E+03  0.46309937379E+03  0.79415609491E+02 0.  0.
         11    1    3    3    0    0 -0.25994427273E+02  0.10257052733E+02  0.35305645019E+01  0.28167042190E+02  0.00000000000E+00 0.  1.
        -11    1    3    3    0    0 -0.12511836940E+03  0.49924059998E+02  0.29090062898E+03  0.32057790639E+03  0.00000000000E+00 0. -1.
          2    1    6    6  502    0 -0.42222978863E+01 -0.23090117681E+02 -0.83989475220E+02  0.87207873966E+02  0.00000000000E+00 0. -1.
          3    1    5    5  503    0 -0.12485521400E+02 -0.18272605326E+02  0.17624002202E+03  0.17762410228E+03  0.00000000000E+00 0. -1.
         -4    1    5    5    0  503  0.81127238110E+02 -0.46472608266E+02  0.29280788443E+03  0.30737239510E+03  0.00000000000E+00 0.  1.
         -1    1    6    6    0  502  0.86693377849E+02  0.27654218542E+02 -0.36471073753E+03  0.37589149982E+03  0.00000000000E+00 0.  1.
<mgrwt>
<rscale>  0 0.12580582E+04</rscale>
<asrwt>0</asrwt>
<pdfrwt beam="1">  1        2 0.12397075E+00 0.12580582E+04</pdfrwt>
<pdfrwt beam="2">  1       -2 0.75543226E-01 0.12580582E+04</pdfrwt>
<totfact> 0.52718739E+01</totfact>
</mgrwt>
</event>
<event>
12    1  0.1097093E-007  0.4372079E+04  0.7818608E-02  0.7933423E-01
         -2   -1    0    0    0  501 -0.00000000000E+00  0.00000000000E+00  0.16690287966E+04  0.16690287966E+04  0.00000000000E+00 0.  1.
          2   -1    0    0  501    0  0.00000000000E+00 -0.00000000000E+00 -0.28632026414E+04  0.28632026414E+04  0.00000000000E+00 0. -1.
         23    2    1    2    0    0  0.15312151314E+04  0.14267539444E+04 -0.55030354089E+03  0.21659204357E+04  0.90170673610E+02 0.  0.
        254    2    1    2    0    0 -0.15312151314E+04 -0.14267539444E+04 -0.64387030390E+03  0.23663110022E+04  0.89700178073E+03 0.  0.
        -24    2    4    4    0    0 -0.19237483883E+03 -0.22647579220E+03 -0.46409484089E+03  0.55742678615E+03  0.83912082010E+02 0.  0.
         24    2    4    4    0    0 -0.13388402925E+04 -0.12002781522E+04 -0.17977546300E+03  0.18088842161E+04  0.81129023849E+02 0.  0.
         13    1    3    3    0    0  0.63387753254E+03  0.61856264339E+03 -0.19196382664E+03  0.90623980314E+03  0.00000000000E+00 0. -1.
        -13    1    3    3    0    0  0.89733759883E+03  0.80819130100E+03 -0.35833971425E+03  0.12596806326E+04  0.00000000000E+00 0.  1.
          2    1    6    6  502    0 -0.41118064520E+03 -0.33643858847E+03 -0.81483857238E+02  0.53749424721E+03  0.00000000000E+00 0. -1.
          1    1    5    5  503    0 -0.10416442899E+02 -0.85787232948E+01 -0.11858477085E+00  0.13494844882E+02  0.00000000000E+00 0. -1.
         -4    1    5    5    0  503 -0.18195839594E+03 -0.21789706890E+03 -0.46397625612E+03  0.54393194127E+03  0.00000000000E+00 0.  1.
         -1    1    6    6    0  502 -0.92765964734E+03 -0.86383956373E+03 -0.98291605766E+02  0.12713899689E+04  0.00000000000E+00 0.  1.
<mgrwt>
<rscale>  0 0.43720785E+04</rscale>
<asrwt>0</asrwt>
<pdfrwt beam="1">  1        2 0.44049271E+00 0.43720785E+04</pdfrwt>
<pdfrwt beam="2">  1       -2 0.25677366E+00 0.43720785E+04</pdfrwt>
<totfact> 0.94574933E-02</totfact>
</mgrwt>
</event>
<event>
12    1  0.1790803E-007  0.2710922E+04  0.7818608E-02  0.8331470E-01
         -2   -1    0    0    0  501 -0.00000000000E+00  0.00000000000E+00  0.13934283784E+04  0.13934283784E+04  0.00000000000E+00 0.  1.
          2   -1    0    0  501    0  0.00000000000E+00 -0.00000000000E+00 -0.13185279509E+04  0.13185279509E+04  0.00000000000E+00 0. -1.
         23    2    1    2    0    0 -0.20288361854E+03 -0.11890910705E+04  0.10873701029E+03  0.12147986567E+04  0.93875993401E+02 0.  0.
        254    2    1    2    0    0  0.20288361854E+03  0.11890910705E+04 -0.33836582789E+02  0.14971576727E+04  0.88613590714E+03 0.  0.
        -24    2    4    4    0    0 -0.28593471269E+03  0.80599040843E+03  0.72682284464E+02  0.86203006856E+03  0.80211758579E+02 0.  0.
         24    2    4    4    0    0  0.48881833123E+03  0.38310066210E+03 -0.10651886725E+03  0.63512760415E+03  0.79569631270E+02 0.  0.
         11    1    3    3    0    0 -0.13388818801E+03 -0.88285163656E+03  0.11823163210E+03  0.90073957274E+03  0.00000000000E+00 0.  1.
        -11    1    3    3    0    0 -0.68995430537E+02 -0.30623943397E+03 -0.94946218163E+01  0.31405908393E+03  0.00000000000E+00 0. -1.
          4    1    6    6  502    0  0.48693654604E+03  0.36670350967E+03 -0.10504329760E+03  0.61855699677E+03  0.00000000000E+00 0. -1.
          1    1    5    5  503    0 -0.28081772364E+03  0.79912260677E+03  0.79957054241E+02  0.85079296253E+03  0.00000000000E+00 0. -1.
         -2    1    5    5    0  503 -0.51169890485E+01  0.68678016595E+01 -0.72747697769E+01  0.11237106027E+02  0.00000000000E+00 0.  1.
         -3    1    6    6    0  502  0.18817851912E+01  0.16397152429E+02 -0.14755696554E+01  0.16570607385E+02  0.00000000000E+00 0.  1.
<mgrwt>
<rscale>  0 0.27109218E+04</rscale>
<asrwt>0</asrwt>
<pdfrwt beam="1">  1        2 0.20285045E+00 0.27109218E+04</pdfrwt>
<pdfrwt beam="2">  1       -2 0.21437360E+00 0.27109218E+04</pdfrwt>
<totfact> 0.15171712E+00</totfact>
</mgrwt>
</event>
<event>
12    1  0.1097093E-007  0.1240474E+04  0.7818608E-02  0.9078149E-01
          1   -1    0    0  501    0  0.00000000000E+00  0.00000000000E+00  0.27490718082E+04  0.27490718082E+04  0.00000000000E+00 0. -1.
         -1   -1    0    0    0  501 -0.00000000000E+00 -0.00000000000E+00 -0.13993598257E+03  0.13993598257E+03  0.00000000000E+00 0.  1.
         23    2    1    2    0    0  0.64196363395E+01  0.26707079786E+03  0.84015530527E+03  0.88734915008E+03  0.10079461480E+03 0.  0.
        254    2    1    2    0    0 -0.64196363395E+01 -0.26707079786E+03  0.17689805203E+04  0.20016586406E+04  0.89776233473E+03 0.  0.
        -24    2    4    4    0    0  0.39761025362E+03  0.60176551778E+02  0.81804810581E+03  0.91503692335E+03  0.79841946936E+02 0.  0.
         24    2    4    4    0    0 -0.40402988996E+03 -0.32724734963E+03  0.95093241449E+03  0.10866217173E+04  0.78379332418E+02 0.  0.
         11    1    3    3    0    0 -0.45168926943E+02  0.10503503862E+03  0.29950733759E+03  0.32058889028E+03  0.00000000000E+00 0.  1.
        -11    1    3    3    0    0  0.51588563283E+02  0.16203575923E+03  0.54064796768E+03  0.56676025980E+03  0.00000000000E+00 0. -1.
          2    1    6    6  502    0 -0.20046747508E+03 -0.20976484188E+03  0.55157079818E+03  0.62323257526E+03  0.00000000000E+00 0. -1.
          1    1    5    5  503    0  0.72118347248E+02  0.42840376294E+02  0.15757734725E+03  0.17851323261E+03  0.00000000000E+00 0. -1.
         -2    1    5    5    0  503  0.32549190638E+03  0.17336175483E+02  0.66047075856E+03  0.73652369074E+03  0.00000000000E+00 0.  1.
         -1    1    6    6    0  502 -0.20356241489E+03 -0.11748250775E+03  0.39936161631E+03  0.46338914204E+03  0.00000000000E+00 0.  1.
<mgrwt>
<rscale>  0 0.12404742E+04</rscale>
<asrwt>0</asrwt>
<pdfrwt beam="1">  1        1 0.42293408E+00 0.12404742E+04</pdfrwt>
<pdfrwt beam="2">  1       -1 0.21528615E-01 0.12404742E+04</pdfrwt>
<totfact> 0.16290611E+01</totfact>
</mgrwt>
</event>
<event>
12    1  0.1097093E-007  0.1844121E+04  0.7818608E-02  0.8683182E-01
          2   -1    0    0  501    0  0.00000000000E+00  0.00000000000E+00  0.82243788667E+03  0.82243788667E+03  0.00000000000E+00 0. -1.
         -2   -1    0    0    0  501 -0.00000000000E+00 -0.00000000000E+00 -0.10337502863E+04  0.10337502863E+04  0.00000000000E+00 0.  1.
         23    2    1    2    0    0  0.31375370158E+03 -0.59441992664E+03 -0.27571329651E+03  0.73204964474E+03  0.90013477003E+02 0.  0.
        254    2    1    2    0    0 -0.31375370158E+03  0.59441992664E+03  0.64400896851E+02  0.11241385283E+04  0.89875665270E+03 0.  0.
        -24    2    4    4    0    0  0.76393860041E+02  0.53832820775E+03 -0.25934412419E+03  0.60766635653E+03  0.79785618937E+02 0.  0.
         24    2    4    4    0    0 -0.39014756162E+03  0.56091718889E+02  0.32374502104E+03  0.51647217173E+03  0.81063337990E+02 0.  0.
         11    1    3    3    0    0  0.47649717039E+02 -0.48309662043E+02 -0.85014250795E+01  0.68385621361E+02  0.00000000000E+00 0. -1.
        -11    1    3    3    0    0  0.26610398454E+03 -0.54611026460E+03 -0.26721187143E+03  0.66366402338E+03  0.00000000000E+00 0.  1.
          2    1    6    6  502    0 -0.17461811508E+03  0.65611730008E+02  0.14355604452E+03  0.23538207907E+03  0.00000000000E+00 0. -1.
          3    1    5    5  503    0  0.85841698021E+02  0.45030875276E+03 -0.23837873094E+03  0.51669254813E+03  0.00000000000E+00 0. -1.
         -4    1    5    5    0  503 -0.94478379801E+01  0.88019454992E+02 -0.20965393250E+02  0.90973808394E+02  0.00000000000E+00 0.  1.
         -1    1    6    6    0  502 -0.21552944653E+03 -0.95200111194E+01  0.18018897651E+03  0.28109009266E+03  0.00000000000E+00 0.  1.
<mgrwt>
<rscale>  0 0.18441208E+04</rscale>
<asrwt>0</asrwt>
<pdfrwt beam="1">  1        2 0.12652891E+00 0.18441208E+04</pdfrwt>
<pdfrwt beam="2">  1       -2 0.15903851E+00 0.18441208E+04</pdfrwt>
<totfact> 0.79922597E+00</totfact>
</mgrwt>
</event>
<event>
12    1  0.1097093E-007  0.1133290E+04  0.7818608E-02  0.9173339E-01
         -2   -1    0    0    0  501 -0.00000000000E+00  0.00000000000E+00  0.32463066253E+03  0.32463066253E+03  0.00000000000E+00 0.  1.
          2   -1    0    0  501    0  0.00000000000E+00 -0.00000000000E+00 -0.98908272984E+03  0.98908272984E+03  0.00000000000E+00 0. -1.
         23    2    1    2    0    0 -0.30801286554E+02  0.14065331623E+03 -0.27163513704E+03  0.32053698624E+03  0.90698606645E+02 0.  0.
        254    2    1    2    0    0  0.30801286554E+02 -0.14065331623E+03 -0.39281693026E+03  0.99317640614E+03  0.90075643677E+03 0.  0.
        -24    2    4    4    0    0  0.18535796120E+03 -0.47931655830E+03 -0.14987611635E+03  0.54117462065E+03  0.79405182124E+02 0.  0.
         24    2    4    4    0    0 -0.15455667465E+03  0.33866324206E+03 -0.24294081391E+03  0.45200178549E+03  0.81882951927E+02 0.  0.
         11    1    3    3    0    0 -0.23340849922E+02  0.99498056220E+02 -0.25640896713E+03  0.27602575404E+03  0.00000000000E+00 0. -1.
        -11    1    3    3    0    0 -0.74604366313E+01  0.41155260013E+02 -0.15226169911E+02  0.44511232196E+02  0.00000000000E+00 0.  1.
          2    1    6    6  502    0 -0.98893253522E+02  0.12139183263E+03 -0.91094764920E+02  0.18114665003E+03  0.00000000000E+00 0. -1.
          3    1    5    5  503    0  0.48838362878E+02 -0.57434813357E+02 -0.90745809449E+01  0.75936101383E+02  0.00000000000E+00 0. -1.
         -4    1    5    5    0  503  0.13651959832E+03 -0.42188174494E+03 -0.14080153540E+03  0.46523851927E+03  0.00000000000E+00 0.  1.
         -1    1    6    6    0  502 -0.55663421126E+02  0.21727140943E+03 -0.15184604899E+03  0.27085513546E+03  0.00000000000E+00 0.  1.
<mgrwt>
<rscale>  0 0.11332900E+04</rscale>
<asrwt>0</asrwt>
<pdfrwt beam="1">  1        2 0.15216657E+00 0.11332900E+04</pdfrwt>
<pdfrwt beam="2">  1       -2 0.49943179E-01 0.11332900E+04</pdfrwt>
<totfact> 0.96200286E+01</totfact>
</mgrwt>
</event>
<event>
12    1  0.1097093E-007  0.1770641E+04  0.7818608E-02  0.8722070E-01
         -2   -1    0    0    0  501 -0.00000000000E+00  0.00000000000E+00  0.15223882520E+04  0.15223882520E+04  0.00000000000E+00 0.  1.
          2   -1    0    0  501    0  0.00000000000E+00 -0.00000000000E+00 -0.51484372965E+03  0.51484372965E+03  0.00000000000E+00 0. -1.
         23    2    1    2    0    0 -0.50827553358E+03  0.85119317596E+02 -0.78519466038E+02  0.52951649301E+03  0.92914442137E+02 0.  0.
        254    2    1    2    0    0  0.50827553358E+03 -0.85119317596E+02  0.10860639884E+04  0.15077154887E+04  0.90998994037E+03 0.  0.
        -24    2    4    4    0    0 -0.80302245914E+01 -0.20203525293E+03 -0.73929879249E+02  0.23023026433E+03  0.81594237750E+02 0.  0.
         24    2    4    4    0    0  0.51630575818E+03  0.11691593534E+03  0.11599938677E+04  0.12774852243E+04  0.78369340493E+02 0.  0.
         11    1    3    3    0    0 -0.50340218096E+03  0.95114893904E+02 -0.74528638994E+02  0.51770176441E+03  0.00000000000E+00 0. -1.
        -11    1    3    3    0    0 -0.48733526211E+01 -0.99955763086E+01 -0.39908270448E+01  0.11814728605E+02  0.00000000000E+00 0.  1.
          4    1    6    6  502    0  0.42284907998E+03  0.12359234208E+03  0.98364925103E+03  0.10777950921E+04  0.00000000000E+00 0. -1.
          3    1    5    5  503    0 -0.41169879440E+02 -0.68306490040E+02 -0.34732864595E+02  0.86989122526E+02  0.00000000000E+00 0. -1.
         -4    1    5    5    0  503  0.33139654849E+02 -0.13372876289E+03 -0.39197014654E+02  0.14324114181E+03  0.00000000000E+00 0.  1.
         -3    1    6    6    0  502  0.93456678195E+02 -0.66764067426E+01  0.17634461664E+03  0.19969013226E+03  0.00000000000E+00 0.  1.
<mgrwt>
<rscale>  0 0.17706406E+04</rscale>
<asrwt>0</asrwt>
<pdfrwt beam="1">  1        2 0.79206729E-01 0.17706406E+04</pdfrwt>
<pdfrwt beam="2">  1       -2 0.23421357E+00 0.17706406E+04</pdfrwt>
<totfact> 0.45295533E+00</totfact>
</mgrwt>
</event>
<event>
12    1  0.1097093E-007  0.1353669E+04  0.7818608E-02  0.8988055E-01
          1   -1    0    0  501    0  0.00000000000E+00  0.00000000000E+00  0.23100551461E+04  0.23100551461E+04  0.00000000000E+00 0. -1.
         -1   -1    0    0    0  501 -0.00000000000E+00 -0.00000000000E+00 -0.19830915714E+03  0.19830915714E+03  0.00000000000E+00 0.  1.
         23    2    1    2    0    0 -0.46229674421E+02  0.23313465419E+03  0.11135512459E+04  0.11426034974E+04  0.95170506328E+02 0.  0.
        254    2    1    2    0    0  0.46229674421E+02 -0.23313465419E+03  0.99819474304E+03  0.13657608058E+04  0.90134393205E+03 0.  0.
        -24    2    4    4    0    0  0.41144276207E+03 -0.19426514337E+03  0.24282596196E+03  0.52207487298E+03  0.81077942772E+02 0.  0.
         24    2    4    4    0    0 -0.36521308765E+03 -0.38869510816E+02  0.75536878109E+03  0.84368593282E+03  0.79577129524E+02 0.  0.
         13    1    3    3    0    0 -0.30032034328E+02  0.19376216192E+03  0.10334976218E+04  0.10519329982E+04  0.00000000000E+00 0. -1.
        -13    1    3    3    0    0 -0.16197640093E+02  0.39372492271E+02  0.80053624084E+02  0.90670499178E+02  0.00000000000E+00 0.  1.
          2    1    6    6  502    0 -0.19011854816E+03 -0.50673407572E+02  0.45660638439E+03  0.49719437533E+03  0.00000000000E+00 0. -1.
          1    1    5    5  503    0  0.21223231199E+03 -0.61792786717E+02  0.93116063086E+02  0.23985725744E+03  0.00000000000E+00 0. -1.
         -2    1    5    5    0  503  0.19921045009E+03 -0.13247235665E+03  0.14970989887E+03  0.28221761554E+03  0.00000000000E+00 0.  1.
         -1    1    6    6    0  502 -0.17509453949E+03  0.11803896756E+02  0.29876239669E+03  0.34649155750E+03  0.00000000000E+00 0.  1.
<mgrwt>
<rscale>  0 0.13536692E+04</rscale>
<asrwt>0</asrwt>
<pdfrwt beam="1">  1        1 0.35539308E+00 0.13536692E+04</pdfrwt>
<pdfrwt beam="2">  1       -1 0.30509103E-01 0.13536692E+04</pdfrwt>
<totfact> 0.17804908E+01</totfact>
</mgrwt>
</event>
<event>
12    1  0.1097093E-007  0.1411201E+04  0.7818608E-02  0.8945750E-01
         -1   -1    0    0    0  501 -0.00000000000E+00  0.00000000000E+00  0.45677859356E+03  0.45677859356E+03  0.00000000000E+00 0.  1.
          1   -1    0    0  501    0  0.00000000000E+00 -0.00000000000E+00 -0.10899643239E+04  0.10899643239E+04  0.00000000000E+00 0. -1.
         23    2    1    2    0    0  0.33544638484E+03 -0.92754307668E+02  0.71610984764E+02  0.36913168201E+03  0.10001213343E+03 0.  0.
        254    2    1    2    0    0 -0.33544638484E+03  0.92754307668E+02 -0.70479671513E+03  0.11776112355E+04  0.87687067093E+03 0.  0.
        -24    2    4    4    0    0 -0.53585979302E+03  0.15170040081E+03 -0.76199404539E+03  0.94723928455E+03  0.80427654564E+02 0.  0.
         24    2    4    4    0    0  0.20041340818E+03 -0.58946093145E+02  0.57197330254E+02  0.23037195091E+03  0.78482642060E+02 0.  0.
         13    1    3    3    0    0  0.10603358210E+03  0.15879422302E+01  0.57608473156E+02  0.12068296596E+03  0.00000000000E+00 0.  1.
        -13    1    3    3    0    0  0.22941280274E+03 -0.94342249898E+02  0.14002511608E+02  0.24844871605E+03  0.00000000000E+00 0. -1.
          4    1    6    6  502    0 -0.42451929065E+01 -0.68380205067E+01 -0.58771515565E+01  0.99659970741E+01  0.00000000000E+00 0. -1.
          1    1    5    5  503    0 -0.22986883015E+02 -0.45806059366E+01 -0.15291948493E+02  0.27986111381E+02  0.00000000000E+00 0. -1.
         -2    1    5    5    0  503 -0.51287291000E+03  0.15628100675E+03 -0.74670209689E+03  0.91925317317E+03  0.00000000000E+00 0.  1.
         -3    1    6    6    0  502  0.20465860109E+03 -0.52108072639E+02  0.63074481810E+02  0.22040595384E+03  0.00000000000E+00 0.  1.
<mgrwt>
<rscale>  0 0.14112014E+04</rscale>
<asrwt>0</asrwt>
<pdfrwt beam="1">  1        1 0.16768682E+00 0.14112014E+04</pdfrwt>
<pdfrwt beam="2">  1       -1 0.70273631E-01 0.14112014E+04</pdfrwt>
<totfact> 0.25728731E+01</totfact>
</mgrwt>
</event>
<event>
12    1  0.1097093E-007  0.1423354E+04  0.7818608E-02  0.8937085E-01
         -2   -1    0    0    0  501 -0.00000000000E+00  0.00000000000E+00  0.84841106612E+03  0.84841106612E+03  0.00000000000E+00 0.  1.
          2   -1    0    0  501    0  0.00000000000E+00 -0.00000000000E+00 -0.59697941254E+03  0.59697941254E+03  0.00000000000E+00 0. -1.
         23    2    1    2    0    0  0.36104783380E+03  0.12615981688E+03  0.26733188301E+03  0.47542898361E+03  0.91074393215E+02 0.  0.
        254    2    1    2    0    0 -0.36104783380E+03 -0.12615981688E+03 -0.15900229425E+02  0.96996149505E+03  0.89123546098E+03 0.  0.
        -24    2    4    4    0    0  0.25551739930E+03 -0.18325603581E+03  0.85006044153E+02  0.33799615478E+03  0.90241105337E+02 0.  0.
         24    2    4    4    0    0 -0.61656523310E+03  0.57096218934E+02 -0.10090627358E+03  0.63196534028E+03  0.76062148135E+02 0.  0.
         11    1    3    3    0    0  0.29810741721E+03  0.10911655266E+03  0.25898029697E+03  0.40968920962E+03  0.00000000000E+00 0. -1.
        -11    1    3    3    0    0  0.62940416585E+02  0.17043264214E+02  0.83515860437E+01  0.65739773991E+02  0.00000000000E+00 0.  1.
          2    1    6    6  502    0 -0.14597007962E+03 -0.17811788654E+02 -0.15711066505E+02  0.14788969392E+03  0.00000000000E+00 0. -1.
          3    1    5    5  503    0  0.10842454294E+03 -0.25625786367E+02  0.24636085111E+02  0.11410301980E+03  0.00000000000E+00 0. -1.
         -4    1    5    5    0  503  0.14709285636E+03 -0.15763024944E+03  0.60369959042E+02  0.22389313497E+03  0.00000000000E+00 0.  1.
         -1    1    6    6    0  502 -0.47059515348E+03  0.74908007587E+02 -0.85195207073E+02  0.48407564635E+03  0.00000000000E+00 0.  1.
<mgrwt>
<rscale>  0 0.14233537E+04</rscale>
<asrwt>0</asrwt>
<pdfrwt beam="1">  1        2 0.91842986E-01 0.14233537E+04</pdfrwt>
<pdfrwt beam="2">  1       -2 0.13052478E+00 0.14233537E+04</pdfrwt>
<totfact> 0.20834949E+01</totfact>
</mgrwt>
</event>
<event>
12    1  0.1097093E-007  0.1264470E+04  0.7818608E-02  0.9058225E-01
         -2   -1    0    0    0  501 -0.00000000000E+00  0.00000000000E+00  0.74629630245E+03  0.74629630245E+03  0.00000000000E+00 0.  1.
          2   -1    0    0  501    0  0.00000000000E+00 -0.00000000000E+00 -0.53560660712E+03  0.53560660712E+03  0.00000000000E+00 0. -1.
         23    2    1    2    0    0  0.90037305494E+02 -0.22593125639E+03  0.18556180092E+03  0.31926073588E+03  0.91337760646E+02 0.  0.
        254    2    1    2    0    0 -0.90037305494E+02  0.22593125639E+03  0.25127894411E+02  0.96264217369E+03  0.93107298022E+03 0.  0.
        -24    2    4    4    0    0 -0.18048941658E+03  0.52205631242E+03 -0.17575891136E+03  0.58495075484E+03  0.78466348387E+02 0.  0.
         24    2    4    4    0    0  0.90452111088E+02 -0.29612505602E+03  0.20088680578E+03  0.37769141885E+03  0.80147775603E+02 0.  0.
         13    1    3    3    0    0  0.35842691215E+02 -0.19084654083E+03  0.15133053725E+03  0.24618698618E+03  0.00000000000E+00 0.  1.
        -13    1    3    3    0    0  0.54194614279E+02 -0.35084715559E+02  0.34231263670E+02  0.73073749699E+02  0.00000000000E+00 0. -1.
          4    1    6    6  502    0  0.72483466177E+02 -0.11197398137E+03  0.66731983765E+02  0.14914819151E+03  0.00000000000E+00 0. -1.
          1    1    5    5  503    0 -0.13548717746E+03  0.27652369531E+03 -0.10760129940E+03  0.32619038759E+03  0.00000000000E+00 0. -1.
         -4    1    5    5    0  503 -0.45002239123E+02  0.24553261711E+03 -0.68157611965E+02  0.25876036725E+03  0.00000000000E+00 0.  1.
         -3    1    6    6    0  502  0.17968644911E+02 -0.18415107465E+03  0.13415482201E+03  0.22854322734E+03  0.00000000000E+00 0.  1.
<mgrwt>
<rscale>  0 0.12644702E+04</rscale>
<asrwt>0</asrwt>
<pdfrwt beam="1">  1        2 0.82401016E-01 0.12644702E+04</pdfrwt>
<pdfrwt beam="2">  1       -2 0.11481482E+00 0.12644702E+04</pdfrwt>
<totfact> 0.33037313E+01</totfact>
</mgrwt>
</event>
<event>
12    1  0.1097093E-007  0.1374519E+04  0.7818608E-02  0.8972472E-01
         -2   -1    0    0    0  501 -0.00000000000E+00  0.00000000000E+00  0.37324864160E+03  0.37324864160E+03  0.00000000000E+00 0.  1.
          2   -1    0    0  501    0  0.00000000000E+00 -0.00000000000E+00 -0.12654456252E+04  0.12654456252E+04  0.00000000000E+00 0. -1.
         23    2    1    2    0    0 -0.11276212749E+03  0.76221480804E+02 -0.71924629007E+03  0.73730071732E+03  0.88159573743E+02 0.  0.
        254    2    1    2    0    0  0.11276212749E+03 -0.76221480804E+02 -0.17295069353E+03  0.90139354949E+03  0.87411290869E+03 0.  0.
        -24    2    4    4    0    0 -0.36595242498E+03 -0.10676874660E+03 -0.13466901645E+02  0.38975915871E+03  0.80063111137E+02 0.  0.
         24    2    4    4    0    0  0.47871455246E+03  0.30547265793E+02 -0.15948379189E+03  0.51163439078E+03  0.78955124995E+02 0.  0.
         11    1    3    3    0    0  0.14715458545E+02  0.10895742574E+02 -0.63204486714E+02  0.65803260308E+02  0.00000000000E+00 0.  1.
        -11    1    3    3    0    0 -0.12747758603E+03  0.65325738230E+02 -0.65604180336E+03  0.67149745701E+03  0.00000000000E+00 0. -1.
          4    1    6    6  502    0  0.42812501514E+03  0.27473858418E+01 -0.14612862401E+03  0.45238495938E+03  0.00000000000E+00 0. -1.
          3    1    5    5  503    0 -0.31248047508E+03 -0.11379170320E+03 -0.28495251669E+02  0.33377324397E+03  0.00000000000E+00 0. -1.
         -4    1    5    5    0  503 -0.53471949896E+02  0.70229566013E+01  0.15028350023E+02  0.55985914742E+02  0.00000000000E+00 0.  1.
         -3    1    6    6    0  502  0.50589537328E+02  0.27799879952E+02 -0.13355167877E+02  0.59249431402E+02  0.00000000000E+00 0.  1.
<mgrwt>
<rscale>  0 0.13745193E+04</rscale>
<asrwt>0</asrwt>
<pdfrwt beam="1">  1        2 0.19468394E+00 0.13745193E+04</pdfrwt>
<pdfrwt beam="2">  1       -2 0.57422868E-01 0.13745193E+04</pdfrwt>
<totfact> 0.47978438E+01</totfact>
</mgrwt>
</event>
<event>
12    1  0.1097093E-007  0.3306775E+04  0.7818608E-02  0.8161174E-01
         -2   -1    0    0    0  501 -0.00000000000E+00  0.00000000000E+00  0.13514215684E+04  0.13514215684E+04  0.00000000000E+00 0.  1.
          2   -1    0    0  501    0  0.00000000000E+00 -0.00000000000E+00 -0.20228259594E+04  0.20228259594E+04  0.00000000000E+00 0. -1.
         23    2    1    2    0    0  0.42051700840E+03 -0.13857045171E+03  0.11917904354E+04  0.12747908241E+04  0.93224883997E+02 0.  0.
        254    2    1    2    0    0 -0.42051700840E+03  0.13857045171E+03 -0.18631948264E+04  0.20994567038E+04  0.86034130762E+03 0.  0.
        -24    2    4    4    0    0  0.84174481257E+02  0.38413540461E+01  0.41697818793E+02  0.12261229747E+03  0.78708119679E+02 0.  0.
         24    2    4    4    0    0 -0.50469148965E+03  0.13472909766E+03 -0.19048926452E+04  0.19768444063E+04  0.80202167508E+02 0.  0.
         11    1    3    3    0    0  0.64628666231E+02 -0.19466678570E+02  0.10307932594E+03  0.12321186432E+03  0.00000000000E+00 0. -1.
        -11    1    3    3    0    0  0.35588834217E+03 -0.11910377314E+03  0.10887111094E+04  0.11515789598E+04  0.00000000000E+00 0.  1.
          4    1    6    6  502    0 -0.25736713861E+03  0.93762719613E+02 -0.11133846812E+04  0.11465839437E+04  0.00000000000E+00 0. -1.
          3    1    5    5  503    0  0.30331265359E+02  0.71432420766E+01  0.58355845837E+02  0.66154488200E+02  0.00000000000E+00 0. -1.
         -4    1    5    5    0  503  0.53843215897E+02 -0.33018880305E+01 -0.16658027044E+02  0.56457809272E+02  0.00000000000E+00 0.  1.
         -3    1    6    6    0  502 -0.24732435104E+03  0.40966378050E+02 -0.79150796393E+03  0.83026046257E+03  0.00000000000E+00 0.  1.
<mgrwt>
<rscale>  0 0.33067752E+04</rscale>
<asrwt>0</asrwt>
<pdfrwt beam="1">  1        2 0.31120399E+00 0.33067752E+04</pdfrwt>
<pdfrwt beam="2">  1       -2 0.20791101E+00 0.33067752E+04</pdfrwt>
<totfact> 0.63979473E-01</totfact>
</mgrwt>
</event>
<event>
12    1  0.1264160E-007  0.1825346E+04  0.7818608E-02  0.8692936E-01
          1   -1    0    0  501    0  0.00000000000E+00  0.00000000000E+00  0.10674720782E+04  0.10674720782E+04  0.00000000000E+00 0. -1.
         -1   -1    0    0    0  501 -0.00000000000E+00 -0.00000000000E+00 -0.78032236043E+03  0.78032236043E+03  0.00000000000E+00 0.  1.
         23    2    1    2    0    0 -0.17300109831E+02 -0.19671719744E+03 -0.58219094260E+03  0.62149796309E+03  0.91194708780E+02 0.  0.
        254    2    1    2    0    0  0.17300109831E+02  0.19671719744E+03  0.86934066038E+03  0.12262964755E+04  0.84205279679E+03 0.  0.
        -24    2    4    4    0    0  0.88362640544E+02  0.44785888571E+03  0.20128322861E+03  0.50451572058E+03  0.75070876123E+02 0.  0.
         24    2    4    4    0    0 -0.71062530713E+02 -0.25114168827E+03  0.66805743176E+03  0.72178075496E+03  0.80899290683E+02 0.  0.
         13    1    3    3    0    0 -0.28312211721E+02 -0.18245324975E+02 -0.51901541625E+02  0.61872798862E+02  0.00000000000E+00 0. -1.
        -13    1    3    3    0    0  0.11012101890E+02 -0.17847187246E+03 -0.53028940098E+03  0.55962516423E+03  0.00000000000E+00 0.  1.
          2    1    6    6  502    0 -0.86293940592E+01  0.27947397372E+01  0.47800618476E+02  0.48653634384E+02  0.00000000000E+00 0. -1.
          3    1    5    5  503    0 -0.11015920048E+02  0.50090570884E+02  0.34957284724E+02  0.62067926832E+02  0.00000000000E+00 0. -1.
         -4    1    5    5    0  503  0.99378560592E+02  0.39776831483E+03  0.16632594389E+03  0.44244779375E+03  0.00000000000E+00 0.  1.
         -1    1    6    6    0  502 -0.62433136654E+02 -0.25393642801E+03  0.62025681329E+03  0.67312712057E+03  0.00000000000E+00 0.  1.
<mgrwt>
<rscale>  0 0.18253464E+04</rscale>
<asrwt>0</asrwt>
<pdfrwt beam="1">  1        1 0.16422647E+00 0.18253464E+04</pdfrwt>
<pdfrwt beam="2">  1       -1 0.12004959E+00 0.18253464E+04</pdfrwt>
<totfact> 0.78157378E+00</totfact>
</mgrwt>
</event>
<event>
12    1  0.1097093E-007  0.2888306E+04  0.7818608E-02  0.8276365E-01
          1   -1    0    0  501    0  0.00000000000E+00  0.00000000000E+00  0.19383504831E+04  0.19383504831E+04  0.00000000000E+00 0. -1.
         -1   -1    0    0    0  501 -0.00000000000E+00 -0.00000000000E+00 -0.10759551151E+04  0.10759551151E+04  0.00000000000E+00 0.  1.
         23    2    1    2    0    0 -0.39902459307E+03  0.12021970813E+04  0.82448073701E+02  0.12724285942E+04  0.88195205984E+02 0.  0.
        254    2    1    2    0    0  0.39902459307E+03 -0.12021970813E+04  0.77994729438E+03  0.17418770039E+04  0.90626666420E+03 0.  0.
        -24    2    4    4    0    0  0.49665191495E+03 -0.12036081995E+04  0.88510470748E+03  0.15764234789E+04  0.79779816448E+02 0.  0.
         24    2    4    4    0    0 -0.97627321874E+02  0.14111181368E+01 -0.10515741310E+03  0.16545352507E+03  0.82363233275E+02 0.  0.
         13    1    3    3    0    0 -0.25519943874E+03  0.87401513550E+03  0.81061803009E+02  0.91411171446E+03  0.00000000000E+00 0.  1.
        -13    1    3    3    0    0 -0.14382515434E+03  0.32818194583E+03  0.13862706927E+01  0.35831687978E+03  0.00000000000E+00 0. -1.
          4    1    6    6  502    0 -0.76153603116E+02  0.20245782410E+02 -0.11116964746E+03  0.13626427811E+03  0.00000000000E+00 0. -1.
          1    1    5    5  503    0  0.36324927746E+03 -0.95207643401E+03  0.71368739882E+03  0.12440857193E+04  0.00000000000E+00 0. -1.
         -2    1    5    5    0  503  0.13340263749E+03 -0.25153176545E+03  0.17141730865E+03  0.33233775956E+03  0.00000000000E+00 0.  1.
         -3    1    6    6    0  502 -0.21473718758E+02 -0.18834664273E+02  0.60122343607E+01  0.29189246951E+02  0.00000000000E+00 0.  1.
<mgrwt>
<rscale>  0 0.28883062E+04</rscale>
<asrwt>0</asrwt>
<pdfrwt beam="1">  1        1 0.29820777E+00 0.28883062E+04</pdfrwt>
<pdfrwt beam="2">  1       -1 0.16553156E+00 0.28883062E+04</pdfrwt>
<totfact> 0.74868133E-01</totfact>
</mgrwt>
</event>
<event>
12    1  0.1097093E-007  0.1534298E+04  0.7818608E-02  0.8861960E-01
         -1   -1    0    0    0  501 -0.00000000000E+00  0.00000000000E+00  0.88168497300E+03  0.88168497300E+03  0.00000000000E+00 0.  1.
          1   -1    0    0  501    0  0.00000000000E+00 -0.00000000000E+00 -0.66749212516E+03  0.66749212516E+03  0.00000000000E+00 0. -1.
         23    2    1    2    0    0  0.32837003750E+03  0.16559868329E+03 -0.27181435446E+03  0.46581211184E+03  0.88589360618E+02 0.  0.
        254    2    1    2    0    0 -0.32837003750E+03 -0.16559868329E+03  0.48600720229E+03  0.10833649863E+04  0.89567119383E+03 0.  0.
        -24    2    4    4    0    0 -0.41545985844E+03 -0.47430517382E+03  0.29102749318E+03  0.69917069178E+03  0.81057773106E+02 0.  0.
         24    2    4    4    0    0  0.87089820941E+02  0.30870649053E+03  0.19497970912E+03  0.38419429453E+03  0.81876948987E+02 0.  0.
         11    1    3    3    0    0  0.62910009506E+02  0.64713234521E+02 -0.37867235768E+02  0.97874407089E+02  0.00000000000E+00 0.  1.
        -11    1    3    3    0    0  0.26546002799E+03  0.10088544876E+03 -0.23394711869E+03  0.36793770475E+03  0.00000000000E+00 0. -1.
          2    1    6    6  502    0  0.10195684032E+03  0.28108422044E+03  0.16897080742E+03  0.34344529408E+03  0.00000000000E+00 0. -1.
          1    1    5    5  503    0 -0.27168479890E+03 -0.33198034027E+03  0.15851693780E+03  0.45733051051E+03  0.00000000000E+00 0. -1.
         -2    1    5    5    0  503 -0.14377505954E+03 -0.14232483355E+03  0.13251055538E+03  0.24184018127E+03  0.00000000000E+00 0.  1.
         -1    1    6    6    0  502 -0.14867019375E+02  0.27622270094E+02  0.26008901695E+02  0.40749000450E+02  0.00000000000E+00 0.  1.
<mgrwt>
<rscale>  0 0.15342982E+04</rscale>
<asrwt>0</asrwt>
<pdfrwt beam="1">  1        1 0.10269110E+00 0.15342982E+04</pdfrwt>
<pdfrwt beam="2">  1       -1 0.13564384E+00 0.15342982E+04</pdfrwt>
<totfact> 0.12852566E+01</totfact>
</mgrwt>
</event>
<event>
12    1  0.1097093E-007  0.2848545E+04  0.7818608E-02  0.8288354E-01
          1   -1    0    0  501    0  0.00000000000E+00  0.00000000000E+00  0.12510965426E+04  0.12510965426E+04  0.00000000000E+00 0. -1.
         -1   -1    0    0    0  501 -0.00000000000E+00 -0.00000000000E+00 -0.16214193007E+04  0.16214193007E+04  0.00000000000E+00 0.  1.
         23    2    1    2    0    0  0.87890666770E+02 -0.77274466406E+03 -0.11951446131E+04  0.14288050557E+04  0.90852385480E+02 0.  0.
        254    2    1    2    0    0 -0.87890666770E+02  0.77274466406E+03  0.82482185496E+03  0.14437107876E+04  0.89392989699E+03 0.  0.
        -24    2    4    4    0    0  0.16873100150E+03 -0.13875175572E+03  0.20821346185E+03  0.31094955578E+03  0.74930500851E+02 0.  0.
         24    2    4    4    0    0 -0.25662166827E+03  0.91149641978E+03  0.61660839311E+03  0.11327612318E+04  0.79130866328E+02 0.  0.
         11    1    3    3    0    0  0.25139491161E+02 -0.77467928824E+02 -0.87654176101E+02  0.11965169702E+03  0.00000000000E+00 0. -1.
        -11    1    3    3    0    0  0.62751175609E+02 -0.69527673524E+03 -0.11074904370E+04  0.13091533587E+04  0.00000000000E+00 0.  1.
          4    1    6    6  502    0 -0.34557252140E+02  0.54110805607E+02  0.49623581706E+02  0.81146058563E+02  0.00000000000E+00 0. -1.
          3    1    5    5  503    0  0.49387394239E+02 -0.74939789925E+01  0.24767800899E+02  0.55755882131E+02  0.00000000000E+00 0. -1.
         -4    1    5    5    0  503  0.11934360727E+03 -0.13125777673E+03  0.18344566095E+03  0.25519367365E+03  0.00000000000E+00 0.  1.
         -3    1    6    6    0  502 -0.22206441613E+03  0.85738561417E+03  0.56698481140E+03  0.10516151733E+04  0.00000000000E+00 0.  1.
<mgrwt>
<rscale>  0 0.28485449E+04</rscale>
<asrwt>0</asrwt>
<pdfrwt beam="1">  1        1 0.19247639E+00 0.28485449E+04</pdfrwt>
<pdfrwt beam="2">  1       -1 0.24944912E+00 0.28485449E+04</pdfrwt>
<totfact> 0.59448229E-01</totfact>
</mgrwt>
</event>
<event>
12    1  0.1097093E-007  0.2306923E+04  0.7818608E-02  0.8475197E-01
         -2   -1    0    0    0  501 -0.00000000000E+00  0.00000000000E+00  0.12728483398E+04  0.12728483398E+04  0.00000000000E+00 0.  1.
          2   -1    0    0  501    0  0.00000000000E+00 -0.00000000000E+00 -0.10452722008E+04  0.10452722008E+04  0.00000000000E+00 0. -1.
         23    2    1    2    0    0 -0.18125801709E+03 -0.64272131739E+03  0.80881186074E+03  0.10528227893E+04  0.91181351913E+02 0.  0.
        254    2    1    2    0    0  0.18125801709E+03  0.64272131739E+03 -0.58123572179E+03  0.12652977514E+04  0.90399019617E+03 0.  0.
        -24    2    4    4    0    0 -0.29702551548E+03  0.40888287177E+03 -0.50976771292E+03  0.72228965579E+03  0.80186445547E+02 0.  0.
         24    2    4    4    0    0  0.47828353257E+03  0.23383844562E+03 -0.71468008871E+02  0.54300809559E+03  0.79464202044E+02 0.  0.
         11    1    3    3    0    0 -0.91249242326E+02 -0.18895125583E+03  0.22005019507E+03  0.30405770778E+03  0.00000000000E+00 0. -1.
        -11    1    3    3    0    0 -0.90008774760E+02 -0.45377006155E+03  0.58876166567E+03  0.74876508149E+03  0.00000000000E+00 0.  1.
          2    1    6    6  502    0  0.99711837188E+02  0.44661365651E+02  0.17225736142E+02  0.11060657324E+03  0.00000000000E+00 0. -1.
          3    1    5    5  503    0 -0.13291809219E+03  0.17725444761E+03 -0.28019511988E+03  0.35720535219E+03  0.00000000000E+00 0. -1.
         -4    1    5    5    0  503 -0.16410742329E+03  0.23162842416E+03 -0.22957259304E+03  0.36508430360E+03  0.00000000000E+00 0.  1.
         -1    1    6    6    0  502  0.37857169538E+03  0.18917707997E+03 -0.88693745013E+02  0.43240152235E+03  0.00000000000E+00 0.  1.
<mgrwt>
<rscale>  0 0.23069226E+04</rscale>
<asrwt>0</asrwt>
<pdfrwt beam="1">  1        2 0.16081111E+00 0.23069226E+04</pdfrwt>
<pdfrwt beam="2">  1       -2 0.19582282E+00 0.23069226E+04</pdfrwt>
<totfact> 0.30261701E+00</totfact>
</mgrwt>
</event>
<event>
12    1  0.1097093E-007  0.2192771E+04  0.7818608E-02  0.8521443E-01
          1   -1    0    0  501    0  0.00000000000E+00  0.00000000000E+00  0.18629260302E+04  0.18629260302E+04  0.00000000000E+00 0. -1.
         -1   -1    0    0    0  501 -0.00000000000E+00 -0.00000000000E+00 -0.64525449250E+03  0.64525449250E+03  0.00000000000E+00 0.  1.
         23    2    1    2    0    0  0.12741841706E+03  0.69075536856E+03 -0.16549349105E+03  0.72742700321E+03  0.91561548836E+02 0.  0.
        254    2    1    2    0    0 -0.12741841706E+03 -0.69075536856E+03  0.13831650287E+04  0.17807535195E+04  0.87439074115E+03 0.  0.
        -24    2    4    4    0    0 -0.44349288072E+03 -0.15965905738E+03  0.77214752080E+03  0.90800768423E+03  0.78033395947E+02 0.  0.
         24    2    4    4    0    0  0.31607446366E+03 -0.53109631118E+03  0.61101750794E+03  0.87274583525E+03  0.79853237956E+02 0.  0.
         13    1    3    3    0    0  0.89705255128E+02  0.59699311883E+03 -0.16694756444E+03  0.62635397819E+03  0.00000000000E+00 0.  1.
        -13    1    3    3    0    0  0.37713161930E+02  0.93762249729E+02  0.14540733893E+01  0.10107302502E+03  0.00000000000E+00 0. -1.
          4    1    6    6  502    0  0.55649005043E+02 -0.12926389916E+03  0.18002359137E+03  0.22850483766E+03  0.00000000000E+00 0. -1.
          1    1    5    5  503    0 -0.30268123527E+03 -0.75329756202E+02  0.46839873583E+03  0.56275028039E+03  0.00000000000E+00 0. -1.
         -2    1    5    5    0  503 -0.14081164545E+03 -0.84329301178E+02  0.30374878498E+03  0.34525740384E+03  0.00000000000E+00 0.  1.
         -3    1    6    6    0  502  0.26042545862E+03 -0.40183241202E+03  0.43099391657E+03  0.64424099759E+03  0.00000000000E+00 0.  1.
<mgrwt>
<rscale>  0 0.21927712E+04</rscale>
<asrwt>0</asrwt>
<pdfrwt beam="1">  1        1 0.28660400E+00 0.21927712E+04</pdfrwt>
<pdfrwt beam="2">  1       -1 0.99269923E-01 0.21927712E+04</pdfrwt>
<totfact> 0.32640760E+00</totfact>
</mgrwt>
</event>
<event>
12    1  0.1097093E-007  0.1921030E+04  0.7818608E-02  0.8644459E-01
         -2   -1    0    0    0  501 -0.00000000000E+00  0.00000000000E+00  0.48690365827E+03  0.48690365827E+03  0.00000000000E+00 0.  1.
          2   -1    0    0  501    0  0.00000000000E+00 -0.00000000000E+00 -0.18948075836E+04  0.18948075836E+04  0.00000000000E+00 0. -1.
         23    2    1    2    0    0  0.54043063961E+03 -0.49693253974E+03 -0.60390955473E+03  0.95869545672E+03  0.12402823533E+03 0.  0.
        254    2    1    2    0    0 -0.54043063961E+03  0.49693253974E+03 -0.80399437055E+03  0.14230157851E+04  0.91627493226E+03 0.  0.
        -24    2    4    4    0    0 -0.78963927352E+02 -0.21216748919E+03  0.17912909592E+02  0.24073554432E+03  0.79889828359E+02 0.  0.
         24    2    4    4    0    0 -0.46146671225E+03  0.70910002893E+03 -0.82190728015E+03  0.11822802408E+04  0.80502254920E+02 0.  0.
         13    1    3    3    0    0  0.42802443401E+03 -0.41753123250E+03 -0.42794686770E+03  0.73530658082E+03  0.00000000000E+00 0. -1.
        -13    1    3    3    0    0  0.11240620560E+03 -0.79401307237E+02 -0.17596268703E+03  0.22338887590E+03  0.00000000000E+00 0.  1.
          4    1    6    6  502    0 -0.39757165632E+03  0.56751479478E+03 -0.64231505538E+03  0.94483061687E+03  0.00000000000E+00 0. -1.
          1    1    5    5  503    0 -0.56024118616E+02 -0.20946358874E+03  0.13725208119E+02  0.21726039264E+03  0.00000000000E+00 0. -1.
         -2    1    5    5    0  503 -0.22939808736E+02 -0.27039004538E+01  0.41877014734E+01  0.23475151675E+02  0.00000000000E+00 0.  1.
         -1    1    6    6    0  502 -0.63895055936E+02  0.14158523415E+03 -0.17959222477E+03  0.23744962392E+03  0.00000000000E+00 0.  1.
<mgrwt>
<rscale>  0 0.19210297E+04</rscale>
<asrwt>0</asrwt>
<pdfrwt beam="1">  1        2 0.29150886E+00 0.19210297E+04</pdfrwt>
<pdfrwt beam="2">  1       -2 0.74908254E-01 0.19210297E+04</pdfrwt>
<totfact> 0.11442474E+01</totfact>
</mgrwt>
</event>
<event>
12    1  0.1097093E-007  0.1738911E+04  0.7818608E-02  0.8739478E-01
          2   -1    0    0  501    0  0.00000000000E+00  0.00000000000E+00  0.86468911264E+03  0.86468911264E+03  0.00000000000E+00 0. -1.
         -2   -1    0    0    0  501 -0.00000000000E+00 -0.00000000000E+00 -0.87424862492E+03  0.87424862492E+03  0.00000000000E+00 0.  1.
         23    2    1    2    0    0 -0.47551829060E+03  0.21719785065E+03 -0.35401106986E+03  0.63936382792E+03  0.10084500900E+03 0.  0.
        254    2    1    2    0    0  0.47551829060E+03 -0.21719785065E+03  0.34445155758E+03  0.10995739097E+04  0.90394875753E+03 0.  0.
        -24    2    4    4    0    0  0.30771406474E+03 -0.56424818301E+03  0.25262534565E+03  0.69532298367E+03  0.81182071158E+02 0.  0.
         24    2    4    4    0    0  0.16780422587E+03  0.34705033236E+03  0.91826211925E+02  0.40425092599E+03  0.79903482720E+02 0.  0.
         11    1    3    3    0    0 -0.27700223467E+03  0.12492280962E+03 -0.26448868250E+03  0.40285259035E+03  0.00000000000E+00 0. -1.
        -11    1    3    3    0    0 -0.19851605593E+03  0.92275041027E+02 -0.89522387359E+02  0.23651123757E+03  0.00000000000E+00 0.  1.
          4    1    6    6  502    0  0.14550438670E+03  0.29358025279E+03  0.10641767555E+03  0.34450778372E+03  0.00000000000E+00 0. -1.
          3    1    5    5  503    0  0.31145381547E+03 -0.54477342206E+03  0.24924127914E+03  0.67520572848E+03  0.00000000000E+00 0. -1.
         -4    1    5    5    0  503 -0.37397507336E+01 -0.19474760957E+02  0.33840665101E+01  0.20117255182E+02  0.00000000000E+00 0.  1.
         -3    1    6    6    0  502  0.22299839171E+02  0.53470079576E+02 -0.14591463625E+02  0.59743142264E+02  0.00000000000E+00 0.  1.
<mgrwt>
<rscale>  0 0.17389115E+04</rscale>
<asrwt>0</asrwt>
<pdfrwt beam="1">  1        2 0.13302909E+00 0.17389115E+04</pdfrwt>
<pdfrwt beam="2">  1       -2 0.13449979E+00 0.17389115E+04</pdfrwt>
<totfact> 0.11710856E+01</totfact>
</mgrwt>
</event>
<event>
12    1  0.1097093E-007  0.2044926E+04  0.7818608E-02  0.8585900E-01
          2   -1    0    0  501    0  0.00000000000E+00  0.00000000000E+00  0.16745050042E+04  0.16745050042E+04  0.00000000000E+00 0.  1.
         -2   -1    0    0    0  501 -0.00000000000E+00 -0.00000000000E+00 -0.62432187260E+03  0.62432187260E+03  0.00000000000E+00 0. -1.
         23    2    1    2    0    0 -0.22408819151E+03  0.65413277303E+03  0.93100997844E+03  0.11632071631E+04  0.90366598112E+02 0.  0.
        254    2    1    2    0    0  0.22408819151E+03 -0.65413277303E+03  0.11917315312E+03  0.11356197136E+04  0.89293039552E+03 0.  0.
        -24    2    4    4    0    0  0.55668528393E+03 -0.31770557819E+03  0.24899737100E+02  0.64654300449E+03  0.81009382105E+02 0.  0.
         24    2    4    4    0    0 -0.33259709242E+03 -0.33642719484E+03  0.94273416023E+02  0.48907670915E+03  0.80650276805E+02 0.  0.
         11    1    3    3    0    0 -0.13377601340E+03  0.26485651758E+03  0.36623566827E+03  0.47135290535E+03  0.00000000000E+00 0.  1.
        -11    1    3    3    0    0 -0.90312178111E+02  0.38927625545E+03  0.56477431016E+03  0.69185425777E+03  0.00000000000E+00 0. -1.
          2    1    6    6  502    0 -0.39279826487E+02 -0.89766418995E+01  0.79724707854E+01  0.41073655293E+02  0.00000000000E+00 0. -1.
          1    1    5    5  503    0  0.17162186742E+03 -0.57290180590E+02 -0.15208778658E+01  0.18093795411E+03  0.00000000000E+00 0. -1.
         -2    1    5    5    0  503  0.38506341651E+03 -0.26041539760E+03  0.26420614966E+02  0.46560505038E+03  0.00000000000E+00 0.  1.
         -1    1    6    6    0  502 -0.29331726593E+03 -0.32745055294E+03  0.86300945237E+02  0.44800305385E+03  0.00000000000E+00 0.  1.
<mgrwt>
<rscale>  0 0.20449255E+04</rscale>
<asrwt>0</asrwt>
<pdfrwt beam="1">  1        2 0.25761615E+00 0.20449255E+04</pdfrwt>
<pdfrwt beam="2">  1       -2 0.96049520E-01 0.20449255E+04</pdfrwt>
<totfact> 0.85203094E+00</totfact>
</mgrwt>
</event>
<event>
12    1  0.1097093E-007  0.2413684E+04  0.7818608E-02  0.8434398E-01
          2   -1    0    0  501    0  0.00000000000E+00  0.00000000000E+00  0.26901705193E+04  0.26901705193E+04  0.00000000000E+00 0. -1.
         -2   -1    0    0    0  501 -0.00000000000E+00 -0.00000000000E+00 -0.54140345207E+03  0.54140345207E+03  0.00000000000E+00 0.  1.
         23    2    1    2    0    0 -0.45706960974E+03  0.73836291837E+03  0.16872573145E+04  0.18998120920E+04  0.91412866790E+02 0.  0.
        254    2    1    2    0    0  0.45706960974E+03 -0.73836291837E+03  0.46150975278E+03  0.13317618794E+04  0.89805680454E+03 0.  0.
        -24    2    4    4    0    0  0.17347437469E+03 -0.88204049737E+03  0.43796919157E+03  0.10031556850E+04  0.80096928797E+02 0.  0.
         24    2    4    4    0    0  0.28359523505E+03  0.14367757901E+03  0.23540561207E+02  0.32860619437E+03  0.79739381124E+02 0.  0.
         11    1    3    3    0    0 -0.66490867285E+02  0.56189259008E+02  0.17473735282E+03  0.19522144025E+03  0.00000000000E+00 0.  1.
        -11    1    3    3    0    0 -0.39057874245E+03  0.68217365936E+03  0.15125199617E+04  0.17045906517E+04  0.00000000000E+00 0. -1.
          2    1    6    6  502    0  0.90035196150E+01  0.27961475086E+02 -0.25643247521E+01  0.29487000795E+02  0.00000000000E+00 0. -1.
          3    1    5    5  503    0  0.73127337965E+01 -0.12119257169E+03  0.35338846068E+02  0.12645137228E+03  0.00000000000E+00 0. -1.
         -4    1    5    5    0  503  0.16616164089E+03 -0.76084792568E+03  0.40263034550E+03  0.87670431277E+03  0.00000000000E+00 0.  1.
         -1    1    6    6    0  502  0.27459171543E+03  0.11571610392E+03  0.26104885959E+02  0.29911919357E+03  0.00000000000E+00 0.  1.
<mgrwt>
<rscale>  0 0.24136840E+04</rscale>
<asrwt>0</asrwt>
<pdfrwt beam="1">  1        2 0.41387238E+00 0.24136840E+04</pdfrwt>
<pdfrwt beam="2">  1       -2 0.83292840E-01 0.24136840E+04</pdfrwt>
<totfact> 0.30505680E+00</totfact>
</mgrwt>
</event>
<event>
12    1  0.1097093E-007  0.2899361E+04  0.7818608E-02  0.8273067E-01
          1   -1    0    0  501    0  0.00000000000E+00  0.00000000000E+00  0.18247177432E+04  0.18247177432E+04  0.00000000000E+00 0. -1.
         -1   -1    0    0    0  501 -0.00000000000E+00 -0.00000000000E+00 -0.11517256388E+04  0.11517256388E+04  0.00000000000E+00 0.  1.
         23    2    1    2    0    0  0.48517587004E+03  0.10354484992E+04 -0.32974212695E+03  0.11937266270E+04  0.93296142652E+02 0.  0.
        254    2    1    2    0    0 -0.48517587004E+03 -0.10354484992E+04  0.10027342314E+04  0.17827167551E+04  0.93008272243E+03 0.  0.
        -24    2    4    4    0    0 -0.12704476778E+03 -0.61371404941E+03  0.10463031175E+04  0.12223083365E+04  0.80635899061E+02 0.  0.
         24    2    4    4    0    0 -0.35813110226E+03 -0.42173444983E+03 -0.43568886187E+02  0.56040841856E+03  0.77727184198E+02 0.  0.
         13    1    3    3    0    0  0.33096990897E+03  0.62624459453E+03 -0.23496081260E+03  0.74627739902E+03  0.00000000000E+00 0. -1.
        -13    1    3    3    0    0  0.15420596107E+03  0.40920390471E+03 -0.94781314350E+02  0.44744922796E+03  0.00000000000E+00 0.  1.
          2    1    6    6  502    0 -0.47065213788E+02 -0.75767451527E+02  0.18335747174E+02  0.91060642894E+02  0.00000000000E+00 0. -1.
          1    1    5    5  503    0  0.52527796978E+01 -0.45612852374E+02  0.50570901076E+02  0.68304758486E+02  0.00000000000E+00 0. -1.
         -2    1    5    5    0  503 -0.13229754748E+03 -0.56810119703E+03  0.99573221647E+03  0.11540035780E+04  0.00000000000E+00 0.  1.
         -1    1    6    6    0  502 -0.31106588848E+03 -0.34596699830E+03 -0.61904633361E+02  0.46934777566E+03  0.00000000000E+00 0.  1.
<mgrwt>
<rscale>  0 0.28993615E+04</rscale>
<asrwt>0</asrwt>
<pdfrwt beam="1">  1        1 0.28072581E+00 0.28993615E+04</pdfrwt>
<pdfrwt beam="2">  1       -1 0.17718856E+00 0.28993615E+04</pdfrwt>
<totfact> 0.73367142E-01</totfact>
</mgrwt>
</event>
<event>
12    1  0.1392456E-007  0.2694544E+04  0.7818608E-02  0.8336777E-01
         -2   -1    0    0    0  501 -0.00000000000E+00  0.00000000000E+00  0.72300919441E+03  0.72300919441E+03  0.00000000000E+00 0.  1.
          2   -1    0    0  501    0  0.00000000000E+00 -0.00000000000E+00 -0.25105380176E+04  0.25105380176E+04  0.00000000000E+00 0. -1.
         23    2    1    2    0    0  0.26662656603E+03  0.43124758178E+03  0.50419551104E+03  0.72101290348E+03  0.92640655966E+02 0.  0.
        254    2    1    2    0    0 -0.26662656603E+03 -0.43124758178E+03 -0.22917243342E+04  0.25125343085E+04  0.89652887567E+03 0.  0.
        -24    2    4    4    0    0  0.17770598215E+03  0.13932561218E+03 -0.10159225175E+04  0.10438661678E+04  0.81036858920E+02 0.  0.
         24    2    4    4    0    0 -0.44433254817E+03 -0.57057319396E+03 -0.12758018168E+04  0.14686681407E+04  0.79565374698E+02 0.  0.
         11    1    3    3    0    0  0.35441838360E+02  0.64537819810E+02  0.12497776947E+03  0.14505411733E+03  0.00000000000E+00 0. -1.
        -11    1    3    3    0    0  0.23118472767E+03  0.36670976197E+03  0.37921774157E+03  0.57595878615E+03  0.00000000000E+00 0.  1.
          2    1    6    6  502    0 -0.32409604111E+03 -0.45865121420E+03 -0.94381797879E+03  0.10982675254E+04  0.00000000000E+00 0. -1.
          3    1    5    5  503    0  0.14145944372E+03  0.12750350785E+03 -0.93774488277E+03  0.95688734127E+03  0.00000000000E+00 0. -1.
         -4    1    5    5    0  503  0.36246538433E+02  0.11822104336E+02 -0.78177634720E+02  0.86978826560E+02  0.00000000000E+00 0.  1.
         -1    1    6    6    0  502 -0.12023650707E+03 -0.11192197976E+03 -0.33198383797E+03  0.37040061536E+03  0.00000000000E+00 0.  1.
<mgrwt>
<rscale>  0 0.26945442E+04</rscale>
<asrwt>0</asrwt>
<pdfrwt beam="1">  1        2 0.38623662E+00 0.26945442E+04</pdfrwt>
<pdfrwt beam="2">  1       -2 0.11123218E+00 0.26945442E+04</pdfrwt>
<totfact> 0.19260797E+00</totfact>
</mgrwt>
</event>
<event>
12    1  0.1097093E-007  0.1433791E+04  0.7818608E-02  0.8929716E-01
          1   -1    0    0  501    0  0.00000000000E+00  0.00000000000E+00  0.20212705991E+04  0.20212705991E+04  0.00000000000E+00 0. -1.
         -1   -1    0    0    0  501 -0.00000000000E+00 -0.00000000000E+00 -0.25426536226E+03  0.25426536226E+03  0.00000000000E+00 0.  1.
         23    2    1    2    0    0 -0.37663159071E+03  0.56075115350E+02  0.23186757241E+03  0.45493789861E+03  0.90609860228E+02 0.  0.
        254    2    1    2    0    0  0.37663159071E+03 -0.56075115350E+02  0.15351376644E+04  0.18205980627E+04  0.90162846209E+03 0.  0.
        -24    2    4    4    0    0  0.21141637549E+03  0.34585099456E+03  0.11890193830E+04  0.12590600970E+04  0.84589836175E+02 0.  0.
         24    2    4    4    0    0  0.16521521522E+03 -0.40192610991E+03  0.34611828139E+03  0.56153796574E+03  0.81770147921E+02 0.  0.
         13    1    3    3    0    0 -0.18489425160E+02  0.18830196653E+02  0.37203027368E+02  0.45612502607E+02  0.00000000000E+00 0. -1.
        -13    1    3    3    0    0 -0.35814216555E+03  0.37244918698E+02  0.19466454504E+03  0.40932539600E+03  0.00000000000E+00 0.  1.
          4    1    6    6  502    0  0.13978429600E+03 -0.26823885561E+03  0.20441145020E+03  0.36506954686E+03  0.00000000000E+00 0. -1.
          1    1    5    5  503    0  0.15066977078E+03  0.21518760708E+03  0.87452099880E+03  0.91312324657E+03  0.00000000000E+00 0. -1.
         -2    1    5    5    0  503  0.60746604708E+02  0.13066338747E+03  0.31449838421E+03  0.34593685042E+03  0.00000000000E+00 0.  1.
         -3    1    6    6    0  502  0.25430919219E+02 -0.13368725429E+03  0.14170683119E+03  0.19646841888E+03  0.00000000000E+00 0.  1.
<mgrwt>
<rscale>  0 0.14337909E+04</rscale>
<asrwt>0</asrwt>
<pdfrwt beam="1">  1        1 0.31096470E+00 0.14337909E+04</pdfrwt>
<pdfrwt beam="2">  1       -1 0.39117749E-01 0.14337909E+04</pdfrwt>
<totfact> 0.17801065E+01</totfact>
</mgrwt>
</event>
<event>
12    1  0.1142622E-007  0.1821813E+04  0.7818608E-02  0.8694785E-01
         -4   -1    0    0    0  501 -0.00000000000E+00  0.00000000000E+00  0.68429751137E+03  0.68429751137E+03  0.00000000000E+00 0.  1.
          4   -1    0    0  501    0  0.00000000000E+00 -0.00000000000E+00 -0.12125587605E+04  0.12125587605E+04  0.00000000000E+00 0. -1.
         23    2    1    2    0    0  0.15641331848E+03  0.25978168316E+03 -0.84121789762E+03  0.89904350210E+03  0.93166615829E+02 0.  0.
        254    2    1    2    0    0 -0.15641331848E+03 -0.25978168316E+03  0.31295664851E+03  0.99781276975E+03  0.89762843678E+03 0.  0.
        -24    2    4    4    0    0 -0.48040621084E+03 -0.64181874819E+02  0.35858397602E+03  0.60820697747E+03  0.80148731180E+02 0.  0.
         24    2    4    4    0    0  0.32399289237E+03 -0.19559980834E+03 -0.45627327512E+02  0.38960579228E+03  0.80499323195E+02 0.  0.
         11    1    3    3    0    0  0.13836224358E+03  0.26165246773E+03 -0.75517307973E+03  0.81110572965E+03  0.00000000000E+00 0. -1.
        -11    1    3    3    0    0  0.18051074892E+02 -0.18707845690E+01 -0.86044817887E+02  0.87937772457E+02  0.00000000000E+00 0.  1.
          2    1    6    6  502    0  0.81944551929E+01 -0.15783862363E+02  0.12287035834E+02  0.21615981509E+02  0.00000000000E+00 0. -1.
          3    1    5    5  503    0 -0.57764274597E+02  0.82974411391E+01  0.70926078773E+02  0.91848068022E+02  0.00000000000E+00 0. -1.
         -4    1    5    5    0  503 -0.42264193624E+03 -0.72479315958E+02  0.28765789725E+03  0.51635890945E+03  0.00000000000E+00 0.  1.
         -1    1    6    6    0  502  0.31579843717E+03 -0.17981594598E+03 -0.57914363346E+02  0.36798981077E+03  0.00000000000E+00 0.  1.
<mgrwt>
<rscale>  0 0.18218133E+04</rscale>
<asrwt>0</asrwt>
<pdfrwt beam="1">  1        4 0.18654750E+00 0.18218133E+04</pdfrwt>
<pdfrwt beam="2">  1       -4 0.10527654E+00 0.18218133E+04</pdfrwt>
<totfact> 0.22288530E-01</totfact>
</mgrwt>
</event>
<event>
12    1  0.1097093E-007  0.1434902E+04  0.7818608E-02  0.8928935E-01
         -1   -1    0    0    0  501 -0.00000000000E+00  0.00000000000E+00  0.77758831626E+03  0.77758831626E+03  0.00000000000E+00 0.  1.
          1   -1    0    0  501    0  0.00000000000E+00 -0.00000000000E+00 -0.66196432107E+03  0.66196432107E+03  0.00000000000E+00 0. -1.
         23    2    1    2    0    0 -0.41980082322E+03 -0.14603831961E+03  0.21436544807E+03  0.50180923713E+03  0.91104572686E+02 0.  0.
        254    2    1    2    0    0  0.41980082322E+03  0.14603831961E+03 -0.98741452875E+02  0.93774340021E+03  0.81978831911E+03 0.  0.
        -24    2    4    4    0    0  0.62284922464E+03 -0.54147988797E+02 -0.11647509238E+02  0.62955193447E+03  0.72985014874E+02 0.  0.
         24    2    4    4    0    0 -0.20304840142E+03  0.20018630841E+03 -0.87093943637E+02  0.30819146574E+03  0.78060317335E+02 0.  0.
         13    1    3    3    0    0 -0.39322963267E+03 -0.15010777195E+03  0.21909548754E+03  0.47451524725E+03  0.00000000000E+00 0.  1.
        -13    1    3    3    0    0 -0.26571190556E+02  0.40694523381E+01 -0.47300394796E+01  0.27293989876E+02  0.00000000000E+00 0. -1.
          4    1    6    6  502    0 -0.19130544110E+03  0.15664714329E+03 -0.89690431193E+02  0.26302181039E+03  0.00000000000E+00 0. -1.
          1    1    5    5  503    0  0.49856078502E+03 -0.44088617820E+02  0.19992456233E+02  0.50090554088E+03  0.00000000000E+00 0. -1.
         -2    1    5    5    0  503  0.12428843963E+03 -0.10059370977E+02 -0.31639965471E+02  0.12864639359E+03  0.00000000000E+00 0.  1.
         -3    1    6    6    0  502 -0.11742960324E+02  0.43539165124E+02  0.25964875565E+01  0.45169655351E+02  0.00000000000E+00 0.  1.
<mgrwt>
<rscale>  0 0.14349017E+04</rscale>
<asrwt>0</asrwt>
<pdfrwt beam="1">  1        1 0.10184067E+00 0.14349017E+04</pdfrwt>
<pdfrwt beam="2">  1       -1 0.11962897E+00 0.14349017E+04</pdfrwt>
<totfact> 0.17985302E+01</totfact>
</mgrwt>
</event>
<event>
12    1  0.1097093E-007  0.1674569E+04  0.7818608E-02  0.8776003E-01
         -2   -1    0    0    0  501 -0.00000000000E+00  0.00000000000E+00  0.31577390701E+03  0.31577390701E+03  0.00000000000E+00 0.  1.
          2   -1    0    0  501    0  0.00000000000E+00 -0.00000000000E+00 -0.22200850384E+04  0.22200850384E+04  0.00000000000E+00 0. -1.
         23    2    1    2    0    0 -0.18406034310E+03 -0.52077699681E+03 -0.10166830010E+04  0.11611163471E+04  0.97262308725E+02 0.  0.
        254    2    1    2    0    0  0.18406034310E+03  0.52077699681E+03 -0.88762813038E+03  0.13747425983E+04  0.89271866981E+03 0.  0.
        -24    2    4    4    0    0 -0.10283420023E+03  0.25183389121E+03  0.10567404315E+03  0.30273377187E+03  0.80532923287E+02 0.  0.
         24    2    4    4    0    0  0.28689454334E+03  0.26894310560E+03 -0.99330217353E+03  0.10720088264E+04  0.88965403070E+02 0.  0.
         13    1    3    3    0    0 -0.99812689700E+00 -0.28717515783E+02 -0.21321130338E+02  0.35781036443E+02  0.00000000000E+00 0.  1.
        -13    1    3    3    0    0 -0.18306221621E+03 -0.49205948102E+03 -0.99536187063E+03  0.11253353106E+04  0.00000000000E+00 0. -1.
          2    1    6    6  502    0  0.12586041025E+03  0.67920893360E+02 -0.29826449332E+03  0.33078058981E+03  0.00000000000E+00 0. -1.
          1    1    5    5  503    0 -0.16235886252E+02  0.11027829836E+03  0.74000452657E+02  0.13379452188E+03  0.00000000000E+00 0. -1.
         -2    1    5    5    0  503 -0.86598313983E+02  0.14155559285E+03  0.31673590498E+02  0.16893924999E+03  0.00000000000E+00 0.  1.
         -1    1    6    6    0  502  0.16103413309E+03  0.20102221224E+03 -0.69503768022E+03  0.74122823661E+03  0.00000000000E+00 0.  1.
<mgrwt>
<rscale>  0 0.16745685E+04</rscale>
<asrwt>0</asrwt>
<pdfrwt beam="1">  1        2 0.34155156E+00 0.16745685E+04</pdfrwt>
<pdfrwt beam="2">  1       -2 0.48580599E-01 0.16745685E+04</pdfrwt>
<totfact> 0.19261417E+01</totfact>
</mgrwt>
</event>
<event>
12    1  0.1097093E-007  0.1884632E+04  0.7818608E-02  0.8662544E-01
         -2   -1    0    0    0  501 -0.00000000000E+00  0.00000000000E+00  0.14509159525E+04  0.14509159525E+04  0.00000000000E+00 0.  1.
          2   -1    0    0  501    0  0.00000000000E+00 -0.00000000000E+00 -0.61199903245E+03  0.61199903245E+03  0.00000000000E+00 0. -1.
         23    2    1    2    0    0 -0.56288315847E+03  0.32298961546E+03  0.66919888929E+03  0.93671896809E+03  0.91953955674E+02 0.  0.
        254    2    1    2    0    0  0.56288315847E+03 -0.32298961546E+03  0.16971803072E+03  0.11261960168E+04  0.90462893861E+03 0.  0.
        -24    2    4    4    0    0  0.74740233685E+03 -0.42292173088E+03  0.32083028550E+02  0.86294802789E+03  0.78593476435E+02 0.  0.
         24    2    4    4    0    0 -0.18451917838E+03  0.99932115422E+02  0.13763500217E+03  0.26324798893E+03  0.79513237683E+02 0.  0.
         13    1    3    3    0    0 -0.37646659101E+03  0.21777193693E+03  0.38440356958E+03  0.58044622057E+03  0.00000000000E+00 0. -1.
        -13    1    3    3    0    0 -0.18641656746E+03  0.10521767853E+03  0.28479531971E+03  0.35627274752E+03  0.00000000000E+00 0.  1.
          4    1    6    6  502    0 -0.56992651970E+02 -0.15536960049E+01  0.59843373076E+02  0.82654737620E+02  0.00000000000E+00 0. -1.
          1    1    5    5  503    0  0.18047554414E+03 -0.80532713313E+02 -0.19828536680E+02  0.19862051961E+03  0.00000000000E+00 0. -1.
         -4    1    5    5    0  503  0.56692679272E+03 -0.34238901757E+03  0.51911565229E+02  0.66432750828E+03  0.00000000000E+00 0.  1.
         -3    1    6    6    0  502 -0.12752652641E+03  0.10148581143E+03  0.77791629093E+02  0.18059325131E+03  0.00000000000E+00 0.  1.
<mgrwt>
<rscale>  0 0.18846317E+04</rscale>
<asrwt>0</asrwt>
<pdfrwt beam="1">  1        2 0.94153698E-01 0.18846317E+04</pdfrwt>
<pdfrwt beam="2">  1       -2 0.22321784E+00 0.18846317E+04</pdfrwt>
<totfact> 0.42792877E+00</totfact>
</mgrwt>
</event>
<event>
12    1  0.1097093E-007  0.1337477E+04  0.7818608E-02  0.9000363E-01
          1   -1    0    0  501    0  0.00000000000E+00  0.00000000000E+00  0.10392430430E+04  0.10392430430E+04  0.00000000000E+00 0. -1.
         -1   -1    0    0    0  501 -0.00000000000E+00 -0.00000000000E+00 -0.43032383077E+03  0.43032383077E+03  0.00000000000E+00 0.  1.
         23    2    1    2    0    0 -0.16903659024E+03  0.99715744089E+02  0.49618476193E+03  0.54240615286E+03  0.97409025371E+02 0.  0.
        254    2    1    2    0    0  0.16903659024E+03 -0.99715744089E+02  0.11273445029E+03  0.92716072090E+03  0.89911142115E+03 0.  0.
        -24    2    4    4    0    0  0.11081986333E+03 -0.46553584797E+03 -0.94889164268E+02  0.49440276874E+03  0.80159069289E+02 0.  0.
         24    2    4    4    0    0  0.58216726912E+02  0.36582010388E+03  0.20762361456E+03  0.43275795216E+03  0.83416689812E+02 0.  0.
         13    1    3    3    0    0  0.20320610993E+01 -0.12837720711E+02  0.46674559726E+02  0.48450499182E+02  0.00000000000E+00 0.  1.
        -13    1    3    3    0    0 -0.17106865134E+03  0.11255346480E+03  0.44951020220E+03  0.49395565367E+03  0.00000000000E+00 0. -1.
          4    1    6    6  502    0 -0.64369312666E+00  0.24622374369E+03  0.14101663366E+03  0.28374678371E+03  0.00000000000E+00 0. -1.
          1    1    5    5  503    0  0.12308013577E+03 -0.40405562438E+03 -0.78692888845E+02  0.42965362581E+03  0.00000000000E+00 0. -1.
         -4    1    5    5    0  503 -0.12260272441E+02 -0.61480223593E+02 -0.16196275424E+02  0.64749142936E+02  0.00000000000E+00 0.  1.
         -3    1    6    6    0  502  0.58860420039E+02  0.11959636020E+03  0.66606980899E+02  0.14901116845E+03  0.00000000000E+00 0.  1.
<mgrwt>
<rscale>  0 0.13374768E+04</rscale>
<asrwt>0</asrwt>
<pdfrwt beam="1">  1        1 0.15988354E+00 0.13374768E+04</pdfrwt>
<pdfrwt beam="2">  1       -1 0.66203666E-01 0.13374768E+04</pdfrwt>
<totfact> 0.31957413E+01</totfact>
</mgrwt>
</event>
<event>
12    1  0.1097093E-007  0.1627735E+04  0.7818608E-02  0.8803688E-01
          1   -1    0    0  501    0  0.00000000000E+00  0.00000000000E+00  0.12543240213E+04  0.12543240213E+04  0.00000000000E+00 0. -1.
         -1   -1    0    0    0  501 -0.00000000000E+00 -0.00000000000E+00 -0.52807737162E+03  0.52807737162E+03  0.00000000000E+00 0.  1.
         23    2    1    2    0    0 -0.52718452901E+03  0.15870261841E+03  0.35806589874E+03  0.66285438690E+03  0.89747989765E+02 0.  0.
        254    2    1    2    0    0  0.52718452901E+03 -0.15870261841E+03  0.36818075089E+03  0.11195470060E+04  0.90261751840E+03 0.  0.
        -24    2    4    4    0    0  0.21230242028E+03 -0.26178654326E+03 -0.24083177001E+03  0.42169635462E+03  0.78888289167E+02 0.  0.
         24    2    4    4    0    0  0.31488210873E+03  0.10308392485E+03  0.60901252090E+03  0.69785065135E+03  0.79512533705E+02 0.  0.
         11    1    3    3    0    0 -0.43146014415E+03  0.12904148433E+03  0.24844417333E+03  0.51432875472E+03  0.00000000000E+00 0. -1.
        -11    1    3    3    0    0 -0.95724384861E+02  0.29661134080E+02  0.10962172541E+03  0.14852563218E+03  0.00000000000E+00 0.  1.
          4    1    6    6  502    0  0.23143079635E+02 -0.10768415390E+02  0.69422677337E+02  0.73966675156E+02  0.00000000000E+00 0. -1.
          1    1    5    5  503    0  0.15112653381E+02 -0.11619086543E+02  0.45543944708E+01  0.19599438086E+02  0.00000000000E+00 0. -1.
         -2    1    5    5    0  503  0.19718976690E+03 -0.25016745672E+03 -0.24538616448E+03  0.40209691653E+03  0.00000000000E+00 0.  1.
         -3    1    6    6    0  502  0.29173902910E+03  0.11385234024E+03  0.53958984356E+03  0.62388397619E+03  0.00000000000E+00 0.  1.
<mgrwt>
<rscale>  0 0.16277348E+04</rscale>
<asrwt>0</asrwt>
<pdfrwt beam="1">  1        1 0.19297293E+00 0.16277348E+04</pdfrwt>
<pdfrwt beam="2">  1       -1 0.81242673E-01 0.16277348E+04</pdfrwt>
<totfact> 0.14098356E+01</totfact>
</mgrwt>
</event>
<event>
12    1  0.1097093E-007  0.1237316E+04  0.7818608E-02  0.9080806E-01
          2   -1    0    0  501    0  0.00000000000E+00  0.00000000000E+00  0.10544182281E+04  0.10544182281E+04  0.00000000000E+00 0. -1.
         -2   -1    0    0    0  501 -0.00000000000E+00 -0.00000000000E+00 -0.36298499298E+03  0.36298499298E+03  0.00000000000E+00 0.  1.
         23    2    1    2    0    0  0.17441873570E+03 -0.13765123624E+03 -0.26851860569E+02  0.24203241724E+03  0.92135283013E+02 0.  0.
        254    2    1    2    0    0 -0.17441873570E+03  0.13765123624E+03  0.71828509564E+03  0.11753708038E+04  0.90343416451E+03 0.  0.
        -24    2    4    4    0    0 -0.13603821121E+03 -0.27341451658E+02 -0.19011311990E+03  0.24847252106E+03  0.79634449057E+02 0.  0.
         24    2    4    4    0    0 -0.38380524495E+02  0.16499268790E+03  0.90839821554E+03  0.92689828274E+03  0.72508322499E+02 0.  0.
         13    1    3    3    0    0  0.16562358109E+03 -0.98502376716E+02 -0.45168972362E+02  0.19792454344E+03  0.00000000000E+00 0.  1.
        -13    1    3    3    0    0  0.87951546140E+01 -0.39148859524E+02  0.18317111793E+02  0.44107873800E+02  0.00000000000E+00 0. -1.
          4    1    6    6  502    0 -0.55687528325E+01  0.45798264011E+02  0.11472248829E+03  0.12365169353E+03  0.00000000000E+00 0. -1.
          3    1    5    5  503    0 -0.24295739020E+02  0.34580329839E+01  0.14375979692E+01  0.24582668987E+02  0.00000000000E+00 0. -1.
         -4    1    5    5    0  503 -0.11174247219E+03 -0.30799484642E+02 -0.19155071787E+03  0.22388985207E+03  0.00000000000E+00 0.  1.
         -3    1    6    6    0  502 -0.32811771662E+02  0.11919442389E+03  0.79367572725E+03  0.80324658921E+03  0.00000000000E+00 0.  1.
<mgrwt>
<rscale>  0 0.12373164E+04</rscale>
<asrwt>0</asrwt>
<pdfrwt beam="1">  1        2 0.16221819E+00 0.12373164E+04</pdfrwt>
<pdfrwt beam="2">  1       -2 0.55843846E-01 0.12373164E+04</pdfrwt>
<totfact> 0.68953513E+01</totfact>
</mgrwt>
</event>
<event>
12    1  0.1097093E-007  0.1615166E+04  0.7818608E-02  0.8811285E-01
         -2   -1    0    0    0  501 -0.00000000000E+00  0.00000000000E+00  0.22512085148E+03  0.22512085148E+03  0.00000000000E+00 0.  1.
          2   -1    0    0  501    0  0.00000000000E+00 -0.00000000000E+00 -0.28970660468E+04  0.28970660468E+04  0.00000000000E+00 0. -1.
         23    2    1    2    0    0  0.41711744476E+03 -0.33376901446E+03 -0.86617928873E+03  0.10196724256E+04  0.63848081813E+02 0.  0.
        254    2    1    2    0    0 -0.41711744476E+03  0.33376901446E+03 -0.18057659066E+04  0.21025144727E+04  0.93508709792E+03 0.  0.
        -24    2    4    4    0    0 -0.41535574907E+03  0.51340167173E+03 -0.17850797039E+04  0.19049591974E+04  0.79109540932E+02 0.  0.
         24    2    4    4    0    0 -0.17616956987E+01 -0.17963265728E+03 -0.20686202602E+02  0.19755527526E+03  0.79556097637E+02 0.  0.
         11    1    3    3    0    0  0.27004403344E+02 -0.43236848884E+02 -0.97477613619E+02  0.11000249115E+03  0.00000000000E+00 0. -1.
        -11    1    3    3    0    0  0.39011304142E+03 -0.29053216557E+03 -0.76870167511E+03  0.90966993445E+03  0.00000000000E+00 0.  1.
          4    1    6    6  502    0 -0.24071248900E+02 -0.16609132895E+03 -0.67325304221E+01  0.16796154781E+03  0.00000000000E+00 0. -1.
          1    1    5    5  503    0 -0.27951427069E+03  0.35371769491E+03 -0.13184745239E+04  0.13934200750E+04  0.00000000000E+00 0. -1.
         -2    1    5    5    0  503 -0.13584147838E+03  0.15968397683E+03 -0.46660518005E+03  0.51153912240E+03  0.00000000000E+00 0.  1.
         -3    1    6    6    0  502  0.22309553201E+02 -0.13541328324E+02 -0.13953672180E+02  0.29593727445E+02  0.00000000000E+00 0.  1.
<mgrwt>
<rscale>  0 0.16151656E+04</rscale>
<asrwt>0</asrwt>
<pdfrwt beam="1">  1        2 0.44570245E+00 0.16151656E+04</pdfrwt>
<pdfrwt beam="2">  1       -2 0.34633979E-01 0.16151656E+04</pdfrwt>
<totfact> 0.15177902E+01</totfact>
</mgrwt>
</event>
<event>
12    1  0.1097093E-007  0.1615569E+04  0.7818608E-02  0.8811040E-01
          2   -1    0    0  501    0  0.00000000000E+00  0.00000000000E+00  0.75532133495E+03  0.75532133495E+03  0.00000000000E+00 0. -1.
         -2   -1    0    0    0  501 -0.00000000000E+00 -0.00000000000E+00 -0.86389174161E+03  0.86389174161E+03  0.00000000000E+00 0.  1.
         23    2    1    2    0    0  0.25352609210E+03 -0.48892916684E+03  0.60308018843E+02  0.56133138283E+03  0.90159051974E+02 0.  0.
        254    2    1    2    0    0 -0.25352609210E+03  0.48892916684E+03 -0.16887842550E+03  0.10578816937E+04  0.88728042116E+03 0.  0.
        -24    2    4    4    0    0 -0.36414138033E+03  0.64989256010E+03  0.51060654403E+02  0.75090677980E+03  0.79337992032E+02 0.  0.
         24    2    4    4    0    0  0.11061528824E+03 -0.16096339326E+03 -0.21993907990E+03  0.30697491393E+03  0.87837594178E+02 0.  0.
         13    1    3    3    0    0  0.21779066768E+03 -0.39982361189E+03  0.82718351225E+02  0.46274617360E+03  0.00000000000E+00 0. -1.
        -13    1    3    3    0    0  0.35735424412E+02 -0.89105554954E+02 -0.22410332382E+02  0.98585209231E+02  0.00000000000E+00 0.  1.
          4    1    6    6  502    0  0.49494351351E+02 -0.14164518498E+03 -0.15307225203E+03  0.21434589706E+03  0.00000000000E+00 0. -1.
          3    1    5    5  503    0 -0.33480100432E+03  0.63082718819E+03  0.47817251433E+02  0.71576612339E+03  0.00000000000E+00 0. -1.
         -4    1    5    5    0  503 -0.29340376009E+02  0.19065371915E+02  0.32434029706E+01  0.35140656418E+02  0.00000000000E+00 0.  1.
         -3    1    6    6    0  502  0.61120936885E+02 -0.19318208284E+02 -0.66866827875E+02  0.92629016874E+02  0.00000000000E+00 0.  1.
<mgrwt>
<rscale>  0 0.16155691E+04</rscale>
<asrwt>0</asrwt>
<pdfrwt beam="1">  1        2 0.11620328E+00 0.16155691E+04</pdfrwt>
<pdfrwt beam="2">  1       -2 0.13290642E+00 0.16155691E+04</pdfrwt>
<totfact> 0.14607503E+01</totfact>
</mgrwt>
</event>
<event>
12    1  0.1097093E-007  0.1772750E+04  0.7818608E-02  0.8720926E-01
          2   -1    0    0  501    0  0.00000000000E+00  0.00000000000E+00  0.43827986092E+04  0.43827986092E+04  0.00000000000E+00 0. -1.
         -2   -1    0    0    0  501 -0.00000000000E+00 -0.00000000000E+00 -0.17926012582E+03  0.17926012582E+03  0.00000000000E+00 0.  1.
         23    2    1    2    0    0  0.35078725878E+03 -0.52983188815E+03  0.11504982244E+04  0.13176944817E+04  0.94334788125E+02 0.  0.
        254    2    1    2    0    0 -0.35078725878E+03  0.52983188815E+03  0.30530402590E+04  0.32443642533E+04  0.89502572832E+03 0.  0.
        -24    2    4    4    0    0 -0.10492469092E+03 -0.22767843886E+03  0.45217282297E+03  0.52314289606E+03  0.79822087084E+02 0.  0.
         24    2    4    4    0    0 -0.24586256786E+03  0.75751032701E+03  0.26008674360E+04  0.27212213572E+04  0.79145166804E+02 0.  0.
         13    1    3    3    0    0  0.31596151460E+03 -0.41978677342E+03  0.97686351719E+03  0.11091956298E+04  0.00000000000E+00 0.  1.
        -13    1    3    3    0    0  0.34825744173E+02 -0.11004511473E+03  0.17363470720E+03  0.20849885198E+03  0.00000000000E+00 0. -1.
          2    1    6    6  502    0 -0.72862591279E+02  0.33682599704E+03  0.10593974903E+04  0.11140393852E+04  0.00000000000E+00 0. -1.
          3    1    5    5  503    0 -0.59415284110E+02 -0.20245117004E+03  0.36745570217E+03  0.42372201417E+03  0.00000000000E+00 0. -1.
         -4    1    5    5    0  503 -0.45509406806E+02 -0.25227268818E+02  0.84717120801E+02  0.99420881895E+02  0.00000000000E+00 0.  1.
         -1    1    6    6    0  502 -0.17299997658E+03  0.42068432997E+03  0.15414699458E+04  0.16071819720E+04  0.00000000000E+00 0.  1.
<mgrwt>
<rscale>  0 0.17727504E+04</rscale>
<asrwt>0</asrwt>
<pdfrwt beam="1">  1        2 0.67427663E+00 0.17727504E+04</pdfrwt>
<pdfrwt beam="2">  1       -2 0.27578484E-01 0.17727504E+04</pdfrwt>
<totfact> 0.18456937E+00</totfact>
</mgrwt>
</event>
<event>
12    1  0.1097093E-007  0.1382489E+04  0.7818608E-02  0.8966592E-01
         -2   -1    0    0    0  501 -0.00000000000E+00  0.00000000000E+00  0.32986688879E+03  0.32986688879E+03  0.00000000000E+00 0.  1.
          2   -1    0    0  501    0  0.00000000000E+00 -0.00000000000E+00 -0.14485212073E+04  0.14485212073E+04  0.00000000000E+00 0. -1.
         23    2    1    2    0    0 -0.29023665775E+03  0.11648583554E+03 -0.57019903334E+03  0.65649912396E+03  0.89765777174E+02 0.  0.
        254    2    1    2    0    0  0.29023665775E+03 -0.11648583554E+03 -0.54845528512E+03  0.11218889721E+04  0.92737554341E+03 0.  0.
        -24    2    4    4    0    0 -0.13319415264E+03 -0.18684608690E+03 -0.63238828662E+03  0.67762950443E+03  0.81330546142E+02 0.  0.
         24    2    4    4    0    0  0.42343081039E+03  0.70360251363E+02  0.83933001498E+02  0.44425946765E+03  0.77958384396E+02 0.  0.
         11    1    3    3    0    0 -0.53353346333E+02  0.14561095565E+02 -0.44610257491E+02  0.71054064925E+02  0.00000000000E+00 0. -1.
        -11    1    3    3    0    0 -0.23688331142E+03  0.10192473997E+03 -0.52558877585E+03  0.58544505903E+03  0.00000000000E+00 0.  1.
          4    1    6    6  502    0  0.36296187128E+03  0.86137863541E+02  0.62816322061E+02  0.37829478169E+03  0.00000000000E+00 0. -1.
          1    1    5    5  503    0 -0.10794210108E+03 -0.11042070027E+03 -0.32407569903E+03  0.35898368617E+03  0.00000000000E+00 0. -1.
         -2    1    5    5    0  503 -0.25252051556E+02 -0.76425386628E+02 -0.30831258759E+03  0.31864581827E+03  0.00000000000E+00 0.  1.
         -3    1    6    6    0  502  0.60468939111E+02 -0.15777612178E+02  0.21116679437E+02  0.65964685959E+02  0.00000000000E+00 0.  1.
<mgrwt>
<rscale>  0 0.13824893E+04</rscale>
<asrwt>0</asrwt>
<pdfrwt beam="1">  1        2 0.22284942E+00 0.13824893E+04</pdfrwt>
<pdfrwt beam="2">  1       -2 0.50748752E-01 0.13824893E+04</pdfrwt>
<totfact> 0.48556720E+01</totfact>
</mgrwt>
</event>
<event>
12    1  0.1097093E-007  0.1496084E+04  0.7818608E-02  0.8887061E-01
         -2   -1    0    0    0  501 -0.00000000000E+00  0.00000000000E+00  0.32504816248E+03  0.32504816248E+03  0.00000000000E+00 0.  1.
          2   -1    0    0  501    0  0.00000000000E+00 -0.00000000000E+00 -0.17214887748E+04  0.17214887748E+04  0.00000000000E+00 0. -1.
         23    2    1    2    0    0 -0.46951327685E+03 -0.13069764930E+03 -0.43773365725E+03  0.66137141646E+03  0.90976937467E+02 0.  0.
        254    2    1    2    0    0  0.46951327685E+03  0.13069764930E+03 -0.95870695506E+03  0.13851655208E+04  0.87294896857E+03 0.  0.
        -24    2    4    4    0    0 -0.12392114003E+03 -0.21533264516E+03 -0.93467513825E+02  0.27712249938E+03  0.79599663951E+02 0.  0.
         24    2    4    4    0    0  0.59343441688E+03  0.34603029447E+03 -0.86523944124E+03  0.11080430214E+04  0.84962785263E+02 0.  0.
         13    1    3    3    0    0 -0.43995774709E+03 -0.10593313213E+03 -0.42486567030E+03  0.62072174564E+03  0.00000000000E+00 0. -1.
        -13    1    3    3    0    0 -0.29555529754E+02 -0.24764517173E+02 -0.12867986957E+02  0.40649670825E+02  0.00000000000E+00 0.  1.
          2    1    6    6  502    0  0.38032677500E+03  0.24689777512E+03 -0.51403679659E+03  0.68544933831E+03  0.00000000000E+00 0. -1.
          1    1    5    5  503    0 -0.10460529661E+02  0.60034276016E+01 -0.27336168605E+01  0.12366749165E+02  0.00000000000E+00 0. -1.
         -2    1    5    5    0  503 -0.11346061037E+03 -0.22133607276E+03 -0.90733896965E+02  0.26475575021E+03  0.00000000000E+00 0.  1.
         -1    1    6    6    0  502  0.21310764188E+03  0.99132519341E+02 -0.35120264465E+03  0.42259368314E+03  0.00000000000E+00 0.  1.
<mgrwt>
<rscale>  0 0.14960839E+04</rscale>
<asrwt>0</asrwt>
<pdfrwt beam="1">  1        2 0.26484443E+00 0.14960839E+04</pdfrwt>
<pdfrwt beam="2">  1       -2 0.50007409E-01 0.14960839E+04</pdfrwt>
<totfact> 0.34879169E+01</totfact>
</mgrwt>
</event>
<event>
12    1  0.1097093E-007  0.1890949E+04  0.7818608E-02  0.8659375E-01
         -1   -1    0    0    0  501 -0.00000000000E+00  0.00000000000E+00  0.49578167655E+03  0.49578167655E+03  0.00000000000E+00 0.  1.
          1   -1    0    0  501    0  0.00000000000E+00 -0.00000000000E+00 -0.18030563300E+04  0.18030563300E+04  0.00000000000E+00 0. -1.
         23    2    1    2    0    0 -0.42057051651E+03 -0.78801853993E+02  0.20946312648E+03  0.48514780152E+03  0.91674949760E+02 0.  0.
        254    2    1    2    0    0  0.42057051651E+03  0.78801853993E+02 -0.15167377800E+04  0.18136902051E+04  0.89771341484E+03 0.  0.
        -24    2    4    4    0    0 -0.44665530150E+01 -0.30667752909E+02  0.10014542287E+03  0.13637962751E+03  0.87234373465E+02 0.  0.
         24    2    4    4    0    0  0.42503706953E+03  0.10946960690E+03 -0.16168832028E+04  0.16773105775E+04  0.80121012479E+02 0.  0.
         13    1    3    3    0    0 -0.30215908313E+03 -0.63798259076E+02  0.10397273180E+03  0.32585373765E+03  0.00000000000E+00 0.  1.
        -13    1    3    3    0    0 -0.11841143338E+03 -0.15003594917E+02  0.10549039468E+03  0.15929406388E+03  0.00000000000E+00 0. -1.
          4    1    6    6  502    0  0.13217420305E+03  0.65979466445E+02 -0.62229039124E+03  0.63958474105E+03  0.00000000000E+00 0. -1.
          1    1    5    5  503    0  0.19251083430E+02 -0.53814724104E+02  0.77269300847E+02  0.96110215883E+02  0.00000000000E+00 0. -1.
         -2    1    5    5    0  503 -0.23717636445E+02  0.23146971195E+02  0.22876122020E+02  0.40269411626E+02  0.00000000000E+00 0.  1.
         -3    1    6    6    0  502  0.29286286647E+03  0.43490140457E+02 -0.99459281159E+03  0.10377258365E+04  0.00000000000E+00 0.  1.
<mgrwt>
<rscale>  0 0.18909493E+04</rscale>
<asrwt>0</asrwt>
<pdfrwt beam="1">  1        1 0.27739328E+00 0.18909493E+04</pdfrwt>
<pdfrwt beam="2">  1       -1 0.76274104E-01 0.18909493E+04</pdfrwt>
<totfact> 0.65512434E+00</totfact>
</mgrwt>
</event>
<event>
12    1  0.1097093E-007  0.2592962E+04  0.7818608E-02  0.8370596E-01
         -1   -1    0    0    0  501 -0.00000000000E+00  0.00000000000E+00  0.12242017976E+04  0.12242017976E+04  0.00000000000E+00 0.  1.
          1   -1    0    0  501    0  0.00000000000E+00 -0.00000000000E+00 -0.13730278769E+04  0.13730278769E+04  0.00000000000E+00 0. -1.
         23    2    1    2    0    0 -0.56021302582E+03 -0.93865848598E+03  0.23912503351E+03  0.11219117609E+04  0.81159287584E+02 0.  0.
        254    2    1    2    0    0  0.56021302582E+03  0.93865848598E+03 -0.38795111281E+03  0.14753179136E+04  0.91166797276E+03 0.  0.
        -24    2    4    4    0    0 -0.48212639344E+02 -0.11266483945E+03  0.89599246590E+02  0.16815335527E+03  0.72316673452E+02 0.  0.
         24    2    4    4    0    0  0.60842566516E+03  0.10513233254E+04 -0.47755035940E+03  0.13071645583E+04  0.71849231565E+02 0.  0.
         13    1    3    3    0    0 -0.54761204064E+03 -0.93399881462E+03  0.23622388540E+03  0.11081671610E+04  0.00000000000E+00 0.  1.
        -13    1    3    3    0    0 -0.12600985177E+02 -0.46596713596E+01  0.29011481099E+01  0.13744599847E+02  0.00000000000E+00 0. -1.
          2    1    6    6  502    0  0.35635852379E+02  0.81153545018E+02 -0.18210901658E+02  0.90484522339E+02  0.00000000000E+00 0. -1.
          3    1    5    5  503    0 -0.11126868149E+02 -0.91523330982E+02  0.34473843150E+02  0.98431565924E+02  0.00000000000E+00 0. -1.
         -4    1    5    5    0  503 -0.37085771195E+02 -0.21141508467E+02  0.55125403440E+02  0.69721789348E+02  0.00000000000E+00 0.  1.
         -1    1    6    6    0  502  0.57278981278E+03  0.97016978041E+03 -0.45933945774E+03  0.12166800360E+04  0.00000000000E+00 0.  1.
<mgrwt>
<rscale>  0 0.25929622E+04</rscale>
<asrwt>0</asrwt>
<pdfrwt beam="1">  1        1 0.21123506E+00 0.25929622E+04</pdfrwt>
<pdfrwt beam="2">  1       -1 0.18833874E+00 0.25929622E+04</pdfrwt>
<totfact> 0.12840861E+00</totfact>
</mgrwt>
</event>
<event>
12    1  0.1097093E-007  0.1517692E+04  0.7818608E-02  0.8872772E-01
          2   -1    0    0  501    0  0.00000000000E+00  0.00000000000E+00  0.10855444426E+04  0.10855444426E+04  0.00000000000E+00 0. -1.
         -2   -1    0    0    0  501 -0.00000000000E+00 -0.00000000000E+00 -0.53046884541E+03  0.53046884541E+03  0.00000000000E+00 0.  1.
         23    2    1    2    0    0 -0.48258677965E+03 -0.64873206965E+02  0.22696124365E+03  0.54491472703E+03  0.91225658344E+02 0.  0.
        254    2    1    2    0    0  0.48258677965E+03  0.64873206965E+02  0.32811435357E+03  0.10710985610E+04  0.89582061011E+03 0.  0.
        -24    2    4    4    0    0 -0.10343091426E+03  0.33784693082E+03  0.63527344849E+02  0.36791735060E+03  0.80554023118E+02 0.  0.
         24    2    4    4    0    0  0.58601769391E+03 -0.27297372385E+03  0.26458700872E+03  0.70318121041E+03  0.80784515858E+02 0.  0.
         13    1    3    3    0    0 -0.48016019563E+03 -0.54351569141E+02  0.21529331167E+03  0.52901712315E+03  0.00000000000E+00 0. -1.
        -13    1    3    3    0    0 -0.24265840207E+01 -0.10521637823E+02  0.11667931978E+02  0.15897603880E+02  0.00000000000E+00 0.  1.
          4    1    6    6  502    0  0.55942640690E+03 -0.25165194675E+03  0.23142012089E+03  0.65562327551E+03  0.00000000000E+00 0. -1.
          1    1    5    5  503    0 -0.11233724644E+03  0.33130531571E+03  0.67286685270E+02  0.35624481353E+03  0.00000000000E+00 0. -1.
         -2    1    5    5    0  503  0.89063321801E+01  0.65416151069E+01 -0.37593404209E+01  0.11672537064E+02  0.00000000000E+00 0.  1.
         -3    1    6    6    0  502  0.26591287013E+02 -0.21321777104E+02  0.33166887829E+02  0.47557934902E+02  0.00000000000E+00 0.  1.
<mgrwt>
<rscale>  0 0.15176923E+04</rscale>
<asrwt>0</asrwt>
<pdfrwt beam="1">  1        2 0.16700684E+00 0.15176923E+04</pdfrwt>
<pdfrwt beam="2">  1       -2 0.81610592E-01 0.15176923E+04</pdfrwt>
<totfact> 0.28365133E+01</totfact>
</mgrwt>
</event>
<event>
12    1  0.1097093E-007  0.1398594E+04  0.7818608E-02  0.8954837E-01
         -2   -1    0    0    0  501 -0.00000000000E+00  0.00000000000E+00  0.98801367619E+03  0.98801367619E+03  0.00000000000E+00 0.  1.
          2   -1    0    0  501    0  0.00000000000E+00 -0.00000000000E+00 -0.49494867769E+03  0.49494867769E+03  0.00000000000E+00 0. -1.
         23    2    1    2    0    0 -0.87055092063E+02  0.39118572111E+03  0.33141322881E+02  0.41354783213E+03  0.96532920375E+02 0.  0.
        254    2    1    2    0    0  0.87055092063E+02 -0.39118572111E+03  0.45992367562E+03  0.10694145218E+04  0.87835799905E+03 0.  0.
        -24    2    4    4    0    0  0.21371875950E+03 -0.97440629400E+02 -0.20779005316E+03  0.32477889921E+03  0.84464446711E+02 0.  0.
         24    2    4    4    0    0 -0.12666366744E+03 -0.29374509171E+03  0.66771372878E+03  0.74463562254E+03  0.79440060439E+02 0.  0.
         13    1    3    3    0    0 -0.92557773873E+02  0.34285736620E+03  0.56485872023E+02  0.35959528473E+03  0.00000000000E+00 0. -1.
        -13    1    3    3    0    0  0.55026818105E+01  0.48328354910E+02 -0.23344549142E+02  0.53952547392E+02  0.00000000000E+00 0.  1.
          2    1    6    6  502    0 -0.80808613761E+02 -0.10655774011E+03  0.32521149237E+03  0.35163489418E+03  0.00000000000E+00 0. -1.
          1    1    5    5  503    0  0.20492095099E+03 -0.64505103357E+02 -0.17062817769E+03  0.27434919270E+03  0.00000000000E+00 0. -1.
         -2    1    5    5    0  503  0.87978085180E+01 -0.32935526043E+02 -0.37161875474E+02  0.50429706515E+02  0.00000000000E+00 0.  1.
         -1    1    6    6    0  502 -0.45855053680E+02 -0.18718735160E+03  0.34250223641E+03  0.39300072836E+03  0.00000000000E+00 0.  1.
<mgrwt>
<rscale>  0 0.13985937E+04</rscale>
<asrwt>0</asrwt>
<pdfrwt beam="1">  1        2 0.76145951E-01 0.13985937E+04</pdfrwt>
<pdfrwt beam="2">  1       -2 0.15200210E+00 0.13985937E+04</pdfrwt>
<totfact> 0.17527374E+01</totfact>
</mgrwt>
</event>
<event>
12    1  0.1097093E-007  0.1466066E+04  0.7818608E-02  0.8907338E-01
         -2   -1    0    0    0  501 -0.00000000000E+00  0.00000000000E+00  0.17706561505E+03  0.17706561505E+03  0.00000000000E+00 0.  1.
          2   -1    0    0  501    0  0.00000000000E+00 -0.00000000000E+00 -0.30346786802E+04  0.30346786802E+04  0.00000000000E+00 0. -1.
         23    2    1    2    0    0 -0.18795274833E+03 -0.62369132818E+01 -0.17822353812E+04  0.17948101516E+04  0.98058102544E+02 0.  0.
        254    2    1    2    0    0  0.18795274833E+03  0.62369132818E+01 -0.10753776839E+04  0.14169341437E+04  0.90327186922E+03 0.  0.
        -24    2    4    4    0    0 -0.15329921760E+03  0.14486944637E+03  0.49113506588E+02  0.23087841548E+03  0.80030616638E+02 0.  0.
         24    2    4    4    0    0  0.34125196593E+03 -0.13863253309E+03 -0.11244911905E+04  0.11860557282E+04  0.81091734073E+02 0.  0.
         13    1    3    3    0    0  0.23601188274E+01  0.15392535126E+02 -0.27698727684E+03  0.27742467775E+03  0.00000000000E+00 0.  1.
        -13    1    3    3    0    0 -0.19031286716E+03 -0.21629448407E+02 -0.15052481044E+04  0.15173854738E+04  0.00000000000E+00 0. -1.
          2    1    6    6  502    0  0.32418799678E+03 -0.11443748446E+03 -0.10721434382E+04  0.11259153375E+04  0.00000000000E+00 0. -1.
          3    1    5    5  503    0 -0.10941000547E+03  0.90319173061E+02  0.69464379810E+02  0.15796645967E+03  0.00000000000E+00 0. -1.
         -4    1    5    5    0  503 -0.43889212134E+02  0.54550273309E+02 -0.20350873222E+02  0.72911955815E+02  0.00000000000E+00 0.  1.
         -1    1    6    6    0  502  0.17063969146E+02 -0.24195048627E+02 -0.52347752301E+02  0.60140390688E+02  0.00000000000E+00 0.  1.
<mgrwt>
<rscale>  0 0.14660658E+04</rscale>
<asrwt>0</asrwt>
<pdfrwt beam="1">  1        2 0.46687364E+00 0.14660658E+04</pdfrwt>
<pdfrwt beam="2">  1       -2 0.27240864E-01 0.14660658E+04</pdfrwt>
<totfact> 0.19833232E+01</totfact>
</mgrwt>
</event>
<event>
12    1  0.1097093E-007  0.2930376E+04  0.7818608E-02  0.8263897E-01
          2   -1    0    0  501    0  0.00000000000E+00  0.00000000000E+00  0.27466850018E+04  0.27466850018E+04  0.00000000000E+00 0.  1.
         -2   -1    0    0    0  501 -0.00000000000E+00 -0.00000000000E+00 -0.78158798961E+03  0.78158798961E+03  0.00000000000E+00 0. -1.
         23    2    1    2    0    0 -0.37481411065E+03 -0.56502530339E+03 -0.48021001484E+03  0.83593049075E+03  0.91863572694E+02 0.  0.
        254    2    1    2    0    0  0.37481411065E+03  0.56502530339E+03  0.24453070271E+04  0.26923425007E+04  0.89969020969E+03 0.  0.
        -24    2    4    4    0    0  0.54069753114E+03  0.70155578039E+03  0.18062990517E+04  0.20136000518E+04  0.85642112997E+02 0.  0.
         24    2    4    4    0    0 -0.16588342048E+03 -0.13653047699E+03  0.63900797539E+03  0.67874244885E+03  0.78754294647E+02 0.  0.
         13    1    3    3    0    0 -0.32224682253E+03 -0.42244404050E+03 -0.35470234617E+03  0.63883936664E+03  0.00000000000E+00 0. -1.
        -13    1    3    3    0    0 -0.52567288127E+02 -0.14258126289E+03 -0.12550766867E+03  0.19709112411E+03  0.00000000000E+00 0.  1.
          4    1    6    6  502    0 -0.15373005206E+02  0.10266684998E+02  0.46591752160E+02  0.50125098297E+02  0.00000000000E+00 0. -1.
          3    1    5    5  503    0  0.28079138320E+02  0.15175554101E+02  0.87515971556E+02  0.93154606588E+02  0.00000000000E+00 0. -1.
         -4    1    5    5    0  503  0.51261839282E+03  0.68638022628E+03  0.17187830801E+04  0.19204454453E+04  0.00000000000E+00 0.  1.
         -3    1    6    6    0  502 -0.15051041528E+03 -0.14679716199E+03  0.59241622323E+03  0.62861735056E+03  0.00000000000E+00 0.  1.
<mgrwt>
<rscale>  0 0.29303761E+04</rscale>
<asrwt>0</asrwt>
<pdfrwt beam="1">  1        2 0.42256692E+00 0.29303761E+04</pdfrwt>
<pdfrwt beam="2">  1       -2 0.12024431E+00 0.29303761E+04</pdfrwt>
<totfact> 0.11321575E+00</totfact>
</mgrwt>
</event>
<event>
12    1  0.1097093E-007  0.2276345E+04  0.7818608E-02  0.8487307E-01
         -2   -1    0    0    0  501 -0.00000000000E+00  0.00000000000E+00  0.11317659418E+04  0.11317659418E+04  0.00000000000E+00 0.  1.
          2   -1    0    0  501    0  0.00000000000E+00 -0.00000000000E+00 -0.11446149667E+04  0.11446149667E+04  0.00000000000E+00 0. -1.
         23    2    1    2    0    0 -0.75354313934E+03 -0.43265124597E+03  0.51160190656E+03  0.10126791775E+04  0.93638893191E+02 0.  0.
        254    2    1    2    0    0  0.75354313934E+03  0.43265124597E+03 -0.52445093146E+03  0.12637017310E+04  0.75291362186E+03 0.  0.
        -24    2    4    4    0    0  0.67788093652E+03  0.24447940382E+03 -0.32255453830E+02  0.72598002730E+03  0.81938042146E+02 0.  0.
         24    2    4    4    0    0  0.75662202821E+02  0.18817184214E+03 -0.49219547763E+03  0.53772170371E+03  0.75860604609E+02 0.  0.
         11    1    3    3    0    0 -0.27689334889E+03 -0.14269844756E+03  0.23346045501E+03  0.38927696779E+03  0.00000000000E+00 0. -1.
        -11    1    3    3    0    0 -0.47664979045E+03 -0.28995279840E+03  0.27814145155E+03  0.62340220974E+03  0.00000000000E+00 0.  1.
          4    1    6    6  502    0 -0.29210359951E+01  0.91828194595E+02 -0.22403863527E+03  0.24214512150E+03  0.00000000000E+00 0. -1.
          1    1    5    5  503    0  0.59394958590E+03  0.18887928889E+03 -0.42948650700E+02  0.62473681095E+03  0.00000000000E+00 0. -1.
         -2    1    5    5    0  503  0.83931350616E+02  0.55600114936E+02  0.10693196870E+02  0.10124321635E+03  0.00000000000E+00 0.  1.
         -3    1    6    6    0  502  0.78583238816E+02  0.96343647548E+02 -0.26815684236E+03  0.29557658221E+03  0.00000000000E+00 0.  1.
<mgrwt>
<rscale>  0 0.22763446E+04</rscale>
<asrwt>0</asrwt>
<pdfrwt beam="1">  1        2 0.17609461E+00 0.22763446E+04</pdfrwt>
<pdfrwt beam="2">  1       -2 0.17411784E+00 0.22763446E+04</pdfrwt>
<totfact> 0.37033179E+00</totfact>
</mgrwt>
</event>
<event>
12    1  0.1097093E-007  0.1581448E+04  0.7818608E-02  0.8832027E-01
         -1   -1    0    0    0  501 -0.00000000000E+00  0.00000000000E+00  0.58574519598E+03  0.58574519598E+03  0.00000000000E+00 0.  1.
          1   -1    0    0  501    0  0.00000000000E+00 -0.00000000000E+00 -0.10674343924E+04  0.10674343924E+04  0.00000000000E+00 0. -1.
         23    2    1    2    0    0  0.46340003615E+03 -0.22309709368E+03 -0.32831499921E+02  0.52315237933E+03  0.89992210243E+02 0.  0.
        254    2    1    2    0    0 -0.46340003615E+03  0.22309709368E+03 -0.44885769653E+03  0.11300272091E+04  0.90054225599E+03 0.  0.
        -24    2    4    4    0    0 -0.59302103237E+03 -0.10346528107E+03 -0.76659725909E+02  0.61204165295E+03  0.79619483495E+02 0.  0.
         24    2    4    4    0    0  0.12962099622E+03  0.32656237475E+03 -0.37219797062E+03  0.51798555613E+03  0.79580900728E+02 0.  0.
         13    1    3    3    0    0  0.32141266093E+03 -0.17372089922E+03 -0.60407759772E+02  0.37031627951E+03  0.00000000000E+00 0.  1.
        -13    1    3    3    0    0  0.14198737522E+03 -0.49376194459E+02  0.27576259851E+02  0.15283609982E+03  0.00000000000E+00 0. -1.
          4    1    6    6  502    0  0.10241668359E+03  0.31357459517E+03 -0.34591750886E+03  0.47799281035E+03  0.00000000000E+00 0. -1.
          3    1    5    5  503    0 -0.15257568874E+03 -0.52050465919E+02 -0.45521703611E+02  0.16751363317E+03  0.00000000000E+00 0. -1.
         -4    1    5    5    0  503 -0.44044534363E+03 -0.51414815151E+02 -0.31138022298E+02  0.44452801978E+03  0.00000000000E+00 0.  1.
         -3    1    6    6    0  502  0.27204312635E+02  0.12987779578E+02 -0.26280461764E+02  0.39992745778E+02  0.00000000000E+00 0.  1.
<mgrwt>
<rscale>  0 0.15814482E+04</rscale>
<asrwt>0</asrwt>
<pdfrwt beam="1">  1        1 0.16422067E+00 0.15814482E+04</pdfrwt>
<pdfrwt beam="2">  1       -1 0.90114647E-01 0.15814482E+04</pdfrwt>
<totfact> 0.15538116E+01</totfact>
</mgrwt>
</event>
<event>
12    1  0.1097093E-007  0.3017556E+04  0.7818608E-02  0.8238735E-01
         -2   -1    0    0    0  501 -0.00000000000E+00  0.00000000000E+00  0.24261399513E+04  0.24261399513E+04  0.00000000000E+00 0.  1.
          2   -1    0    0  501    0  0.00000000000E+00 -0.00000000000E+00 -0.93828507488E+03  0.93828507488E+03  0.00000000000E+00 0. -1.
         23    2    1    2    0    0  0.19970251287E+03  0.13339567456E+04  0.73452239607E+03  0.15384155342E+04  0.88755354964E+02 0.  0.
        254    2    1    2    0    0 -0.19970251287E+03 -0.13339567456E+04  0.75333248031E+03  0.18260094919E+04  0.97338540464E+03 0.  0.
        -24    2    4    4    0    0 -0.23645157243E+03 -0.11499633048E+03  0.51087776264E+03  0.58022396824E+03  0.80810041641E+02 0.  0.
         24    2    4    4    0    0  0.36749059558E+02 -0.12189604151E+04  0.24245471766E+03  0.12457855237E+04  0.77345290365E+02 0.  0.
         11    1    3    3    0    0  0.14073776516E+03  0.11495394508E+04  0.62834873527E+03  0.13176001672E+04  0.00000000000E+00 0. -1.
        -11    1    3    3    0    0  0.58964747710E+02  0.18441729471E+03  0.10617366081E+03  0.22081536701E+03  0.00000000000E+00 0.  1.
          2    1    6    6  502    0  0.37776891692E+02 -0.99224461377E+03  0.22674788132E+03  0.10185239657E+04  0.00000000000E+00 0. -1.
          3    1    5    5  503    0 -0.85037150151E+02 -0.17024291897E+02  0.10571792193E+03  0.13673851848E+03  0.00000000000E+00 0. -1.
         -4    1    5    5    0  503 -0.15141442227E+03 -0.97972038582E+02  0.40515984071E+03  0.44348544975E+03  0.00000000000E+00 0.  1.
         -1    1    6    6    0  502 -0.10278321334E+01 -0.22671580130E+03  0.15706836345E+02  0.22726155791E+03  0.00000000000E+00 0.  1.
<mgrwt>
<rscale>  0 0.30175559E+04</rscale>
<asrwt>0</asrwt>
<pdfrwt beam="1">  1        2 0.14435155E+00 0.30175559E+04</pdfrwt>
<pdfrwt beam="2">  1       -2 0.37325230E+00 0.30175559E+04</pdfrwt>
<totfact> 0.26130796E-01</totfact>
</mgrwt>
</event>
<event>
12    1  0.1097093E-007  0.2154641E+04  0.7818608E-02  0.8537548E-01
          1   -1    0    0  501    0  0.00000000000E+00  0.00000000000E+00  0.69230176199E+03  0.69230176199E+03  0.00000000000E+00 0. -1.
         -1   -1    0    0    0  501 -0.00000000000E+00 -0.00000000000E+00 -0.16764650264E+04  0.16764650264E+04  0.00000000000E+00 0.  1.
         23    2    1    2    0    0  0.23177315345E+03  0.79098176663E+03 -0.76374468135E+03  0.11271476475E+04  0.88232256943E+02 0.  0.
        254    2    1    2    0    0 -0.23177315345E+03 -0.79098176663E+03 -0.22041858301E+03  0.12416191409E+04  0.90203258776E+03 0.  0.
        -24    2    4    4    0    0 -0.74648186101E+02 -0.39834680251E+03  0.34012568850E+03  0.53504472620E+03  0.79591760210E+02 0.  0.
         24    2    4    4    0    0 -0.15712496735E+03 -0.39263496412E+03 -0.56054427151E+03  0.70657441465E+03  0.78657820387E+02 0.  0.
         11    1    3    3    0    0  0.33601307088E+02  0.47148377549E+02 -0.38437894588E+02  0.69494525567E+02  0.00000000000E+00 0.  1.
        -11    1    3    3    0    0  0.19817184636E+03  0.74383338908E+03 -0.72530678676E+03  0.10576531219E+04  0.00000000000E+00 0. -1.
          2    1    6    6  502    0 -0.49676152616E+02 -0.53379832270E+02 -0.11778397171E+03  0.13852866355E+03  0.00000000000E+00 0. -1.
          1    1    5    5  503    0 -0.61472905546E+02 -0.16472184796E+03  0.11335073344E+03  0.20919032980E+03  0.00000000000E+00 0. -1.
         -2    1    5    5    0  503 -0.13175280556E+02 -0.23362495456E+03  0.22677495506E+03  0.32585439640E+03  0.00000000000E+00 0.  1.
         -1    1    6    6    0  502 -0.10744881473E+03 -0.33925513185E+03 -0.44276029980E+03  0.56804575111E+03  0.00000000000E+00 0.  1.
<mgrwt>
<rscale>  0 0.21546412E+04</rscale>
<asrwt>0</asrwt>
<pdfrwt beam="1">  1        1 0.10650796E+00 0.21546412E+04</pdfrwt>
<pdfrwt beam="2">  1       -1 0.25791769E+00 0.21546412E+04</pdfrwt>
<totfact> 0.15698663E+00</totfact>
</mgrwt>
</event>
<event>
12    1  0.1097093E-007  0.1550768E+04  0.7818608E-02  0.8851377E-01
          3   -1    0    0  501    0  0.00000000000E+00  0.00000000000E+00  0.87703875589E+03  0.87703875589E+03  0.00000000000E+00 0.  1.
         -3   -1    0    0    0  501 -0.00000000000E+00 -0.00000000000E+00 -0.68551202247E+03  0.68551202247E+03  0.00000000000E+00 0. -1.
         23    2    1    2    0    0 -0.36396935772E+03  0.87539329502E+02 -0.30212360979E+03  0.48923566107E+03  0.89084392050E+02 0.  0.
        254    2    1    2    0    0  0.36396935772E+03 -0.87539329502E+02  0.49365034321E+03  0.10733151173E+04  0.87645755862E+03 0.  0.
        -24    2    4    4    0    0  0.48662882371E+02 -0.20469222804E+01 -0.24474905104E+03  0.26189700195E+03  0.79471225224E+02 0.  0.
         24    2    4    4    0    0  0.31530647535E+03 -0.85492407222E+02  0.73839939425E+03  0.81141811532E+03  0.80240683954E+02 0.  0.
         11    1    3    3    0    0 -0.33470494533E+03  0.76327227880E+02 -0.30299385270E+03  0.45788483368E+03  0.00000000000E+00 0. -1.
        -11    1    3    3    0    0 -0.29264412392E+02  0.11212101622E+02  0.87024291156E+00  0.31350827392E+02  0.00000000000E+00 0.  1.
          2    1    6    6  502    0  0.24164461143E+03 -0.29082908827E+02  0.52088423020E+03  0.57494201019E+03  0.00000000000E+00 0. -1.
          1    1    5    5  503    0  0.65154310214E+02 -0.13606885261E+02 -0.22075515654E+03  0.23057118338E+03  0.00000000000E+00 0. -1.
         -2    1    5    5    0  503 -0.16491427842E+02  0.11559962981E+02 -0.23993894498E+02  0.31325818578E+02  0.00000000000E+00 0.  1.
         -1    1    6    6    0  502  0.73661863919E+02 -0.56409498395E+02  0.21751516405E+03  0.23647610513E+03  0.00000000000E+00 0.  1.
<mgrwt>
<rscale>  0 0.15507683E+04</rscale>
<asrwt>0</asrwt>
<pdfrwt beam="1">  1        3 0.13492904E+00 0.15507683E+04</pdfrwt>
<pdfrwt beam="2">  1       -3 0.10546339E+00 0.15507683E+04</pdfrwt>
<totfact> 0.82365028E-01</totfact>
</mgrwt>
</event>
<event>
12    1  0.1097093E-007  0.2429160E+04  0.7818608E-02  0.8428666E-01
          1   -1    0    0  501    0  0.00000000000E+00  0.00000000000E+00  0.34549394404E+04  0.34549394404E+04  0.00000000000E+00 0. -1.
         -1   -1    0    0    0  501 -0.00000000000E+00 -0.00000000000E+00 -0.42698431480E+03  0.42698431480E+03  0.00000000000E+00 0.  1.
         23    2    1    2    0    0  0.45873659185E+03  0.73251419857E+03  0.36957354540E+03  0.94433025550E+03  0.90325600998E+02 0.  0.
        254    2    1    2    0    0 -0.45873659185E+03 -0.73251419857E+03  0.26583815802E+04  0.29375934997E+04  0.90302083678E+03 0.  0.
        -24    2    4    4    0    0 -0.55578553957E+03 -0.72162968874E+03  0.26578075332E+04  0.28106737750E+04  0.79367576833E+02 0.  0.
         24    2    4    4    0    0  0.97048947714E+02 -0.10884509828E+02  0.57404707543E+00  0.12691972476E+03  0.81063655218E+02 0.  0.
         11    1    3    3    0    0  0.44862634307E+02  0.56877243893E+02  0.63525560133E+01  0.72718854486E+02  0.00000000000E+00 0. -1.
        -11    1    3    3    0    0  0.41387395755E+03  0.67563695467E+03  0.36322098938E+03  0.87161140102E+03  0.00000000000E+00 0.  1.
          2    1    6    6  502    0 -0.63992918763E+01 -0.11407414272E+02  0.17755508022E+02  0.22053074661E+02  0.00000000000E+00 0. -1.
          3    1    5    5  503    0 -0.35106975694E+01  0.20381647719E+00  0.30791614755E+01  0.46741602425E+01  0.00000000000E+00 0. -1.
         -4    1    5    5    0  503 -0.55227484200E+03 -0.72183350522E+03  0.26547283717E+04  0.28059996147E+04  0.00000000000E+00 0.  1.
         -1    1    6    6    0  502  0.10344823959E+03  0.52290444389E+00 -0.17181460947E+02  0.10486665010E+03  0.00000000000E+00 0.  1.
<mgrwt>
<rscale>  0 0.24291603E+04</rscale>
<asrwt>0</asrwt>
<pdfrwt beam="1">  1        1 0.53152913E+00 0.24291603E+04</pdfrwt>
<pdfrwt beam="2">  1       -1 0.65689897E-01 0.24291603E+04</pdfrwt>
<totfact> 0.56993567E-01</totfact>
</mgrwt>
</event>
<event>
12    1  0.1114302E-007  0.1588953E+04  0.7818608E-02  0.8827364E-01
         -2   -1    0    0    0  501 -0.00000000000E+00  0.00000000000E+00  0.30736073727E+03  0.30736073727E+03  0.00000000000E+00 0.  1.
          2   -1    0    0  501    0  0.00000000000E+00 -0.00000000000E+00 -0.20535895969E+04  0.20535895969E+04  0.00000000000E+00 0. -1.
         23    2    1    2    0    0 -0.27163976171E+03  0.28620746143E+03 -0.58988818784E+02  0.40894040425E+03  0.89720133602E+02 0.  0.
        254    2    1    2    0    0  0.27163976171E+03 -0.28620746143E+03 -0.16872400408E+04  0.19520099299E+04  0.89881084770E+03 0.  0.
        -24    2    4    4    0    0  0.21270196633E+02 -0.49241007753E+03 -0.14725257365E+04  0.15548360823E+04  0.79139700669E+02 0.  0.
         24    2    4    4    0    0  0.25036956507E+03  0.20620261610E+03 -0.21471430429E+03  0.39717384764E+03  0.80252070249E+02 0.  0.
         11    1    3    3    0    0 -0.44360389745E+02  0.14166795080E+02 -0.24926504850E+02  0.52819247488E+02  0.00000000000E+00 0. -1.
        -11    1    3    3    0    0 -0.22727937196E+03  0.27204066635E+03 -0.34062313934E+02  0.35612115677E+03  0.00000000000E+00 0.  1.
          4    1    6    6  502    0  0.24491734166E+03  0.18146238337E+03 -0.17933094348E+03  0.35365617217E+03  0.00000000000E+00 0. -1.
          1    1    5    5  503    0  0.23645917372E+01 -0.41060462160E+03 -0.12933064903E+04  0.13569242516E+04  0.00000000000E+00 0. -1.
         -2    1    5    5    0  503  0.18905604896E+02 -0.81805455927E+02 -0.17921924621E+03  0.19791183069E+03  0.00000000000E+00 0.  1.
         -3    1    6    6    0  502  0.54522234115E+01  0.24740232733E+02 -0.35383360817E+02  0.43517675473E+02  0.00000000000E+00 0.  1.
<mgrwt>
<rscale>  0 0.15889529E+04</rscale>
<asrwt>0</asrwt>
<pdfrwt beam="1">  1        2 0.31593687E+00 0.15889529E+04</pdfrwt>
<pdfrwt beam="2">  1       -2 0.47286266E-01 0.15889529E+04</pdfrwt>
<totfact> 0.25382733E+01</totfact>
</mgrwt>
</event>
<event>
12    1  0.1097093E-007  0.4150340E+04  0.7818608E-02  0.7974886E-01
          2   -1    0    0  501    0  0.00000000000E+00  0.00000000000E+00  0.27947521590E+04  0.27947521590E+04  0.00000000000E+00 0.  1.
         -2   -1    0    0    0  501 -0.00000000000E+00 -0.00000000000E+00 -0.15408634361E+04  0.15408634361E+04  0.00000000000E+00 0. -1.
         23    2    1    2    0    0  0.18095967141E+04 -0.79727992871E+03  0.59695334690E+03  0.20675477256E+04  0.90026367551E+02 0.  0.
        254    2    1    2    0    0 -0.18095967141E+04  0.79727992871E+03  0.65693537605E+03  0.22680678695E+04  0.89569650002E+03 0.  0.
        -24    2    4    4    0    0 -0.31541612111E+03  0.44731175150E+03  0.45899571487E+03  0.71867572473E+03  0.79010116826E+02 0.  0.
         24    2    4    4    0    0 -0.14941805930E+04  0.34996817720E+03  0.19793966119E+03  0.15493921448E+04  0.79890796884E+02 0.  0.
         11    1    3    3    0    0  0.75816655975E+03 -0.34003634867E+03  0.29699261848E+03  0.88240912629E+03  0.00000000000E+00 0. -1.
        -11    1    3    3    0    0  0.10514301543E+04 -0.45724358004E+03  0.29996072841E+03  0.11851385993E+04  0.00000000000E+00 0.  1.
          2    1    6    6  502    0 -0.10192136506E+04  0.22234747907E+03  0.16842374028E+03  0.10566936280E+04  0.00000000000E+00 0. -1.
          1    1    5    5  503    0 -0.11388636380E+03  0.22941709355E+03  0.20672214213E+03  0.32914487800E+03  0.00000000000E+00 0. -1.
         -2    1    5    5    0  503 -0.20152975731E+03  0.21789465796E+03  0.25227357274E+03  0.38953084673E+03  0.00000000000E+00 0.  1.
         -1    1    6    6    0  502 -0.47496694234E+03  0.12762069814E+03  0.29515920907E+02  0.49269851684E+03  0.00000000000E+00 0.  1.
<mgrwt>
<rscale>  0 0.41503404E+04</rscale>
<asrwt>0</asrwt>
<pdfrwt beam="1">  1        2 0.42996187E+00 0.41503404E+04</pdfrwt>
<pdfrwt beam="2">  1       -2 0.23705591E+00 0.41503404E+04</pdfrwt>
<totfact> 0.14022462E-01</totfact>
</mgrwt>
</event>
<event>
12    1  0.1097093E-007  0.2511837E+04  0.7818608E-02  0.8398781E-01
          2   -1    0    0  501    0  0.00000000000E+00  0.00000000000E+00  0.20907409444E+04  0.20907409444E+04  0.00000000000E+00 0. -1.
         -2   -1    0    0    0  501 -0.00000000000E+00 -0.00000000000E+00 -0.75443674523E+03  0.75443674523E+03  0.00000000000E+00 0.  1.
         23    2    1    2    0    0 -0.42335487066E+03  0.17802137303E+03  0.17053020944E+04  0.17683955545E+04  0.90811058394E+02 0.  0.
        254    2    1    2    0    0  0.42335487066E+03 -0.17802137303E+03 -0.36899789524E+03  0.10767821351E+04  0.90132089956E+03 0.  0.
        -24    2    4    4    0    0 -0.20227090286E+03  0.13668972022E+02 -0.35637916374E+03  0.41774987579E+03  0.80053053889E+02 0.  0.
         24    2    4    4    0    0  0.62562577352E+03 -0.19169034505E+03 -0.12618731501E+02  0.65903225929E+03  0.77533796014E+02 0.  0.
         11    1    3    3    0    0 -0.77564778724E+02  0.86049535972E+01  0.39729034218E+03  0.40488264487E+03  0.00000000000E+00 0.  1.
        -11    1    3    3    0    0 -0.34579009194E+03  0.16941641943E+03  0.13080117522E+04  0.13635129097E+04  0.00000000000E+00 0. -1.
          4    1    6    6  502    0  0.40078826316E+03 -0.84924374881E+02 -0.17886337790E+02  0.41007719080E+03  0.00000000000E+00 0. -1.
          3    1    5    5  503    0 -0.12440781378E+03 -0.14226498565E+02 -0.14988869765E+03  0.19531082682E+03  0.00000000000E+00 0. -1.
         -4    1    5    5    0  503 -0.77863089078E+02  0.27895470587E+02 -0.20649046609E+03  0.22243904897E+03  0.00000000000E+00 0.  1.
         -3    1    6    6    0  502  0.22483751036E+03 -0.10676597017E+03  0.52676062891E+01  0.24895506849E+03  0.00000000000E+00 0.  1.
<mgrwt>
<rscale>  0 0.25118374E+04</rscale>
<asrwt>0</asrwt>
<pdfrwt beam="1">  1        2 0.32165245E+00 0.25118374E+04</pdfrwt>
<pdfrwt beam="2">  1       -2 0.11606719E+00 0.25118374E+04</pdfrwt>
<totfact> 0.30541461E+00</totfact>
</mgrwt>
</event>
<event>
12    1  0.1645549E-007  0.2123252E+04  0.7818608E-02  0.8551069E-01
         -2   -1    0    0    0  501 -0.00000000000E+00  0.00000000000E+00  0.65559593075E+03  0.65559593075E+03  0.00000000000E+00 0.  1.
          2   -1    0    0  501    0  0.00000000000E+00 -0.00000000000E+00 -0.17191230298E+04  0.17191230298E+04  0.00000000000E+00 0. -1.
         23    2    1    2    0    0  0.39668741878E+03 -0.67962967920E+03 -0.23340987389E+02  0.79271239432E+03  0.92686187427E+02 0.  0.
        254    2    1    2    0    0 -0.39668741878E+03  0.67962967920E+03 -0.10401861117E+04  0.15820065663E+04  0.89526544648E+03 0.  0.
        -24    2    4    4    0    0  0.12241188061E+03  0.64968350586E+03 -0.59719883638E+03  0.89444735543E+03  0.79475122889E+02 0.  0.
         24    2    4    4    0    0 -0.51909929939E+03  0.29946173343E+02 -0.44298727530E+03  0.68755921083E+03  0.78352322158E+02 0.  0.
         13    1    3    3    0    0  0.38142302491E+03 -0.63904353921E+03 -0.42230254711E+02  0.74541502759E+03  0.00000000000E+00 0.  1.
        -13    1    3    3    0    0  0.15264393869E+02 -0.40586139995E+02  0.18889267322E+02  0.47297366733E+02  0.00000000000E+00 0. -1.
          4    1    6    6  502    0 -0.47623212327E+03  0.51333434728E+01 -0.39867956696E+03  0.62110287679E+03  0.00000000000E+00 0. -1.
          1    1    5    5  503    0  0.12827713573E+03  0.63310114606E+03 -0.59174210807E+03  0.87603128207E+03  0.00000000000E+00 0. -1.
         -2    1    5    5    0  503 -0.58652551247E+01  0.16582359801E+02 -0.54567283081E+01  0.18416073362E+02  0.00000000000E+00 0.  1.
         -3    1    6    6    0  502 -0.42867176123E+02  0.24812829870E+02 -0.44307708339E+02  0.66456334034E+02  0.00000000000E+00 0.  1.
<mgrwt>
<rscale>  0 0.21232523E+04</rscale>
<asrwt>0</asrwt>
<pdfrwt beam="1">  1        2 0.26448046E+00 0.21232523E+04</pdfrwt>
<pdfrwt beam="2">  1       -2 0.10086091E+00 0.21232523E+04</pdfrwt>
<totfact> 0.71241171E+00</totfact>
</mgrwt>
</event>
<event>
12    1  0.1097093E-007  0.1402200E+04  0.7818608E-02  0.8952228E-01
          2   -1    0    0  501    0  0.00000000000E+00  0.00000000000E+00  0.25892389332E+03  0.25892389332E+03  0.00000000000E+00 0. -1.
         -2   -1    0    0    0  501 -0.00000000000E+00 -0.00000000000E+00 -0.18983999779E+04  0.18983999779E+04  0.00000000000E+00 0.  1.
         23    2    1    2    0    0  0.39014930961E+02  0.17754510102E+03  0.70020416988E+02  0.21492934132E+03  0.90814840373E+02 0.  0.
        254    2    1    2    0    0 -0.39014930961E+02 -0.17754510102E+03 -0.17094965015E+04  0.19423945299E+04  0.90414257350E+03 0.  0.
        -24    2    4    4    0    0 -0.43337391588E+03 -0.17953347444E+03 -0.12122468253E+04  0.13022185383E+04  0.78648183061E+02 0.  0.
         24    2    4    4    0    0  0.39435898492E+03  0.19883734245E+01 -0.49724967624E+03  0.64017599155E+03  0.83935076258E+02 0.  0.
         11    1    3    3    0    0  0.49909165822E+01 -0.56372130581E+01 -0.96965869712E+01  0.12276449743E+02  0.00000000000E+00 0.  1.
        -11    1    3    3    0    0  0.34024014379E+02  0.18318231407E+03  0.79717003959E+02  0.20265289158E+03  0.00000000000E+00 0. -1.
          4    1    6    6  502    0  0.38268103845E+02 -0.21199873955E+02 -0.33920424779E+02  0.55357724346E+02  0.00000000000E+00 0. -1.
          1    1    5    5  503    0 -0.26940107824E+03 -0.76643470153E+02 -0.65777020414E+03  0.71492153690E+03  0.00000000000E+00 0. -1.
         -4    1    5    5    0  503 -0.16397283764E+03 -0.10289000429E+03 -0.55447662117E+03  0.58729700143E+03  0.00000000000E+00 0.  1.
         -3    1    6    6    0  502  0.35609088108E+03  0.23188247380E+02 -0.46332925146E+03  0.58481826721E+03  0.00000000000E+00 0.  1.
<mgrwt>
<rscale>  0 0.14021999E+04</rscale>
<asrwt>0</asrwt>
<pdfrwt beam="1">  1        2 0.39834446E-01 0.14021999E+04</pdfrwt>
<pdfrwt beam="2">  1       -2 0.29206153E+00 0.14021999E+04</pdfrwt>
<totfact> 0.44949427E+00</totfact>
</mgrwt>
</event>
<event>
12    1  0.1097093E-007  0.1776952E+04  0.7818608E-02  0.8718653E-01
         -1   -1    0    0    0  501 -0.00000000000E+00  0.00000000000E+00  0.55548625415E+03  0.55548625415E+03  0.00000000000E+00 0.  1.
          1   -1    0    0  501    0  0.00000000000E+00 -0.00000000000E+00 -0.14210788559E+04  0.14210788559E+04  0.00000000000E+00 0. -1.
         23    2    1    2    0    0 -0.11963602162E+03 -0.34710918132E+03 -0.92720162160E+03  0.10014273634E+04  0.91413103808E+02 0.  0.
        254    2    1    2    0    0  0.11963602162E+03  0.34710918132E+03  0.61609019891E+02  0.97513774666E+03  0.90127708957E+03 0.  0.
        -24    2    4    4    0    0  0.13558482546E+03  0.55180588528E+03 -0.22326311755E+03  0.61561939417E+03  0.79169684194E+02 0.  0.
         24    2    4    4    0    0 -0.15948803835E+02 -0.20469670396E+03  0.28487213744E+03  0.35951835248E+03  0.77111647158E+02 0.  0.
         13    1    3    3    0    0 -0.31626053416E+02 -0.21358987595E+03 -0.47468051276E+03  0.52148099827E+03  0.00000000000E+00 0. -1.
        -13    1    3    3    0    0 -0.88009968208E+02 -0.13351930537E+03 -0.45252110885E+03  0.47994636509E+03  0.00000000000E+00 0.  1.
          4    1    6    6  502    0 -0.45739909501E+02 -0.10736692178E+03  0.16766767328E+03  0.20428471279E+03  0.00000000000E+00 0. -1.
          3    1    5    5  503    0  0.97267856535E+01  0.19608432213E+03 -0.72469739835E+02  0.20927382765E+03  0.00000000000E+00 0. -1.
         -4    1    5    5    0  503  0.12585803981E+03  0.35572156315E+03 -0.15079337772E+03  0.40634556653E+03  0.00000000000E+00 0.  1.
         -3    1    6    6    0  502  0.29791105666E+02 -0.97329782174E+02  0.11720446416E+03  0.15523363970E+03  0.00000000000E+00 0.  1.
<mgrwt>
<rscale>  0 0.17769522E+04</rscale>
<asrwt>0</asrwt>
<pdfrwt beam="1">  1        1 0.21862751E+00 0.17769522E+04</pdfrwt>
<pdfrwt beam="2">  1       -1 0.85459425E-01 0.17769522E+04</pdfrwt>
<totfact> 0.94995819E+00</totfact>
</mgrwt>
</event>
<event>
12    1  0.1270067E-007  0.1453957E+04  0.7818608E-02  0.8915662E-01
          1   -1    0    0  501    0  0.00000000000E+00  0.00000000000E+00  0.18553225412E+04  0.18553225412E+04  0.00000000000E+00 0. -1.
         -1   -1    0    0    0  501 -0.00000000000E+00 -0.00000000000E+00 -0.28485480284E+03  0.28485480284E+03  0.00000000000E+00 0.  1.
         23    2    1    2    0    0  0.10647222332E+03 -0.20472042882E+02  0.11162031504E+04  0.11259014052E+04  0.99945296586E+02 0.  0.
        254    2    1    2    0    0 -0.10647222332E+03  0.20472042882E+02  0.45426458793E+03  0.10142759388E+04  0.90035766527E+03 0.  0.
        -24    2    4    4    0    0 -0.48496945540E+03 -0.72065470568E+01  0.37538825157E+03  0.61846616694E+03  0.79603726257E+02 0.  0.
         24    2    4    4    0    0  0.37849723208E+03  0.27678589939E+02  0.78876336355E+02  0.39580977191E+03  0.80110174592E+02 0.  0.
         11    1    3    3    0    0  0.92054962208E+02 -0.11487875335E+02  0.10940930660E+04  0.10980190000E+04  0.00000000000E+00 0. -1.
        -11    1    3    3    0    0  0.14417261114E+02 -0.89841675474E+01  0.22110084433E+02  0.27882405172E+02  0.00000000000E+00 0.  1.
          4    1    6    6  502    0  0.19008867225E+03  0.34485671632E+01 -0.12336240634E-01  0.19011995183E+03  0.00000000000E+00 0. -1.
          1    1    5    5  503    0 -0.20563344368E+03 -0.45834474357E+01  0.20941428028E+03  0.29353102380E+03  0.00000000000E+00 0. -1.
         -2    1    5    5    0  503 -0.27933601172E+03 -0.26230996211E+01  0.16597397129E+03  0.32493514313E+03  0.00000000000E+00 0.  1.
         -3    1    6    6    0  502  0.18840855983E+03  0.24230022776E+02  0.78888672596E+02  0.20568982008E+03  0.00000000000E+00 0.  1.
<mgrwt>
<rscale>  0 0.14539567E+04</rscale>
<asrwt>0</asrwt>
<pdfrwt beam="1">  1        1 0.28543423E+00 0.14539567E+04</pdfrwt>
<pdfrwt beam="2">  1       -1 0.43823817E-01 0.14539567E+04</pdfrwt>
<totfact> 0.18672736E+01</totfact>
</mgrwt>
</event>
<event>
12    1  0.1097093E-007  0.2897376E+04  0.7818608E-02  0.8273659E-01
          1   -1    0    0  501    0  0.00000000000E+00  0.00000000000E+00  0.13124923033E+04  0.13124923033E+04  0.00000000000E+00 0. -1.
         -1   -1    0    0    0  501 -0.00000000000E+00 -0.00000000000E+00 -0.15990169228E+04  0.15990169228E+04  0.00000000000E+00 0.  1.
         23    2    1    2    0    0  0.21358675932E+03 -0.63380409718E+01 -0.14259277205E+04  0.14447366424E+04  0.91294180588E+02 0.  0.
        254    2    1    2    0    0 -0.21358675932E+03  0.63380409718E+01  0.11394031009E+04  0.14667725837E+04  0.89862278583E+03 0.  0.
        -24    2    4    4    0    0 -0.76494038583E+02 -0.36440880260E+03  0.16988065359E+03  0.41672898110E+03  0.78476071986E+02 0.  0.
         24    2    4    4    0    0 -0.13709272074E+03  0.37074684357E+03  0.96952244735E+03  0.10500436026E+04  0.79813252415E+02 0.  0.
         13    1    3    3    0    0  0.68370568974E+01 -0.18683206670E+02 -0.60435582118E+02  0.63625994251E+02  0.00000000000E+00 0. -1.
        -13    1    3    3    0    0  0.20674970242E+03  0.12345165699E+02 -0.13654921384E+04  0.13811106482E+04  0.00000000000E+00 0.  1.
          2    1    6    6  502    0 -0.80007680941E+02  0.26406633828E+03  0.75371745214E+03  0.80263457294E+03  0.00000000000E+00 0. -1.
          3    1    5    5  503    0 -0.76369274494E+02 -0.17633931638E+03  0.77651050207E+02  0.20726192652E+03  0.00000000000E+00 0. -1.
         -4    1    5    5    0  503 -0.12476408944E+00 -0.18806948622E+03  0.92229603383E+02  0.20946705458E+03  0.00000000000E+00 0.  1.
         -1    1    6    6    0  502 -0.57085039796E+02  0.10668050529E+03  0.21580499521E+03  0.24740902961E+03  0.00000000000E+00 0.  1.
<mgrwt>
<rscale>  0 0.28973763E+04</rscale>
<asrwt>0</asrwt>
<pdfrwt beam="1">  1        1 0.20192189E+00 0.28973763E+04</pdfrwt>
<pdfrwt beam="2">  1       -1 0.24600260E+00 0.28973763E+04</pdfrwt>
<totfact> 0.56334581E-01</totfact>
</mgrwt>
</event>
<event>
12    1  0.1097093E-007  0.2504634E+04  0.7818608E-02  0.8401336E-01
         -2   -1    0    0    0  501 -0.00000000000E+00  0.00000000000E+00  0.85384999492E+03  0.85384999492E+03  0.00000000000E+00 0.  1.
          2   -1    0    0  501    0  0.00000000000E+00 -0.00000000000E+00 -0.18367376978E+04  0.18367376978E+04  0.00000000000E+00 0. -1.
         23    2    1    2    0    0  0.95194171902E+03  0.53436628568E+03 -0.47277130504E+03  0.11922704497E+04  0.79093329075E+02 0.  0.
        254    2    1    2    0    0 -0.95194171902E+03 -0.53436628568E+03 -0.51011639788E+03  0.14983172431E+04  0.89050292407E+03 0.  0.
        -24    2    4    4    0    0 -0.38296456627E+03 -0.74475446177E+02  0.22564884798E+03  0.45767120930E+03  0.79605792051E+02 0.  0.
         24    2    4    4    0    0 -0.56897715275E+03 -0.45989083951E+03 -0.73576524586E+03  0.10406460338E+04  0.79743877154E+02 0.  0.
         13    1    3    3    0    0  0.81923294791E+03  0.42705547002E+03 -0.39991174134E+03  0.10067017425E+04  0.00000000000E+00 0.  1.
        -13    1    3    3    0    0  0.13270877111E+03  0.10731081567E+03 -0.72859563704E+02  0.18556870725E+03  0.00000000000E+00 0. -1.
          2    1    6    6  502    0 -0.29212719119E+03 -0.28644047140E+03 -0.40036629915E+03  0.57243306420E+03  0.00000000000E+00 0. -1.
          1    1    5    5  503    0 -0.25816468724E+03 -0.21183668245E+02  0.11891482826E+03  0.28502366554E+03  0.00000000000E+00 0. -1.
         -2    1    5    5    0  503 -0.12479987903E+03 -0.53291777932E+02  0.10673401972E+03  0.17264754376E+03  0.00000000000E+00 0.  1.
         -1    1    6    6    0  502 -0.27684996156E+03 -0.17345036811E+03 -0.33539894671E+03  0.46821296956E+03  0.00000000000E+00 0.  1.
<mgrwt>
<rscale>  0 0.25046345E+04</rscale>
<asrwt>0</asrwt>
<pdfrwt beam="1">  1        2 0.28257503E+00 0.25046345E+04</pdfrwt>
<pdfrwt beam="2">  1       -2 0.13136154E+00 0.25046345E+04</pdfrwt>
<totfact> 0.31048973E+00</totfact>
</mgrwt>
</event>
<event>
12    1  0.1097093E-007  0.2564839E+04  0.7818608E-02  0.8380244E-01
         -1   -1    0    0    0  501 -0.00000000000E+00  0.00000000000E+00  0.16613203682E+04  0.16613203682E+04  0.00000000000E+00 0.  1.
          1   -1    0    0  501    0  0.00000000000E+00 -0.00000000000E+00 -0.98993540147E+03  0.98993540147E+03  0.00000000000E+00 0. -1.
         23    2    1    2    0    0  0.62790181892E+02  0.10936818333E+04 -0.30679754810E+02  0.10994291082E+04  0.87866700522E+02 0.  0.
        254    2    1    2    0    0 -0.62790181892E+02 -0.10936818333E+04  0.70206472158E+03  0.15518266615E+04  0.84568821359E+03 0.  0.
        -24    2    4    4    0    0  0.77222718109E+02 -0.11235954177E+03  0.51617451532E+03  0.53986543655E+03  0.80190675864E+02 0.  0.
         24    2    4    4    0    0 -0.14001290000E+03 -0.98132229157E+03  0.18589020626E+03  0.10119612250E+04  0.83146256509E+02 0.  0.
         11    1    3    3    0    0  0.28384467030E+02  0.64629173367E+03  0.24245288329E+02  0.64736891876E+03  0.00000000000E+00 0. -1.
        -11    1    3    3    0    0  0.34405714863E+02  0.44739009967E+03 -0.54925043139E+02  0.45206018942E+03  0.00000000000E+00 0.  1.
          4    1    6    6  502    0 -0.13263816326E+03 -0.91947418237E+03  0.15294143623E+03  0.94149707239E+03  0.00000000000E+00 0. -1.
          3    1    5    5  503    0  0.71418874511E+02 -0.35664257950E+02  0.29900101165E+03  0.30947406983E+03  0.00000000000E+00 0. -1.
         -4    1    5    5    0  503  0.58038435983E+01 -0.76695283821E+02  0.21717350368E+03  0.23039136672E+03  0.00000000000E+00 0.  1.
         -3    1    6    6    0  502 -0.73747367432E+01 -0.61848109197E+02  0.32948770026E+02  0.70464152585E+02  0.00000000000E+00 0.  1.
<mgrwt>
<rscale>  0 0.25648391E+04</rscale>
<asrwt>0</asrwt>
<pdfrwt beam="1">  1        1 0.15229775E+00 0.25648391E+04</pdfrwt>
<pdfrwt beam="2">  1       -1 0.25558775E+00 0.25648391E+04</pdfrwt>
<totfact> 0.87256329E-01</totfact>
</mgrwt>
</event>
<event>
12    1  0.1097093E-007  0.2885726E+04  0.7818608E-02  0.8277137E-01
          1   -1    0    0  501    0  0.00000000000E+00  0.00000000000E+00  0.13520902908E+04  0.13520902908E+04  0.00000000000E+00 0. -1.
         -1   -1    0    0    0  501 -0.00000000000E+00 -0.00000000000E+00 -0.15397299082E+04  0.15397299082E+04  0.00000000000E+00 0.  1.
         23    2    1    2    0    0  0.36350479851E+03 -0.73525356400E+03  0.92992058253E+03  0.12431980553E+04  0.89752844455E+02 0.  0.
        254    2    1    2    0    0 -0.36350479851E+03  0.73525356400E+03 -0.11175601999E+04  0.16486221437E+04  0.89234557777E+03 0.  0.
        -24    2    4    4    0    0 -0.16489313143E+03  0.48636962912E+03 -0.39441761580E+02  0.52144937492E+03  0.81293524488E+02 0.  0.
         24    2    4    4    0    0 -0.19861166708E+03  0.24888393488E+03 -0.10781184384E+04  0.11271727687E+04  0.82397063840E+02 0.  0.
         13    1    3    3    0    0  0.28175375587E+03 -0.61658788992E+03  0.72368880107E+03  0.99161045060E+03  0.00000000000E+00 0. -1.
        -13    1    3    3    0    0  0.81751042643E+02 -0.11866567408E+03  0.20623178146E+03  0.25158760475E+03  0.00000000000E+00 0.  1.
          4    1    6    6  502    0  0.10901730103E+01  0.33626211514E+02 -0.14945970220E+03  0.15319958603E+03  0.00000000000E+00 0. -1.
          1    1    5    5  503    0 -0.16263548794E+03  0.38406039289E+03 -0.41146030896E+02  0.41910104173E+03  0.00000000000E+00 0. -1.
         -2    1    5    5    0  503 -0.22576434955E+01  0.10230923623E+03  0.17042693167E+01  0.10234833319E+03  0.00000000000E+00 0.  1.
         -3    1    6    6    0  502 -0.19970184009E+03  0.21525772337E+03 -0.92865873615E+03  0.97397318271E+03  0.00000000000E+00 0.  1.
<mgrwt>
<rscale>  0 0.28857262E+04</rscale>
<asrwt>0</asrwt>
<pdfrwt beam="1">  1        1 0.20801389E+00 0.28857262E+04</pdfrwt>
<pdfrwt beam="2">  1       -1 0.23688153E+00 0.28857262E+04</pdfrwt>
<totfact> 0.60667481E-01</totfact>
</mgrwt>
</event>
<event>
12    1  0.1097093E-007  0.1577963E+04  0.7818608E-02  0.8834202E-01
         -2   -1    0    0    0  501 -0.00000000000E+00  0.00000000000E+00  0.21665714459E+03  0.21665714459E+03  0.00000000000E+00 0.  1.
          2   -1    0    0  501    0  0.00000000000E+00 -0.00000000000E+00 -0.28731663375E+04  0.28731663375E+04  0.00000000000E+00 0. -1.
         23    2    1    2    0    0 -0.12513540943E+03  0.28776626753E+03 -0.17401456036E+04  0.17707943223E+04  0.95590347904E+02 0.  0.
        254    2    1    2    0    0  0.12513540943E+03 -0.28776626753E+03 -0.91636358929E+03  0.13190291598E+04  0.89534764265E+03 0.  0.
        -24    2    4    4    0    0 -0.27177175893E+03  0.13573426647E+02 -0.72606159228E+03  0.77972121543E+03  0.82192524815E+02 0.  0.
         24    2    4    4    0    0  0.39690716836E+03 -0.30133969418E+03 -0.19030199701E+03  0.53930794438E+03  0.79355511558E+02 0.  0.
         13    1    3    3    0    0 -0.31022862503E+02  0.68786673851E+01 -0.17476752015E+03  0.17763282400E+03  0.00000000000E+00 0.  1.
        -13    1    3    3    0    0 -0.94112546928E+02  0.28088760015E+03 -0.15653780834E+04  0.15931614983E+04  0.00000000000E+00 0. -1.
          4    1    6    6  502    0  0.14969819189E+03 -0.68333412351E+02 -0.52756733296E+02  0.17280705080E+03  0.00000000000E+00 0. -1.
          1    1    5    5  503    0 -0.92387742028E+02 -0.21051653497E+02 -0.17279003318E+03  0.19706613752E+03  0.00000000000E+00 0. -1.
         -2    1    5    5    0  503 -0.17938401690E+03  0.34625080144E+02 -0.55327155910E+03  0.58265507790E+03  0.00000000000E+00 0.  1.
         -1    1    6    6    0  502  0.24720897647E+03 -0.23300628183E+03 -0.13754526371E+03  0.36650089358E+03  0.00000000000E+00 0.  1.
<mgrwt>
<rscale>  0 0.15779633E+04</rscale>
<asrwt>0</asrwt>
<pdfrwt beam="1">  1        2 0.44202557E+00 0.15779633E+04</pdfrwt>
<pdfrwt beam="2">  1       -2 0.33331870E-01 0.15779633E+04</pdfrwt>
<totfact> 0.16940716E+01</totfact>
</mgrwt>
</event>
<event>
12    1  0.1097093E-007  0.3775755E+04  0.7818608E-02  0.8051378E-01
          2   -1    0    0  501    0  0.00000000000E+00  0.00000000000E+00  0.42072297693E+04  0.42072297693E+04  0.00000000000E+00 0.  1.
         -2   -1    0    0    0  501 -0.00000000000E+00 -0.00000000000E+00 -0.84713258176E+03  0.84713258176E+03  0.00000000000E+00 0. -1.
         23    2    1    2    0    0  0.14545021273E+04  0.32761081451E+03  0.28820868216E+03  0.15213591196E+04  0.92542110865E+02 0.  0.
        254    2    1    2    0    0 -0.14545021273E+04 -0.32761081451E+03  0.30718885054E+04  0.35330032314E+04  0.90703228152E+03 0.  0.
        -24    2    4    4    0    0 -0.11576324802E+04 -0.58490373053E+03  0.26466660117E+04  0.29486348335E+04  0.85913158132E+02 0.  0.
         24    2    4    4    0    0 -0.29686964706E+03  0.25729291603E+03  0.42522249368E+03  0.58436839790E+03  0.79630542821E+02 0.  0.
         11    1    3    3    0    0  0.91799478556E+03  0.22734674032E+03  0.14208710221E+03  0.95634183808E+03  0.00000000000E+00 0.  1.
        -11    1    3    3    0    0  0.53650734174E+03  0.10026407418E+03  0.14612157995E+03  0.56501728154E+03  0.00000000000E+00 0. -1.
          4    1    6    6  502    0 -0.34844521384E+02  0.46673440640E+02  0.30039229910E+02  0.65535532845E+02  0.00000000000E+00 0. -1.
          1    1    5    5  503    0 -0.29400734460E+03 -0.17088945393E+03  0.76831524342E+03  0.84020940093E+03  0.00000000000E+00 0. -1.
         -2    1    5    5    0  503 -0.86362513564E+03 -0.41401427660E+03  0.18783507683E+04  0.21084254326E+04  0.00000000000E+00 0.  1.
         -3    1    6    6    0  502 -0.26202512568E+03  0.21061947539E+03  0.39518326377E+03  0.51883286506E+03  0.00000000000E+00 0.  1.
<mgrwt>
<rscale>  0 0.37757550E+04</rscale>
<asrwt>0</asrwt>
<pdfrwt beam="1">  1        2 0.64726610E+00 0.37757550E+04</pdfrwt>
<pdfrwt beam="2">  1       -2 0.13032809E+00 0.37757550E+04</pdfrwt>
<totfact> 0.79116906E-02</totfact>
</mgrwt>
</event>
<event>
12    1  0.1097093E-007  0.1833231E+04  0.7818608E-02  0.8688825E-01
          2   -1    0    0  501    0  0.00000000000E+00  0.00000000000E+00  0.19296259367E+04  0.19296259367E+04  0.00000000000E+00 0. -1.
         -2   -1    0    0    0  501 -0.00000000000E+00 -0.00000000000E+00 -0.43541264497E+03  0.43541264497E+03  0.00000000000E+00 0.  1.
         23    2    1    2    0    0  0.13071210928E+03 -0.60999000050E+03  0.19424167090E+03  0.65973272541E+03  0.91345421615E+02 0.  0.
        254    2    1    2    0    0 -0.13071210928E+03  0.60999000050E+03  0.12999716208E+04  0.17053058562E+04  0.91047701354E+03 0.  0.
        -24    2    4    4    0    0  0.17159513911E+03  0.71087887892E+03  0.10917663368E+04  0.13164516836E+04  0.79357599773E+02 0.  0.
         24    2    4    4    0    0 -0.30230724840E+03 -0.10088887842E+03  0.20820528398E+03  0.38885417268E+03  0.79308821151E+02 0.  0.
         13    1    3    3    0    0  0.11047090981E+03 -0.38145700969E+03  0.15824558102E+03  0.42749846324E+03  0.00000000000E+00 0.  1.
        -13    1    3    3    0    0  0.20241199470E+02 -0.22853299080E+03  0.35996089877E+02  0.23223426217E+03  0.00000000000E+00 0. -1.
          4    1    6    6  502    0 -0.60107671410E+02 -0.53869999862E+02  0.64597635290E+02  0.10338164021E+03  0.00000000000E+00 0. -1.
          3    1    5    5  503    0  0.36319962822E+02  0.82580369039E+02  0.17442858682E+03  0.19637715995E+03  0.00000000000E+00 0. -1.
         -4    1    5    5    0  503  0.13527517629E+03  0.62829850988E+03  0.91733775001E+03  0.11200745236E+04  0.00000000000E+00 0.  1.
         -3    1    6    6    0  502 -0.24219957699E+03 -0.47018878561E+02  0.14360764869E+03  0.28547253247E+03  0.00000000000E+00 0.  1.
<mgrwt>
<rscale>  0 0.18332305E+04</rscale>
<asrwt>0</asrwt>
<pdfrwt beam="1">  1        2 0.29686553E+00 0.18332305E+04</pdfrwt>
<pdfrwt beam="2">  1       -2 0.66986562E-01 0.18332305E+04</pdfrwt>
<totfact> 0.14081656E+01</totfact>
</mgrwt>
</event>
<event>
12    1  0.1097093E-007  0.1581120E+04  0.7818608E-02  0.8832232E-01
          2   -1    0    0  501    0  0.00000000000E+00  0.00000000000E+00  0.25385844592E+04  0.25385844592E+04  0.00000000000E+00 0. -1.
         -2   -1    0    0    0  501 -0.00000000000E+00 -0.00000000000E+00 -0.24619422617E+03  0.24619422617E+03  0.00000000000E+00 0.  1.
         23    2    1    2    0    0  0.49728852984E+03 -0.12699955344E+03  0.51869192295E+03  0.73536445082E+03  0.91075771254E+02 0.  0.
        254    2    1    2    0    0 -0.49728852984E+03  0.12699955344E+03  0.17736983101E+04  0.20494142345E+04  0.88919527726E+03 0.  0.
        -24    2    4    4    0    0 -0.46880709176E+03  0.34143861699E+03  0.54704422719E+03  0.80127120423E+03  0.80110784302E+02 0.  0.
         24    2    4    4    0    0 -0.28481438073E+02 -0.21443906355E+03  0.12266540829E+04  0.12481430303E+04  0.79909203337E+02 0.  0.
         11    1    3    3    0    0  0.25466907882E+03 -0.73440448575E+02  0.20430171879E+03  0.33464762288E+03  0.00000000000E+00 0.  1.
        -11    1    3    3    0    0  0.24261945102E+03 -0.53559104866E+02  0.31439020416E+03  0.40071682794E+03  0.00000000000E+00 0. -1.
          2    1    6    6  502    0  0.18029432186E+02 -0.11819938559E+02  0.83393225827E+02  0.86134786738E+02  0.00000000000E+00 0. -1.
          1    1    5    5  503    0 -0.21858507378E+03  0.19149677238E+03  0.31458357244E+03  0.42826775779E+03  0.00000000000E+00 0. -1.
         -2    1    5    5    0  503 -0.25022201798E+03  0.14994184461E+03  0.23246065475E+03  0.37300344644E+03  0.00000000000E+00 0.  1.
         -1    1    6    6    0  502 -0.46510870258E+02 -0.20261912499E+03  0.11432608571E+04  0.11620082436E+04  0.00000000000E+00 0.  1.
<mgrwt>
<rscale>  0 0.15811196E+04</rscale>
<asrwt>0</asrwt>
<pdfrwt beam="1">  1        2 0.39055144E+00 0.15811196E+04</pdfrwt>
<pdfrwt beam="2">  1       -2 0.37876037E-01 0.15811196E+04</pdfrwt>
<totfact> 0.20936654E+01</totfact>
</mgrwt>
</event>
<event>
12    1  0.1097093E-007  0.2467777E+04  0.7818608E-02  0.8414556E-01
         -2   -1    0    0    0  501 -0.00000000000E+00  0.00000000000E+00  0.10808610645E+04  0.10808610645E+04  0.00000000000E+00 0.  1.
          2   -1    0    0  501    0  0.00000000000E+00 -0.00000000000E+00 -0.14085812181E+04  0.14085812181E+04  0.00000000000E+00 0. -1.
         23    2    1    2    0    0 -0.90297337115E+03 -0.49525200284E+03 -0.37688132809E+03  0.11005460920E+04  0.92340185842E+02 0.  0.
        254    2    1    2    0    0  0.90297337115E+03  0.49525200284E+03  0.49161174477E+02  0.13888961906E+04  0.93058065306E+03 0.  0.
        -24    2    4    4    0    0  0.68140114161E+03 -0.14659555459E+03  0.60251323678E+02  0.70460001287E+03  0.83864078842E+02 0.  0.
         24    2    4    4    0    0  0.22157222954E+03  0.64184755743E+03 -0.11090149200E+02  0.68429617772E+03  0.84117343942E+02 0.  0.
         11    1    3    3    0    0 -0.71361286597E+03 -0.43138741599E+03 -0.31430818389E+03  0.89113863097E+03  0.00000000000E+00 0.  1.
        -11    1    3    3    0    0 -0.18936050519E+03 -0.63864586851E+02 -0.62573144195E+02  0.20940746107E+03  0.00000000000E+00 0. -1.
          2    1    6    6  502    0  0.11125546351E+03  0.42951085057E+03 -0.26820806651E+02  0.44449601190E+03  0.00000000000E+00 0. -1.
          1    1    5    5  503    0  0.46550880697E+03 -0.81581074847E+02  0.75587219417E+02  0.47860980859E+03  0.00000000000E+00 0. -1.
         -2    1    5    5    0  503  0.21589233464E+03 -0.65014479745E+02 -0.15335895739E+02  0.22599020428E+03  0.00000000000E+00 0.  1.
         -1    1    6    6    0  502  0.11031676603E+03  0.21233670686E+03  0.15730657450E+02  0.23980016583E+03  0.00000000000E+00 0.  1.
<mgrwt>
<rscale>  0 0.24677768E+04</rscale>
<asrwt>0</asrwt>
<pdfrwt beam="1">  1        2 0.21670480E+00 0.24677768E+04</pdfrwt>
<pdfrwt beam="2">  1       -2 0.16628632E+00 0.24677768E+04</pdfrwt>
<totfact> 0.28997739E+00</totfact>
</mgrwt>
</event>
<event>
12    1  0.1097093E-007  0.1832538E+04  0.7818608E-02  0.8689185E-01
         -1   -1    0    0    0  501 -0.00000000000E+00  0.00000000000E+00  0.12068107290E+04  0.12068107290E+04  0.00000000000E+00 0.  1.
          1   -1    0    0  501    0  0.00000000000E+00 -0.00000000000E+00 -0.69567586845E+03  0.69567586845E+03  0.00000000000E+00 0. -1.
         23    2    1    2    0    0 -0.17227726871E+03 -0.54690822314E+03  0.61158995174E+03  0.84328852342E+03  0.91132885431E+02 0.  0.
        254    2    1    2    0    0  0.17227726871E+03  0.54690822314E+03 -0.10045509117E+03  0.10591980741E+04  0.88488489245E+03 0.  0.
        -24    2    4    4    0    0 -0.26333457354E+03 -0.39379045473E+01  0.14425549324E+03  0.31148229518E+03  0.82770575509E+02 0.  0.
         24    2    4    4    0    0  0.43561184225E+03  0.55084612769E+03 -0.24471058441E+03  0.74771577887E+03  0.77501499018E+02 0.  0.
         11    1    3    3    0    0 -0.47850413635E+02 -0.15102723838E+03  0.11297826053E+03  0.19458411078E+03  0.00000000000E+00 0.  1.
        -11    1    3    3    0    0 -0.12442685508E+03 -0.39588098476E+03  0.49861169121E+03  0.64870441264E+03  0.00000000000E+00 0. -1.
          2    1    6    6  502    0  0.30677672660E+03  0.43060480897E+03 -0.16145772685E+03  0.55281195632E+03  0.00000000000E+00 0. -1.
          1    1    5    5  503    0 -0.21842365682E+03 -0.19690238383E+02  0.84347926404E+02  0.23497057696E+03  0.00000000000E+00 0. -1.
         -2    1    5    5    0  503 -0.44910916715E+02  0.15752333836E+02  0.59907566838E+02  0.76511718226E+02  0.00000000000E+00 0.  1.
         -1    1    6    6    0  502  0.12883511565E+03  0.12024131872E+03 -0.83252857565E+02  0.19490382255E+03  0.00000000000E+00 0.  1.
<mgrwt>
<rscale>  0 0.18325382E+04</rscale>
<asrwt>0</asrwt>
<pdfrwt beam="1">  1        1 0.10702706E+00 0.18325382E+04</pdfrwt>
<pdfrwt beam="2">  1       -1 0.18566319E+00 0.18325382E+04</pdfrwt>
<totfact> 0.49062822E+00</totfact>
</mgrwt>
</event>
<event>
12    1  0.1097093E-007  0.1612420E+04  0.7818608E-02  0.8812954E-01
          2   -1    0    0  501    0  0.00000000000E+00  0.00000000000E+00  0.16601010770E+04  0.16601010770E+04  0.00000000000E+00 0. -1.
         -2   -1    0    0    0  501 -0.00000000000E+00 -0.00000000000E+00 -0.39152702247E+03  0.39152702247E+03  0.00000000000E+00 0.  1.
         23    2    1    2    0    0 -0.30187391202E+03 -0.10040113155E+03  0.10041228161E+04  0.10574262199E+04  0.93162947218E+02 0.  0.
        254    2    1    2    0    0  0.30187391202E+03  0.10040113155E+03  0.26445123843E+03  0.99420187957E+03  0.90404351326E+03 0.  0.
        -24    2    4    4    0    0 -0.29049711734E+03  0.12917346614E+03 -0.26916089163E+02  0.32863095911E+03  0.78736725201E+02 0.  0.
         24    2    4    4    0    0  0.59237102935E+03 -0.28772334594E+02  0.29136732759E+03  0.66557092046E+03  0.79739870301E+02 0.  0.
         11    1    3    3    0    0 -0.75655764962E+02 -0.31803229495E+02  0.40744753025E+03  0.41563052112E+03  0.00000000000E+00 0. -1.
        -11    1    3    3    0    0 -0.22621814705E+03 -0.68597902053E+02  0.59667528586E+03  0.64179569879E+03  0.00000000000E+00 0.  1.
          2    1    6    6  502    0  0.24341880236E+03  0.25175509301E+02  0.10478200758E+03  0.26620628979E+03  0.00000000000E+00 0. -1.
          1    1    5    5  503    0 -0.17308875340E+03  0.51853810163E+02  0.16648560923E+02  0.18145442614E+03  0.00000000000E+00 0. -1.
         -2    1    5    5    0  503 -0.11740836393E+03  0.77319655980E+02 -0.43564650085E+02  0.14717653298E+03  0.00000000000E+00 0.  1.
         -1    1    6    6    0  502  0.34895222699E+03 -0.53947843895E+02  0.18658532002E+03  0.39936463067E+03  0.00000000000E+00 0.  1.
<mgrwt>
<rscale>  0 0.16124198E+04</rscale>
<asrwt>0</asrwt>
<pdfrwt beam="1">  1        2 0.25540016E+00 0.16124198E+04</pdfrwt>
<pdfrwt beam="2">  1       -2 0.60234927E-01 0.16124198E+04</pdfrwt>
<totfact> 0.25396985E+01</totfact>
</mgrwt>
</event>
<event>
12    1  0.1097093E-007  0.1546824E+04  0.7818608E-02  0.8853899E-01
          1   -1    0    0  501    0  0.00000000000E+00  0.00000000000E+00  0.71402841263E+03  0.71402841263E+03  0.00000000000E+00 0. -1.
         -1   -1    0    0    0  501 -0.00000000000E+00 -0.00000000000E+00 -0.83773387469E+03  0.83773387469E+03  0.00000000000E+00 0.  1.
         23    2    1    2    0    0 -0.15718108661E+02 -0.43848533601E+03  0.21393372458E+03  0.49664202807E+03  0.91483423066E+02 0.  0.
        254    2    1    2    0    0  0.15718108661E+02  0.43848533601E+03 -0.33763918663E+03  0.10551202593E+04  0.89819936111E+03 0.  0.
        -24    2    4    4    0    0  0.22843609998E+03  0.51718959443E+02  0.22534435763E+03  0.33470865444E+03  0.79949367106E+02 0.  0.
         24    2    4    4    0    0 -0.21271799132E+03  0.38676637657E+03 -0.56298354426E+03  0.72041160482E+03  0.84883657854E+02 0.  0.
         13    1    3    3    0    0  0.76891286991E+01 -0.40406234541E+03  0.17779473604E+03  0.44151610372E+03  0.00000000000E+00 0. -1.
        -13    1    3    3    0    0 -0.23407237360E+02 -0.34422990595E+02  0.36138988542E+02  0.55125924348E+02  0.00000000000E+00 0.  1.
          2    1    6    6  502    0 -0.27850587178E+02  0.54394865397E+02 -0.37369630471E+02  0.71630621031E+02  0.00000000000E+00 0. -1.
          3    1    5    5  503    0  0.16051456455E+03  0.15773710776E+01  0.16971817415E+03  0.23360580509E+03  0.00000000000E+00 0. -1.
         -4    1    5    5    0  503  0.67921535430E+02  0.50141588365E+02  0.55626183476E+02  0.10110284935E+03  0.00000000000E+00 0.  1.
         -3    1    6    6    0  502 -0.18486740414E+03  0.33237151117E+03 -0.52561391379E+03  0.64878098379E+03  0.00000000000E+00 0.  1.
<mgrwt>
<rscale>  0 0.15468236E+04</rscale>
<asrwt>0</asrwt>
<pdfrwt beam="1">  1        1 0.10985053E+00 0.15468236E+04</pdfrwt>
<pdfrwt beam="2">  1       -1 0.12888213E+00 0.15468236E+04</pdfrwt>
<totfact> 0.13205224E+01</totfact>
</mgrwt>
</event>
<event>
12    1  0.1097093E-007  0.1629534E+04  0.7818608E-02  0.8802607E-01
         -2   -1    0    0    0  501 -0.00000000000E+00  0.00000000000E+00  0.19060838852E+04  0.19060838852E+04  0.00000000000E+00 0.  1.
          2   -1    0    0  501    0  0.00000000000E+00 -0.00000000000E+00 -0.34827685532E+03  0.34827685532E+03  0.00000000000E+00 0. -1.
         23    2    1    2    0    0 -0.14555714904E+03 -0.23440204936E+03 -0.13487511402E+03  0.31820942857E+03  0.83275084295E+02 0.  0.
        254    2    1    2    0    0  0.14555714904E+03  0.23440204936E+03  0.16926821439E+04  0.19361513120E+04  0.89854207365E+03 0.  0.
        -24    2    4    4    0    0  0.44706207358E+03  0.28371985989E+03  0.62666617630E+03  0.82427448016E+03  0.79727445689E+02 0.  0.
         24    2    4    4    0    0 -0.30150492454E+03 -0.49317810525E+02  0.10660159676E+04  0.11118768318E+04  0.80886216002E+02 0.  0.
         13    1    3    3    0    0 -0.60149261307E+02 -0.10346053804E+03 -0.13787616677E+02  0.12046623984E+03  0.00000000000E+00 0.  1.
        -13    1    3    3    0    0 -0.85407887731E+02 -0.13094151132E+03 -0.12108749735E+03  0.19774318872E+03  0.00000000000E+00 0. -1.
          2    1    6    6  502    0 -0.18453658316E+03  0.46721345478E+01  0.55603739660E+03  0.58587811513E+03  0.00000000000E+00 0. -1.
          1    1    5    5  503    0  0.11418397042E+03  0.62300388686E+02  0.20847749080E+03  0.24572786106E+03  0.00000000000E+00 0. -1.
         -4    1    5    5    0  503  0.33287810316E+03  0.22141947120E+03  0.41818868550E+03  0.57854661910E+03  0.00000000000E+00 0.  1.
         -1    1    6    6    0  502 -0.11696834138E+03 -0.53989945073E+02  0.50997857104E+03  0.52599871671E+03  0.00000000000E+00 0.  1.
<mgrwt>
<rscale>  0 0.16295336E+04</rscale>
<asrwt>0</asrwt>
<pdfrwt beam="1">  1        2 0.53581056E-01 0.16295336E+04</pdfrwt>
<pdfrwt beam="2">  1       -2 0.29324367E+00 0.16295336E+04</pdfrwt>
<totfact> 0.31150384E+00</totfact>
</mgrwt>
</event>
<event>
12    1  0.1097093E-007  0.1751377E+04  0.7818608E-02  0.8732593E-01
         -2   -1    0    0    0  501 -0.00000000000E+00  0.00000000000E+00  0.22704568185E+03  0.22704568185E+03  0.00000000000E+00 0.  1.
          2   -1    0    0  501    0  0.00000000000E+00 -0.00000000000E+00 -0.33774266564E+04  0.33774266564E+04  0.00000000000E+00 0. -1.
         23    2    1    2    0    0 -0.91666813579E+02 -0.62422052727E+03 -0.93516229429E+03  0.11316755951E+04  0.90039238326E+02 0.  0.
        254    2    1    2    0    0  0.91666813579E+02  0.62422052727E+03 -0.22152186803E+04  0.24727967432E+04  0.89970876419E+03 0.  0.
        -24    2    4    4    0    0 -0.15822956509E+03  0.75314736861E+03 -0.13102543691E+04  0.15216518363E+04  0.79939009279E+02 0.  0.
         24    2    4    4    0    0  0.24989637867E+03 -0.12892684134E+03 -0.90496431120E+03  0.95114490688E+03  0.81522382393E+02 0.  0.
         11    1    3    3    0    0 -0.48033152999E+02 -0.54205242670E+03 -0.80547541166E+03  0.97206926496E+03  0.00000000000E+00 0.  1.
        -11    1    3    3    0    0 -0.43633660580E+02 -0.82168100566E+02 -0.12968688263E+03  0.15960633011E+03  0.00000000000E+00 0. -1.
          4    1    6    6  502    0  0.51430668599E+01 -0.58990738592E-01 -0.31551629587E+00  0.51530735650E+01  0.00000000000E+00 0. -1.
          3    1    5    5  503    0 -0.75618371431E+02  0.22499821115E+03 -0.35626255527E+03  0.42809501446E+03  0.00000000000E+00 0. -1.
         -4    1    5    5    0  503 -0.82611193663E+02  0.52814915746E+03 -0.95399181381E+03  0.10935568219E+04  0.00000000000E+00 0.  1.
         -3    1    6    6    0  502  0.24475331181E+03 -0.12886785060E+03 -0.90464879491E+03  0.94599183331E+03  0.00000000000E+00 0.  1.
<mgrwt>
<rscale>  0 0.17513768E+04</rscale>
<asrwt>0</asrwt>
<pdfrwt beam="1">  1        2 0.51960408E+00 0.17513768E+04</pdfrwt>
<pdfrwt beam="2">  1       -2 0.34930107E-01 0.17513768E+04</pdfrwt>
<totfact> 0.72548850E+00</totfact>
</mgrwt>
</event>
<event>
12    1  0.1097093E-007  0.1327565E+04  0.7818608E-02  0.9007987E-01
         -2   -1    0    0    0  501 -0.00000000000E+00  0.00000000000E+00  0.29449055533E+03  0.29449055533E+03  0.00000000000E+00 0.  1.
          2   -1    0    0  501    0  0.00000000000E+00 -0.00000000000E+00 -0.14961686363E+04  0.14961686363E+04  0.00000000000E+00 0. -1.
         23    2    1    2    0    0 -0.37485108380E+02 -0.32331878059E+03 -0.47702943871E+03  0.58480639215E+03  0.92202297519E+02 0.  0.
        254    2    1    2    0    0  0.37485108380E+02  0.32331878059E+03 -0.72464864223E+03  0.12058527994E+04  0.90720733683E+03 0.  0.
        -24    2    4    4    0    0 -0.11379250885E+02 -0.79488961401E+02  0.17953321157E+03  0.21159892583E+03  0.78063749717E+02 0.  0.
         24    2    4    4    0    0  0.48864359265E+02  0.40280774199E+03 -0.90418185380E+03  0.99425387361E+03  0.79712846090E+02 0.  0.
         13    1    3    3    0    0 -0.54833603068E+02 -0.18943635446E+03 -0.33582426431E+03  0.38944934576E+03  0.00000000000E+00 0. -1.
        -13    1    3    3    0    0  0.17348494688E+02 -0.13388242613E+03 -0.14120517440E+03  0.19535704638E+03  0.00000000000E+00 0.  1.
          2    1    6    6  502    0  0.40031098002E+02  0.24720276023E+03 -0.64382181924E+03  0.69080983519E+03  0.00000000000E+00 0. -1.
          1    1    5    5  503    0 -0.42261817367E+02 -0.64260852769E+02  0.11312536630E+03  0.13679498129E+03  0.00000000000E+00 0. -1.
         -2    1    5    5    0  503  0.30882566482E+02 -0.15228108632E+02  0.66407845274E+02  0.74803944541E+02  0.00000000000E+00 0.  1.
         -1    1    6    6    0  502  0.88332612631E+01  0.15560498176E+03 -0.26036003456E+03  0.30344403842E+03  0.00000000000E+00 0.  1.
<mgrwt>
<rscale>  0 0.13275655E+04</rscale>
<asrwt>0</asrwt>
<pdfrwt beam="1">  1        2 0.23017978E+00 0.13275655E+04</pdfrwt>
<pdfrwt beam="2">  1       -2 0.45306241E-01 0.13275655E+04</pdfrwt>
<totfact> 0.57640958E+01</totfact>
</mgrwt>
</event>
<event>
12    1  0.1097093E-007  0.2561658E+04  0.7818608E-02  0.8381343E-01
          2   -1    0    0  501    0  0.00000000000E+00  0.00000000000E+00  0.83053537253E+03  0.83053537253E+03  0.00000000000E+00 0. -1.
         -2   -1    0    0    0  501 -0.00000000000E+00 -0.00000000000E+00 -0.19752602023E+04  0.19752602023E+04  0.00000000000E+00 0.  1.
         23    2    1    2    0    0 -0.36001349664E+03 -0.88804750230E+03  0.13796442141E+03  0.97246589519E+03  0.91747760900E+02 0.  0.
        254    2    1    2    0    0  0.36001349664E+03  0.88804750230E+03 -0.12826892512E+04  0.18333296796E+04  0.89306657928E+03 0.  0.
        -24    2    4    4    0    0  0.76491181408E+02  0.26757121186E+03  0.85990928763E+02  0.30205610995E+03  0.79988745953E+02 0.  0.
         24    2    4    4    0    0  0.28352231523E+03  0.62047629044E+03 -0.13686801799E+04  0.15312735697E+04  0.78342708699E+02 0.  0.
         11    1    3    3    0    0  0.10524963284E+01 -0.17814857323E+02  0.12937594393E+02  0.22042192238E+02  0.00000000000E+00 0.  1.
        -11    1    3    3    0    0 -0.36106599297E+03 -0.87023264498E+03  0.12502682702E+03  0.95042370295E+03  0.00000000000E+00 0. -1.
          4    1    6    6  502    0  0.26547016245E+03  0.57267795461E+03 -0.13049043875E+04  0.14495550722E+04  0.00000000000E+00 0. -1.
          1    1    5    5  503    0 -0.44956085555E+01  0.11333305199E+03  0.17019717206E+02  0.11469203086E+03  0.00000000000E+00 0. -1.
         -2    1    5    5    0  503  0.80986789964E+02  0.15423815987E+03  0.68971211557E+02  0.18736407909E+03  0.00000000000E+00 0.  1.
         -3    1    6    6    0  502  0.18052152785E+02  0.47798335825E+02 -0.63775792459E+02  0.81718497488E+02  0.00000000000E+00 0.  1.
<mgrwt>
<rscale>  0 0.25616584E+04</rscale>
<asrwt>0</asrwt>
<pdfrwt beam="1">  1        2 0.12777467E+00 0.25616584E+04</pdfrwt>
<pdfrwt beam="2">  1       -2 0.30388619E+00 0.25616584E+04</pdfrwt>
<totfact> 0.87465115E-01</totfact>
</mgrwt>
</event>
<event>
12    1  0.1097093E-007  0.2198194E+04  0.7818608E-02  0.8519180E-01
         -2   -1    0    0    0  501 -0.00000000000E+00  0.00000000000E+00  0.41883440772E+03  0.41883440772E+03  0.00000000000E+00 0.  1.
          2   -1    0    0  501    0  0.00000000000E+00 -0.00000000000E+00 -0.28842295624E+04  0.28842295624E+04  0.00000000000E+00 0. -1.
         23    2    1    2    0    0 -0.43800924919E+03 -0.15933158431E+03 -0.22081154562E+04  0.22586703483E+04  0.92624069532E+02 0.  0.
        254    2    1    2    0    0  0.43800924919E+03  0.15933158431E+03 -0.25727969848E+03  0.10443936218E+04  0.89851351569E+03 0.  0.
        -24    2    4    4    0    0  0.59743900450E+03  0.28079376355E+03 -0.40921166399E+03  0.78074191289E+03  0.79531420552E+02 0.  0.
         24    2    4    4    0    0 -0.15942975531E+03 -0.12146217924E+03  0.15193196552E+03  0.26365170891E+03  0.79107481346E+02 0.  0.
         11    1    3    3    0    0 -0.11625727878E+03 -0.43600189616E+02 -0.41224096256E+03  0.43053378801E+03  0.00000000000E+00 0. -1.
        -11    1    3    3    0    0 -0.32175197041E+03 -0.11573139470E+03 -0.17958744937E+04  0.18281365603E+04  0.00000000000E+00 0.  1.
          4    1    6    6  502    0  0.21295828750E+01 -0.70499314245E+01 -0.67086664318E+01  0.99620711504E+01  0.00000000000E+00 0. -1.
          3    1    5    5  503    0  0.46526008736E+03  0.20200827830E+03 -0.34805848017E+03  0.61515770255E+03  0.00000000000E+00 0. -1.
         -4    1    5    5    0  503  0.13217891714E+03  0.78785485254E+02 -0.61153183823E+02  0.16558421034E+03  0.00000000000E+00 0.  1.
         -3    1    6    6    0  502 -0.16155933818E+03 -0.11441224781E+03  0.15864063195E+03  0.25368963776E+03  0.00000000000E+00 0.  1.
<mgrwt>
<rscale>  0 0.21981943E+04</rscale>
<asrwt>0</asrwt>
<pdfrwt beam="1">  1        2 0.44372763E+00 0.21981943E+04</pdfrwt>
<pdfrwt beam="2">  1       -2 0.64436061E-01 0.21981943E+04</pdfrwt>
<totfact> 0.41814885E+00</totfact>
</mgrwt>
</event>
<event>
12    1  0.1097093E-007  0.2572083E+04  0.7818608E-02  0.8377746E-01
          1   -1    0    0  501    0  0.00000000000E+00  0.00000000000E+00  0.24004167454E+04  0.24004167454E+04  0.00000000000E+00 0. -1.
         -1   -1    0    0    0  501 -0.00000000000E+00 -0.00000000000E+00 -0.68900645859E+03  0.68900645859E+03  0.00000000000E+00 0.  1.
         23    2    1    2    0    0 -0.10899621433E+04 -0.74887732916E+02  0.42742766537E+03  0.11767135366E+04  0.91294532821E+02 0.  0.
        254    2    1    2    0    0  0.10899621433E+04  0.74887732916E+02  0.12839826214E+04  0.19127096674E+04  0.90344964069E+03 0.  0.
        -24    2    4    4    0    0  0.92215234004E+03  0.27666398186E+03  0.13204102193E+04  0.16360623521E+04  0.79429059987E+02 0.  0.
         24    2    4    4    0    0  0.16780980325E+03 -0.20177624894E+03 -0.36427597888E+02  0.27664731530E+03  0.79580038150E+02 0.  0.
         11    1    3    3    0    0 -0.88475229082E+03 -0.44076160608E+02  0.37964188733E+03  0.96377242472E+03  0.00000000000E+00 0.  1.
        -11    1    3    3    0    0 -0.20520985247E+03 -0.30811572308E+02  0.47785778036E+02  0.21294111186E+03  0.00000000000E+00 0. -1.
          4    1    6    6  502    0  0.44876100610E+01  0.31231472868E+01 -0.12363063832E+02  0.13518063484E+02  0.00000000000E+00 0. -1.
          3    1    5    5  503    0  0.42357724974E+03  0.11335278763E+03  0.53831812221E+03  0.69430032526E+03  0.00000000000E+00 0. -1.
         -4    1    5    5    0  503  0.49857509031E+03  0.16331119423E+03  0.78209209711E+03  0.94176202684E+03  0.00000000000E+00 0.  1.
         -3    1    6    6    0  502  0.16332219318E+03 -0.20489939623E+03 -0.24064534055E+02  0.26312925181E+03  0.00000000000E+00 0.  1.
<mgrwt>
<rscale>  0 0.25720829E+04</rscale>
<asrwt>0</asrwt>
<pdfrwt beam="1">  1        1 0.36929488E+00 0.25720829E+04</pdfrwt>
<pdfrwt beam="2">  1       -1 0.10600099E+00 0.25720829E+04</pdfrwt>
<totfact> 0.11667661E+00</totfact>
</mgrwt>
</event>
<event>
12    1  0.1097093E-007  0.1826469E+04  0.7818608E-02  0.8692349E-01
         -2   -1    0    0    0  501 -0.00000000000E+00  0.00000000000E+00  0.10488365660E+04  0.10488365660E+04  0.00000000000E+00 0.  1.
          2   -1    0    0  501    0  0.00000000000E+00 -0.00000000000E+00 -0.79516435311E+03  0.79516435311E+03  0.00000000000E+00 0. -1.
         23    2    1    2    0    0  0.66630110299E+02  0.66429187736E+03 -0.73776626331E+02  0.67771335611E+03  0.90161702091E+02 0.  0.
        254    2    1    2    0    0 -0.66630110299E+02 -0.66429187736E+03  0.32744883925E+03  0.11662875630E+04  0.89848798958E+03 0.  0.
        -24    2    4    4    0    0  0.36052535594E+03 -0.50557280775E+03  0.51247701587E+02  0.62784613292E+03  0.77343671335E+02 0.  0.
         24    2    4    4    0    0 -0.42715546624E+03 -0.15871906962E+03  0.27620113767E+03  0.53844143011E+03  0.77321211924E+02 0.  0.
         13    1    3    3    0    0  0.11370804287E+02  0.34933331895E+03  0.11166176036E+00  0.34951834771E+03  0.00000000000E+00 0. -1.
        -13    1    3    3    0    0  0.55259306012E+02  0.31495855842E+03 -0.73888288092E+02  0.32819500840E+03  0.00000000000E+00 0.  1.
          2    1    6    6  502    0 -0.34160523626E+03 -0.92899991157E+02  0.21910374366E+03  0.41633039317E+03  0.00000000000E+00 0. -1.
          3    1    5    5  503    0  0.60920833330E+02 -0.13715072980E+03 -0.13314978984E+01  0.15007812467E+03  0.00000000000E+00 0. -1.
         -4    1    5    5    0  503  0.29960452261E+03 -0.36842207795E+03  0.52579199485E+02  0.47776800825E+03  0.00000000000E+00 0.  1.
         -1    1    6    6    0  502 -0.85550229981E+02 -0.65819078460E+02  0.57097394010E+02  0.12211103694E+03  0.00000000000E+00 0.  1.
<mgrwt>
<rscale>  0 0.18264692E+04</rscale>
<asrwt>0</asrwt>
<pdfrwt beam="1">  1        2 0.12233298E+00 0.18264692E+04</pdfrwt>
<pdfrwt beam="2">  1       -2 0.16135947E+00 0.18264692E+04</pdfrwt>
<totfact> 0.80484438E+00</totfact>
</mgrwt>
</event>
<event>
12    1  0.1097093E-007  0.1631113E+04  0.7818608E-02  0.8801659E-01
          1   -1    0    0  501    0  0.00000000000E+00  0.00000000000E+00  0.54565422003E+03  0.54565422003E+03  0.00000000000E+00 0. -1.
         -1   -1    0    0    0  501 -0.00000000000E+00 -0.00000000000E+00 -0.12189630480E+04  0.12189630480E+04  0.00000000000E+00 0.  1.
         23    2    1    2    0    0  0.35059969989E+03  0.41046547826E+02 -0.70842994249E+03  0.79646954122E+03  0.88801903336E+02 0.  0.
        254    2    1    2    0    0 -0.35059969989E+03 -0.41046547826E+02  0.35121114487E+02  0.96814772684E+03  0.90081716217E+03 0.  0.
        -24    2    4    4    0    0 -0.46624320142E+03  0.54115862857E+02  0.36313303842E+03  0.59882020143E+03  0.80054859729E+02 0.  0.
         24    2    4    4    0    0  0.11564350153E+03 -0.95162410683E+02 -0.32801192393E+03  0.36932752541E+03  0.79885511382E+02 0.  0.
         13    1    3    3    0    0  0.22894928623E+03  0.39428716563E+02 -0.37056923930E+03  0.43737165029E+03  0.00000000000E+00 0. -1.
        -13    1    3    3    0    0  0.12165041366E+03  0.16178312629E+01 -0.33786070318E+03  0.35909789094E+03  0.00000000000E+00 0.  1.
          4    1    6    6  502    0 -0.58813139006E+01 -0.30163450502E+02 -0.44321310682E+02  0.53933312340E+02  0.00000000000E+00 0. -1.
          3    1    5    5  503    0 -0.33489420500E+03  0.38481495673E+02  0.21311615212E+03  0.39881505532E+03  0.00000000000E+00 0. -1.
         -4    1    5    5    0  503 -0.13134899642E+03  0.15634367184E+02  0.15001688630E+03  0.20000514612E+03  0.00000000000E+00 0.  1.
         -3    1    6    6    0  502  0.12152481544E+03 -0.64998960182E+02 -0.28369061325E+03  0.31539421307E+03  0.00000000000E+00 0.  1.
<mgrwt>
<rscale>  0 0.16311129E+04</rscale>
<asrwt>0</asrwt>
<pdfrwt beam="1">  1        1 0.83946803E-01 0.16311129E+04</pdfrwt>
<pdfrwt beam="2">  1       -1 0.18753278E+00 0.16311129E+04</pdfrwt>
<totfact> 0.69038519E+00</totfact>
</mgrwt>
</event>
<event>
12    1  0.1097093E-007  0.1888475E+04  0.7818608E-02  0.8660614E-01
          2   -1    0    0  501    0  0.00000000000E+00  0.00000000000E+00  0.38437334165E+04  0.38437334165E+04  0.00000000000E+00 0. -1.
         -2   -1    0    0    0  501 -0.00000000000E+00 -0.00000000000E+00 -0.23195800860E+03  0.23195800860E+03  0.00000000000E+00 0.  1.
         23    2    1    2    0    0 -0.45110600646E+03 -0.26511043472E+03  0.24794068178E+04  0.25355914287E+04  0.89361923975E+02 0.  0.
        254    2    1    2    0    0  0.45110600646E+03  0.26511043472E+03  0.11323685901E+04  0.15400999964E+04  0.90325478320E+03 0.  0.
        -24    2    4    4    0    0  0.18570250771E+03  0.55899968067E+03  0.44244669483E+03  0.74064105133E+03  0.76315298564E+02 0.  0.
         24    2    4    4    0    0  0.26540349875E+03 -0.29388924594E+03  0.68992189523E+03  0.79945894503E+03  0.79576863716E+02 0.  0.
         11    1    3    3    0    0 -0.12640061330E+03 -0.83959867826E+02  0.92281700025E+03  0.93520991782E+03  0.00000000000E+00 0.  1.
        -11    1    3    3    0    0 -0.32470539317E+03 -0.18115056689E+03  0.15565898176E+04  0.16003815109E+04  0.00000000000E+00 0. -1.
          4    1    6    6  502    0  0.24763415631E+03 -0.23226439280E+03  0.59048447141E+03  0.68113239132E+03  0.00000000000E+00 0. -1.
          3    1    5    5  503    0  0.12906011375E+03  0.26770758182E+03  0.21835599716E+03  0.36878612205E+03  0.00000000000E+00 0. -1.
         -4    1    5    5    0  503  0.56642393961E+02  0.29129209885E+03  0.22409069767E+03  0.37185492928E+03  0.00000000000E+00 0.  1.
         -3    1    6    6    0  502  0.17769342440E+02 -0.61624853145E+02  0.99437423823E+02  0.11832655371E+03  0.00000000000E+00 0.  1.
<mgrwt>
<rscale>  0 0.18884753E+04</rscale>
<asrwt>0</asrwt>
<pdfrwt beam="1">  1        2 0.59134356E+00 0.18884753E+04</pdfrwt>
<pdfrwt beam="2">  1       -2 0.35685850E-01 0.18884753E+04</pdfrwt>
<totfact> 0.31795961E+00</totfact>
</mgrwt>
</event>
<event>
12    1  0.1097093E-007  0.2001740E+04  0.7818608E-02  0.8605808E-01
         -2   -1    0    0    0  501 -0.00000000000E+00  0.00000000000E+00  0.26941476842E+04  0.26941476842E+04  0.00000000000E+00 0.  1.
          2   -1    0    0  501    0  0.00000000000E+00 -0.00000000000E+00 -0.37182087092E+03  0.37182087092E+03  0.00000000000E+00 0. -1.
         23    2    1    2    0    0  0.79110332361E+03 -0.69127451225E+02  0.88632487062E+03  0.11934740752E+04  0.90473857045E+02 0.  0.
        254    2    1    2    0    0 -0.79110332361E+03  0.69127451225E+02  0.14360019427E+04  0.18724944799E+04  0.90194840475E+03 0.  0.
        -24    2    4    4    0    0 -0.30954639611E+03 -0.39391259452E+03  0.79494880683E+03  0.94305391532E+03  0.80131006800E+02 0.  0.
         24    2    4    4    0    0 -0.48155692750E+03  0.46304004575E+03  0.64105313586E+03  0.92944056462E+03  0.81286418050E+02 0.  0.
         11    1    3    3    0    0  0.77705759801E+03 -0.67449362565E+02  0.84575269858E+03  0.11505066511E+04  0.00000000000E+00 0. -1.
        -11    1    3    3    0    0  0.14045725602E+02 -0.16780886600E+01  0.40572172046E+02  0.42967424099E+02  0.00000000000E+00 0.  1.
          4    1    6    6  502    0 -0.41371226335E+03  0.39572196943E+03  0.58556234046E+03  0.81892427520E+03  0.00000000000E+00 0. -1.
          1    1    5    5  503    0 -0.23699356324E+03 -0.32606068405E+03  0.68563569822E+03  0.79534761544E+03  0.00000000000E+00 0. -1.
         -2    1    5    5    0  503 -0.72552832868E+02 -0.67851910473E+02  0.10931310860E+03  0.14770629988E+03  0.00000000000E+00 0.  1.
         -3    1    6    6    0  502 -0.67844664150E+02  0.67318076317E+02  0.55490795403E+02  0.11051628942E+03  0.00000000000E+00 0.  1.
<mgrwt>
<rscale>  0 0.20017396E+04</rscale>
<asrwt>0</asrwt>
<pdfrwt beam="1">  1        2 0.57203213E-01 0.20017396E+04</pdfrwt>
<pdfrwt beam="2">  1       -2 0.41448425E+00 0.20017396E+04</pdfrwt>
<totfact> 0.47955016E-01</totfact>
</mgrwt>
</event>
<event>
12    1  0.1097093E-007  0.1517656E+04  0.7818608E-02  0.8872796E-01
          2   -1    0    0  501    0  0.00000000000E+00  0.00000000000E+00  0.25250749506E+04  0.25250749506E+04  0.00000000000E+00 0. -1.
         -2   -1    0    0    0  501 -0.00000000000E+00 -0.00000000000E+00 -0.22804083999E+03  0.22804083999E+03  0.00000000000E+00 0.  1.
         23    2    1    2    0    0  0.14606674947E+03 -0.14336392578E+03 -0.50447090991E+02  0.23011157463E+03  0.92291479959E+02 0.  0.
        254    2    1    2    0    0 -0.14606674947E+03  0.14336392578E+03  0.23474812016E+04  0.25230042160E+04  0.90166156145E+03 0.  0.
        -24    2    4    4    0    0  0.27581038233E+03  0.28136188654E+03  0.16005685145E+04  0.16502795957E+04  0.79795339682E+02 0.  0.
         24    2    4    4    0    0 -0.42187713179E+03 -0.13799796076E+03  0.74691268717E+03  0.87272462031E+03  0.82133727189E+02 0.  0.
         13    1    3    3    0    0 -0.11770115062E+02 -0.97134296358E+01  0.48732704184E+01  0.16019834220E+02  0.00000000000E+00 0. -1.
        -13    1    3    3    0    0  0.15783686453E+03 -0.13365049614E+03 -0.55320361409E+02  0.21409174041E+03  0.00000000000E+00 0.  1.
          2    1    6    6  502    0 -0.12408899948E+03 -0.57892803191E+02  0.29970024207E+03  0.32949945607E+03  0.00000000000E+00 0. -1.
          3    1    5    5  503    0  0.21224815973E+03  0.20139472020E+03  0.10351038443E+04  0.10756621603E+04  0.00000000000E+00 0. -1.
         -4    1    5    5    0  503  0.63562222597E+02  0.79967166342E+02  0.56546467012E+03  0.57461743533E+03  0.00000000000E+00 0.  1.
         -1    1    6    6    0  502 -0.29778813232E+03 -0.80105157568E+02  0.44721244510E+03  0.54322516425E+03  0.00000000000E+00 0.  1.
<mgrwt>
<rscale>  0 0.15176564E+04</rscale>
<asrwt>0</asrwt>
<pdfrwt beam="1">  1        2 0.38847305E+00 0.15176564E+04</pdfrwt>
<pdfrwt beam="2">  1       -2 0.35083208E-01 0.15176564E+04</pdfrwt>
<totfact> 0.24840791E+01</totfact>
</mgrwt>
</event>
<event>
12    1  0.1097093E-007  0.1395501E+04  0.7818608E-02  0.8957081E-01
         -1   -1    0    0    0  501 -0.00000000000E+00  0.00000000000E+00  0.25330822345E+03  0.25330822345E+03  0.00000000000E+00 0.  1.
          1   -1    0    0  501    0  0.00000000000E+00 -0.00000000000E+00 -0.19219901651E+04  0.19219901651E+04  0.00000000000E+00 0. -1.
         23    2    1    2    0    0  0.12935662236E+03  0.99362367209E+02 -0.92320169930E+03  0.94187641020E+03  0.90685052459E+02 0.  0.
        254    2    1    2    0    0 -0.12935662236E+03 -0.99362367209E+02 -0.74548024234E+03  0.12334219783E+04  0.96901133594E+03 0.  0.
        -24    2    4    4    0    0  0.23293601983E+03 -0.17754908841E+03  0.88552570251E+02  0.31698668091E+03  0.82801751464E+02 0.  0.
         24    2    4    4    0    0 -0.36229264219E+03  0.78186721200E+02 -0.83403281259E+03  0.91643529744E+03  0.82908382897E+02 0.  0.
         11    1    3    3    0    0  0.42696078203E+02  0.65626223769E+01 -0.99874523557E+02  0.10881609974E+03  0.00000000000E+00 0.  1.
        -11    1    3    3    0    0  0.86660544156E+02  0.92799744832E+02 -0.82332717574E+03  0.83306031046E+03  0.00000000000E+00 0. -1.
          2    1    6    6  502    0 -0.50806663931E+01  0.40638252043E+01 -0.64248225212E+02  0.64576793735E+02  0.00000000000E+00 0. -1.
          1    1    5    5  503    0  0.41621353360E+00 -0.10389283686E+02  0.19976029506E+02  0.22520040054E+02  0.00000000000E+00 0. -1.
         -2    1    5    5    0  503  0.23251980630E+03 -0.16715980472E+03  0.68576540746E+02  0.29446664085E+03  0.00000000000E+00 0.  1.
         -1    1    6    6    0  502 -0.35721197580E+03  0.74122895996E+02 -0.76978458738E+03  0.85185850370E+03  0.00000000000E+00 0.  1.
<mgrwt>
<rscale>  0 0.13955012E+04</rscale>
<asrwt>0</asrwt>
<pdfrwt beam="1">  1        1 0.29569080E+00 0.13955012E+04</pdfrwt>
<pdfrwt beam="2">  1       -1 0.38970496E-01 0.13955012E+04</pdfrwt>
<totfact> 0.20991171E+01</totfact>
</mgrwt>
</event>
<event>
12    1  0.1097093E-007  0.1511491E+04  0.7818608E-02  0.8876847E-01
         -1   -1    0    0    0  501 -0.00000000000E+00  0.00000000000E+00  0.26777013759E+03  0.26777013759E+03  0.00000000000E+00 0.  1.
          1   -1    0    0  501    0  0.00000000000E+00 -0.00000000000E+00 -0.21329910392E+04  0.21329910392E+04  0.00000000000E+00 0. -1.
         23    2    1    2    0    0 -0.49479856522E+02 -0.23365336211E+03 -0.12392780589E+04  0.12654417240E+04  0.92143906961E+02 0.  0.
        254    2    1    2    0    0  0.49479856522E+02  0.23365336211E+03 -0.62594284271E+03  0.11353194528E+04  0.91657169270E+03 0.  0.
        -24    2    4    4    0    0  0.42230641332E+03  0.12896760931E+02 -0.53319234775E+03  0.68507785009E+03  0.80799429504E+02 0.  0.
         24    2    4    4    0    0 -0.37282655680E+03  0.22075660118E+03 -0.92750494957E+02  0.45024160276E+03  0.79885719155E+02 0.  0.
         11    1    3    3    0    0  0.20044702665E+02 -0.12642366799E+02 -0.14276351367E+03  0.14471710465E+03  0.00000000000E+00 0.  1.
        -11    1    3    3    0    0 -0.69524559188E+02 -0.22101099531E+03 -0.10965145453E+04  0.11207246193E+04  0.00000000000E+00 0. -1.
          4    1    6    6  502    0 -0.46642596847E+02  0.24177839207E+00 -0.55566138156E+01  0.46973037527E+02  0.00000000000E+00 0. -1.
          3    1    5    5  503    0  0.87239652299E+02  0.33831339352E+02 -0.13482121703E+03  0.16410995405E+03  0.00000000000E+00 0. -1.
         -4    1    5    5    0  503  0.33506676102E+03 -0.20934578421E+02 -0.39837113072E+03  0.52096789604E+03  0.00000000000E+00 0.  1.
         -1    1    6    6    0  502 -0.32618395995E+03  0.22051482279E+03 -0.87193881142E+02  0.40326856523E+03  0.00000000000E+00 0.  1.
<mgrwt>
<rscale>  0 0.15114911E+04</rscale>
<asrwt>0</asrwt>
<pdfrwt beam="1">  1        1 0.32815248E+00 0.15114911E+04</pdfrwt>
<pdfrwt beam="2">  1       -1 0.41195404E-01 0.15114911E+04</pdfrwt>
<totfact> 0.13508773E+01</totfact>
</mgrwt>
</event>
<event>
12    1  0.1097093E-007  0.1396404E+04  0.7818608E-02  0.8956425E-01
          2   -1    0    0  501    0  0.00000000000E+00  0.00000000000E+00  0.15845615998E+04  0.15845615998E+04  0.00000000000E+00 0.  1.
         -2   -1    0    0    0  501 -0.00000000000E+00 -0.00000000000E+00 -0.30764735710E+03  0.30764735710E+03  0.00000000000E+00 0. -1.
         23    2    1    2    0    0  0.69690493511E+02  0.21787994497E+03 -0.69603242396E+02  0.25677247563E+03  0.93589836964E+02 0.  0.
        254    2    1    2    0    0 -0.69690493511E+02 -0.21787994497E+03  0.13465174851E+04  0.16354364813E+04  0.89956362272E+03 0.  0.
        -24    2    4    4    0    0  0.27650424992E+03 -0.37727174689E+03  0.43291151821E+03  0.64223043819E+03  0.79113727729E+02 0.  0.
         24    2    4    4    0    0 -0.34619474343E+03  0.15939180193E+03  0.91360596692E+03  0.99320604311E+03  0.80782636645E+02 0.  0.
         11    1    3    3    0    0  0.31437354294E+02  0.20242847239E+03 -0.66592057909E+02  0.21540681479E+03  0.00000000000E+00 0. -1.
        -11    1    3    3    0    0  0.38253139218E+02  0.15451472574E+02 -0.30111844862E+01  0.41365660840E+02  0.00000000000E+00 0.  1.
          2    1    6    6  502    0 -0.25788799092E+03  0.11360928000E+03  0.57581644102E+03  0.64107554790E+03  0.00000000000E+00 0. -1.
          1    1    5    5  503    0  0.22400065564E+03 -0.34367006710E+03  0.35541999664E+03  0.54277876042E+03  0.00000000000E+00 0. -1.
         -2    1    5    5    0  503  0.52503594281E+02 -0.33601679790E+02  0.77491521566E+02  0.99451677773E+02  0.00000000000E+00 0.  1.
         -1    1    6    6    0  502 -0.88306752507E+02  0.45782521928E+02  0.33778952589E+03  0.35213049521E+03  0.00000000000E+00 0.  1.
<mgrwt>
<rscale>  0 0.13964042E+04</rscale>
<asrwt>0</asrwt>
<pdfrwt beam="1">  1        2 0.24377870E+00 0.13964042E+04</pdfrwt>
<pdfrwt beam="2">  1       -2 0.47330363E-01 0.13964042E+04</pdfrwt>
<totfact> 0.46846878E+01</totfact>
</mgrwt>
</event>
<event>
12    1  0.1097093E-007  0.1814761E+04  0.7818608E-02  0.8698489E-01
          1   -1    0    0  501    0  0.00000000000E+00  0.00000000000E+00  0.21700583505E+04  0.21700583505E+04  0.00000000000E+00 0. -1.
         -1   -1    0    0    0  501 -0.00000000000E+00 -0.00000000000E+00 -0.37940875787E+03  0.37940875787E+03  0.00000000000E+00 0.  1.
         23    2    1    2    0    0 -0.46421093013E+03  0.24215839147E+03  0.12952015836E+04  0.14002708752E+04  0.95283301328E+02 0.  0.
        254    2    1    2    0    0  0.46421093013E+03 -0.24215839147E+03  0.49544800908E+03  0.11491962332E+04  0.89501440131E+03 0.  0.
        -24    2    4    4    0    0 -0.13486444731E+03 -0.27173299380E+03 -0.69496829386E+02  0.32131083181E+03  0.79897448485E+02 0.  0.
         24    2    4    4    0    0  0.59907537744E+03  0.29574602338E+02  0.56494483846E+03  0.82788540142E+03  0.80408969731E+02 0.  0.
         11    1    3    3    0    0 -0.10588981787E+03  0.29711560657E+02  0.36148904091E+03  0.37784885478E+03  0.00000000000E+00 0.  1.
        -11    1    3    3    0    0 -0.35832111227E+03  0.21244683081E+03  0.93371254269E+03  0.10224220204E+04  0.00000000000E+00 0. -1.
          4    1    6    6  502    0  0.19899608330E+03  0.10551879408E+01  0.13849633991E+03  0.24244956333E+03  0.00000000000E+00 0. -1.
          3    1    5    5  503    0 -0.54444527661E+02 -0.44040670028E+02  0.18506087025E-01  0.70027048712E+02  0.00000000000E+00 0. -1.
         -4    1    5    5    0  503 -0.80419919649E+02 -0.22769232378E+03 -0.69515335473E+02  0.25128378310E+03  0.00000000000E+00 0.  1.
         -3    1    6    6    0  502  0.40007929414E+03  0.28519414397E+02  0.42644849855E+03  0.58543583809E+03  0.00000000000E+00 0.  1.
<mgrwt>
<rscale>  0 0.18147607E+04</rscale>
<asrwt>0</asrwt>
<pdfrwt beam="1">  1        1 0.33385512E+00 0.18147607E+04</pdfrwt>
<pdfrwt beam="2">  1       -1 0.58370579E-01 0.18147607E+04</pdfrwt>
<totfact> 0.64019434E+00</totfact>
</mgrwt>
</event>
<event>
12    1  0.1097093E-007  0.2355160E+04  0.7818608E-02  0.8456484E-01
         -2   -1    0    0    0  501 -0.00000000000E+00  0.00000000000E+00  0.12132256058E+04  0.12132256058E+04  0.00000000000E+00 0.  1.
          2   -1    0    0  501    0  0.00000000000E+00 -0.00000000000E+00 -0.11429819151E+04  0.11429819151E+04  0.00000000000E+00 0. -1.
         23    2    1    2    0    0 -0.45707343041E+03 -0.63244898935E+03  0.65777026701E+03  0.10245646759E+04  0.90350461759E+02 0.  0.
        254    2    1    2    0    0  0.45707343041E+03  0.63244898935E+03 -0.58752657628E+03  0.13316428450E+04  0.90508416399E+03 0.  0.
        -24    2    4    4    0    0  0.28656624380E+03  0.26570421140E+03  0.19719941034E+03  0.44468833337E+03  0.78365594202E+02 0.  0.
         24    2    4    4    0    0  0.17050718661E+03  0.36674477794E+03 -0.78472598662E+03  0.88695451163E+03  0.85551147270E+02 0.  0.
         13    1    3    3    0    0 -0.30672705961E+03 -0.46435137575E+03  0.51068101484E+03  0.75531370183E+03  0.00000000000E+00 0. -1.
        -13    1    3    3    0    0 -0.15034637079E+03 -0.16809761360E+03  0.14708925217E+03  0.26925097402E+03  0.00000000000E+00 0.  1.
          2    1    6    6  502    0  0.17626477110E+03  0.34440115926E+03 -0.70772212938E+03  0.80656806312E+03  0.00000000000E+00 0. -1.
          3    1    5    5  503    0  0.14990333904E+03  0.16867067215E+03  0.14855167310E+03  0.27016366572E+03  0.00000000000E+00 0. -1.
         -4    1    5    5    0  503  0.13666290476E+03  0.97033539256E+02  0.48647737244E+02  0.17452466765E+03  0.00000000000E+00 0.  1.
         -1    1    6    6    0  502 -0.57575844934E+01  0.22343618687E+02 -0.77003857241E+02  0.80386448518E+02  0.00000000000E+00 0.  1.
<mgrwt>
<rscale>  0 0.23551602E+04</rscale>
<asrwt>0</asrwt>
<pdfrwt beam="1">  1        2 0.17584337E+00 0.23551602E+04</pdfrwt>
<pdfrwt beam="2">  1       -2 0.18665009E+00 0.23551602E+04</pdfrwt>
<totfact> 0.30212869E+00</totfact>
</mgrwt>
</event>
<event>
12    1  0.1097093E-007  0.1668232E+04  0.7818608E-02  0.8779693E-01
          2   -1    0    0  501    0  0.00000000000E+00  0.00000000000E+00  0.91463421866E+03  0.91463421866E+03  0.00000000000E+00 0.  1.
         -2   -1    0    0    0  501 -0.00000000000E+00 -0.00000000000E+00 -0.76068626506E+03  0.76068626506E+03  0.00000000000E+00 0. -1.
         23    2    1    2    0    0  0.15032199788E+03  0.54940960004E+03  0.20097701522E+03  0.61092609049E+03  0.91604125077E+02 0.  0.
        254    2    1    2    0    0 -0.15032199788E+03 -0.54940960004E+03 -0.47029061622E+02  0.10643943932E+04  0.89792877225E+03 0.  0.
        -24    2    4    4    0    0 -0.43964567591E+03 -0.58969448434E+03  0.59890823085E+02  0.74228705240E+03  0.79845176783E+02 0.  0.
         24    2    4    4    0    0  0.28932367803E+03  0.40284884299E+02 -0.10691988471E+03  0.32210734083E+03  0.83607503858E+02 0.  0.
         11    1    3    3    0    0  0.11706914894E+03  0.41054738029E+03  0.10742688815E+03  0.44022139134E+03  0.00000000000E+00 0.  1.
        -11    1    3    3    0    0  0.33252848944E+02  0.13886221975E+03  0.93550127073E+02  0.17070469915E+03  0.00000000000E+00 0. -1.
          4    1    6    6  502    0  0.15594504050E+03  0.15299509172E+01 -0.17532488937E+02  0.15693496925E+03  0.00000000000E+00 0. -1.
          1    1    5    5  503    0 -0.21020953100E+03 -0.21638816224E+03  0.26203178189E+02  0.30281758573E+03  0.00000000000E+00 0. -1.
         -2    1    5    5    0  503 -0.22943614491E+03 -0.37330632210E+03  0.33687644896E+02  0.43946946666E+03  0.00000000000E+00 0.  1.
         -3    1    6    6    0  502  0.13337863753E+03  0.38754933382E+02 -0.89387395770E+02  0.16517237158E+03  0.00000000000E+00 0.  1.
<mgrwt>
<rscale>  0 0.16682322E+04</rscale>
<asrwt>0</asrwt>
<pdfrwt beam="1">  1        2 0.14071296E+00 0.16682322E+04</pdfrwt>
<pdfrwt beam="2">  1       -2 0.11702866E+00 0.16682322E+04</pdfrwt>
<totfact> 0.15446705E+01</totfact>
</mgrwt>
</event>
<event>
12    1  0.1097093E-007  0.3794083E+04  0.7818608E-02  0.8047426E-01
          2   -1    0    0  501    0  0.00000000000E+00  0.00000000000E+00  0.44091957864E+04  0.44091957864E+04  0.00000000000E+00 0. -1.
         -2   -1    0    0    0  501 -0.00000000000E+00 -0.00000000000E+00 -0.81619557326E+03  0.81619557326E+03  0.00000000000E+00 0.  1.
         23    2    1    2    0    0 -0.35386250730E+03  0.16081050173E+04  0.26668821273E+04  0.31355865887E+04  0.91774473178E+02 0.  0.
        254    2    1    2    0    0  0.35386250730E+03 -0.16081050173E+04  0.92611808585E+03  0.20898047709E+04  0.89351488573E+03 0.  0.
        -24    2    4    4    0    0  0.44919676444E+03 -0.16287731463E+04  0.69791959431E+03  0.18298761301E+04  0.81701872555E+02 0.  0.
         24    2    4    4    0    0 -0.95334257139E+02  0.20668129053E+02  0.22819849154E+03  0.25992864084E+03  0.77282304867E+02 0.  0.
         11    1    3    3    0    0 -0.17993508719E+03  0.95691722209E+03  0.16397598797E+04  0.19070604784E+04  0.00000000000E+00 0.  1.
        -11    1    3    3    0    0 -0.17392742011E+03  0.65118779518E+03  0.10271222476E+04  0.12285261103E+04  0.00000000000E+00 0. -1.
          4    1    6    6  502    0 -0.27615822234E+02 -0.37184595709E+01  0.15420731242E+03  0.15670467696E+03  0.00000000000E+00 0. -1.
          3    1    5    5  503    0  0.90691210783E+02 -0.38247588083E+03  0.19671865099E+03  0.43955764443E+03  0.00000000000E+00 0. -1.
         -4    1    5    5    0  503  0.35850555366E+03 -0.12462972655E+04  0.50120094333E+03  0.13903184857E+04  0.00000000000E+00 0.  1.
         -3    1    6    6    0  502 -0.67718434905E+02  0.24386588624E+02  0.73991179122E+02  0.10322396388E+03  0.00000000000E+00 0.  1.
<mgrwt>
<rscale>  0 0.37940828E+04</rscale>
<asrwt>0</asrwt>
<pdfrwt beam="1">  1        2 0.67833780E+00 0.37940828E+04</pdfrwt>
<pdfrwt beam="2">  1       -2 0.12556855E+00 0.37940828E+04</pdfrwt>
<totfact> 0.56889183E-02</totfact>
</mgrwt>
</event>
<event>
12    1  0.1097093E-007  0.1486130E+04  0.7818608E-02  0.8893729E-01
         -1   -1    0    0    0  501 -0.00000000000E+00  0.00000000000E+00  0.35341453514E+03  0.35341453514E+03  0.00000000000E+00 0.  1.
          1   -1    0    0  501    0  0.00000000000E+00 -0.00000000000E+00 -0.15623181474E+04  0.15623181474E+04  0.00000000000E+00 0. -1.
         23    2    1    2    0    0 -0.24455187245E+03  0.11859367233E+03 -0.86751313395E+03  0.91369177047E+03  0.91561653608E+02 0.  0.
        254    2    1    2    0    0  0.24455187245E+03 -0.11859367233E+03 -0.34139047836E+03  0.10020409121E+04  0.90203572734E+03 0.  0.
        -24    2    4    4    0    0 -0.19488074890E+03  0.21641903611E+03  0.69285868621E+02  0.30958172752E+03  0.78896190915E+02 0.  0.
         24    2    4    4    0    0  0.43943262135E+03 -0.33501270844E+03 -0.41067634698E+03  0.69245918459E+03  0.74230161255E+02 0.  0.
         11    1    3    3    0    0 -0.18174767925E+03  0.11331870536E+03 -0.55514430314E+03  0.59502818858E+03  0.00000000000E+00 0. -1.
        -11    1    3    3    0    0 -0.62804193201E+02  0.52749669702E+01 -0.31236883081E+03  0.31866358189E+03  0.00000000000E+00 0.  1.
          4    1    6    6  502    0  0.20632118723E+03 -0.20199507691E+03 -0.19968369785E+03  0.35106128039E+03  0.00000000000E+00 0. -1.
          3    1    5    5  503    0 -0.16156173016E+03  0.19714809779E+03  0.83998143472E+02  0.26837520977E+03  0.00000000000E+00 0. -1.
         -4    1    5    5    0  503 -0.33319018737E+02  0.19270938322E+02 -0.14712274851E+02  0.41206517746E+02  0.00000000000E+00 0.  1.
         -3    1    6    6    0  502  0.23311143412E+03 -0.13301763153E+03 -0.21099264912E+03  0.34139790421E+03  0.00000000000E+00 0.  1.
<mgrwt>
<rscale>  0 0.14861305E+04</rscale>
<asrwt>0</asrwt>
<pdfrwt beam="1">  1        1 0.24035664E+00 0.14861305E+04</pdfrwt>
<pdfrwt beam="2">  1       -1 0.54371467E-01 0.14861305E+04</pdfrwt>
<totfact> 0.19598111E+01</totfact>
</mgrwt>
</event>
<event>
12    1  0.1097093E-007  0.1150409E+04  0.7818608E-02  0.9157406E-01
          2   -1    0    0  501    0  0.00000000000E+00  0.00000000000E+00  0.89288603259E+03  0.89288603259E+03  0.00000000000E+00 0.  1.
         -2   -1    0    0    0  501 -0.00000000000E+00 -0.00000000000E+00 -0.37055141000E+03  0.37055141000E+03  0.00000000000E+00 0. -1.
         23    2    1    2    0    0 -0.36079557414E+01  0.18151535977E+03 -0.34223949113E+02  0.20736033961E+03  0.94160440597E+02 0.  0.
        254    2    1    2    0    0  0.36079557414E+01 -0.18151535977E+03  0.55655857170E+03  0.10560771030E+04  0.87896561965E+03 0.  0.
        -24    2    4    4    0    0 -0.26569302023E+03 -0.43494657158E+03  0.36837630092E+03  0.63372456354E+03  0.78322552469E+02 0.  0.
         24    2    4    4    0    0  0.26930097597E+03  0.25343121181E+03  0.18818227078E+03  0.42235253943E+03  0.78858770913E+02 0.  0.
         13    1    3    3    0    0 -0.40389225072E+02  0.13868394637E+03 -0.68266157408E+01  0.14460680885E+03  0.00000000000E+00 0. -1.
        -13    1    3    3    0    0  0.36781269330E+02  0.42831413404E+02 -0.27397333373E+02  0.62753530767E+02  0.00000000000E+00 0.  1.
          2    1    6    6  502    0  0.18646192305E+03  0.15403084825E+03  0.15981182199E+03  0.28988509690E+03  0.00000000000E+00 0. -1.
          3    1    5    5  503    0 -0.27049709592E+03 -0.41929978482E+03  0.36035444562E+03  0.61549680335E+03  0.00000000000E+00 0. -1.
         -4    1    5    5    0  503  0.48040756903E+01 -0.15646786765E+02  0.80218552989E+01  0.18227760196E+02  0.00000000000E+00 0.  1.
         -3    1    6    6    0  502  0.82839052925E+02  0.99400363566E+02  0.28370448790E+02  0.13246744253E+03  0.00000000000E+00 0.  1.
<mgrwt>
<rscale>  0 0.11504089E+04</rscale>
<asrwt>0</asrwt>
<pdfrwt beam="1">  1        2 0.13736708E+00 0.11504089E+04</pdfrwt>
<pdfrwt beam="2">  1       -2 0.57007909E-01 0.11504089E+04</pdfrwt>
<totfact> 0.84671427E+01</totfact>
</mgrwt>
</event>
<event>
12    1  0.1097093E-007  0.1205711E+04  0.7818608E-02  0.9107872E-01
          2   -1    0    0  501    0  0.00000000000E+00  0.00000000000E+00  0.17067065403E+03  0.17067065403E+03  0.00000000000E+00 0. -1.
         -2   -1    0    0    0  501 -0.00000000000E+00 -0.00000000000E+00 -0.21294502458E+04  0.21294502458E+04  0.00000000000E+00 0.  1.
         23    2    1    2    0    0 -0.15990637210E+03  0.13907823476E+02 -0.87505426083E+03  0.89429218312E+03  0.90967433699E+02 0.  0.
        254    2    1    2    0    0  0.15990637210E+03 -0.13907823476E+02 -0.10837253310E+04  0.14058287167E+04  0.88098258350E+03 0.  0.
        -24    2    4    4    0    0  0.13379084051E+03 -0.63857126097E+02 -0.12238397414E+04  0.12353593547E+04  0.79695049506E+02 0.  0.
         24    2    4    4    0    0  0.26115531588E+02  0.49949302620E+02  0.14011441049E+03  0.17046936204E+03  0.79062010756E+02 0.  0.
         11    1    3    3    0    0 -0.25616120268E+02 -0.32895147649E+02 -0.16993990541E+03  0.17497956397E+03  0.00000000000E+00 0. -1.
        -11    1    3    3    0    0 -0.13429025183E+03  0.46802971125E+02 -0.70511435542E+03  0.71931261914E+03  0.00000000000E+00 0.  1.
          4    1    6    6  502    0 -0.23554330656E+02 -0.14079940808E+01  0.21090455016E+02  0.31648005194E+02  0.00000000000E+00 0. -1.
          1    1    5    5  503    0  0.30688164591E+02 -0.64039122151E+01 -0.88259243518E+02  0.93661452071E+02  0.00000000000E+00 0. -1.
         -2    1    5    5    0  503  0.10310267592E+03 -0.57453213882E+02 -0.11355804979E+04  0.11416979026E+04  0.00000000000E+00 0.  1.
         -3    1    6    6    0  502  0.49669862244E+02  0.51357296701E+02  0.11902395547E+03  0.13882135685E+03  0.00000000000E+00 0.  1.
<mgrwt>
<rscale>  0 0.12057109E+04</rscale>
<asrwt>0</asrwt>
<pdfrwt beam="1">  1        2 0.26257025E-01 0.12057109E+04</pdfrwt>
<pdfrwt beam="2">  1       -2 0.32760771E+00 0.12057109E+04</pdfrwt>
<totfact> 0.44447417E+00</totfact>
</mgrwt>
</event>
<event>
12    1  0.1097093E-007  0.2047875E+04  0.7818608E-02  0.8584559E-01
          2   -1    0    0  501    0  0.00000000000E+00  0.00000000000E+00  0.96176041413E+03  0.96176041413E+03  0.00000000000E+00 0. -1.
         -2   -1    0    0    0  501 -0.00000000000E+00 -0.00000000000E+00 -0.10901347609E+04  0.10901347609E+04  0.00000000000E+00 0.  1.
         23    2    1    2    0    0 -0.65705882033E+02  0.81990098536E+03 -0.34317768907E+02  0.82831555800E+03  0.91509920987E+02 0.  0.
        254    2    1    2    0    0  0.65705882033E+02 -0.81990098536E+03 -0.94056577910E+02  0.12235796171E+04  0.90096922852E+03 0.  0.
        -24    2    4    4    0    0  0.30164553218E+03 -0.57039799536E+03 -0.39436706172E+03  0.76054506912E+03  0.80990879703E+02 0.  0.
         24    2    4    4    0    0 -0.23593965015E+03 -0.24950298999E+03  0.30031048381E+03  0.46303454795E+03  0.79343212564E+02 0.  0.
         11    1    3    3    0    0 -0.73467696658E+00  0.11269637806E+03  0.25730119387E+02  0.11559866963E+03  0.00000000000E+00 0. -1.
        -11    1    3    3    0    0 -0.64971205067E+02  0.70720460730E+03 -0.60047888294E+02  0.71271688837E+03  0.00000000000E+00 0.  1.
          4    1    6    6  502    0 -0.18148976607E+03 -0.18386235945E+03  0.26685211773E+03  0.37142153297E+03  0.00000000000E+00 0. -1.
          3    1    5    5  503    0  0.27716996667E+03 -0.55438586891E+03 -0.36603827437E+03  0.71982699337E+03  0.00000000000E+00 0. -1.
         -4    1    5    5    0  503  0.24475565510E+02 -0.16012126451E+02 -0.28328787348E+02  0.40718075754E+02  0.00000000000E+00 0.  1.
         -3    1    6    6    0  502 -0.54449884077E+02 -0.65640630539E+02  0.33458366078E+02  0.91613014982E+02  0.00000000000E+00 0.  1.
<mgrwt>
<rscale>  0 0.20478754E+04</rscale>
<asrwt>0</asrwt>
<pdfrwt beam="1">  1        2 0.14796314E+00 0.20478754E+04</pdfrwt>
<pdfrwt beam="2">  1       -2 0.16771304E+00 0.20478754E+04</pdfrwt>
<totfact> 0.54613551E+00</totfact>
</mgrwt>
</event>
<event>
12    1  0.1097093E-007  0.2593992E+04  0.7818608E-02  0.8370245E-01
         -1   -1    0    0    0  501 -0.00000000000E+00  0.00000000000E+00  0.21193534598E+04  0.21193534598E+04  0.00000000000E+00 0.  1.
          1   -1    0    0  501    0  0.00000000000E+00 -0.00000000000E+00 -0.79373205079E+03  0.79373205079E+03  0.00000000000E+00 0. -1.
         23    2    1    2    0    0 -0.83359554560E+03  0.20939473861E+03  0.13976071293E+04  0.16456298644E+04  0.12674491067E+03 0.  0.
        254    2    1    2    0    0  0.83359554560E+03 -0.20939473861E+03 -0.71985720332E+02  0.12674556462E+04  0.92872718327E+03 0.  0.
        -24    2    4    4    0    0 -0.33501670301E+02 -0.34557150728E+03  0.98887645510E+02  0.36978977452E+03  0.80147878017E+02 0.  0.
         24    2    4    4    0    0  0.86709721591E+03  0.13617676867E+03 -0.17087336584E+03  0.89766587167E+03  0.78769384015E+02 0.  0.
         13    1    3    3    0    0 -0.43211270701E+03  0.85549334828E+02  0.60269449859E+03  0.74651238361E+03  0.00000000000E+00 0.  1.
        -13    1    3    3    0    0 -0.40148283859E+03  0.12384540379E+03  0.79491263072E+03  0.89911748075E+03  0.00000000000E+00 0. -1.
          4    1    6    6  502    0  0.10699499593E+03 -0.77615925892E+01 -0.12400960228E+02  0.10799053333E+03  0.00000000000E+00 0. -1.
          3    1    5    5  503    0 -0.49431104554E+02 -0.16479107934E+03  0.25033942443E+02  0.17385693027E+03  0.00000000000E+00 0. -1.
         -4    1    5    5    0  503  0.15929434252E+02 -0.18078042794E+03  0.73853703067E+02  0.19593284425E+03  0.00000000000E+00 0.  1.
         -3    1    6    6    0  502  0.76010221997E+03  0.14393836126E+03 -0.15847240561E+03  0.78967533835E+03  0.00000000000E+00 0.  1.
<mgrwt>
<rscale>  0 0.25939921E+04</rscale>
<asrwt>0</asrwt>
<pdfrwt beam="1">  1        1 0.12211262E+00 0.25939921E+04</pdfrwt>
<pdfrwt beam="2">  1       -1 0.32605438E+00 0.25939921E+04</pdfrwt>
<totfact> 0.44088122E-01</totfact>
</mgrwt>
</event>
<event>
12    1  0.1097093E-007  0.1678211E+04  0.7818608E-02  0.8773890E-01
          2   -1    0    0  501    0  0.00000000000E+00  0.00000000000E+00  0.61185589373E+03  0.61185589373E+03  0.00000000000E+00 0. -1.
         -2   -1    0    0    0  501 -0.00000000000E+00 -0.00000000000E+00 -0.11507573263E+04  0.11507573263E+04  0.00000000000E+00 0.  1.
         23    2    1    2    0    0  0.16936857797E+03  0.59461089630E+03 -0.25508593417E+03  0.67505708541E+03  0.91571838175E+02 0.  0.
        254    2    1    2    0    0 -0.16936857797E+03 -0.59461089630E+03 -0.28381549842E+03  0.10875561346E+04  0.84851592539E+03 0.  0.
        -24    2    4    4    0    0 -0.55363994190E+02 -0.40259719115E+03  0.26365577054E+03  0.49092163766E+03  0.79624235055E+02 0.  0.
         24    2    4    4    0    0 -0.11400458379E+03 -0.19201370515E+03 -0.54747126897E+03  0.59663449698E+03  0.79885070911E+02 0.  0.
         11    1    3    3    0    0 -0.52179938590E+01  0.10540802093E+03 -0.39993729544E+02  0.11286087337E+03  0.00000000000E+00 0. -1.
        -11    1    3    3    0    0  0.17458657183E+03  0.48920287537E+03 -0.21509220462E+03  0.56219621203E+03  0.00000000000E+00 0.  1.
          4    1    6    6  502    0 -0.61127607150E+02 -0.35047819170E+02 -0.13844500544E+03  0.15534462821E+03  0.00000000000E+00 0. -1.
          1    1    5    5  503    0 -0.11898388890E+02 -0.13446423688E+03  0.45244048147E+02  0.14237003389E+03  0.00000000000E+00 0. -1.
         -2    1    5    5    0  503 -0.43465605300E+02 -0.26813295427E+03  0.21841172239E+03  0.34855160377E+03  0.00000000000E+00 0.  1.
         -3    1    6    6    0  502 -0.52876976635E+02 -0.15696588598E+03 -0.40902626353E+03  0.44128986877E+03  0.00000000000E+00 0.  1.
<mgrwt>
<rscale>  0 0.16782105E+04</rscale>
<asrwt>0</asrwt>
<pdfrwt beam="1">  1        2 0.94131676E-01 0.16782105E+04</pdfrwt>
<pdfrwt beam="2">  1       -2 0.17703959E+00 0.16782105E+04</pdfrwt>
<totfact> 0.87687160E+00</totfact>
</mgrwt>
</event>
<event>
12    1  0.1097093E-007  0.1973981E+04  0.7818608E-02  0.8618883E-01
          2   -1    0    0  501    0  0.00000000000E+00  0.00000000000E+00  0.73253683136E+03  0.73253683136E+03  0.00000000000E+00 0.  1.
         -2   -1    0    0    0  501 -0.00000000000E+00 -0.00000000000E+00 -0.13298308655E+04  0.13298308655E+04  0.00000000000E+00 0. -1.
         23    2    1    2    0    0  0.95517818404E+02 -0.77061759008E+03 -0.18964998171E+03  0.80457960854E+03  0.91684825046E+02 0.  0.
        254    2    1    2    0    0 -0.95517818404E+02  0.77061759008E+03 -0.40764405246E+03  0.12577880884E+04  0.90159973266E+03 0.  0.
        -24    2    4    4    0    0  0.10513355849E+03 -0.80864853360E+02 -0.34415114087E+03  0.37738689201E+03  0.79929149066E+02 0.  0.
         24    2    4    4    0    0 -0.20065137689E+03  0.85148244344E+03 -0.63492911590E+02  0.88040119634E+03  0.76102497764E+02 0.  0.
         13    1    3    3    0    0  0.10338488499E+03 -0.76565197859E+03 -0.18707455106E+03  0.79492658429E+03  0.00000000000E+00 0. -1.
        -13    1    3    3    0    0 -0.78670665838E+01 -0.49656114931E+01 -0.25754306572E+01  0.96530242517E+01  0.00000000000E+00 0.  1.
          2    1    6    6  502    0 -0.12444155636E+03  0.37025037926E+03 -0.17282492483E+02  0.39098558648E+03  0.00000000000E+00 0. -1.
          1    1    5    5  503    0  0.85343153088E+02 -0.69172258587E+02 -0.33516006202E+03  0.35270458220E+03  0.00000000000E+00 0. -1.
         -2    1    5    5    0  503  0.19790405402E+02 -0.11692594773E+02 -0.89910788545E+01  0.24682309808E+02  0.00000000000E+00 0.  1.
         -1    1    6    6    0  502 -0.76209820533E+02  0.48123206418E+03 -0.46210419107E+02  0.48941560986E+03  0.00000000000E+00 0.  1.
<mgrwt>
<rscale>  0 0.19739808E+04</rscale>
<asrwt>0</asrwt>
<pdfrwt beam="1">  1        2 0.11269798E+00 0.19739808E+04</pdfrwt>
<pdfrwt beam="2">  1       -2 0.20458936E+00 0.19739808E+04</pdfrwt>
<totfact> 0.44649035E+00</totfact>
</mgrwt>
</event>
<event>
12    1  0.1097093E-007  0.1302385E+04  0.7818608E-02  0.9027676E-01
         -2   -1    0    0    0  501 -0.00000000000E+00  0.00000000000E+00  0.67408195526E+03  0.67408195526E+03  0.00000000000E+00 0.  1.
          2   -1    0    0  501    0  0.00000000000E+00 -0.00000000000E+00 -0.62908038589E+03  0.62908038589E+03  0.00000000000E+00 0. -1.
         23    2    1    2    0    0  0.16461955729E+03  0.24018381067E+03 -0.14845047275E+03  0.33918160325E+03  0.90657352524E+02 0.  0.
        254    2    1    2    0    0 -0.16461955729E+03 -0.24018381067E+03  0.19345204212E+03  0.96398073790E+03  0.89835811840E+03 0.  0.
        -24    2    4    4    0    0  0.14371757101E+03 -0.27175514526E+03  0.45138697615E+03  0.55181319359E+03  0.79006323743E+02 0.  0.
         24    2    4    4    0    0 -0.30833712830E+03  0.31571334586E+02 -0.25793493404E+03  0.41216754431E+03  0.85341200639E+02 0.  0.
         13    1    3    3    0    0  0.46181884807E+02  0.17152345610E+02 -0.43471777388E+02  0.65702091851E+02  0.00000000000E+00 0.  1.
        -13    1    3    3    0    0  0.11843767249E+03  0.22303146506E+03 -0.10497869536E+03  0.27347951139E+03  0.00000000000E+00 0. -1.
          4    1    6    6  502    0 -0.15717049711E+03  0.54509038236E+02 -0.15855003818E+03  0.22980843113E+03  0.00000000000E+00 0. -1.
          3    1    5    5  503    0  0.68748812308E+02 -0.19455346238E+03  0.25656364908E+03  0.32924512896E+03  0.00000000000E+00 0. -1.
         -4    1    5    5    0  503  0.74968758700E+02 -0.77201682880E+02  0.19482332708E+03  0.22256806463E+03  0.00000000000E+00 0.  1.
         -3    1    6    6    0  502 -0.15116663119E+03 -0.22937703650E+02 -0.99384895856E+02  0.18235911318E+03  0.00000000000E+00 0.  1.
<mgrwt>
<rscale>  0 0.13023851E+04</rscale>
<asrwt>0</asrwt>
<pdfrwt beam="1">  1        2 0.96781598E-01 0.13023851E+04</pdfrwt>
<pdfrwt beam="2">  1       -2 0.10370492E+00 0.13023851E+04</pdfrwt>
<totfact> 0.34749876E+01</totfact>
</mgrwt>
</event>
<event>
12    1  0.1097093E-007  0.1662482E+04  0.7818608E-02  0.8783056E-01
          2   -1    0    0  501    0  0.00000000000E+00  0.00000000000E+00  0.34231487087E+04  0.34231487087E+04  0.00000000000E+00 0. -1.
         -2   -1    0    0    0  501 -0.00000000000E+00 -0.00000000000E+00 -0.20184965002E+03  0.20184965002E+03  0.00000000000E+00 0.  1.
         23    2    1    2    0    0  0.26536947988E+03 -0.43678846195E+03  0.53270302234E+03  0.74388775590E+03  0.91604377800E+02 0.  0.
        254    2    1    2    0    0 -0.26536947988E+03  0.43678846195E+03  0.26885960364E+04  0.28811106028E+04  0.90058011177E+03 0.  0.
        -24    2    4    4    0    0  0.32363337928E+03  0.96716732139E+02  0.75832602707E+03  0.83306560936E+03  0.69622235608E+02 0.  0.
         24    2    4    4    0    0 -0.58900285916E+03  0.34007172981E+03  0.19302700093E+04  0.20480449935E+04  0.77284132114E+02 0.  0.
         13    1    3    3    0    0  0.55221474255E+01 -0.53430895552E+02  0.79212478504E+02  0.95707739824E+02  0.00000000000E+00 0. -1.
        -13    1    3    3    0    0  0.25984733245E+03 -0.38335756639E+03  0.45349054384E+03  0.64818001608E+03  0.00000000000E+00 0.  1.
          2    1    6    6  502    0 -0.18362847032E+03  0.69544504100E+02  0.51067268669E+03  0.54712196637E+03  0.00000000000E+00 0. -1.
          3    1    5    5  503    0  0.68529538213E+02 -0.81714920206E+01  0.15667044417E+03  0.17119783575E+03  0.00000000000E+00 0. -1.
         -4    1    5    5    0  503  0.25510384107E+03  0.10488822416E+03  0.60165558291E+03  0.66186777361E+03  0.00000000000E+00 0.  1.
         -1    1    6    6    0  502 -0.40537438884E+03  0.27052722571E+03  0.14195973226E+04  0.15009230271E+04  0.00000000000E+00 0.  1.
<mgrwt>
<rscale>  0 0.16624817E+04</rscale>
<asrwt>0</asrwt>
<pdfrwt beam="1">  1        2 0.52663822E+00 0.16624817E+04</pdfrwt>
<pdfrwt beam="2">  1       -2 0.31053795E-01 0.16624817E+04</pdfrwt>
<totfact> 0.85140903E+00</totfact>
</mgrwt>
</event>
<event>
12    1  0.1097093E-007  0.1925349E+04  0.7818608E-02  0.8642340E-01
          2   -1    0    0  501    0  0.00000000000E+00  0.00000000000E+00  0.25662528762E+04  0.25662528762E+04  0.00000000000E+00 0.  1.
         -2   -1    0    0    0  501 -0.00000000000E+00 -0.00000000000E+00 -0.36112664402E+03  0.36112664402E+03  0.00000000000E+00 0. -1.
         23    2    1    2    0    0  0.35397324557E+03  0.43567721270E+03  0.16234227415E+04  0.17202069454E+04  0.92189182230E+02 0.  0.
        254    2    1    2    0    0 -0.35397324557E+03 -0.43567721270E+03  0.58170349077E+03  0.12071725749E+04  0.89653498652E+03 0.  0.
        -24    2    4    4    0    0 -0.41142416086E+03 -0.66950163159E+03  0.52103845675E+03  0.94639252951E+03  0.81703559583E+02 0.  0.
         24    2    4    4    0    0  0.57450915295E+02  0.23382441890E+03  0.60665034025E+02  0.26078004535E+03  0.79696418718E+02 0.  0.
         13    1    3    3    0    0  0.96143315090E+02  0.18714022991E+03  0.57153538323E+03  0.60903012813E+03  0.00000000000E+00 0. -1.
        -13    1    3    3    0    0  0.25782993048E+03  0.24853698278E+03  0.10518873582E+04  0.11111768173E+04  0.00000000000E+00 0.  1.
          4    1    6    6  502    0 -0.14948861638E+02  0.75548823515E+02  0.17597721751E+01  0.77033693907E+02  0.00000000000E+00 0. -1.
          1    1    5    5  503    0 -0.57408045801E+02 -0.11252591896E+03  0.11940870885E+03  0.17382809298E+03  0.00000000000E+00 0. -1.
         -4    1    5    5    0  503 -0.35401611506E+03 -0.55697571263E+03  0.40162974790E+03  0.77256443652E+03  0.00000000000E+00 0.  1.
         -3    1    6    6    0  502  0.72399776934E+02  0.15827559538E+03  0.58905261850E+02  0.18374635144E+03  0.00000000000E+00 0.  1.
<mgrwt>
<rscale>  0 0.19253491E+04</rscale>
<asrwt>0</asrwt>
<pdfrwt beam="1">  1        2 0.39480812E+00 0.19253491E+04</pdfrwt>
<pdfrwt beam="2">  1       -2 0.55557947E-01 0.19253491E+04</pdfrwt>
<totfact> 0.90715037E+00</totfact>
</mgrwt>
</event>
<event>
12    1  0.1097093E-007  0.2496411E+04  0.7818608E-02  0.8404265E-01
         -2   -1    0    0    0  501 -0.00000000000E+00  0.00000000000E+00  0.20433109552E+04  0.20433109552E+04  0.00000000000E+00 0.  1.
          2   -1    0    0  501    0  0.00000000000E+00 -0.00000000000E+00 -0.76249622206E+03  0.76249622206E+03  0.00000000000E+00 0. -1.
         23    2    1    2    0    0 -0.84949620822E+03 -0.52184355310E+03  0.10378958961E+04  0.14421648692E+04  0.92989876843E+02 0.  0.
        254    2    1    2    0    0  0.84949620822E+03  0.52184355310E+03  0.24291883702E+03  0.13636423080E+04  0.89807921762E+03 0.  0.
        -24    2    4    4    0    0  0.82818239647E+02 -0.23310188052E+03  0.10772259946E+02  0.25967394544E+03  0.78225116391E+02 0.  0.
         24    2    4    4    0    0  0.76667796858E+03  0.75494543362E+03  0.23214657707E+03  0.11039683626E+04  0.84358740351E+02 0.  0.
         13    1    3    3    0    0 -0.45700963484E+03 -0.26025379225E+03  0.60891880096E+03  0.80459427594E+03  0.00000000000E+00 0. -1.
        -13    1    3    3    0    0 -0.39248657338E+03 -0.26158976085E+03  0.42897709515E+03  0.63757059329E+03  0.00000000000E+00 0.  1.
          4    1    6    6  502    0  0.31776128963E+03  0.36807191089E+03  0.11967943166E+03  0.50077173956E+03  0.00000000000E+00 0. -1.
          1    1    5    5  503    0  0.19797014402E+02 -0.16104411772E+03 -0.65593367041E+01  0.16238889904E+03  0.00000000000E+00 0. -1.
         -2    1    5    5    0  503  0.63021225245E+02 -0.72057762796E+02  0.17331596650E+02  0.97285046400E+02  0.00000000000E+00 0.  1.
         -3    1    6    6    0  502  0.44891667894E+03  0.38687352273E+03  0.11246714541E+03  0.60319662301E+03  0.00000000000E+00 0.  1.
<mgrwt>
<rscale>  0 0.24964109E+04</rscale>
<asrwt>0</asrwt>
<pdfrwt beam="1">  1        2 0.11730711E+00 0.24964109E+04</pdfrwt>
<pdfrwt beam="2">  1       -2 0.31435553E+00 0.24964109E+04</pdfrwt>
<totfact> 0.84969123E-01</totfact>
</mgrwt>
</event>
<event>
12    1  0.1097093E-007  0.1357632E+04  0.7818608E-02  0.8985071E-01
         -1   -1    0    0    0  501 -0.00000000000E+00  0.00000000000E+00  0.67850774355E+03  0.67850774355E+03  0.00000000000E+00 0.  1.
          1   -1    0    0  501    0  0.00000000000E+00 -0.00000000000E+00 -0.67912469308E+03  0.67912469308E+03  0.00000000000E+00 0. -1.
         23    2    1    2    0    0  0.19632601435E+03 -0.64084051146E+02 -0.31283567265E+03  0.38656840805E+03  0.94436785727E+02 0.  0.
        254    2    1    2    0    0 -0.19632601435E+03  0.64084051146E+02  0.31221872312E+03  0.97106402857E+03  0.89601012661E+03 0.  0.
        -24    2    4    4    0    0  0.58651665320E+02  0.20414459889E+03 -0.24725396111E+03  0.33542743817E+03  0.79132862271E+02 0.  0.
         24    2    4    4    0    0 -0.25497767967E+03 -0.14006054775E+03  0.55947268423E+03  0.63563659040E+03  0.79960093088E+02 0.  0.
         11    1    3    3    0    0  0.95615506119E+02 -0.19526245216E+02 -0.22651414245E+03  0.24664195911E+03  0.00000000000E+00 0. -1.
        -11    1    3    3    0    0  0.10071050823E+03 -0.44557805930E+02 -0.86321530199E+02  0.13992644894E+03  0.00000000000E+00 0.  1.
          4    1    6    6  502    0 -0.30105826989E+02 -0.33411001695E+02  0.14867240205E+03  0.15532591215E+03  0.00000000000E+00 0. -1.
          3    1    5    5  503    0  0.64065703929E+01  0.12600167985E+03 -0.10119078402E+03  0.16173138916E+03  0.00000000000E+00 0. -1.
         -4    1    5    5    0  503  0.52245094928E+02  0.78142919045E+02 -0.14606317709E+03  0.17369604901E+03  0.00000000000E+00 0.  1.
         -3    1    6    6    0  502 -0.22487185268E+03 -0.10664954605E+03  0.41080028218E+03  0.48031067825E+03  0.00000000000E+00 0.  1.
<mgrwt>
<rscale>  0 0.13576323E+04</rscale>
<asrwt>0</asrwt>
<pdfrwt beam="1">  1        1 0.10448072E+00 0.13576323E+04</pdfrwt>
<pdfrwt beam="2">  1       -1 0.10438581E+00 0.13576323E+04</pdfrwt>
<totfact> 0.24093753E+01</totfact>
</mgrwt>
</event>
<event>
12    1  0.1097093E-007  0.4147449E+04  0.7818608E-02  0.7975444E-01
          2   -1    0    0  501    0  0.00000000000E+00  0.00000000000E+00  0.15464855271E+04  0.15464855271E+04  0.00000000000E+00 0. -1.
         -2   -1    0    0    0  501 -0.00000000000E+00 -0.00000000000E+00 -0.27807141146E+04  0.27807141146E+04  0.00000000000E+00 0.  1.
         23    2    1    2    0    0 -0.13981344954E+04 -0.13924548805E+04 -0.57131283923E+03  0.20564033545E+04  0.93197288343E+02 0.  0.
        254    2    1    2    0    0  0.13981344954E+04  0.13924548805E+04 -0.66291574819E+03  0.22707962872E+04  0.90738515937E+03 0.  0.
        -24    2    4    4    0    0  0.12035559933E+04  0.14922619541E+04 -0.68371295579E+03  0.20369805041E+04  0.80208474267E+02 0.  0.
         24    2    4    4    0    0  0.19457850203E+03 -0.99807073531E+02  0.20797207600E+02  0.23381578317E+03  0.80094014999E+02 0.  0.
         11    1    3    3    0    0 -0.50359503650E+03 -0.49862546045E+03 -0.15886514813E+03  0.72627367148E+03  0.00000000000E+00 0.  1.
        -11    1    3    3    0    0 -0.89453945886E+03 -0.89382942008E+03 -0.41244769110E+03  0.13301296830E+04  0.00000000000E+00 0. -1.
          4    1    6    6  502    0  0.11085525875E+03 -0.51619454263E+02 -0.28208830134E+02  0.12549579494E+03  0.00000000000E+00 0. -1.
          3    1    5    5  503    0  0.61432691135E+03  0.77746044088E+03 -0.31211139081E+03  0.10388723749E+04  0.00000000000E+00 0. -1.
         -4    1    5    5    0  503  0.58922908198E+03  0.71480151318E+03 -0.37160156498E+03  0.99810812911E+03  0.00000000000E+00 0.  1.
         -3    1    6    6    0  502  0.83723243275E+02 -0.48187619268E+02  0.49006037734E+02  0.10831998823E+03  0.00000000000E+00 0.  1.
<mgrwt>
<rscale>  0 0.41474494E+04</rscale>
<asrwt>0</asrwt>
<pdfrwt beam="1">  1        2 0.23792085E+00 0.41474494E+04</pdfrwt>
<pdfrwt beam="2">  1       -2 0.42780217E+00 0.41474494E+04</pdfrwt>
<totfact> 0.45355074E-02</totfact>
</mgrwt>
</event>
<event>
12    1  0.1097093E-007  0.2145570E+04  0.7818608E-02  0.8541431E-01
          1   -1    0    0  501    0  0.00000000000E+00  0.00000000000E+00  0.15337762760E+04  0.15337762760E+04  0.00000000000E+00 0. -1.
         -1   -1    0    0    0  501 -0.00000000000E+00 -0.00000000000E+00 -0.75034880149E+03  0.75034880149E+03  0.00000000000E+00 0.  1.
         23    2    1    2    0    0 -0.46223805438E+02  0.43347349276E+03 -0.49192106687E+03  0.66335669793E+03  0.89553690805E+02 0.  0.
        254    2    1    2    0    0  0.46223805438E+02 -0.43347349276E+03  0.12753485414E+04  0.16207683796E+04  0.90018905187E+03 0.  0.
        -24    2    4    4    0    0  0.17749337696E+03  0.18621573379E+03  0.10690581353E+03  0.28936402167E+03  0.78246314242E+02 0.  0.
         24    2    4    4    0    0 -0.13126957152E+03 -0.61968922656E+03  0.11684427279E+04  0.13314043579E+04  0.78311672474E+02 0.  0.
         13    1    3    3    0    0 -0.47409866788E+02  0.14886160693E+03 -0.13219034355E+03  0.20465033696E+03  0.00000000000E+00 0. -1.
        -13    1    3    3    0    0  0.11860613503E+01  0.28461188583E+03 -0.35973072331E+03  0.45870636097E+03  0.00000000000E+00 0.  1.
          4    1    6    6  502    0 -0.11564086746E+03 -0.57522764113E+03  0.11164026859E+04  0.12611957050E+04  0.00000000000E+00 0. -1.
          3    1    5    5  503    0  0.17112187625E+03  0.19323176723E+03  0.10805705453E+03  0.27981697488E+03  0.00000000000E+00 0. -1.
         -4    1    5    5    0  503  0.63715007121E+01 -0.70160334370E+01 -0.11512410010E+01  0.95470467871E+01  0.00000000000E+00 0.  1.
         -3    1    6    6    0  502 -0.15628704065E+02 -0.44461585426E+02  0.52040041978E+02  0.70208652874E+02  0.00000000000E+00 0.  1.
<mgrwt>
<rscale>  0 0.21455696E+04</rscale>
<asrwt>0</asrwt>
<pdfrwt beam="1">  1        1 0.23596558E+00 0.21455696E+04</pdfrwt>
<pdfrwt beam="2">  1       -1 0.11543828E+00 0.21455696E+04</pdfrwt>
<totfact> 0.38619625E+00</totfact>
</mgrwt>
</event>
<event>
12    1  0.1097093E-007  0.1127905E+04  0.7818608E-02  0.9178413E-01
         -2   -1    0    0    0  501 -0.00000000000E+00  0.00000000000E+00  0.46605461849E+03  0.46605461849E+03  0.00000000000E+00 0.  1.
          2   -1    0    0  501    0  0.00000000000E+00 -0.00000000000E+00 -0.68241415362E+03  0.68241415362E+03  0.00000000000E+00 0. -1.
         23    2    1    2    0    0  0.82099985631E+02  0.12526585276E+03 -0.13495804273E+03  0.22378466366E+03  0.97128579130E+02 0.  0.
        254    2    1    2    0    0 -0.82099985631E+02 -0.12526585276E+03 -0.81401492395E+02  0.92468410845E+03  0.90883582453E+03 0.  0.
        -24    2    4    4    0    0 -0.36046524130E+03 -0.95730405864E+01  0.26810794340E+03  0.45633473086E+03  0.79578162758E+02 0.  0.
         24    2    4    4    0    0  0.27836525567E+03 -0.11569281218E+03 -0.34950943579E+03  0.46834937759E+03  0.79512586582E+02 0.  0.
         13    1    3    3    0    0 -0.17376132779E+02  0.27626389623E+02 -0.52546134795E+02  0.61856638091E+02  0.00000000000E+00 0.  1.
        -13    1    3    3    0    0  0.99476118410E+02  0.97639463140E+02 -0.82411907938E+02  0.16192802557E+03  0.00000000000E+00 0. -1.
          4    1    6    6  502    0  0.13048976924E+03 -0.17077544927E+02 -0.17786720327E+03  0.22125994761E+03  0.00000000000E+00 0. -1.
          1    1    5    5  503    0 -0.20571704772E+03 -0.42842265174E+02  0.16818725792E+03  0.26915036157E+03  0.00000000000E+00 0. -1.
         -2    1    5    5    0  503 -0.15474819357E+03  0.33269224588E+02  0.99920685482E+02  0.18718436929E+03  0.00000000000E+00 0.  1.
         -3    1    6    6    0  502  0.14787548643E+03 -0.98615267250E+02 -0.17164223253E+03  0.24708942998E+03  0.00000000000E+00 0.  1.
<mgrwt>
<rscale>  0 0.11279047E+04</rscale>
<asrwt>0</asrwt>
<pdfrwt beam="1">  1        2 0.10498679E+00 0.11279047E+04</pdfrwt>
<pdfrwt beam="2">  1       -2 0.71700710E-01 0.11279047E+04</pdfrwt>
<totfact> 0.74009013E+01</totfact>
</mgrwt>
</event>
<event>
12    1  0.1097093E-007  0.1506960E+04  0.7818608E-02  0.8879838E-01
          2   -1    0    0  501    0  0.00000000000E+00  0.00000000000E+00  0.16084418100E+04  0.16084418100E+04  0.00000000000E+00 0. -1.
         -2   -1    0    0    0  501 -0.00000000000E+00 -0.00000000000E+00 -0.35297009780E+03  0.35297009780E+03  0.00000000000E+00 0.  1.
         23    2    1    2    0    0  0.32967663275E+03  0.23543115988E+03  0.77305773779E+02  0.42275748656E+03  0.92914996402E+02 0.  0.
        254    2    1    2    0    0 -0.32967663275E+03 -0.23543115988E+03  0.11781659385E+04  0.15386544213E+04  0.90292188829E+03 0.  0.
        -24    2    4    4    0    0  0.24756442935E+03 -0.76532614748E+02  0.75139028527E+02  0.28102251867E+03  0.78628204792E+02 0.  0.
         24    2    4    4    0    0 -0.57724106211E+03 -0.15889854513E+03  0.11030269099E+04  0.12576319026E+04  0.80707168243E+02 0.  0.
         13    1    3    3    0    0  0.59963665280E+02  0.71629803417E+02 -0.13522367153E+02  0.94389217100E+02  0.00000000000E+00 0. -1.
        -13    1    3    3    0    0  0.26971296747E+03  0.16380135646E+03  0.90828140932E+02  0.32836826946E+03  0.00000000000E+00 0.  1.
          4    1    6    6  502    0 -0.51038797614E+03 -0.15548322549E+03  0.93112751737E+03  0.10731585965E+04  0.00000000000E+00 0. -1.
          1    1    5    5  503    0  0.16972842052E+03 -0.25856737488E+02  0.76911339809E+02  0.18812671739E+03  0.00000000000E+00 0. -1.
         -2    1    5    5    0  503  0.77836008836E+02 -0.50675877260E+02 -0.17723112820E+01  0.92895801277E+02  0.00000000000E+00 0.  1.
         -3    1    6    6    0  502 -0.66853085968E+02 -0.34153196420E+01  0.17189939257E+03  0.18447330614E+03  0.00000000000E+00 0.  1.
<mgrwt>
<rscale>  0 0.15069597E+04</rscale>
<asrwt>0</asrwt>
<pdfrwt beam="1">  1        2 0.24745258E+00 0.15069597E+04</pdfrwt>
<pdfrwt beam="2">  1       -2 0.54303093E-01 0.15069597E+04</pdfrwt>
<totfact> 0.34003424E+01</totfact>
</mgrwt>
</event>
<event>
12    1  0.1097093E-007  0.1154447E+04  0.7818608E-02  0.9153691E-01
         -1   -1    0    0    0  501 -0.00000000000E+00  0.00000000000E+00  0.31578322284E+03  0.31578322284E+03  0.00000000000E+00 0.  1.
          1   -1    0    0  501    0  0.00000000000E+00 -0.00000000000E+00 -0.10551127571E+04  0.10551127571E+04  0.00000000000E+00 0. -1.
         23    2    1    2    0    0  0.13399847932E+02  0.18815904850E+03 -0.39996646252E+02  0.21330058485E+03  0.91181271802E+02 0.  0.
        254    2    1    2    0    0 -0.13399847932E+02 -0.18815904850E+03 -0.69933288798E+03  0.11575953951E+04  0.90298240682E+03 0.  0.
        -24    2    4    4    0    0  0.28437031038E+03  0.58798625684E+02  0.55301970141E+02  0.30629413612E+03  0.80212456076E+02 0.  0.
         24    2    4    4    0    0 -0.29777015831E+03 -0.24695767418E+03 -0.75463485812E+03  0.85130125895E+03  0.74732217834E+02 0.  0.
         11    1    3    3    0    0 -0.43241915696E+01  0.90325208187E+02 -0.64285691807E+02  0.11095040351E+03  0.00000000000E+00 0. -1.
        -11    1    3    3    0    0  0.17724039501E+02  0.97833840313E+02  0.24289045555E+02  0.10235018134E+03  0.00000000000E+00 0.  1.
          4    1    6    6  502    0 -0.74080789747E+01  0.54142733818E+01 -0.14625865413E+02  0.17265860228E+02  0.00000000000E+00 0. -1.
          3    1    5    5  503    0  0.12845474651E+03  0.46127347315E+02  0.61588845759E+02  0.14973823824E+03  0.00000000000E+00 0. -1.
         -4    1    5    5    0  503  0.15591556388E+03  0.12671278369E+02 -0.62868756186E+01  0.15655589788E+03  0.00000000000E+00 0.  1.
         -3    1    6    6    0  502 -0.29036207934E+03 -0.25237194757E+03 -0.74000899271E+03  0.83403539872E+03  0.00000000000E+00 0.  1.
<mgrwt>
<rscale>  0 0.11544469E+04</rscale>
<asrwt>0</asrwt>
<pdfrwt beam="1">  1        1 0.16232504E+00 0.11544469E+04</pdfrwt>
<pdfrwt beam="2">  1       -1 0.48582035E-01 0.11544469E+04</pdfrwt>
<totfact> 0.57709306E+01</totfact>
</mgrwt>
</event>
<event>
12    1  0.1369141E-007  0.2860957E+04  0.7818608E-02  0.8284590E-01
         -1   -1    0    0    0  501 -0.00000000000E+00  0.00000000000E+00  0.96218737502E+03  0.96218737502E+03  0.00000000000E+00 0.  1.
          1   -1    0    0  501    0  0.00000000000E+00 -0.00000000000E+00 -0.21266841938E+04  0.21266841938E+04  0.00000000000E+00 0. -1.
         23    2    1    2    0    0  0.69321212716E+03 -0.50229511010E+03 -0.15642668790E+04  0.17853280110E+04  0.87302962024E+02 0.  0.
        254    2    1    2    0    0 -0.69321212716E+03  0.50229511010E+03  0.39977006018E+03  0.13035435579E+04  0.89809034923E+03 0.  0.
        -24    2    4    4    0    0 -0.42107154618E+03 -0.67555325795E+02 -0.15330179837E+03  0.46027012834E+03  0.80511990479E+02 0.  0.
         24    2    4    4    0    0 -0.27214058099E+03  0.56985043590E+03  0.55307185855E+03  0.84327342954E+03  0.80197139158E+02 0.  0.
         11    1    3    3    0    0  0.67559194268E+03 -0.48049384953E+03 -0.14781575608E+04  0.16947709542E+04  0.00000000000E+00 0. -1.
        -11    1    3    3    0    0  0.17620184487E+02 -0.21801260577E+02 -0.86109318132E+02  0.90557056784E+02  0.00000000000E+00 0.  1.
          4    1    6    6  502    0 -0.23309988618E+03  0.52384943706E+03  0.52205871909E+03  0.77543477857E+03  0.00000000000E+00 0. -1.
          3    1    5    5  503    0 -0.33752037370E+03 -0.50447178014E+02 -0.15534103993E+03  0.37496101013E+03  0.00000000000E+00 0. -1.
         -4    1    5    5    0  503 -0.83551172480E+02 -0.17108147781E+02  0.20392415564E+01  0.85309118208E+02  0.00000000000E+00 0.  1.
         -3    1    6    6    0  502 -0.39040694807E+02  0.46000998840E+02  0.31013139459E+02  0.67838650962E+02  0.00000000000E+00 0.  1.
<mgrwt>
<rscale>  0 0.28609570E+04</rscale>
<asrwt>0</asrwt>
<pdfrwt beam="1">  1        1 0.32718218E+00 0.28609570E+04</pdfrwt>
<pdfrwt beam="2">  1       -1 0.14802883E+00 0.28609570E+04</pdfrwt>
<totfact> 0.76092214E-01</totfact>
</mgrwt>
</event>
<event>
12    1  0.1097093E-007  0.1109648E+04  0.7818608E-02  0.9195839E-01
          2   -1    0    0  501    0  0.00000000000E+00  0.00000000000E+00  0.43419865799E+03  0.43419865799E+03  0.00000000000E+00 0. -1.
         -2   -1    0    0    0  501 -0.00000000000E+00 -0.00000000000E+00 -0.70896045323E+03  0.70896045323E+03  0.00000000000E+00 0.  1.
         23    2    1    2    0    0 -0.37309419713E+02 -0.10134798887E+03 -0.18350634852E+03  0.23168798777E+03  0.91330915258E+02 0.  0.
        254    2    1    2    0    0  0.37309419713E+02  0.10134798887E+03 -0.91255446714E+02  0.91147112346E+03  0.90043802935E+03 0.  0.
        -24    2    4    4    0    0 -0.30414577066E+03 -0.10178727331E+03  0.22274022533E+03  0.39911137737E+03  0.82531113825E+02 0.  0.
         24    2    4    4    0    0  0.34145519037E+03  0.20313526218E+03 -0.31399567204E+03  0.51235974608E+03  0.77869413574E+02 0.  0.
         13    1    3    3    0    0 -0.14866598161E+01 -0.50256280347E+02 -0.15726504960E+02  0.52680421695E+02  0.00000000000E+00 0. -1.
        -13    1    3    3    0    0 -0.35822759897E+02 -0.51091708521E+02 -0.16777984356E+03  0.17900756608E+03  0.00000000000E+00 0.  1.
          2    1    6    6  502    0  0.23521265964E+03  0.96699839010E+02 -0.20443136897E+03  0.32629440501E+03  0.00000000000E+00 0. -1.
          3    1    5    5  503    0 -0.26709759582E+02  0.92672878800E+01  0.35234947923E+01  0.28490505386E+02  0.00000000000E+00 0. -1.
         -4    1    5    5    0  503 -0.27743601108E+03 -0.11105456119E+03  0.21921673054E+03  0.37062087199E+03  0.00000000000E+00 0.  1.
         -3    1    6    6    0  502  0.10624253073E+03  0.10643542317E+03 -0.10956430307E+03  0.18606534107E+03  0.00000000000E+00 0.  1.
<mgrwt>
<rscale>  0 0.11096480E+04</rscale>
<asrwt>0</asrwt>
<pdfrwt beam="1">  1        2 0.66799794E-01 0.11096480E+04</pdfrwt>
<pdfrwt beam="2">  1       -2 0.10907084E+00 0.11096480E+04</pdfrwt>
<totfact> 0.48213099E+01</totfact>
</mgrwt>
</event>
<event>
12    1  0.1117593E-007  0.2034278E+04  0.7818608E-02  0.8590760E-01
          1   -1    0    0  501    0  0.00000000000E+00  0.00000000000E+00  0.11278660943E+04  0.11278660943E+04  0.00000000000E+00 0. -1.
         -1   -1    0    0    0  501 -0.00000000000E+00 -0.00000000000E+00 -0.91728203017E+03  0.91728203017E+03  0.00000000000E+00 0.  1.
         23    2    1    2    0    0 -0.64261585362E+02 -0.81177541693E+03  0.11095329694E+03  0.82717830152E+03  0.93831921644E+02 0.  0.
        254    2    1    2    0    0  0.64261585362E+02  0.81177541693E+03  0.99630767214E+02  0.12179698230E+04  0.90023070432E+03 0.  0.
        -24    2    4    4    0    0  0.64349761469E+02  0.42358125302E+03  0.49396287937E+03  0.65877149058E+03  0.80116046419E+02 0.  0.
         24    2    4    4    0    0 -0.88176107064E-01  0.38819416392E+03 -0.39433211216E+03  0.55919833239E+03  0.80686080583E+02 0.  0.
         13    1    3    3    0    0 -0.39191661221E+02 -0.37144939452E+03  0.97079291700E+02  0.38592101248E+03  0.00000000000E+00 0.  1.
        -13    1    3    3    0    0 -0.25069924141E+02 -0.44032602242E+03  0.13874005242E+02  0.44125728905E+03  0.00000000000E+00 0. -1.
          2    1    6    6  502    0  0.21312222066E+02  0.36124555317E+03 -0.36498803493E+03  0.51397356560E+03  0.00000000000E+00 0. -1.
          3    1    5    5  503    0  0.73420459627E+02  0.34519824534E+03  0.43561246371E+03  0.56063411510E+03  0.00000000000E+00 0. -1.
         -4    1    5    5    0  503 -0.90706981578E+01  0.78383007675E+02  0.58350415663E+02  0.98137375476E+02  0.00000000000E+00 0.  1.
         -1    1    6    6    0  502 -0.21400398174E+02  0.26948610745E+02 -0.29344077230E+02  0.45224766794E+02  0.00000000000E+00 0.  1.
<mgrwt>
<rscale>  0 0.20342776E+04</rscale>
<asrwt>0</asrwt>
<pdfrwt beam="1">  1        1 0.17351786E+00 0.20342776E+04</pdfrwt>
<pdfrwt beam="2">  1       -1 0.14112031E+00 0.20342776E+04</pdfrwt>
<totfact> 0.45877189E+00</totfact>
</mgrwt>
</event>
<event>
12    1  0.1097093E-007  0.1706527E+04  0.7818608E-02  0.8757651E-01
         -1   -1    0    0    0  501 -0.00000000000E+00  0.00000000000E+00  0.51126341270E+03  0.51126341270E+03  0.00000000000E+00 0.  1.
          1   -1    0    0  501    0  0.00000000000E+00 -0.00000000000E+00 -0.14240379806E+04  0.14240379806E+04  0.00000000000E+00 0. -1.
         23    2    1    2    0    0  0.44495051746E+03  0.12550377454E+03 -0.77700739257E+03  0.90875810603E+03  0.91480308052E+02 0.  0.
        254    2    1    2    0    0 -0.44495051746E+03 -0.12550377454E+03 -0.13576717532E+03  0.10265432873E+04  0.90643600674E+03 0.  0.
        -24    2    4    4    0    0  0.11258376920E+03 -0.11139015689E+03 -0.37444108356E+03  0.41420610420E+03  0.79231935220E+02 0.  0.
         24    2    4    4    0    0 -0.55753428666E+03 -0.14113617648E+02  0.23867390824E+03  0.61233718306E+03  0.83354161722E+02 0.  0.
         11    1    3    3    0    0  0.38733191467E+03  0.13373988778E+03 -0.71204250768E+03  0.82153326314E+03  0.00000000000E+00 0. -1.
        -11    1    3    3    0    0  0.57618602782E+02 -0.82361132424E+01 -0.64964884886E+02  0.87224842885E+02  0.00000000000E+00 0.  1.
          2    1    6    6  502    0 -0.36100649493E+02  0.75630876635E+01 -0.34055791475E+01  0.37041262912E+02  0.00000000000E+00 0. -1.
          1    1    5    5  503    0  0.70680796172E+02 -0.61762641638E+02 -0.12423674521E+03  0.15570859870E+03  0.00000000000E+00 0. -1.
         -2    1    5    5    0  503  0.41902973032E+02 -0.49627515251E+02 -0.25020433835E+03  0.25849750550E+03  0.00000000000E+00 0.  1.
         -1    1    6    6    0  502 -0.52143363717E+03 -0.21676705312E+02  0.24207948739E+03  0.57529592015E+03  0.00000000000E+00 0.  1.
<mgrwt>
<rscale>  0 0.17065269E+04</rscale>
<asrwt>0</asrwt>
<pdfrwt beam="1">  1        1 0.21908277E+00 0.17065269E+04</pdfrwt>
<pdfrwt beam="2">  1       -1 0.78655910E-01 0.17065269E+04</pdfrwt>
<totfact> 0.11366309E+01</totfact>
</mgrwt>
</event>
<event>
12    1  0.1097093E-007  0.1273041E+04  0.7818608E-02  0.9051221E-01
          2   -1    0    0  501    0  0.00000000000E+00  0.00000000000E+00  0.24931332312E+03  0.24931332312E+03  0.00000000000E+00 0. -1.
         -2   -1    0    0    0  501 -0.00000000000E+00 -0.00000000000E+00 -0.16250983302E+04  0.16250983302E+04  0.00000000000E+00 0.  1.
         23    2    1    2    0    0 -0.15700811873E+03 -0.91682500111E+01 -0.72766042219E+03  0.75001261868E+03  0.91069380223E+02 0.  0.
        254    2    1    2    0    0  0.15700811873E+03  0.91682500111E+01 -0.64812458491E+03  0.11243990347E+04  0.90524698587E+03 0.  0.
        -24    2    4    4    0    0 -0.33206390327E+03 -0.33861043282E+02 -0.49511182922E+02  0.34589708778E+03  0.76029152265E+02 0.  0.
         24    2    4    4    0    0  0.48907202201E+03  0.43029293293E+02 -0.59861340199E+03  0.77850194688E+03  0.81757650743E+02 0.  0.
         13    1    3    3    0    0  0.70942565811E+01  0.12028724767E+02 -0.97300955817E+02  0.98297989292E+02  0.00000000000E+00 0.  1.
        -13    1    3    3    0    0 -0.16410237532E+03 -0.21196974778E+02 -0.63035946637E+03  0.65171462939E+03  0.00000000000E+00 0. -1.
          2    1    6    6  502    0  0.11531432724E+03 -0.17871946619E+02 -0.11041382769E+03  0.16064872825E+03  0.00000000000E+00 0. -1.
          3    1    5    5  503    0 -0.25665138896E+03  0.16960235982E+01 -0.19927986626E+02  0.25742947889E+03  0.00000000000E+00 0. -1.
         -4    1    5    5    0  503 -0.75412514312E+02 -0.35557066880E+02 -0.29583196296E+02  0.88467608892E+02  0.00000000000E+00 0.  1.
         -1    1    6    6    0  502  0.37375769477E+03  0.60901239912E+02 -0.48819957430E+03  0.61785321863E+03  0.00000000000E+00 0.  1.
<mgrwt>
<rscale>  0 0.12730415E+04</rscale>
<asrwt>0</asrwt>
<pdfrwt beam="1">  1        2 0.38355897E-01 0.12730415E+04</pdfrwt>
<pdfrwt beam="2">  1       -2 0.25001512E+00 0.12730415E+04</pdfrwt>
<totfact> 0.85349633E+00</totfact>
</mgrwt>
</event>
<event>
12    1  0.1097093E-007  0.1245626E+04  0.7818608E-02  0.9073832E-01
          1   -1    0    0  501    0  0.00000000000E+00  0.00000000000E+00  0.10168644074E+04  0.10168644074E+04  0.00000000000E+00 0. -1.
         -1   -1    0    0    0  501 -0.00000000000E+00 -0.00000000000E+00 -0.38146273167E+03  0.38146273167E+03  0.00000000000E+00 0.  1.
         23    2    1    2    0    0  0.52336572686E+02 -0.25991722557E+03  0.26135359041E+03  0.38355238075E+03  0.92253176482E+02 0.  0.
        254    2    1    2    0    0 -0.52336572686E+02  0.25991722557E+03  0.37404808527E+03  0.10147747583E+04  0.90529539871E+03 0.  0.
        -24    2    4    4    0    0  0.46392278531E+02  0.14795691626E+02  0.63083396059E+03  0.63775967216E+03  0.80092181954E+02 0.  0.
         24    2    4    4    0    0 -0.98728851217E+02  0.24512153395E+03 -0.25678587531E+03  0.37701508610E+03  0.79808752150E+02 0.  0.
         13    1    3    3    0    0  0.34254792199E+02 -0.21736576253E+03  0.25510618518E+03  0.33689825055E+03  0.00000000000E+00 0. -1.
        -13    1    3    3    0    0  0.18081780486E+02 -0.42551463048E+02  0.62474052334E+01  0.46654130205E+02  0.00000000000E+00 0.  1.
          4    1    6    6  502    0 -0.13846596618E+02  0.19662880692E+02  0.11465470196E+01  0.24076371925E+02  0.00000000000E+00 0. -1.
          3    1    5    5  503    0  0.29018162274E+02  0.71248823706E+01  0.64257345546E+02  0.70864830115E+02  0.00000000000E+00 0. -1.
         -4    1    5    5    0  503  0.17374116257E+02  0.76708092555E+01  0.56657661504E+03  0.56689484205E+03  0.00000000000E+00 0.  1.
         -3    1    6    6    0  502 -0.84882254599E+02  0.22545865326E+03 -0.25793242233E+03  0.35293871418E+03  0.00000000000E+00 0.  1.
<mgrwt>
<rscale>  0 0.12456257E+04</rscale>
<asrwt>0</asrwt>
<pdfrwt beam="1">  1        1 0.15644068E+00 0.12456257E+04</pdfrwt>
<pdfrwt beam="2">  1       -1 0.58686575E-01 0.12456257E+04</pdfrwt>
<totfact> 0.42609467E+01</totfact>
</mgrwt>
</event>
<event>
12    1  0.1097093E-007  0.1791461E+04  0.7818608E-02  0.8710854E-01
         -1   -1    0    0    0  501 -0.00000000000E+00  0.00000000000E+00  0.20660191606E+04  0.20660191606E+04  0.00000000000E+00 0.  1.
          1   -1    0    0  501    0  0.00000000000E+00 -0.00000000000E+00 -0.38834741653E+03  0.38834741653E+03  0.00000000000E+00 0. -1.
         23    2    1    2    0    0  0.52747151960E+03  0.41305483620E+03  0.54215685629E+03  0.86721578761E+03  0.96377714028E+02 0.  0.
        254    2    1    2    0    0 -0.52747151960E+03 -0.41305483620E+03  0.11355148878E+04  0.15871507895E+04  0.88363627507E+03 0.  0.
        -24    2    4    4    0    0 -0.37346874749E+03  0.22219521105E+03  0.54983977297E+03  0.70532507791E+03  0.79435964281E+02 0.  0.
         24    2    4    4    0    0 -0.15400277211E+03 -0.63525004725E+03  0.58567511481E+03  0.88182571162E+03  0.85684124639E+02 0.  0.
         11    1    3    3    0    0  0.38555010856E+03  0.29006078735E+03  0.33367471836E+03  0.58661994873E+03  0.00000000000E+00 0.  1.
        -11    1    3    3    0    0  0.14192141104E+03  0.12299404884E+03  0.20848213793E+03  0.28059583888E+03  0.00000000000E+00 0. -1.
          2    1    6    6  502    0 -0.64014351559E+02 -0.42379311489E+03  0.40216737288E+03  0.58773891928E+03  0.00000000000E+00 0. -1.
          3    1    5    5  503    0 -0.29157322227E+03  0.13672369578E+03  0.37675756386E+03  0.49563552623E+03  0.00000000000E+00 0. -1.
         -4    1    5    5    0  503 -0.81895525215E+02  0.85471515268E+02  0.17308220911E+03  0.20968955168E+03  0.00000000000E+00 0.  1.
         -1    1    6    6    0  502 -0.89988420555E+02 -0.21145693236E+03  0.18350774194E+03  0.29408679234E+03  0.00000000000E+00 0.  1.
<mgrwt>
<rscale>  0 0.17914611E+04</rscale>
<asrwt>0</asrwt>
<pdfrwt beam="1">  1        1 0.59745758E-01 0.17914611E+04</pdfrwt>
<pdfrwt beam="2">  1       -1 0.31784910E+00 0.17914611E+04</pdfrwt>
<totfact> 0.14922325E+00</totfact>
</mgrwt>
</event>
<event>
12    1  0.1097093E-007  0.2793895E+04  0.7818608E-02  0.8305166E-01
          1   -1    0    0  501    0  0.00000000000E+00  0.00000000000E+00  0.31684515201E+04  0.31684515201E+04  0.00000000000E+00 0. -1.
         -1   -1    0    0    0  501 -0.00000000000E+00 -0.00000000000E+00 -0.61590427528E+03  0.61590427528E+03  0.00000000000E+00 0.  1.
         23    2    1    2    0    0  0.11049291228E+03 -0.44821121261E+03  0.27210501717E+04  0.27614377236E+04  0.91226585013E+02 0.  0.
        254    2    1    2    0    0 -0.11049291228E+03  0.44821121261E+03 -0.16850292690E+03  0.10229180717E+04  0.89714333877E+03 0.  0.
        -24    2    4    4    0    0 -0.11666006675E+03  0.54239755493E+03  0.22975512044E+03  0.60594083573E+03  0.81069120320E+02 0.  0.
         24    2    4    4    0    0  0.61671544627E+01 -0.94186342320E+02 -0.39825804733E+03  0.41697723599E+03  0.79695935883E+02 0.  0.
         11    1    3    3    0    0  0.11090094754E+03 -0.44744619741E+03  0.27216302123E+04  0.27603945610E+04  0.00000000000E+00 0. -1.
        -11    1    3    3    0    0 -0.40803525202E+00 -0.76501519809E+00 -0.58004066700E+00  0.10431625931E+01  0.00000000000E+00 0.  1.
          4    1    6    6  502    0 -0.29518578518E+02 -0.48867337221E+02 -0.12113181883E+03  0.13391146574E+03  0.00000000000E+00 0. -1.
          3    1    5    5  503    0 -0.26593539596E+02  0.25715574494E+03  0.75168185798E+02  0.26923326254E+03  0.00000000000E+00 0. -1.
         -4    1    5    5    0  503 -0.90066527151E+02  0.28524181000E+03  0.15458693464E+03  0.33670757319E+03  0.00000000000E+00 0.  1.
         -3    1    6    6    0  502  0.35685732980E+02 -0.45319005099E+02 -0.27712622850E+03  0.28306577025E+03  0.00000000000E+00 0.  1.
<mgrwt>
<rscale>  0 0.27938954E+04</rscale>
<asrwt>0</asrwt>
<pdfrwt beam="1">  1        1 0.48745407E+00 0.27938954E+04</pdfrwt>
<pdfrwt beam="2">  1       -1 0.94754506E-01 0.27938954E+04</pdfrwt>
<totfact> 0.41849387E-01</totfact>
</mgrwt>
</event>
<event>
12    1  0.1097093E-007  0.1933674E+04  0.7818608E-02  0.8638274E-01
         -1   -1    0    0    0  501 -0.00000000000E+00  0.00000000000E+00  0.14804368546E+04  0.14804368546E+04  0.00000000000E+00 0.  1.
          1   -1    0    0  501    0  0.00000000000E+00 -0.00000000000E+00 -0.63141764065E+03  0.63141764065E+03  0.00000000000E+00 0. -1.
         23    2    1    2    0    0  0.17425702645E+03 -0.22022631924E+03  0.11000262029E+04  0.11389747968E+04  0.91327968889E+02 0.  0.
        254    2    1    2    0    0 -0.17425702645E+03  0.22022631924E+03 -0.25100698888E+03  0.97287969844E+03  0.89700906139E+03 0.  0.
        -24    2    4    4    0    0  0.68775142032E+02  0.13385857868E+03  0.30794453666E+03  0.35231802048E+03  0.81547597444E+02 0.  0.
         24    2    4    4    0    0 -0.24303216848E+03  0.86367740561E+02 -0.55895152555E+03  0.62056167796E+03  0.78396216194E+02 0.  0.
         11    1    3    3    0    0  0.53280748237E+02 -0.48241463304E+02  0.15522991861E+03  0.17106257494E+03  0.00000000000E+00 0. -1.
        -11    1    3    3    0    0  0.12097627821E+03 -0.17198485593E+03  0.94479628426E+03  0.96791222191E+03  0.00000000000E+00 0.  1.
          4    1    6    6  502    0 -0.18574331800E+03  0.30710022673E+02 -0.36197434153E+03  0.40800626172E+03  0.00000000000E+00 0. -1.
          3    1    5    5  503    0  0.50067915982E+02  0.13757822414E+03  0.23461011933E+03  0.27654379772E+03  0.00000000000E+00 0. -1.
         -4    1    5    5    0  503  0.18707226050E+02 -0.37196454618E+01  0.73334417337E+02  0.75774222761E+02  0.00000000000E+00 0.  1.
         -3    1    6    6    0  502 -0.57288850474E+02  0.55657717888E+02 -0.19697718402E+03  0.21255541624E+03  0.00000000000E+00 0.  1.
<mgrwt>
<rscale>  0 0.19336742E+04</rscale>
<asrwt>0</asrwt>
<pdfrwt beam="1">  1        1 0.97141176E-01 0.19336742E+04</pdfrwt>
<pdfrwt beam="2">  1       -1 0.22775952E+00 0.19336742E+04</pdfrwt>
<totfact> 0.28967050E+00</totfact>
</mgrwt>
</event>
<event>
12    1  0.1097093E-007  0.4155465E+04  0.7818608E-02  0.7973898E-01
          2   -1    0    0  501    0  0.00000000000E+00  0.00000000000E+00  0.15699866786E+04  0.15699866786E+04  0.00000000000E+00 0. -1.
         -2   -1    0    0    0  501 -0.00000000000E+00 -0.00000000000E+00 -0.27496878532E+04  0.27496878532E+04  0.00000000000E+00 0.  1.
         23    2    1    2    0    0 -0.18688456478E+04  0.63068481746E+03 -0.38626450100E+03  0.20118446856E+04  0.89282585468E+02 0.  0.
        254    2    1    2    0    0  0.18688456478E+04 -0.63068481746E+03 -0.79343667363E+03  0.23078298462E+04  0.89788053195E+03 0.  0.
        -24    2    4    4    0    0  0.11513637223E+04 -0.65162456172E+03 -0.86437587126E+03  0.15822239353E+04  0.77678467082E+02 0.  0.
         24    2    4    4    0    0  0.71748192552E+03  0.20939744267E+02  0.70939197631E+02  0.72560591087E+03  0.79074533199E+02 0.  0.
         11    1    3    3    0    0 -0.16412705312E+04  0.54636888356E+03 -0.36748524589E+03  0.17684267922E+04  0.00000000000E+00 0. -1.
        -11    1    3    3    0    0 -0.22757511657E+03  0.84315933897E+02 -0.18779255103E+02  0.24341789337E+03  0.00000000000E+00 0.  1.
          4    1    6    6  502    0  0.18436234369E+03 -0.14858669826E+02 -0.98025178929E+01  0.18521971600E+03  0.00000000000E+00 0. -1.
          3    1    5    5  503    0  0.63145701365E+03 -0.34766482381E+03 -0.51586942433E+03  0.88641415420E+03  0.00000000000E+00 0. -1.
         -4    1    5    5    0  503  0.51990670860E+03 -0.30395973791E+03 -0.34850644694E+03  0.69580978110E+03  0.00000000000E+00 0.  1.
         -3    1    6    6    0  502  0.53311958183E+03  0.35798414093E+02  0.80741715523E+02  0.54038619487E+03  0.00000000000E+00 0.  1.
<mgrwt>
<rscale>  0 0.41554655E+04</rscale>
<asrwt>0</asrwt>
<pdfrwt beam="1">  1        2 0.24153641E+00 0.41554655E+04</pdfrwt>
<pdfrwt beam="2">  1       -2 0.42302890E+00 0.41554655E+04</pdfrwt>
<totfact> 0.47281304E-02</totfact>
</mgrwt>
</event>
<event>
12    1  0.1097093E-007  0.3297725E+04  0.7818608E-02  0.8163474E-01
          1   -1    0    0  501    0  0.00000000000E+00  0.00000000000E+00  0.27728190516E+04  0.27728190516E+04  0.00000000000E+00 0. -1.
         -1   -1    0    0    0  501 -0.00000000000E+00 -0.00000000000E+00 -0.98049946738E+03  0.98049946738E+03  0.00000000000E+00 0.  1.
         23    2    1    2    0    0 -0.85749329312E+03  0.10329864966E+04  0.16522069416E+04  0.21310560884E+04  0.96210310790E+02 0.  0.
        254    2    1    2    0    0  0.85749329312E+03 -0.10329864966E+04  0.14011264258E+03  0.16222624306E+04  0.89985998415E+03 0.  0.
        -24    2    4    4    0    0  0.74593178148E+03 -0.11715321725E+04  0.22496203705E+03  0.14092806518E+04  0.81007305941E+02 0.  0.
         24    2    4    4    0    0  0.11156151164E+03  0.13854567588E+03 -0.84849394475E+02  0.21298177876E+03  0.80752356952E+02 0.  0.
         11    1    3    3    0    0 -0.70611561765E+03  0.79001600965E+03  0.12897754467E+04  0.16692049796E+04  0.00000000000E+00 0. -1.
        -11    1    3    3    0    0 -0.15137767547E+03  0.24297048698E+03  0.36243149485E+03  0.46185110873E+03  0.00000000000E+00 0.  1.
          4    1    6    6  502    0  0.47823233219E+02  0.59482859108E+02 -0.81086643742E+02  0.11135670593E+03  0.00000000000E+00 0. -1.
          1    1    5    5  503    0  0.47045400858E+03 -0.80937501298E+03  0.14817552089E+03  0.94782428266E+03  0.00000000000E+00 0. -1.
         -2    1    5    5    0  503  0.27547777291E+03 -0.36215715954E+03  0.76786516163E+02  0.46145636916E+03  0.00000000000E+00 0.  1.
         -3    1    6    6    0  502  0.63738278421E+02  0.79062816777E+02 -0.37627507328E+01  0.10162507282E+03  0.00000000000E+00 0.  1.
<mgrwt>
<rscale>  0 0.32977250E+04</rscale>
<asrwt>0</asrwt>
<pdfrwt beam="1">  1        1 0.42658754E+00 0.32977250E+04</pdfrwt>
<pdfrwt beam="2">  1       -1 0.15084607E+00 0.32977250E+04</pdfrwt>
<totfact> 0.24833108E-01</totfact>
</mgrwt>
</event>
<event>
12    1  0.1097093E-007  0.1788609E+04  0.7818608E-02  0.8712380E-01
          1   -1    0    0  501    0  0.00000000000E+00  0.00000000000E+00  0.14385525910E+04  0.14385525910E+04  0.00000000000E+00 0. -1.
         -1   -1    0    0    0  501 -0.00000000000E+00 -0.00000000000E+00 -0.55596226059E+03  0.55596226059E+03  0.00000000000E+00 0.  1.
         23    2    1    2    0    0  0.59538030915E+03 -0.28411796393E+03  0.42001495733E+03  0.78755435680E+03  0.92890099527E+02 0.  0.
        254    2    1    2    0    0 -0.59538030915E+03  0.28411796393E+03  0.46257537304E+03  0.12069604947E+04  0.89865284187E+03 0.  0.
        -24    2    4    4    0    0  0.17358782790E+03  0.28385025671E+03  0.14471092629E+03  0.37108045313E+03  0.77818688444E+02 0.  0.
         24    2    4    4    0    0 -0.76896813705E+03  0.26770721410E+00  0.31786444674E+03  0.83588004162E+03  0.79659086189E+02 0.  0.
         13    1    3    3    0    0  0.79677915332E+02 -0.53393085256E+02  0.28033677458E+02  0.99926366974E+02  0.00000000000E+00 0. -1.
        -13    1    3    3    0    0  0.51570239382E+03 -0.23072487867E+03  0.39198127987E+03  0.68762798983E+03  0.00000000000E+00 0.  1.
          2    1    6    6  502    0 -0.48533671948E+03 -0.16468329847E+02  0.16269613404E+03  0.51214545707E+03  0.00000000000E+00 0. -1.
          3    1    5    5  503    0  0.17268841024E+03  0.27820814671E+03  0.12489377799E+03  0.35045615376E+03  0.00000000000E+00 0. -1.
         -4    1    5    5    0  503  0.89941766095E+00  0.56421100069E+01  0.19817148308E+02  0.20624299370E+02  0.00000000000E+00 0.  1.
         -1    1    6    6    0  502 -0.28363141757E+03  0.16736037061E+02  0.15516831270E+03  0.32373458455E+03  0.00000000000E+00 0.  1.
<mgrwt>
<rscale>  0 0.17886095E+04</rscale>
<asrwt>0</asrwt>
<pdfrwt beam="1">  1        1 0.22131578E+00 0.17886095E+04</pdfrwt>
<pdfrwt beam="2">  1       -1 0.85532656E-01 0.17886095E+04</pdfrwt>
<totfact> 0.92093220E+00</totfact>
</mgrwt>
</event>
<event>
12    1  0.1097093E-007  0.1233414E+04  0.7818608E-02  0.9084101E-01
         -2   -1    0    0    0  501 -0.00000000000E+00  0.00000000000E+00  0.42516738396E+03  0.42516738396E+03  0.00000000000E+00 0.  1.
          2   -1    0    0  501    0  0.00000000000E+00 -0.00000000000E+00 -0.89453651281E+03  0.89453651281E+03  0.00000000000E+00 0. -1.
         23    2    1    2    0    0 -0.38819686025E+02 -0.17729487876E+03 -0.34248082924E+03  0.39821809249E+03  0.91345983664E+02 0.  0.
        254    2    1    2    0    0  0.38819686025E+02  0.17729487876E+03 -0.12688829962E+03  0.92148580428E+03  0.89448029875E+03 0.  0.
        -24    2    4    4    0    0  0.13492784245E+03  0.44252767814E+03 -0.32159091263E+03  0.56944487213E+03  0.82525624610E+02 0.  0.
         24    2    4    4    0    0 -0.96108156425E+02 -0.26523279938E+03  0.19470261302E+03  0.35204093215E+03  0.80240231770E+02 0.  0.
         13    1    3    3    0    0 -0.60172002896E+02 -0.16572020414E+03 -0.27668894189E+03  0.32808630961E+03  0.00000000000E+00 0. -1.
        -13    1    3    3    0    0  0.21352316871E+02 -0.11574674627E+02 -0.65791887351E+02  0.70131782879E+02  0.00000000000E+00 0.  1.
          2    1    6    6  502    0 -0.51053345887E+02 -0.47271648356E+02  0.33477033908E+02  0.77212464433E+02  0.00000000000E+00 0. -1.
          3    1    5    5  503    0  0.34864391491E+02  0.45521420739E+02 -0.63051841441E+02  0.85224763122E+02  0.00000000000E+00 0. -1.
         -4    1    5    5    0  503  0.10006345096E+03  0.39700625740E+03 -0.25853907119E+03  0.48422010901E+03  0.00000000000E+00 0.  1.
         -1    1    6    6    0  502 -0.45054810538E+02 -0.21796115102E+03  0.16122557911E+03  0.27482846771E+03  0.00000000000E+00 0.  1.
<mgrwt>
<rscale>  0 0.12334144E+04</rscale>
<asrwt>0</asrwt>
<pdfrwt beam="1">  1        2 0.13762100E+00 0.12334144E+04</pdfrwt>
<pdfrwt beam="2">  1       -2 0.65410368E-01 0.12334144E+04</pdfrwt>
<totfact> 0.62730501E+01</totfact>
</mgrwt>
</event>
<event>
12    1  0.1097093E-007  0.2687989E+04  0.7818608E-02  0.8338913E-01
          2   -1    0    0  501    0  0.00000000000E+00  0.00000000000E+00  0.18188171985E+04  0.18188171985E+04  0.00000000000E+00 0. -1.
         -2   -1    0    0    0  501 -0.00000000000E+00 -0.00000000000E+00 -0.99312948098E+03  0.99312948098E+03  0.00000000000E+00 0.  1.
         23    2    1    2    0    0 -0.11935602537E+04  0.34267270032E+02  0.40616837574E+03  0.12646751732E+04  0.93114011383E+02 0.  0.
        254    2    1    2    0    0  0.11935602537E+04 -0.34267270032E+02  0.41951934182E+03  0.15472715064E+04  0.89010803340E+03 0.  0.
        -24    2    4    4    0    0  0.12151045306E+04  0.12619061042E+03  0.53177910867E+03  0.13347318519E+04  0.79479591720E+02 0.  0.
         24    2    4    4    0    0 -0.21544276878E+02 -0.16045788045E+03 -0.11225976686E+03  0.21253965449E+03  0.79749371224E+02 0.  0.
         11    1    3    3    0    0 -0.10359297420E+04  0.39659477321E+02  0.32002159934E+03  0.10849595055E+04  0.00000000000E+00 0. -1.
        -11    1    3    3    0    0 -0.15763051169E+03 -0.53922072890E+01  0.86146776401E+02  0.17971566765E+03  0.00000000000E+00 0.  1.
          2    1    6    6  502    0 -0.12850156332E+02  0.53279045997E+01 -0.13427795546E+02  0.19334393666E+02  0.00000000000E+00 0. -1.
          3    1    5    5  503    0  0.82721308945E+03  0.53465359151E+02  0.34010163769E+03  0.89599618523E+03  0.00000000000E+00 0. -1.
         -4    1    5    5    0  503  0.38789144116E+03  0.72725251264E+02  0.19167747099E+03  0.43873566664E+03  0.00000000000E+00 0.  1.
         -1    1    6    6    0  502 -0.86941205462E+01 -0.16578578505E+03 -0.98831971309E+02  0.19320526082E+03  0.00000000000E+00 0.  1.
<mgrwt>
<rscale>  0 0.26879888E+04</rscale>
<asrwt>0</asrwt>
<pdfrwt beam="1">  1        2 0.27981803E+00 0.26879888E+04</pdfrwt>
<pdfrwt beam="2">  1       -2 0.15278915E+00 0.26879888E+04</pdfrwt>
<totfact> 0.21106179E+00</totfact>
</mgrwt>
</event>
<event>
12    1  0.1097093E-007  0.1305680E+04  0.7818608E-02  0.9025073E-01
         -1   -1    0    0    0  501 -0.00000000000E+00  0.00000000000E+00  0.23355488558E+03  0.23355488558E+03  0.00000000000E+00 0.  1.
          1   -1    0    0  501    0  0.00000000000E+00 -0.00000000000E+00 -0.18248398039E+04  0.18248398039E+04  0.00000000000E+00 0. -1.
         23    2    1    2    0    0  0.18693628734E+03  0.17678024241E+03 -0.79714329540E+03  0.84262051911E+03  0.91517627701E+02 0.  0.
        254    2    1    2    0    0 -0.18693628734E+03 -0.17678024241E+03 -0.79414162289E+03  0.12157741703E+04  0.88388318596E+03 0.  0.
        -24    2    4    4    0    0 -0.17464337836E+03 -0.65403224217E+02  0.15601294973E+03  0.25605940739E+03  0.80302479955E+02 0.  0.
         24    2    4    4    0    0 -0.12292908980E+02 -0.11137701820E+03 -0.95015457261E+03  0.95971476295E+03  0.75516611251E+02 0.  0.
         11    1    3    3    0    0  0.63988896843E+02  0.51361712588E+02 -0.13866861028E+03  0.16112600013E+03  0.00000000000E+00 0. -1.
        -11    1    3    3    0    0  0.12294739049E+03  0.12541852982E+03 -0.65847468512E+03  0.68149451898E+03  0.00000000000E+00 0.  1.
          4    1    6    6  502    0  0.23283689521E+02 -0.58382331815E+02 -0.63881000149E+03  0.64189473037E+03  0.00000000000E+00 0. -1.
          3    1    5    5  503    0 -0.74599107654E+02 -0.12592452632E+02  0.18295865248E+02  0.77835309540E+02  0.00000000000E+00 0. -1.
         -4    1    5    5    0  503 -0.10004427070E+03 -0.52810771585E+02  0.13771708448E+03  0.17822409785E+03  0.00000000000E+00 0.  1.
         -3    1    6    6    0  502 -0.35576598500E+02 -0.52994686381E+02 -0.31134457112E+03  0.31782003259E+03  0.00000000000E+00 0.  1.
<mgrwt>
<rscale>  0 0.13056803E+04</rscale>
<asrwt>0</asrwt>
<pdfrwt beam="1">  1        1 0.28074460E+00 0.13056803E+04</pdfrwt>
<pdfrwt beam="2">  1       -1 0.35931520E-01 0.13056803E+04</pdfrwt>
<totfact> 0.28501617E+01</totfact>
</mgrwt>
</event>
<event>
12    1  0.1097093E-007  0.1777870E+04  0.7818608E-02  0.8718157E-01
         -1   -1    0    0    0  501 -0.00000000000E+00  0.00000000000E+00  0.53308373276E+03  0.53308373276E+03  0.00000000000E+00 0.  1.
          1   -1    0    0  501    0  0.00000000000E+00 -0.00000000000E+00 -0.14823285168E+04  0.14823285168E+04  0.00000000000E+00 0. -1.
         23    2    1    2    0    0  0.14268580501E+03  0.60832737130E+03 -0.59640781016E+03  0.86861029456E+03  0.91433791243E+02 0.  0.
        254    2    1    2    0    0 -0.14268580501E+03 -0.60832737130E+03 -0.35283697383E+03  0.11468019550E+04  0.89456098963E+03 0.  0.
        -24    2    4    4    0    0 -0.62780946025E+02  0.17622493161E+02  0.24999472413E+03  0.27045418283E+03  0.79975642965E+02 0.  0.
         24    2    4    4    0    0 -0.79904858982E+02 -0.62594986446E+03 -0.60283169797E+03  0.87634777212E+03  0.79883304401E+02 0.  0.
         13    1    3    3    0    0  0.55069763654E+02  0.17111246297E+03 -0.22706705939E+03  0.28960594488E+03  0.00000000000E+00 0.  1.
        -13    1    3    3    0    0  0.87616041353E+02  0.43721490834E+03 -0.36934075077E+03  0.57900434968E+03  0.00000000000E+00 0. -1.
          2    1    6    6  502    0 -0.58615541829E+01 -0.38857854292E+02 -0.68939119024E+02  0.79352963331E+02  0.00000000000E+00 0. -1.
          3    1    5    5  503    0  0.18722077492E+02 -0.34673867786E+00  0.61998364283E+02  0.64764446937E+02  0.00000000000E+00 0. -1.
         -4    1    5    5    0  503 -0.81503023517E+02  0.17969231839E+02  0.18799635985E+03  0.20568973590E+03  0.00000000000E+00 0.  1.
         -1    1    6    6    0  502 -0.74043304799E+02 -0.58709201017E+03 -0.53389257895E+03  0.79699480879E+03  0.00000000000E+00 0.  1.
<mgrwt>
<rscale>  0 0.17778698E+04</rscale>
<asrwt>0</asrwt>
<pdfrwt beam="1">  1        1 0.22805054E+00 0.17778698E+04</pdfrwt>
<pdfrwt beam="2">  1       -1 0.82012882E-01 0.17778698E+04</pdfrwt>
<totfact> 0.94091509E+00</totfact>
</mgrwt>
</event>
<event>
12    1  0.1097093E-007  0.2750654E+04  0.7818608E-02  0.8318754E-01
          2   -1    0    0  501    0  0.00000000000E+00  0.00000000000E+00  0.12119901463E+04  0.12119901463E+04  0.00000000000E+00 0. -1.
         -2   -1    0    0    0  501 -0.00000000000E+00 -0.00000000000E+00 -0.15606758331E+04  0.15606758331E+04  0.00000000000E+00 0.  1.
         23    2    1    2    0    0 -0.61574295848E+03  0.49947417413E+03 -0.10958184497E+04  0.13556320609E+04  0.91139280207E+02 0.  0.
        254    2    1    2    0    0  0.61574295848E+03 -0.49947417413E+03  0.74713276290E+03  0.14170339185E+04  0.90618095286E+03 0.  0.
        -24    2    4    4    0    0  0.52365990325E+03  0.14189687204E+03  0.29798791794E+03  0.62457901895E+03  0.83353074993E+02 0.  0.
         24    2    4    4    0    0  0.92083055237E+02 -0.64137104617E+03  0.44914484496E+03  0.79245489958E+03  0.80109725909E+02 0.  0.
         13    1    3    3    0    0 -0.61532907123E+03  0.48585161209E+03 -0.10707352364E+04  0.13270853783E+04  0.00000000000E+00 0.  1.
        -13    1    3    3    0    0 -0.41388725237E+00  0.13622562044E+02 -0.25083213315E+02  0.28546682635E+02  0.00000000000E+00 0. -1.
          2    1    6    6  502    0  0.11880061748E+02 -0.35557110317E+03  0.25620900051E+03  0.43842330826E+03  0.00000000000E+00 0. -1.
          1    1    5    5  503    0  0.43568437630E+03  0.14771608006E+03  0.26138431081E+03  0.52911499128E+03  0.00000000000E+00 0. -1.
         -4    1    5    5    0  503  0.87975526950E+02 -0.58192080253E+01  0.36603607133E+02  0.95464027672E+02  0.00000000000E+00 0.  1.
         -1    1    6    6    0  502  0.80202993489E+02 -0.28579994300E+03  0.19293584445E+03  0.35403159133E+03  0.00000000000E+00 0.  1.
<mgrwt>
<rscale>  0 0.27506535E+04</rscale>
<asrwt>0</asrwt>
<pdfrwt beam="1">  1        2 0.18646002E+00 0.27506535E+04</pdfrwt>
<pdfrwt beam="2">  1       -2 0.24010398E+00 0.27506535E+04</pdfrwt>
<totfact> 0.12039433E+00</totfact>
</mgrwt>
</event>
<event>
12    1  0.1097093E-007  0.2677750E+04  0.7818608E-02  0.8342261E-01
         -2   -1    0    0    0  501 -0.00000000000E+00  0.00000000000E+00  0.11631299796E+04  0.11631299796E+04  0.00000000000E+00 0.  1.
          2   -1    0    0  501    0  0.00000000000E+00 -0.00000000000E+00 -0.15411739311E+04  0.15411739311E+04  0.00000000000E+00 0. -1.
         23    2    1    2    0    0 -0.34494532962E+03 -0.96234621011E+03  0.42645717169E+03  0.11114886838E+04  0.91890512605E+02 0.  0.
        254    2    1    2    0    0  0.34494532962E+03  0.96234621011E+03 -0.80450112323E+03  0.15928152269E+04  0.91909780826E+03 0.  0.
        -24    2    4    4    0    0 -0.64199105605E+01  0.98595561717E+03 -0.71558819617E+03  0.12209280678E+04  0.80306824645E+02 0.  0.
         24    2    4    4    0    0  0.35136524018E+03 -0.23609407052E+02 -0.88912927058E+02  0.37188715903E+03  0.79872488018E+02 0.  0.
         13    1    3    3    0    0 -0.26613414205E+02 -0.10454472322E+03  0.17501418323E+02  0.10928939844E+03  0.00000000000E+00 0.  1.
        -13    1    3    3    0    0 -0.31833191542E+03 -0.85780148690E+03  0.40895575337E+03  0.10021992853E+04  0.00000000000E+00 0. -1.
          2    1    6    6  502    0  0.10040573679E+03  0.28100078907E+02 -0.35552259886E+02  0.11015847492E+03  0.00000000000E+00 0. -1.
          3    1    5    5  503    0  0.35505663812E+01  0.13448555182E+03 -0.65600639687E+02  0.14967436019E+03  0.00000000000E+00 0. -1.
         -4    1    5    5    0  503 -0.99704769418E+01  0.85147006534E+03 -0.64998755649E+03  0.10712537077E+04  0.00000000000E+00 0.  1.
         -1    1    6    6    0  502  0.25095950340E+03 -0.51709485958E+02 -0.53360667171E+02  0.26172868411E+03  0.00000000000E+00 0.  1.
<mgrwt>
<rscale>  0 0.26777495E+04</rscale>
<asrwt>0</asrwt>
<pdfrwt beam="1">  1        2 0.23710368E+00 0.26777495E+04</pdfrwt>
<pdfrwt beam="2">  1       -2 0.17894307E+00 0.26777495E+04</pdfrwt>
<totfact> 0.19505595E+00</totfact>
</mgrwt>
</event>
<event>
12    1  0.1097093E-007  0.1635777E+04  0.7818608E-02  0.8798865E-01
         -2   -1    0    0    0  501 -0.00000000000E+00  0.00000000000E+00  0.34271681571E+03  0.34271681571E+03  0.00000000000E+00 0.  1.
          2   -1    0    0  501    0  0.00000000000E+00 -0.00000000000E+00 -0.19518780391E+04  0.19518780391E+04  0.00000000000E+00 0. -1.
         23    2    1    2    0    0 -0.14402181328E+02 -0.51513331289E+03 -0.23461281144E+03  0.57370732352E+03  0.92342671047E+02 0.  0.
        254    2    1    2    0    0  0.14402181328E+02  0.51513331289E+03 -0.13745484120E+04  0.17208875313E+04  0.89805389907E+03 0.  0.
        -24    2    4    4    0    0 -0.42632508284E+03  0.27399587536E+03 -0.83250480553E+03  0.97773360980E+03  0.77922683095E+02 0.  0.
         24    2    4    4    0    0  0.44072726416E+03  0.24113743753E+03 -0.54204360644E+03  0.74315392149E+03  0.77965983523E+02 0.  0.
         11    1    3    3    0    0  0.17560159959E+02 -0.35844102250E+03 -0.19715089384E+03  0.40945915642E+03  0.00000000000E+00 0.  1.
        -11    1    3    3    0    0 -0.31962341287E+02 -0.15669229039E+03 -0.37461917593E+02  0.16424816711E+03  0.00000000000E+00 0. -1.
          4    1    6    6  502    0  0.43616842239E+03  0.24194016686E+03 -0.54407163101E+03  0.73810018067E+03  0.00000000000E+00 0. -1.
          1    1    5    5  503    0 -0.34267605244E+03  0.21711205613E+03 -0.60104751190E+03  0.72513628608E+03  0.00000000000E+00 0. -1.
         -2    1    5    5    0  503 -0.83649030390E+02  0.56883819235E+02 -0.23145729363E+03  0.25259732372E+03  0.00000000000E+00 0.  1.
         -3    1    6    6    0  502  0.45588417700E+01 -0.80272932893E+00  0.20280245672E+01  0.50537408228E+01  0.00000000000E+00 0.  1.
<mgrwt>
<rscale>  0 0.16357768E+04</rscale>
<asrwt>0</asrwt>
<pdfrwt beam="1">  1        2 0.30028892E+00 0.16357768E+04</pdfrwt>
<pdfrwt beam="2">  1       -2 0.52725666E-01 0.16357768E+04</pdfrwt>
<totfact> 0.23062018E+01</totfact>
</mgrwt>
</event>
<event>
12    1  0.1097093E-007  0.1570978E+04  0.7818608E-02  0.8838578E-01
          2   -1    0    0  501    0  0.00000000000E+00  0.00000000000E+00  0.10018853059E+04  0.10018853059E+04  0.00000000000E+00 0. -1.
         -2   -1    0    0    0  501 -0.00000000000E+00 -0.00000000000E+00 -0.61583203325E+03  0.61583203325E+03  0.00000000000E+00 0.  1.
         23    2    1    2    0    0  0.10784491068E+03 -0.26212667645E+03 -0.33406077972E+03  0.44771690755E+03  0.92265407894E+02 0.  0.
        254    2    1    2    0    0 -0.10784491068E+03  0.26212667645E+03  0.72011405237E+03  0.11700004316E+04  0.87749406965E+03 0.  0.
        -24    2    4    4    0    0  0.31881232675E+03  0.15965669687E+03  0.60928048864E+03  0.71034121036E+03  0.78932634351E+02 0.  0.
         24    2    4    4    0    0 -0.42665723743E+03  0.10246997958E+03  0.11083356374E+03  0.45965922124E+03  0.80411602762E+02 0.  0.
         11    1    3    3    0    0  0.54379250488E+02 -0.21738549102E+03 -0.21993818850E+03  0.31398465146E+03  0.00000000000E+00 0.  1.
        -11    1    3    3    0    0  0.53465660193E+02 -0.44741185429E+02 -0.11412259121E+03  0.13373225609E+03  0.00000000000E+00 0. -1.
          4    1    6    6  502    0 -0.35117232899E+03  0.10913244405E+03  0.11013701889E+03  0.38387766010E+03  0.00000000000E+00 0. -1.
          1    1    5    5  503    0  0.19079971926E+03  0.61959250464E+02  0.28825122503E+03  0.35118691650E+03  0.00000000000E+00 0. -1.
         -2    1    5    5    0  503  0.12801260748E+03  0.97697446404E+02  0.32102926361E+03  0.35915429386E+03  0.00000000000E+00 0.  1.
         -1    1    6    6    0  502 -0.75484908439E+02 -0.66624644709E+01  0.69654484511E+00  0.75781561145E+02  0.00000000000E+00 0.  1.
<mgrwt>
<rscale>  0 0.15709781E+04</rscale>
<asrwt>0</asrwt>
<pdfrwt beam="1">  1        2 0.15413620E+00 0.15709781E+04</pdfrwt>
<pdfrwt beam="2">  1       -2 0.94743390E-01 0.15709781E+04</pdfrwt>
<totfact> 0.22646205E+01</totfact>
</mgrwt>
</event>
<event>
12    1  0.1097093E-007  0.1772664E+04  0.7818608E-02  0.8720973E-01
          2   -1    0    0  501    0  0.00000000000E+00  0.00000000000E+00  0.12145989153E+04  0.12145989153E+04  0.00000000000E+00 0. -1.
         -2   -1    0    0    0  501 -0.00000000000E+00 -0.00000000000E+00 -0.64678538800E+03  0.64678538800E+03  0.00000000000E+00 0.  1.
         23    2    1    2    0    0  0.11275009593E+03  0.25669979977E+03 -0.40762241429E+03  0.50304131686E+03  0.91033853638E+02 0.  0.
        254    2    1    2    0    0 -0.11275009593E+03 -0.25669979977E+03  0.97543594163E+03  0.13583429865E+04  0.90278071609E+03 0.  0.
        -24    2    4    4    0    0  0.15956953866E+03 -0.48430183594E+03  0.31566879918E+03  0.60490625169E+03  0.79082719923E+02 0.  0.
         24    2    4    4    0    0 -0.27231963459E+03  0.22760203617E+03  0.65976714245E+03  0.75343673479E+03  0.80084710254E+02 0.  0.
         11    1    3    3    0    0  0.10350962517E+03  0.17192823696E+03 -0.22501835252E+03  0.30150757891E+03  0.00000000000E+00 0. -1.
        -11    1    3    3    0    0  0.92404707622E+01  0.84771562806E+02 -0.18260406177E+03  0.20153373795E+03  0.00000000000E+00 0.  1.
          2    1    6    6  502    0 -0.22981900398E+03  0.15862374908E+03  0.46372875302E+03  0.54131564243E+03  0.00000000000E+00 0. -1.
          1    1    5    5  503    0  0.13913434662E+03 -0.47201422658E+03  0.30313774928E+03  0.57796910951E+03  0.00000000000E+00 0. -1.
         -2    1    5    5    0  503  0.20435192034E+02 -0.12287609361E+02  0.12531049898E+02  0.26937142180E+02  0.00000000000E+00 0.  1.
         -1    1    6    6    0  502 -0.42500630614E+02  0.68978287093E+02  0.19603838943E+03  0.21212109236E+03  0.00000000000E+00 0.  1.
<mgrwt>
<rscale>  0 0.17726645E+04</rscale>
<asrwt>0</asrwt>
<pdfrwt beam="1">  1        2 0.18686137E+00 0.17726645E+04</pdfrwt>
<pdfrwt beam="2">  1       -2 0.99505444E-01 0.17726645E+04</pdfrwt>
<totfact> 0.14682016E+01</totfact>
</mgrwt>
</event>
<event>
12    1  0.1097093E-007  0.2028127E+04  0.7818608E-02  0.8593582E-01
         -1   -1    0    0    0  501 -0.00000000000E+00  0.00000000000E+00  0.60158611341E+03  0.60158611341E+03  0.00000000000E+00 0.  1.
          1   -1    0    0  501    0  0.00000000000E+00 -0.00000000000E+00 -0.17093557118E+04  0.17093557118E+04  0.00000000000E+00 0. -1.
         23    2    1    2    0    0  0.26693693174E+03 -0.30940336692E+03  0.35365688448E+03  0.54772964994E+03  0.89156090611E+02 0.  0.
        254    2    1    2    0    0 -0.26693693174E+03  0.30940336692E+03 -0.14614264828E+04  0.17632121753E+04  0.89786638271E+03 0.  0.
        -24    2    4    4    0    0 -0.33198161233E+03  0.29986613875E+03 -0.19820108030E+03  0.49579922813E+03  0.80010713594E+02 0.  0.
         24    2    4    4    0    0  0.65044680586E+02  0.95372281758E+01 -0.12632254025E+04  0.12674129471E+04  0.79217369962E+02 0.  0.
         13    1    3    3    0    0  0.19901634324E+03 -0.28037408616E+03  0.27998457656E+03  0.44340556624E+03  0.00000000000E+00 0. -1.
        -13    1    3    3    0    0  0.67920588505E+02 -0.29029280759E+02  0.73672307920E+02  0.10432408369E+03  0.00000000000E+00 0.  1.
          4    1    6    6  502    0  0.11052836890E+02 -0.19099908960E+02 -0.78342695567E+03  0.78373768991E+03  0.00000000000E+00 0. -1.
          3    1    5    5  503    0 -0.32885479109E+03  0.27323836556E+03 -0.18411979046E+03  0.46551560154E+03  0.00000000000E+00 0. -1.
         -4    1    5    5    0  503 -0.31268212392E+01  0.26627773184E+02 -0.14081289844E+02  0.30283626591E+02  0.00000000000E+00 0.  1.
         -3    1    6    6    0  502  0.53991843696E+02  0.28637137135E+02 -0.47979844688E+03  0.48367525721E+03  0.00000000000E+00 0.  1.
<mgrwt>
<rscale>  0 0.20281269E+04</rscale>
<asrwt>0</asrwt>
<pdfrwt beam="1">  1        1 0.26297780E+00 0.20281269E+04</pdfrwt>
<pdfrwt beam="2">  1       -1 0.92551711E-01 0.20281269E+04</pdfrwt>
<totfact> 0.49333603E+00</totfact>
</mgrwt>
</event>
<event>
12    1  0.1097093E-007  0.1168578E+04  0.7818608E-02  0.9140814E-01
         -2   -1    0    0    0  501 -0.00000000000E+00  0.00000000000E+00  0.12319867951E+04  0.12319867951E+04  0.00000000000E+00 0.  1.
          2   -1    0    0  501    0  0.00000000000E+00 -0.00000000000E+00 -0.27710803186E+03  0.27710803186E+03  0.00000000000E+00 0. -1.
         23    2    1    2    0    0 -0.10077697021E+03 -0.14266974155E+03  0.34565459398E+03  0.39745046909E+03  0.89325943388E+02 0.  0.
        254    2    1    2    0    0  0.10077697021E+03  0.14266974155E+03  0.60922416930E+03  0.11116443579E+04  0.91328442292E+03 0.  0.
        -24    2    4    4    0    0  0.37648694430E+03 -0.23641238919E+03  0.25523532211E+03  0.51856964346E+03  0.78333699474E+02 0.  0.
         24    2    4    4    0    0 -0.27570997410E+03  0.37908213074E+03  0.35398884719E+03  0.59307471445E+03  0.81916184740E+02 0.  0.
         13    1    3    3    0    0  0.87882473094E+01  0.36692301353E+01  0.47948470537E+01  0.10662415244E+02  0.00000000000E+00 0. -1.
        -13    1    3    3    0    0 -0.10956521752E+03 -0.14633897169E+03  0.34085974693E+03  0.38678805385E+03  0.00000000000E+00 0.  1.
          2    1    6    6  502    0 -0.26584291097E+02  0.56048571625E+02  0.81816674246E+02  0.10267490004E+03  0.00000000000E+00 0. -1.
          3    1    5    5  503    0  0.32809241852E+02 -0.54052495843E+01  0.22962674732E+01  0.33330705337E+02  0.00000000000E+00 0. -1.
         -4    1    5    5    0  503  0.34367770245E+03 -0.23100713960E+03  0.25293905464E+03  0.48523893812E+03  0.00000000000E+00 0.  1.
         -1    1    6    6    0  502 -0.24912568300E+03  0.32303355912E+03  0.27217217294E+03  0.49039981441E+03  0.00000000000E+00 0.  1.
<mgrwt>
<rscale>  0 0.11685777E+04</rscale>
<asrwt>0</asrwt>
<pdfrwt beam="1">  1        2 0.42632006E-01 0.11685777E+04</pdfrwt>
<pdfrwt beam="2">  1       -2 0.18953643E+00 0.11685777E+04</pdfrwt>
<totfact> 0.18501721E+01</totfact>
</mgrwt>
</event>
<event>
12    1  0.1097093E-007  0.2221252E+04  0.7818608E-02  0.8509634E-01
         -2   -1    0    0    0  501 -0.00000000000E+00  0.00000000000E+00  0.31980761127E+03  0.31980761127E+03  0.00000000000E+00 0. -1.
          2   -1    0    0  501    0  0.00000000000E+00 -0.00000000000E+00 -0.38569755078E+04  0.38569755078E+04  0.00000000000E+00 0.  1.
         23    2    1    2    0    0  0.37073544932E+03  0.40083334545E+03 -0.75751578979E+02  0.55866682235E+03  0.90874487491E+02 0.  0.
        254    2    1    2    0    0 -0.37073544932E+03 -0.40083334545E+03 -0.34614163176E+04  0.36181162968E+04  0.90069443710E+03 0.  0.
        -24    2    4    4    0    0  0.25888146974E+03 -0.93417392536E+02 -0.16402354374E+04  0.16651413150E+04  0.81097990367E+02 0.  0.
         24    2    4    4    0    0 -0.62961691906E+03 -0.30741595291E+03 -0.18211808801E+04  0.19529749818E+04  0.80557112314E+02 0.  0.
         11    1    3    3    0    0  0.28808794996E+02  0.74769929236E+02 -0.22340034341E+02  0.83183929466E+02  0.00000000000E+00 0.  1.
        -11    1    3    3    0    0  0.34192665432E+03  0.32606341621E+03 -0.53411544638E+02  0.47548289289E+03  0.00000000000E+00 0. -1.
          2    1    6    6  502    0 -0.43015746721E+03 -0.21688781180E+03 -0.13496971394E+04  0.14330939039E+04  0.00000000000E+00 0. -1.
          3    1    5    5  503    0  0.94541361611E+02 -0.62863297884E+01 -0.40217396624E+03  0.41318456665E+03  0.00000000000E+00 0. -1.
         -4    1    5    5    0  503  0.16434010813E+03 -0.87131062747E+02 -0.12380614712E+04  0.12519567483E+04  0.00000000000E+00 0.  1.
         -1    1    6    6    0  502 -0.19945945185E+03 -0.90528141115E+02 -0.47148374079E+03  0.51988107784E+03  0.00000000000E+00 0.  1.
<mgrwt>
<rscale>  0 0.22212520E+04</rscale>
<asrwt>0</asrwt>
<pdfrwt beam="1">  1        2 0.59338088E+00 0.22212520E+04</pdfrwt>
<pdfrwt beam="2">  1       -2 0.49201168E-01 0.22212520E+04</pdfrwt>
<totfact> 0.15936158E+00</totfact>
</mgrwt>
</event>
<event>
12    1  0.1097093E-007  0.1694196E+04  0.7818608E-02  0.8764682E-01
          1   -1    0    0  501    0  0.00000000000E+00  0.00000000000E+00  0.28256482930E+04  0.28256482930E+04  0.00000000000E+00 0. -1.
         -1   -1    0    0    0  501 -0.00000000000E+00 -0.00000000000E+00 -0.25395049400E+03  0.25395049400E+03  0.00000000000E+00 0.  1.
         23    2    1    2    0    0  0.54231749467E+03  0.22189140883E+03  0.65650324631E+03  0.88452680149E+03  0.89705561678E+02 0.  0.
        254    2    1    2    0    0 -0.54231749467E+03 -0.22189140883E+03  0.19151945527E+04  0.21950719856E+04  0.89834669509E+03 0.  0.
        -24    2    4    4    0    0 -0.66420438046E+03 -0.32492843337E+03  0.18684642236E+04  0.20110596127E+04  0.80350886595E+02 0.  0.
         24    2    4    4    0    0  0.12188688578E+03  0.10303702454E+03  0.46730329144E+02  0.18401237290E+03  0.78764131205E+02 0.  0.
         11    1    3    3    0    0  0.23058706072E+03  0.14256044238E+03  0.30374341368E+03  0.40712889072E+03  0.00000000000E+00 0.  1.
        -11    1    3    3    0    0  0.31173043395E+03  0.79330966441E+02  0.35275983263E+03  0.47739791077E+03  0.00000000000E+00 0. -1.
          4    1    6    6  502    0  0.12015644802E+03  0.61983813632E+02  0.46333438087E+02  0.14292079148E+03  0.00000000000E+00 0. -1.
          3    1    5    5  503    0 -0.42678916452E+02 -0.27572394841E+02  0.83622791393E+02  0.97849364368E+02  0.00000000000E+00 0. -1.
         -4    1    5    5    0  503 -0.62152546400E+03 -0.29735603853E+03  0.17848414322E+04  0.19132102483E+04  0.00000000000E+00 0.  1.
         -3    1    6    6    0  502  0.17304377681E+01  0.41053210908E+02  0.39689105676E+00  0.41091581416E+02  0.00000000000E+00 0.  1.
<mgrwt>
<rscale>  0 0.16941957E+04</rscale>
<asrwt>0</asrwt>
<pdfrwt beam="1">  1        1 0.43471510E+00 0.16941957E+04</pdfrwt>
<pdfrwt beam="2">  1       -1 0.39069309E-01 0.16941957E+04</pdfrwt>
<totfact> 0.48517833E+00</totfact>
</mgrwt>
</event>
<event>
12    1  0.1097093E-007  0.1361694E+04  0.7818608E-02  0.8982023E-01
         -1   -1    0    0    0  501 -0.00000000000E+00  0.00000000000E+00  0.34882249878E+03  0.34882249878E+03  0.00000000000E+00 0.  1.
          1   -1    0    0  501    0  0.00000000000E+00 -0.00000000000E+00 -0.13289076350E+04  0.13289076350E+04  0.00000000000E+00 0. -1.
         23    2    1    2    0    0  0.18150435799E+03  0.28689178524E+02 -0.67707093107E+03  0.70808565194E+03  0.95881926585E+02 0.  0.
        254    2    1    2    0    0 -0.18150435799E+03 -0.28689178524E+02 -0.30301420520E+03  0.96964448188E+03  0.90256629217E+03 0.  0.
        -24    2    4    4    0    0 -0.13905946849E+03  0.18319554501E+03  0.26328443756E+03  0.35819634459E+03  0.78024244492E+02 0.  0.
         24    2    4    4    0    0 -0.42444889498E+02 -0.21188472353E+03 -0.56629864276E+03  0.61144813729E+03  0.80485819256E+02 0.  0.
         11    1    3    3    0    0  0.10091620906E+03  0.55808349111E+02 -0.47610374142E+03  0.48987082550E+03  0.00000000000E+00 0.  1.
        -11    1    3    3    0    0  0.80588148930E+02 -0.27119170587E+02 -0.20096718964E+03  0.21821482643E+03  0.00000000000E+00 0. -1.
          2    1    6    6  502    0 -0.35795223115E+02 -0.20948290667E+03 -0.56575927115E+03  0.60435745968E+03  0.00000000000E+00 0. -1.
          1    1    5    5  503    0 -0.12153103874E+03  0.11200157139E+03  0.14961929949E+03  0.22293514785E+03  0.00000000000E+00 0. -1.
         -2    1    5    5    0  503 -0.17528429758E+02  0.71193973621E+02  0.11366513807E+03  0.13526119674E+03  0.00000000000E+00 0.  1.
         -1    1    6    6    0  502 -0.66496663835E+01 -0.24018168579E+01 -0.53937160903E+00  0.70906776096E+01  0.00000000000E+00 0.  1.
<mgrwt>
<rscale>  0 0.13616944E+04</rscale>
<asrwt>0</asrwt>
<pdfrwt beam="1">  1        1 0.20444733E+00 0.13616944E+04</pdfrwt>
<pdfrwt beam="2">  1       -1 0.53665000E-01 0.13616944E+04</pdfrwt>
<totfact> 0.29555972E+01</totfact>
</mgrwt>
</event>
<event>
12    1  0.1097093E-007  0.2317016E+04  0.7818608E-02  0.8471242E-01
          2   -1    0    0  501    0  0.00000000000E+00  0.00000000000E+00  0.26667577447E+04  0.26667577447E+04  0.00000000000E+00 0. -1.
         -2   -1    0    0    0  501 -0.00000000000E+00 -0.00000000000E+00 -0.50328570021E+03  0.50328570021E+03  0.00000000000E+00 0.  1.
         23    2    1    2    0    0  0.57338697959E+02 -0.42882768736E+03 -0.28559446574E+03  0.52648250390E+03  0.91862485920E+02 0.  0.
        254    2    1    2    0    0 -0.57338697959E+02  0.42882768736E+03  0.24490665102E+04  0.26435609410E+04  0.89627382282E+03 0.  0.
        -24    2    4    4    0    0 -0.23292920915E+03  0.58894527191E+03  0.21970977174E+04  0.22881009978E+04  0.83995512963E+02 0.  0.
         24    2    4    4    0    0  0.17559051119E+03 -0.16011758454E+03  0.25196879277E+03  0.35545994321E+03  0.79961429438E+02 0.  0.
         13    1    3    3    0    0 -0.18851256331E+02 -0.31704704742E+02 -0.34459963993E+02  0.50478186243E+02  0.00000000000E+00 0. -1.
        -13    1    3    3    0    0  0.76189954290E+02 -0.39712298262E+03 -0.25113450175E+03  0.47600431766E+03  0.00000000000E+00 0.  1.
          2    1    6    6  502    0  0.14886979788E+02 -0.55016619509E+02  0.76062165112E+02  0.95046849242E+02  0.00000000000E+00 0. -1.
          3    1    5    5  503    0 -0.11505191349E+03  0.39599807361E+03  0.13798296851E+04  0.14401324165E+04  0.00000000000E+00 0. -1.
         -4    1    5    5    0  503 -0.11787729566E+03  0.19294719830E+03  0.81726803232E+03  0.84796858127E+03  0.00000000000E+00 0.  1.
         -1    1    6    6    0  502  0.16070353140E+03 -0.10510096503E+03  0.17590662766E+03  0.26041309397E+03  0.00000000000E+00 0.  1.
<mgrwt>
<rscale>  0 0.23170162E+04</rscale>
<asrwt>0</asrwt>
<pdfrwt beam="1">  1        2 0.41027042E+00 0.23170162E+04</pdfrwt>
<pdfrwt beam="2">  1       -2 0.77428571E-01 0.23170162E+04</pdfrwt>
<totfact> 0.37429866E+00</totfact>
</mgrwt>
</event>
<event>
12    1  0.1097093E-007  0.2503527E+04  0.7818608E-02  0.8401730E-01
         -1   -1    0    0    0  501 -0.00000000000E+00  0.00000000000E+00  0.60208959625E+03  0.60208959625E+03  0.00000000000E+00 0.  1.
          1   -1    0    0  501    0  0.00000000000E+00 -0.00000000000E+00 -0.26024555288E+04  0.26024555288E+04  0.00000000000E+00 0. -1.
         23    2    1    2    0    0 -0.20685137476E+03 -0.32760094868E+03  0.42752466951E+03  0.58421402728E+03  0.91754094309E+02 0.  0.
        254    2    1    2    0    0  0.20685137476E+03  0.32760094868E+03 -0.24278906021E+04  0.26203310978E+04  0.90629598565E+03 0.  0.
        -24    2    4    4    0    0  0.21556324235E+03  0.24234165641E+03 -0.24728850395E+04  0.24953608599E+04  0.80426442361E+02 0.  0.
         24    2    4    4    0    0 -0.87118675888E+01  0.85259292270E+02  0.44994437439E+02  0.12497023788E+03  0.79044401453E+02 0.  0.
         13    1    3    3    0    0 -0.21539894864E+03 -0.30112947977E+03  0.40092803374E+03  0.54572791655E+03  0.00000000000E+00 0.  1.
        -13    1    3    3    0    0  0.85475738797E+01 -0.26471468908E+02  0.26596635771E+02  0.38486110738E+02  0.00000000000E+00 0. -1.
          4    1    6    6  502    0  0.58094451089E+01  0.20969996705E+02 -0.22032942073E+02  0.30966771719E+02  0.00000000000E+00 0. -1.
          1    1    5    5  503    0 -0.71110586185E+01  0.54634836864E+01 -0.57703542341E+02  0.58396195144E+02  0.00000000000E+00 0. -1.
         -2    1    5    5    0  503  0.22267430097E+03  0.23687817272E+03 -0.24151814972E+04  0.24369646648E+04  0.00000000000E+00 0.  1.
         -3    1    6    6    0  502 -0.14521312698E+02  0.64289295565E+02  0.67027379512E+02  0.94003466165E+02  0.00000000000E+00 0.  1.
<mgrwt>
<rscale>  0 0.25035266E+04</rscale>
<asrwt>0</asrwt>
<pdfrwt beam="1">  1        1 0.40037777E+00 0.25035266E+04</pdfrwt>
<pdfrwt beam="2">  1       -1 0.92629168E-01 0.25035266E+04</pdfrwt>
<totfact> 0.11562536E+00</totfact>
</mgrwt>
</event>
<event>
12    1  0.1097093E-007  0.1586903E+04  0.7818608E-02  0.8828635E-01
         -2   -1    0    0    0  501 -0.00000000000E+00  0.00000000000E+00  0.27361529859E+03  0.27361529859E+03  0.00000000000E+00 0. -1.
          2   -1    0    0  501    0  0.00000000000E+00 -0.00000000000E+00 -0.23009143545E+04  0.23009143545E+04  0.00000000000E+00 0.  1.
         23    2    1    2    0    0 -0.24828639369E+03 -0.46311879150E+03 -0.53609125609E+03  0.75602451665E+03  0.89744562977E+02 0.  0.
        254    2    1    2    0    0  0.24828639369E+03  0.46311879150E+03 -0.14912077998E+04  0.18185051365E+04  0.89840696832E+03 0.  0.
        -24    2    4    4    0    0  0.16752879806E+02 -0.26135589334E+03 -0.45327627459E+03  0.52929092121E+03  0.78114891083E+02 0.  0.
         24    2    4    4    0    0  0.23153351389E+03  0.72447468483E+03 -0.10379315253E+04  0.12892142153E+04  0.79373198813E+02 0.  0.
         13    1    3    3    0    0 -0.16333009568E+03 -0.21480685019E+03 -0.29236152039E+03  0.39786173685E+03  0.00000000000E+00 0. -1.
        -13    1    3    3    0    0 -0.84956298013E+02 -0.24831194131E+03 -0.24372973570E+03  0.35816277980E+03  0.00000000000E+00 0.  1.
          2    1    6    6  502    0  0.23752954787E+03  0.71508267168E+03 -0.10207920950E+04  0.12687710647E+04  0.00000000000E+00 0. -1.
          1    1    5    5  503    0  0.21429953341E+02 -0.26321335160E+03 -0.45286764886E+03  0.52424194676E+03  0.00000000000E+00 0. -1.
         -2    1    5    5    0  503 -0.46770735348E+01  0.18574582629E+01 -0.40862573282E+00  0.50489744540E+01  0.00000000000E+00 0.  1.
         -1    1    6    6    0  502 -0.59960339827E+01  0.93920131569E+01 -0.17139430280E+02  0.20443150564E+02  0.00000000000E+00 0.  1.
<mgrwt>
<rscale>  0 0.15869031E+04</rscale>
<asrwt>0</asrwt>
<pdfrwt beam="1">  1        2 0.35398684E+00 0.15869031E+04</pdfrwt>
<pdfrwt beam="2">  1       -2 0.42094660E-01 0.15869031E+04</pdfrwt>
<totfact> 0.23276158E+01</totfact>
</mgrwt>
</event>
<event>
12    1  0.1097093E-007  0.1602672E+04  0.7818608E-02  0.8818908E-01
         -4   -1    0    0    0  501 -0.00000000000E+00  0.00000000000E+00  0.68486248174E+03  0.68486248174E+03  0.00000000000E+00 0.  1.
          4   -1    0    0  501    0  0.00000000000E+00 -0.00000000000E+00 -0.93761776952E+03  0.93761776952E+03  0.00000000000E+00 0. -1.
         23    2    1    2    0    0  0.10595309290E+03  0.52167290700E+03 -0.15024364383E+03  0.56736667395E+03  0.12634520330E+03 0.  0.
        254    2    1    2    0    0 -0.10595309290E+03 -0.52167290700E+03 -0.10251164395E+03  0.10551135773E+04  0.90520016797E+03 0.  0.
        -24    2    4    4    0    0 -0.35608887011E+03 -0.34700173813E+03 -0.38359678576E+03  0.63286767215E+03  0.78520740720E+02 0.  0.
         24    2    4    4    0    0  0.25013577722E+03 -0.17467116888E+03  0.28108514181E+03  0.42224590516E+03  0.78770700137E+02 0.  0.
         11    1    3    3    0    0  0.13103786518E+03  0.47195888745E+03 -0.14781261255E+03  0.51162943816E+03  0.00000000000E+00 0. -1.
        -11    1    3    3    0    0 -0.25084772286E+02  0.49714019548E+02 -0.24310312817E+01  0.55737235789E+02  0.00000000000E+00 0.  1.
          2    1    6    6  502    0  0.20985533028E+02 -0.69295803928E+01 -0.79801408013E+00  0.22114441150E+02  0.00000000000E+00 0. -1.
          3    1    5    5  503    0 -0.26635948622E+03 -0.21515701177E+03 -0.23871140439E+03  0.41740034763E+03  0.00000000000E+00 0. -1.
         -2    1    5    5    0  503 -0.89729383894E+02 -0.13184472635E+03 -0.14488538136E+03  0.21546732452E+03  0.00000000000E+00 0.  1.
         -1    1    6    6    0  502  0.22915024419E+03 -0.16774158848E+03  0.28188315589E+03  0.40013146401E+03  0.00000000000E+00 0.  1.
<mgrwt>
<rscale>  0 0.16026718E+04</rscale>
<asrwt>0</asrwt>
<pdfrwt beam="1">  1        4 0.14424889E+00 0.16026718E+04</pdfrwt>
<pdfrwt beam="2">  1       -4 0.10536346E+00 0.16026718E+04</pdfrwt>
<totfact> 0.46135749E-01</totfact>
</mgrwt>
</event>
<event>
12    1  0.1097093E-007  0.1279681E+04  0.7818608E-02  0.9045835E-01
          1   -1    0    0  501    0  0.00000000000E+00  0.00000000000E+00  0.90272731508E+03  0.90272731508E+03  0.00000000000E+00 0. -1.
         -1   -1    0    0    0  501 -0.00000000000E+00 -0.00000000000E+00 -0.45351001673E+03  0.45351001673E+03  0.00000000000E+00 0.  1.
         23    2    1    2    0    0  0.26581295968E+03 -0.58843990760E+02 -0.37153877504E+02  0.29082616201E+03  0.95290614006E+02 0.  0.
        254    2    1    2    0    0 -0.26581295968E+03  0.58843990760E+02  0.48637117585E+03  0.10654111698E+04  0.90797846629E+03 0.  0.
        -24    2    4    4    0    0 -0.43215691320E+03  0.13062131870E+03 -0.80102261460E+02  0.46548775802E+03  0.80255554614E+02 0.  0.
         24    2    4    4    0    0  0.16634395352E+03 -0.71777327940E+02  0.56647343731E+03  0.59992341178E+03  0.78699740421E+02 0.  0.
         11    1    3    3    0    0  0.26093121465E+03 -0.74967979201E+02 -0.33091679255E+02  0.27349653731E+03  0.00000000000E+00 0.  1.
        -11    1    3    3    0    0  0.48817450255E+01  0.16123988441E+02 -0.40621982498E+01  0.17329624704E+02  0.00000000000E+00 0. -1.
          4    1    6    6  502    0 -0.35659554830E+01  0.34749984358E+01  0.15402853340E+01  0.52119220586E+01  0.00000000000E+00 0. -1.
          3    1    5    5  503    0 -0.16085519698E+03  0.40361144100E+02  0.87663679678E+01  0.16607307294E+03  0.00000000000E+00 0. -1.
         -4    1    5    5    0  503 -0.27130171622E+03  0.90260174600E+02 -0.88868629428E+02  0.29941468508E+03  0.00000000000E+00 0.  1.
         -3    1    6    6    0  502  0.16990990901E+03 -0.75252326376E+02  0.56493315198E+03  0.59471148972E+03  0.00000000000E+00 0.  1.
<mgrwt>
<rscale>  0 0.12796810E+04</rscale>
<asrwt>0</asrwt>
<pdfrwt beam="1">  1        1 0.13888112E+00 0.12796810E+04</pdfrwt>
<pdfrwt beam="2">  1       -1 0.69770772E-01 0.12796810E+04</pdfrwt>
<totfact> 0.37010830E+01</totfact>
</mgrwt>
</event>
<event>
12    1  0.1097093E-007  0.1521917E+04  0.7818608E-02  0.8870008E-01
         -1   -1    0    0    0  501 -0.00000000000E+00  0.00000000000E+00  0.26732787194E+03  0.26732787194E+03  0.00000000000E+00 0.  1.
          1   -1    0    0  501    0  0.00000000000E+00 -0.00000000000E+00 -0.21660969151E+04  0.21660969151E+04  0.00000000000E+00 0. -1.
         23    2    1    2    0    0 -0.40909554214E+03  0.20757408384E+03 -0.90093381256E+03  0.10150819020E+04  0.90903081319E+02 0.  0.
        254    2    1    2    0    0  0.40909554214E+03 -0.20757408384E+03 -0.99783523062E+03  0.14183428851E+04  0.89753842778E+03 0.  0.
        -24    2    4    4    0    0  0.35779531625E+03 -0.28491708776E+03 -0.11403315535E+04  0.12311833954E+04  0.79128162359E+02 0.  0.
         24    2    4    4    0    0  0.51300225890E+02  0.77343003920E+02  0.14249632284E+03  0.18715948968E+03  0.78165331979E+02 0.  0.
         11    1    3    3    0    0 -0.29431425283E+03  0.10138608877E+03 -0.60269906491E+03  0.67834075601E+03  0.00000000000E+00 0. -1.
        -11    1    3    3    0    0 -0.11478128931E+03  0.10618799507E+03 -0.29823474765E+03  0.33674114595E+03  0.00000000000E+00 0.  1.
          4    1    6    6  502    0  0.52628284807E+02  0.50342931124E+02  0.14260563163E+03  0.16012655385E+03  0.00000000000E+00 0. -1.
          1    1    5    5  503    0  0.31112504974E+03 -0.27462470281E+03 -0.99074071434E+03  0.10741436994E+04  0.00000000000E+00 0. -1.
         -2    1    5    5    0  503  0.46670266510E+02 -0.10292384948E+02 -0.14959083913E+03  0.15703969598E+03  0.00000000000E+00 0.  1.
         -3    1    6    6    0  502 -0.13280589170E+01  0.27000072795E+02 -0.10930878431E+00  0.27032935835E+02  0.00000000000E+00 0.  1.
<mgrwt>
<rscale>  0 0.15219173E+04</rscale>
<asrwt>0</asrwt>
<pdfrwt beam="1">  1        1 0.33324567E+00 0.15219173E+04</pdfrwt>
<pdfrwt beam="2">  1       -1 0.41127366E-01 0.15219173E+04</pdfrwt>
<totfact> 0.12854443E+01</totfact>
</mgrwt>
</event>
<event>
12    1  0.1097093E-007  0.1554413E+04  0.7818608E-02  0.8849054E-01
          2   -1    0    0  501    0  0.00000000000E+00  0.00000000000E+00  0.55004741793E+03  0.55004741793E+03  0.00000000000E+00 0. -1.
         -2   -1    0    0    0  501 -0.00000000000E+00 -0.00000000000E+00 -0.10981781101E+04  0.10981781101E+04  0.00000000000E+00 0.  1.
         23    2    1    2    0    0 -0.33697727592E+01  0.86450752296E+02 -0.71591103794E+03  0.72681533506E+03  0.90812053685E+02 0.  0.
        254    2    1    2    0    0  0.33697727592E+01 -0.86450752296E+02  0.16778034582E+03  0.92141019293E+03  0.90186551727E+03 0.  0.
        -24    2    4    4    0    0 -0.16880564442E+03 -0.31259821416E+03  0.40267768365E+03  0.54297811391E+03  0.80392326707E+02 0.  0.
         24    2    4    4    0    0  0.17217541717E+03  0.22614746187E+03 -0.23489733784E+03  0.37843207901E+03  0.85129491464E+02 0.  0.
         13    1    3    3    0    0 -0.34141850786E+02  0.30402108795E+02 -0.48702831675E+03  0.48916922993E+03  0.00000000000E+00 0. -1.
        -13    1    3    3    0    0  0.30772078027E+02  0.56048643501E+02 -0.22888272119E+03  0.23764610513E+03  0.00000000000E+00 0.  1.
          4    1    6    6  502    0  0.11990645087E+03  0.96418481350E+02 -0.14964901624E+03  0.21463668970E+03  0.00000000000E+00 0. -1.
          1    1    5    5  503    0 -0.15613500581E+03 -0.22368900893E+03  0.27971713802E+03  0.39071292538E+03  0.00000000000E+00 0. -1.
         -2    1    5    5    0  503 -0.12670638607E+02 -0.88909205234E+02  0.12296054563E+03  0.15226518853E+03  0.00000000000E+00 0.  1.
         -3    1    6    6    0  502  0.52268966308E+02  0.12972898052E+03 -0.85248321598E+02  0.16379538931E+03  0.00000000000E+00 0.  1.
<mgrwt>
<rscale>  0 0.15544131E+04</rscale>
<asrwt>0</asrwt>
<pdfrwt beam="1">  1        2 0.84622681E-01 0.15544131E+04</pdfrwt>
<pdfrwt beam="2">  1       -2 0.16895048E+00 0.15544131E+04</pdfrwt>
<totfact> 0.11474400E+01</totfact>
</mgrwt>
</event>
<event>
12    1  0.1097093E-007  0.1749137E+04  0.7818608E-02  0.8733826E-01
         -2   -1    0    0    0  501 -0.00000000000E+00  0.00000000000E+00  0.37425285638E+03  0.37425285638E+03  0.00000000000E+00 0.  1.
          2   -1    0    0  501    0  0.00000000000E+00 -0.00000000000E+00 -0.20437246320E+04  0.20437246320E+04  0.00000000000E+00 0. -1.
         23    2    1    2    0    0  0.50886058700E+03  0.14642436325E+03 -0.97838580985E+03  0.11162389526E+04  0.91495438835E+02 0.  0.
        254    2    1    2    0    0 -0.50886058700E+03 -0.14642436325E+03 -0.69108596572E+03  0.13017385357E+04  0.96775214395E+03 0.  0.
        -24    2    4    4    0    0 -0.50341554765E+03 -0.61642508396E+02 -0.91526186267E+03  0.10495717570E+04  0.81667517339E+02 0.  0.
         24    2    4    4    0    0 -0.54450393563E+01 -0.84781854856E+02  0.22417589694E+03  0.25216677869E+03  0.78202558374E+02 0.  0.
         11    1    3    3    0    0  0.54130097935E+02  0.47189369556E+02 -0.13865202946E+03  0.15614509078E+03  0.00000000000E+00 0.  1.
        -11    1    3    3    0    0  0.45473048907E+03  0.99234993697E+02 -0.83973378039E+03  0.96009386187E+03  0.00000000000E+00 0. -1.
          4    1    6    6  502    0 -0.20688383158E+02 -0.82982081596E+02  0.12286171591E+03  0.14969648058E+03  0.00000000000E+00 0. -1.
          1    1    5    5  503    0 -0.14083304953E+03  0.16647200683E+02 -0.22524617836E+03  0.26617084363E+03  0.00000000000E+00 0. -1.
         -2    1    5    5    0  503 -0.36258249811E+03 -0.78289709079E+02 -0.69001568430E+03  0.78340091337E+03  0.00000000000E+00 0.  1.
         -3    1    6    6    0  502  0.15243343802E+02 -0.17997732606E+01  0.10131418104E+03  0.10247029810E+03  0.00000000000E+00 0.  1.
<mgrwt>
<rscale>  0 0.17491367E+04</rscale>
<asrwt>0</asrwt>
<pdfrwt beam="1">  1        2 0.31441918E+00 0.17491367E+04</pdfrwt>
<pdfrwt beam="2">  1       -2 0.57577362E-01 0.17491367E+04</pdfrwt>
<totfact> 0.16917140E+01</totfact>
</mgrwt>
</event>
<event>
12    1  0.1097093E-007  0.1436982E+04  0.7818608E-02  0.8927476E-01
         -1   -1    0    0    0  501 -0.00000000000E+00  0.00000000000E+00  0.16577914261E+03  0.16577914261E+03  0.00000000000E+00 0.  1.
          1   -1    0    0  501    0  0.00000000000E+00 -0.00000000000E+00 -0.31139579933E+04  0.31139579933E+04  0.00000000000E+00 0. -1.
         23    2    1    2    0    0 -0.19973223333E+03  0.76755785943E+02 -0.51162195974E+02  0.23670194092E+03  0.87325957367E+02 0.  0.
        254    2    1    2    0    0  0.19973223333E+03 -0.76755785943E+02 -0.28970166547E+04  0.30430351950E+04  0.90640679859E+03 0.  0.
        -24    2    4    4    0    0  0.50593404270E+03  0.13452583966E+03 -0.13565648786E+04  0.14563705233E+04  0.81733555894E+02 0.  0.
         24    2    4    4    0    0 -0.30620180937E+03 -0.21128162560E+03 -0.15404517762E+04  0.15866646718E+04  0.78189721148E+02 0.  0.
         13    1    3    3    0    0  0.62260258327E+01 -0.51923857820E+01 -0.69385544566E+01  0.10670885892E+02  0.00000000000E+00 0.  1.
        -13    1    3    3    0    0 -0.20595825916E+03  0.81948171725E+02 -0.44223641518E+02  0.22603105502E+03  0.00000000000E+00 0. -1.
          2    1    6    6  502    0 -0.10844575106E+02 -0.32127847558E+02 -0.11094358117E+03  0.11600983406E+03  0.00000000000E+00 0. -1.
          3    1    5    5  503    0  0.33766501096E+03  0.11932252207E+03 -0.84967978234E+03  0.92206900849E+03  0.00000000000E+00 0. -1.
         -4    1    5    5    0  503  0.16826903174E+03  0.15203317585E+02 -0.50688509621E+03  0.53430151476E+03  0.00000000000E+00 0.  1.
         -1    1    6    6    0  502 -0.29535723426E+03 -0.17915377805E+03 -0.14295081950E+04  0.14706548377E+04  0.00000000000E+00 0.  1.
<mgrwt>
<rscale>  0 0.14369820E+04</rscale>
<asrwt>0</asrwt>
<pdfrwt beam="1">  1        1 0.47907044E+00 0.14369820E+04</pdfrwt>
<pdfrwt beam="2">  1       -1 0.25504485E-01 0.14369820E+04</pdfrwt>
<totfact> 0.65393198E+00</totfact>
</mgrwt>
</event>
<event>
12    1  0.1097093E-007  0.2460760E+04  0.7818608E-02  0.8417100E-01
         -1   -1    0    0    0  501 -0.00000000000E+00  0.00000000000E+00  0.12191333725E+04  0.12191333725E+04  0.00000000000E+00 0.  1.
          1   -1    0    0  501    0  0.00000000000E+00 -0.00000000000E+00 -0.12417308578E+04  0.12417308578E+04  0.00000000000E+00 0. -1.
         23    2    1    2    0    0 -0.66943834976E+03 -0.34945715787E+02 -0.83882523410E+03  0.10776289635E+04  0.91035720383E+02 0.  0.
        254    2    1    2    0    0  0.66943834976E+03  0.34945715787E+02  0.81622774885E+03  0.13832352668E+04  0.89316468702E+03 0.  0.
        -24    2    4    4    0    0  0.40189920655E+03  0.41964840883E+03  0.23723962419E+03  0.63364054943E+03  0.87120303847E+02 0.  0.
         24    2    4    4    0    0  0.26753914321E+03 -0.38470269304E+03  0.57898812466E+03  0.74959471737E+03  0.84211855585E+02 0.  0.
         13    1    3    3    0    0 -0.65223025643E+03 -0.34329265755E+02 -0.83480913614E+03  0.10599476872E+04  0.00000000000E+00 0. -1.
        -13    1    3    3    0    0 -0.17208093333E+02 -0.61645003150E+00 -0.40160979544E+01  0.17681276243E+02  0.00000000000E+00 0.  1.
          4    1    6    6  502    0  0.18426545839E+03 -0.32173327107E+03  0.47052892099E+03  0.59905218667E+03  0.00000000000E+00 0. -1.
          1    1    5    5  503    0  0.20498890668E+03  0.20316091264E+03  0.16408328377E+03  0.33199116298E+03  0.00000000000E+00 0. -1.
         -2    1    5    5    0  503  0.19691029987E+03  0.21648749619E+03  0.73156340416E+02  0.30164938645E+03  0.00000000000E+00 0.  1.
         -3    1    6    6    0  502  0.83273684815E+02 -0.62969421970E+02  0.10845920367E+03  0.15054253069E+03  0.00000000000E+00 0.  1.
<mgrwt>
<rscale>  0 0.24607605E+04</rscale>
<asrwt>0</asrwt>
<pdfrwt beam="1">  1        1 0.19103552E+00 0.24607605E+04</pdfrwt>
<pdfrwt beam="2">  1       -1 0.18755898E+00 0.24607605E+04</pdfrwt>
<totfact> 0.16328133E+00</totfact>
</mgrwt>
</event>
<event>
12    1  0.1097093E-007  0.1532564E+04  0.7818608E-02  0.8863082E-01
          2   -1    0    0  501    0  0.00000000000E+00  0.00000000000E+00  0.30960628274E+04  0.30960628274E+04  0.00000000000E+00 0. -1.
         -2   -1    0    0    0  501 -0.00000000000E+00 -0.00000000000E+00 -0.18965651199E+03  0.18965651199E+03  0.00000000000E+00 0.  1.
         23    2    1    2    0    0 -0.17797648941E+03  0.45793589155E+03  0.79326987603E+03  0.93756254468E+03  0.91463202541E+02 0.  0.
        254    2    1    2    0    0  0.17797648941E+03 -0.45793589155E+03  0.21131364394E+04  0.23481567947E+04  0.89839512998E+03 0.  0.
        -24    2    4    4    0    0  0.21722768075E+03 -0.45473082470E+03  0.21811825722E+04  0.22399605851E+04  0.76798576980E+02 0.  0.
         24    2    4    4    0    0 -0.39251191342E+02 -0.32050668468E+01 -0.68046132838E+02  0.10819620957E+03  0.74331790616E+02 0.  0.
         11    1    3    3    0    0 -0.47236125821E+02  0.23680734783E+03  0.34955021674E+03  0.42484623759E+03  0.00000000000E+00 0. -1.
        -11    1    3    3    0    0 -0.13074036359E+03  0.22112854372E+03  0.44371965929E+03  0.51271630710E+03  0.00000000000E+00 0.  1.
          2    1    6    6  502    0  0.99064669947E+01 -0.27334220487E+02 -0.19428617005E+02  0.34968111998E+02  0.00000000000E+00 0. -1.
          1    1    5    5  503    0  0.75749200101E+02 -0.14949458060E+03  0.89172572597E+03  0.90733750132E+03  0.00000000000E+00 0. -1.
         -2    1    5    5    0  503  0.14147848065E+03 -0.30523624411E+03  0.12894568463E+04  0.13326230838E+04  0.00000000000E+00 0.  1.
         -1    1    6    6    0  502 -0.49157658336E+02  0.24129153640E+02 -0.48617515833E+02  0.73228097574E+02  0.00000000000E+00 0.  1.
<mgrwt>
<rscale>  0 0.15325645E+04</rscale>
<asrwt>0</asrwt>
<pdfrwt beam="1">  1        2 0.47631732E+00 0.15325645E+04</pdfrwt>
<pdfrwt beam="2">  1       -2 0.29177927E-01 0.15325645E+04</pdfrwt>
<totfact> 0.15880216E+01</totfact>
</mgrwt>
</event>
<event>
12    1  0.1097093E-007  0.2011393E+04  0.7818608E-02  0.8601312E-01
         -2   -1    0    0    0  501 -0.00000000000E+00  0.00000000000E+00  0.94951829245E+03  0.94951829245E+03  0.00000000000E+00 0. -1.
          2   -1    0    0  501    0  0.00000000000E+00 -0.00000000000E+00 -0.10651989802E+04  0.10651989802E+04  0.00000000000E+00 0.  1.
         23    2    1    2    0    0 -0.44416545336E+03 -0.61813474910E+03 -0.24954801990E+03  0.80600706984E+03  0.89440842994E+02 0.  0.
        254    2    1    2    0    0  0.44416545336E+03  0.61813474910E+03  0.13386733214E+03  0.12087102028E+04  0.92934728374E+03 0.  0.
        -24    2    4    4    0    0  0.49784056993E+03  0.56667006607E+03 -0.25861803928E+03  0.80126979033E+03  0.78675217233E+02 0.  0.
         24    2    4    4    0    0 -0.53675116575E+02  0.51464683030E+02  0.39248537142E+03  0.40744041250E+03  0.80207800245E+02 0.  0.
         13    1    3    3    0    0 -0.28442559676E+03 -0.32042320259E+03 -0.13325773195E+03  0.44869429680E+03  0.00000000000E+00 0.  1.
        -13    1    3    3    0    0 -0.15973985660E+03 -0.29771154651E+03 -0.11629028795E+03  0.35731277304E+03  0.00000000000E+00 0. -1.
          4    1    6    6  502    0 -0.16974603575E+02  0.53348483438E+02  0.33184245522E+03  0.33653174135E+03  0.00000000000E+00 0. -1.
          1    1    5    5  503    0  0.35523783662E+03  0.36909139323E+03 -0.14487354659E+03  0.53236333610E+03  0.00000000000E+00 0. -1.
         -2    1    5    5    0  503  0.14260273331E+03  0.19757867284E+03 -0.11374449269E+03  0.26890645423E+03  0.00000000000E+00 0.  1.
         -3    1    6    6    0  502 -0.36700513000E+02 -0.18838004078E+01  0.60642916196E+02  0.70908671142E+02  0.00000000000E+00 0.  1.
<mgrwt>
<rscale>  0 0.20113935E+04</rscale>
<asrwt>0</asrwt>
<pdfrwt beam="1">  1        2 0.16387677E+00 0.20113935E+04</pdfrwt>
<pdfrwt beam="2">  1       -2 0.14607974E+00 0.20113935E+04</pdfrwt>
<totfact> 0.68302079E+00</totfact>
</mgrwt>
</event>
<event>
12    1  0.1097093E-007  0.1673703E+04  0.7818608E-02  0.8776506E-01
         -2   -1    0    0    0  501 -0.00000000000E+00  0.00000000000E+00  0.27105576793E+03  0.27105576793E+03  0.00000000000E+00 0.  1.
          2   -1    0    0  501    0  0.00000000000E+00 -0.00000000000E+00 -0.25836767919E+04  0.25836767919E+04  0.00000000000E+00 0. -1.
         23    2    1    2    0    0 -0.20988071714E+03 -0.36637388828E+03 -0.20156914114E+03  0.47514554337E+03  0.82785429180E+02 0.  0.
        254    2    1    2    0    0  0.20988071714E+03  0.36637388828E+03 -0.21110518829E+04  0.23795870165E+04  0.10137132610E+04 0.  0.
        -24    2    4    4    0    0  0.50485527230E+03  0.93920465973E+02 -0.51475649298E+03  0.73149178761E+03  0.80038043394E+02 0.  0.
         24    2    4    4    0    0 -0.29497455515E+03  0.27245342230E+03 -0.15962953899E+04  0.16480952289E+04  0.82571521381E+02 0.  0.
         13    1    3    3    0    0 -0.41108841656E+00 -0.52306924594E+02 -0.17576312480E+02  0.55182516385E+02  0.00000000000E+00 0. -1.
        -13    1    3    3    0    0 -0.20946962873E+03 -0.31406696368E+03 -0.18399282866E+03  0.41996302699E+03  0.00000000000E+00 0.  1.
          2    1    6    6  502    0 -0.29156366893E+03  0.24190118578E+03 -0.14935332231E+04  0.15408332308E+04  0.00000000000E+00 0. -1.
          1    1    5    5  503    0  0.43261177569E+03  0.73569074208E+02 -0.39645469314E+03  0.59138961849E+03  0.00000000000E+00 0. -1.
         -2    1    5    5    0  503  0.72243496610E+02  0.20351391765E+02 -0.11830179984E+03  0.14010216913E+03  0.00000000000E+00 0.  1.
         -1    1    6    6    0  502 -0.34108862204E+01  0.30552236527E+02 -0.10276216682E+03  0.10726199808E+03  0.00000000000E+00 0.  1.
<mgrwt>
<rscale>  0 0.16737031E+04</rscale>
<asrwt>0</asrwt>
<pdfrwt beam="1">  1        2 0.39748875E+00 0.16737031E+04</pdfrwt>
<pdfrwt beam="2">  1       -2 0.41700887E-01 0.16737031E+04</pdfrwt>
<totfact> 0.16199693E+01</totfact>
</mgrwt>
</event>
<event>
12    1  0.1097093E-007  0.1794289E+04  0.7818608E-02  0.8709342E-01
         -1   -1    0    0    0  501 -0.00000000000E+00  0.00000000000E+00  0.51577169682E+03  0.51577169682E+03  0.00000000000E+00 0.  1.
          1   -1    0    0  501    0  0.00000000000E+00 -0.00000000000E+00 -0.15605126204E+04  0.15605126204E+04  0.00000000000E+00 0. -1.
         23    2    1    2    0    0 -0.63436919650E+03  0.13811778446E+03 -0.56456567214E+03  0.86532249958E+03  0.92454476745E+02 0.  0.
        254    2    1    2    0    0  0.63436919650E+03 -0.13811778446E+03 -0.48017525147E+03  0.12109618177E+04  0.90241866773E+03 0.  0.
        -24    2    4    4    0    0  0.31438963987E+03  0.25506263293E+03 -0.55586980342E+03  0.69226116771E+03  0.79602095377E+02 0.  0.
         24    2    4    4    0    0  0.31997955663E+03 -0.39318041739E+03  0.75694551955E+02  0.51870064996E+03  0.79642587813E+02 0.  0.
         13    1    3    3    0    0 -0.12480189878E+02  0.51670417586E+01  0.19415365524E+01  0.13646355708E+02  0.00000000000E+00 0. -1.
        -13    1    3    3    0    0 -0.62188900662E+03  0.13295074270E+03 -0.56650720869E+03  0.85167614387E+03  0.00000000000E+00 0.  1.
          4    1    6    6  502    0  0.18635678677E+03 -0.21285112240E+03  0.80751769400E+02  0.29420282212E+03  0.00000000000E+00 0. -1.
          3    1    5    5  503    0  0.17483152261E+03  0.15810993552E+03 -0.38392784487E+03  0.45051681775E+03  0.00000000000E+00 0. -1.
         -4    1    5    5    0  503  0.13955811725E+03  0.96952697404E+02 -0.17194195855E+03  0.24174434996E+03  0.00000000000E+00 0.  1.
         -3    1    6    6    0  502  0.13362276986E+03 -0.18032929499E+03 -0.50572174450E+01  0.22449782784E+03  0.00000000000E+00 0.  1.
<mgrwt>
<rscale>  0 0.17942890E+04</rscale>
<asrwt>0</asrwt>
<pdfrwt beam="1">  1        1 0.24007886E+00 0.17942890E+04</pdfrwt>
<pdfrwt beam="2">  1       -1 0.79349493E-01 0.17942890E+04</pdfrwt>
<totfact> 0.89013760E+00</totfact>
</mgrwt>
</event>
<event>
12    1  0.1097093E-007  0.2123540E+04  0.7818608E-02  0.8550944E-01
          2   -1    0    0  501    0  0.00000000000E+00  0.00000000000E+00  0.11785047295E+04  0.11785047295E+04  0.00000000000E+00 0. -1.
         -2   -1    0    0    0  501 -0.00000000000E+00 -0.00000000000E+00 -0.95659863973E+03  0.95659863973E+03  0.00000000000E+00 0.  1.
         23    2    1    2    0    0 -0.22566918607E+03 -0.67699282132E+03 -0.40525117527E+03  0.82557690067E+03  0.90015788578E+02 0.  0.
        254    2    1    2    0    0  0.22566918607E+03  0.67699282132E+03  0.62715726506E+03  0.13095264686E+04  0.90126992357E+03 0.  0.
        -24    2    4    4    0    0  0.40115120719E+03  0.42026004219E+03  0.76192731474E+03  0.96155036010E+03  0.80654001582E+02 0.  0.
         24    2    4    4    0    0 -0.17548202112E+03  0.25673277914E+03 -0.13477004969E+03  0.34797610848E+03  0.78859027127E+02 0.  0.
         13    1    3    3    0    0 -0.62224115713E+02 -0.10386631236E+03 -0.93560611745E+02  0.15301516098E+03  0.00000000000E+00 0. -1.
        -13    1    3    3    0    0 -0.16344507035E+03 -0.57312650897E+03 -0.31169056352E+03  0.67256173969E+03  0.00000000000E+00 0.  1.
          4    1    6    6  502    0 -0.79633324912E+02  0.58001363091E+02 -0.25506305498E+02  0.10176539774E+03  0.00000000000E+00 0. -1.
          3    1    5    5  503    0  0.16840447794E+03  0.23333213391E+03  0.38881060679E+03  0.48371235343E+03  0.00000000000E+00 0. -1.
         -4    1    5    5    0  503  0.23274672925E+03  0.18692790827E+03  0.37311670795E+03  0.47783800667E+03  0.00000000000E+00 0.  1.
         -3    1    6    6    0  502 -0.95848696209E+02  0.19873141604E+03 -0.10926374419E+03  0.24621071074E+03  0.00000000000E+00 0.  1.
<mgrwt>
<rscale>  0 0.21235405E+04</rscale>
<asrwt>0</asrwt>
<pdfrwt beam="1">  1        2 0.18130842E+00 0.21235405E+04</pdfrwt>
<pdfrwt beam="2">  1       -2 0.14716902E+00 0.21235405E+04</pdfrwt>
<totfact> 0.56557275E+00</totfact>
</mgrwt>
</event>
<event>
12    1  0.1097093E-007  0.1708568E+04  0.7818608E-02  0.8756493E-01
          2   -1    0    0  501    0  0.00000000000E+00  0.00000000000E+00  0.23213964324E+04  0.23213964324E+04  0.00000000000E+00 0. -1.
         -2   -1    0    0    0  501 -0.00000000000E+00 -0.00000000000E+00 -0.31438018879E+03  0.31438018879E+03  0.00000000000E+00 0.  1.
         23    2    1    2    0    0  0.93300027424E+01 -0.59379815880E+03  0.47849047638E+03  0.76699867438E+03  0.81550770470E+02 0.  0.
        254    2    1    2    0    0 -0.93300027424E+01  0.59379815880E+03  0.15285257673E+04  0.18687779469E+04  0.89624588762E+03 0.  0.
        -24    2    4    4    0    0  0.29547150959E+02  0.74242404904E+03  0.15216148520E+04  0.16955721721E+04  0.87101838479E+02 0.  0.
         24    2    4    4    0    0 -0.38877153701E+02 -0.14862589024E+03  0.69109153252E+01  0.17320577480E+03  0.79695616836E+02 0.  0.
         11    1    3    3    0    0  0.25130808487E+02 -0.38529615061E+03  0.35284539381E+03  0.52305310738E+03  0.00000000000E+00 0.  1.
        -11    1    3    3    0    0 -0.15800805744E+02 -0.20850200820E+03  0.12564508257E+03  0.24394556700E+03  0.00000000000E+00 0. -1.
          2    1    6    6  502    0  0.10358405655E+02 -0.20649959963E+02  0.25979796128E+02  0.34765891633E+02  0.00000000000E+00 0. -1.
          1    1    5    5  503    0 -0.15269121389E+02  0.46173565257E+03  0.99927937018E+03  0.11009051815E+04  0.00000000000E+00 0. -1.
         -2    1    5    5    0  503  0.44816272347E+02  0.28068839648E+03  0.52233548178E+03  0.59466699060E+03  0.00000000000E+00 0.  1.
         -1    1    6    6    0  502 -0.49235559356E+02 -0.12797593028E+03 -0.19068880803E+02  0.13843988316E+03  0.00000000000E+00 0.  1.
<mgrwt>
<rscale>  0 0.17085679E+04</rscale>
<asrwt>0</asrwt>
<pdfrwt beam="1">  1        2 0.35713790E+00 0.17085679E+04</pdfrwt>
<pdfrwt beam="2">  1       -2 0.48366184E-01 0.17085679E+04</pdfrwt>
<totfact> 0.16988957E+01</totfact>
</mgrwt>
</event>
<event>
12    1  0.1097093E-007  0.1669319E+04  0.7818608E-02  0.8779059E-01
         -2   -1    0    0    0  501 -0.00000000000E+00  0.00000000000E+00  0.42826382234E+03  0.42826382234E+03  0.00000000000E+00 0.  1.
          2   -1    0    0  501    0  0.00000000000E+00 -0.00000000000E+00 -0.16266995460E+04  0.16266995460E+04  0.00000000000E+00 0. -1.
         23    2    1    2    0    0 -0.37027019295E+03 -0.40701680444E+03 -0.17453719498E+03  0.58382252662E+03  0.87308735404E+02 0.  0.
        254    2    1    2    0    0  0.37027019295E+03  0.40701680444E+03 -0.10238985287E+04  0.14711408418E+04  0.90173415389E+03 0.  0.
        -24    2    4    4    0    0  0.24443936227E+03  0.68996459007E+03 -0.71972333893E+03  0.10296224546E+04  0.79491993712E+02 0.  0.
         24    2    4    4    0    0  0.12583083068E+03 -0.28294778563E+03 -0.30417518980E+03  0.44151838715E+03  0.80765665727E+02 0.  0.
         11    1    3    3    0    0 -0.15090677244E+03 -0.19572610156E+03 -0.38018198882E+02  0.25005388269E+03  0.00000000000E+00 0. -1.
        -11    1    3    3    0    0 -0.21936342050E+03 -0.21129070289E+03 -0.13651899609E+03  0.33376864394E+03  0.00000000000E+00 0.  1.
          2    1    6    6  502    0  0.26654358607E+02 -0.12039927428E+03 -0.16342880237E+03  0.20473254144E+03  0.00000000000E+00 0. -1.
          3    1    5    5  503    0  0.19662837556E+03  0.46603509905E+03 -0.46451737572E+03  0.68675164650E+03  0.00000000000E+00 0. -1.
         -4    1    5    5    0  503  0.47810986702E+02  0.22392949103E+03 -0.25520596321E+03  0.34287080812E+03  0.00000000000E+00 0.  1.
         -1    1    6    6    0  502  0.99176472076E+02 -0.16254851135E+03 -0.14074638743E+03  0.23678584571E+03  0.00000000000E+00 0.  1.
<mgrwt>
<rscale>  0 0.16693191E+04</rscale>
<asrwt>0</asrwt>
<pdfrwt beam="1">  1        2 0.25026147E+00 0.16693191E+04</pdfrwt>
<pdfrwt beam="2">  1       -2 0.65886742E-01 0.16693191E+04</pdfrwt>
<totfact> 0.21788844E+01</totfact>
</mgrwt>
</event>
<event>
12    1  0.1097093E-007  0.2885438E+04  0.7818608E-02  0.8277223E-01
         -1   -1    0    0    0  501 -0.00000000000E+00  0.00000000000E+00  0.11302753470E+04  0.11302753470E+04  0.00000000000E+00 0.  1.
          1   -1    0    0  501    0  0.00000000000E+00 -0.00000000000E+00 -0.18415317755E+04  0.18415317755E+04  0.00000000000E+00 0. -1.
         23    2    1    2    0    0 -0.33700020088E+03  0.11176013617E+04  0.27070611520E+03  0.12022646182E+04  0.97757211468E+02 0.  0.
        254    2    1    2    0    0  0.33700020088E+03 -0.11176013617E+04 -0.98196254375E+03  0.17695425043E+04  0.89689926868E+03 0.  0.
        -24    2    4    4    0    0  0.52633962493E+03 -0.11396057227E+04 -0.90262868004E+03  0.15482323955E+04  0.80934618581E+02 0.  0.
         24    2    4    4    0    0 -0.18933942405E+03  0.22004361038E+02 -0.79333863703E+02  0.22131010877E+03  0.79691234833E+02 0.  0.
         11    1    3    3    0    0  0.10757095756E+01  0.60483870854E+01 -0.52867342604E+01  0.81049180481E+01  0.00000000000E+00 0. -1.
        -11    1    3    3    0    0 -0.33807591046E+03  0.11115529746E+04  0.27599284946E+03  0.11941597002E+04  0.00000000000E+00 0.  1.
          2    1    6    6  502    0 -0.24104013355E+02  0.33124749362E+02 -0.17142325573E+02  0.44408465479E+02  0.00000000000E+00 0. -1.
          3    1    5    5  503    0  0.84757822706E+02 -0.14631155545E+03 -0.15052960086E+03  0.22638489460E+03  0.00000000000E+00 0. -1.
         -4    1    5    5    0  503  0.44158180223E+03 -0.99329416728E+03 -0.75209907918E+03  0.13218475009E+04  0.00000000000E+00 0.  1.
         -1    1    6    6    0  502 -0.16523541070E+03 -0.11120388324E+02 -0.62191538130E+02  0.17690164329E+03  0.00000000000E+00 0.  1.
<mgrwt>
<rscale>  0 0.28854379E+04</rscale>
<asrwt>0</asrwt>
<pdfrwt beam="1">  1        1 0.28331258E+00 0.28854379E+04</pdfrwt>
<pdfrwt beam="2">  1       -1 0.17388852E+00 0.28854379E+04</pdfrwt>
<totfact> 0.75610771E-01</totfact>
</mgrwt>
</event>
<event>
12    1  0.1097093E-007  0.3378790E+04  0.7818608E-02  0.8143132E-01
          2   -1    0    0  501    0  0.00000000000E+00  0.00000000000E+00  0.19082840633E+04  0.19082840633E+04  0.00000000000E+00 0.  1.
         -2   -1    0    0    0  501 -0.00000000000E+00 -0.00000000000E+00 -0.14956134438E+04  0.14956134438E+04  0.00000000000E+00 0. -1.
         23    2    1    2    0    0 -0.67549496006E+03 -0.10938571685E+04 -0.64904736786E+03  0.14430815022E+04  0.91677642386E+02 0.  0.
        254    2    1    2    0    0  0.67549496006E+03  0.10938571685E+04  0.10617179874E+04  0.19608160050E+04  0.10318611217E+04 0.  0.
        -24    2    4    4    0    0  0.42112428087E+03  0.99554069149E+03  0.26568859938E+03  0.11157322083E+04  0.76295480528E+02 0.  0.
         24    2    4    4    0    0  0.25437067919E+03  0.98316476966E+02  0.79602938800E+03  0.84508379671E+03  0.78315163397E+02 0.  0.
         11    1    3    3    0    0 -0.64189121765E+03 -0.10623155173E+04 -0.61154799725E+03  0.13836652581E+04  0.00000000000E+00 0. -1.
        -11    1    3    3    0    0 -0.33603742401E+02 -0.31541651207E+02 -0.37499370606E+02  0.59416244076E+02  0.00000000000E+00 0.  1.
          2    1    6    6  502    0  0.23842721028E+03  0.88800219617E+02  0.65234987453E+03  0.70020952036E+03  0.00000000000E+00 0. -1.
          3    1    5    5  503    0  0.41947594128E+03  0.96468564089E+03  0.26508845777E+03  0.10848273326E+04  0.00000000000E+00 0. -1.
         -4    1    5    5    0  503  0.16483395846E+01  0.30855050600E+02  0.60014160483E+00  0.30904875681E+02  0.00000000000E+00 0.  1.
         -3    1    6    6    0  502  0.15943468912E+02  0.95162573484E+01  0.14367951348E+03  0.14487427635E+03  0.00000000000E+00 0.  1.
<mgrwt>
<rscale>  0 0.33787899E+04</rscale>
<asrwt>0</asrwt>
<pdfrwt beam="1">  1        2 0.29358216E+00 0.33787899E+04</pdfrwt>
<pdfrwt beam="2">  1       -2 0.23009438E+00 0.33787899E+04</pdfrwt>
<totfact> 0.53241357E-01</totfact>
</mgrwt>
</event>
<event>
12    1  0.1097093E-007  0.1708910E+04  0.7818608E-02  0.8756299E-01
         -1   -1    0    0    0  501 -0.00000000000E+00  0.00000000000E+00  0.39997762883E+03  0.39997762883E+03  0.00000000000E+00 0.  1.
          1   -1    0    0  501    0  0.00000000000E+00 -0.00000000000E+00 -0.18253360028E+04  0.18253360028E+04  0.00000000000E+00 0. -1.
         23    2    1    2    0    0  0.52566740154E+03  0.18370434134E+03 -0.19158557517E+03  0.59614648474E+03  0.92801382426E+02 0.  0.
        254    2    1    2    0    0 -0.52566740154E+03 -0.18370434134E+03 -0.12337727988E+04  0.16291671469E+04  0.90659625602E+03 0.  0.
        -24    2    4    4    0    0 -0.33048183495E+02  0.16295998198E+03  0.63961260919E+02  0.19621532747E+03  0.82226964415E+02 0.  0.
         24    2    4    4    0    0 -0.49261921805E+03 -0.34666432332E+03 -0.12977340598E+04  0.14329518195E+04  0.79921086085E+02 0.  0.
         11    1    3    3    0    0  0.13820852319E+03  0.28777772161E+02 -0.87450346093E+02  0.16606420169E+03  0.00000000000E+00 0. -1.
        -11    1    3    3    0    0  0.38745887835E+03  0.15492656918E+03 -0.10413522908E+03  0.43008228305E+03  0.00000000000E+00 0.  1.
          4    1    6    6  502    0 -0.20543830000E+03 -0.15446597829E+03 -0.46386275233E+03  0.53031432806E+03  0.00000000000E+00 0. -1.
          3    1    5    5  503    0  0.72180330744E-02  0.14740862595E+03  0.61109192845E+02  0.15957329509E+03  0.00000000000E+00 0. -1.
         -4    1    5    5    0  503 -0.33055401528E+02  0.15551356029E+02  0.28520680740E+01  0.36642032378E+02  0.00000000000E+00 0.  1.
         -3    1    6    6    0  502 -0.28718091805E+03 -0.19219834503E+03 -0.83387130744E+03  0.90263749141E+03  0.00000000000E+00 0.  1.
<mgrwt>
<rscale>  0 0.17089103E+04</rscale>
<asrwt>0</asrwt>
<pdfrwt beam="1">  1        1 0.28082092E+00 0.17089103E+04</pdfrwt>
<pdfrwt beam="2">  1       -1 0.61535021E-01 0.17089103E+04</pdfrwt>
<totfact> 0.99737107E+00</totfact>
</mgrwt>
</event>
<event>
12    1  0.1097093E-007  0.4425058E+04  0.7818608E-02  0.7923890E-01
          2   -1    0    0  501    0  0.00000000000E+00  0.00000000000E+00  0.37417003642E+04  0.37417003642E+04  0.00000000000E+00 0. -1.
         -2   -1    0    0    0  501 -0.00000000000E+00 -0.00000000000E+00 -0.13083046031E+04  0.13083046031E+04  0.00000000000E+00 0.  1.
         23    2    1    2    0    0  0.11851116091E+04 -0.17152953199E+04  0.74163273717E+03  0.22146994223E+04  0.90259921494E+02 0.  0.
        254    2    1    2    0    0 -0.11851116091E+04  0.17152953199E+04  0.16917630239E+04  0.28353055450E+04  0.91113546965E+03 0.  0.
        -24    2    4    4    0    0 -0.11426781877E+04  0.93336759035E+03  0.12308570765E+04  0.19231042839E+04  0.80202521829E+02 0.  0.
         24    2    4    4    0    0 -0.42433421469E+02  0.78192772958E+03  0.46090594737E+03  0.91220126118E+03  0.80406958879E+02 0.  0.
         13    1    3    3    0    0  0.11845649390E+04 -0.17164130072E+04  0.74169375426E+03  0.22134537111E+04  0.00000000000E+00 0. -1.
        -13    1    3    3    0    0  0.54667010009E+00  0.11176873106E+01 -0.61017092314E-01  0.12457111255E+01  0.00000000000E+00 0.  1.
          2    1    6    6  502    0  0.14672417116E+02  0.39310037821E+03  0.20971215464E+03  0.44578287874E+03  0.00000000000E+00 0. -1.
          3    1    5    5  503    0 -0.13048431297E+03  0.98076252792E+02  0.16914179152E+03  0.23506180662E+03  0.00000000000E+00 0. -1.
         -4    1    5    5    0  503 -0.10121938747E+04  0.83529133756E+03  0.10617152850E+04  0.16880424772E+04  0.00000000000E+00 0.  1.
         -1    1    6    6    0  502 -0.57105838585E+02  0.38882735136E+03  0.25119379273E+03  0.46641838244E+03  0.00000000000E+00 0.  1.
<mgrwt>
<rscale>  0 0.44250577E+04</rscale>
<asrwt>0</asrwt>
<pdfrwt beam="1">  1        2 0.57564621E+00 0.44250577E+04</pdfrwt>
<pdfrwt beam="2">  1       -2 0.20127763E+00 0.44250577E+04</pdfrwt>
<totfact> 0.53893446E-02</totfact>
</mgrwt>
</event>
<event>
12    1  0.1097093E-007  0.1401935E+04  0.7818608E-02  0.8952419E-01
          1   -1    0    0  501    0  0.00000000000E+00  0.00000000000E+00  0.61727047019E+03  0.61727047019E+03  0.00000000000E+00 0. -1.
         -1   -1    0    0    0  501 -0.00000000000E+00 -0.00000000000E+00 -0.79601357541E+03  0.79601357541E+03  0.00000000000E+00 0.  1.
         23    2    1    2    0    0  0.33186273302E+03 -0.22412783813E+03 -0.11213330320E+03  0.42589872157E+03  0.91922151623E+02 0.  0.
        254    2    1    2    0    0 -0.33186273302E+03  0.22412783813E+03 -0.66609802026E+02  0.98738532403E+03  0.90007041447E+03 0.  0.
        -24    2    4    4    0    0 -0.35524773056E+03  0.16872651732E+03  0.36578700567E+03  0.54302938751E+03  0.80069934831E+02 0.  0.
         24    2    4    4    0    0  0.23384997541E+02  0.55401320808E+02 -0.43239680770E+03  0.44435593653E+03  0.82879639002E+02 0.  0.
         13    1    3    3    0    0  0.22944096258E+03 -0.17470295551E+03 -0.11899567844E+03  0.31196834689E+03  0.00000000000E+00 0. -1.
        -13    1    3    3    0    0  0.10242177043E+03 -0.49424882619E+02  0.68623752385E+01  0.11393037468E+03  0.00000000000E+00 0.  1.
          4    1    6    6  502    0 -0.20766358025E+02  0.52760919513E+02 -0.20496320008E+03  0.21266139668E+03  0.00000000000E+00 0. -1.
          1    1    5    5  503    0 -0.12447771728E+03  0.65551391775E+02  0.18422505441E+03  0.23179852833E+03  0.00000000000E+00 0. -1.
         -2    1    5    5    0  503 -0.23077001327E+03  0.10317512555E+03  0.18156195126E+03  0.31123085918E+03  0.00000000000E+00 0.  1.
         -3    1    6    6    0  502  0.44151355566E+02  0.26404012946E+01 -0.22743360762E+03  0.23169453984E+03  0.00000000000E+00 0.  1.
<mgrwt>
<rscale>  0 0.14019353E+04</rscale>
<asrwt>0</asrwt>
<pdfrwt beam="1">  1        1 0.94964688E-01 0.14019353E+04</pdfrwt>
<pdfrwt beam="2">  1       -1 0.12246363E+00 0.14019353E+04</pdfrwt>
<totfact> 0.18872635E+01</totfact>
</mgrwt>
</event>
<event>
12    1  0.1097093E-007  0.1445799E+04  0.7818608E-02  0.8921318E-01
         -1   -1    0    0    0  501 -0.00000000000E+00  0.00000000000E+00  0.64965814915E+03  0.64965814915E+03  0.00000000000E+00 0.  1.
          1   -1    0    0  501    0  0.00000000000E+00 -0.00000000000E+00 -0.80439851111E+03  0.80439851111E+03  0.00000000000E+00 0. -1.
         23    2    1    2    0    0 -0.57200715157E+02  0.14807966632E+03  0.36371498682E+03  0.40709563322E+03  0.90767579904E+02 0.  0.
        254    2    1    2    0    0  0.57200715157E+02 -0.14807966632E+03 -0.51845534878E+03  0.10469610270E+04  0.89561818542E+03 0.  0.
        -24    2    4    4    0    0 -0.39389384089E+03 -0.28980848126E+02 -0.38017400567E+03  0.55362103926E+03  0.77276989233E+02 0.  0.
         24    2    4    4    0    0  0.45109455605E+03 -0.11909881819E+03 -0.13828134310E+03  0.49333998777E+03  0.81189818893E+02 0.  0.
         13    1    3    3    0    0  0.19910190610E+02  0.88259360047E+01  0.27301408492E+02  0.34923913614E+02  0.00000000000E+00 0. -1.
        -13    1    3    3    0    0 -0.77110905767E+02  0.13925373032E+03  0.33641357833E+03  0.37217171961E+03  0.00000000000E+00 0.  1.
          2    1    6    6  502    0  0.69532763352E+02 -0.45385870033E+02 -0.77859126184E+01  0.83398458099E+02  0.00000000000E+00 0. -1.
          1    1    5    5  503    0 -0.19562335952E+03 -0.47963155728E+02 -0.21767261335E+03  0.29656420840E+03  0.00000000000E+00 0. -1.
         -2    1    5    5    0  503 -0.19827048137E+03  0.18982307602E+02 -0.16250139232E+03  0.25705683086E+03  0.00000000000E+00 0.  1.
         -1    1    6    6    0  502  0.38156179270E+03 -0.73712948161E+02 -0.13049543049E+03  0.40994152967E+03  0.00000000000E+00 0.  1.
<mgrwt>
<rscale>  0 0.14457995E+04</rscale>
<asrwt>0</asrwt>
<pdfrwt beam="1">  1        1 0.12375362E+00 0.14457995E+04</pdfrwt>
<pdfrwt beam="2">  1       -1 0.99947408E-01 0.14457995E+04</pdfrwt>
<totfact> 0.20326075E+01</totfact>
</mgrwt>
</event>
<event>
12    1  0.1097093E-007  0.1270741E+04  0.7818608E-02  0.9053095E-01
          2   -1    0    0  501    0  0.00000000000E+00  0.00000000000E+00  0.15644884124E+04  0.15644884124E+04  0.00000000000E+00 0. -1.
         -2   -1    0    0    0  501 -0.00000000000E+00 -0.00000000000E+00 -0.25803701475E+03  0.25803701475E+03  0.00000000000E+00 0.  1.
         23    2    1    2    0    0 -0.28226858068E+03  0.53878450172E+02  0.17962996672E+03  0.35006194955E+03  0.87738272994E+02 0.  0.
        254    2    1    2    0    0  0.28226858068E+03 -0.53878450172E+02  0.11268214309E+04  0.14724634776E+04  0.90324067480E+03 0.  0.
        -24    2    4    4    0    0  0.53467932691E+03  0.23881376070E-01  0.33529805464E+03  0.63603440906E+03  0.78949356355E+02 0.  0.
         24    2    4    4    0    0 -0.25241074623E+03 -0.53902331548E+02  0.79152337627E+03  0.83642906851E+03  0.80546168849E+02 0.  0.
         13    1    3    3    0    0 -0.19200988593E+03  0.61836144387E+02  0.15970522210E+03  0.25728828775E+03  0.00000000000E+00 0.  1.
        -13    1    3    3    0    0 -0.90258694755E+02 -0.79576942152E+01  0.19924744613E+02  0.92773661801E+02  0.00000000000E+00 0. -1.
          2    1    6    6  502    0 -0.19750796522E+03 -0.58249544325E+02  0.51824135882E+03  0.55765268020E+03  0.00000000000E+00 0. -1.
          3    1    5    5  503    0  0.37282640186E+03 -0.11260124410E+02  0.27304581234E+03  0.46225569976E+03  0.00000000000E+00 0. -1.
         -4    1    5    5    0  503  0.16185292505E+03  0.11284005786E+02  0.62252242294E+02  0.17377870930E+03  0.00000000000E+00 0.  1.
         -1    1    6    6    0  502 -0.54902781004E+02  0.43472127776E+01  0.27328201745E+03  0.27877638831E+03  0.00000000000E+00 0.  1.
<mgrwt>
<rscale>  0 0.12707414E+04</rscale>
<asrwt>0</asrwt>
<pdfrwt beam="1">  1        2 0.24069052E+00 0.12707414E+04</pdfrwt>
<pdfrwt beam="2">  1       -2 0.39698003E-01 0.12707414E+04</pdfrwt>
<totfact> 0.68803576E+01</totfact>
</mgrwt>
</event>
<event>
12    1  0.1097093E-007  0.2717390E+04  0.7818608E-02  0.8329384E-01
         -1   -1    0    0    0  501 -0.00000000000E+00  0.00000000000E+00  0.68820060610E+03  0.68820060610E+03  0.00000000000E+00 0.  1.
          1   -1    0    0  501    0  0.00000000000E+00 -0.00000000000E+00 -0.26824339823E+04  0.26824339823E+04  0.00000000000E+00 0. -1.
         23    2    1    2    0    0  0.31292713830E+02 -0.10927089165E+04 -0.25242682621E+03  0.11256015923E+04  0.90926519308E+02 0.  0.
        254    2    1    2    0    0 -0.31292713830E+02  0.10927089165E+04 -0.17418065500E+04  0.22450329960E+04  0.90071698415E+03 0.  0.
        -24    2    4    4    0    0 -0.33692129999E+03  0.13326119089E+03 -0.70916628334E+03  0.80050301635E+03  0.81324992331E+02 0.  0.
         24    2    4    4    0    0  0.30562858616E+03  0.95944772563E+03 -0.10326402666E+04  0.14445299797E+04  0.79825879376E+02 0.  0.
         13    1    3    3    0    0  0.38069100719E+02 -0.23350013914E+03 -0.75513679615E+02  0.24834227835E+03  0.00000000000E+00 0.  1.
        -13    1    3    3    0    0 -0.67763868888E+01 -0.85920877738E+03 -0.17691314659E+03  0.87725931399E+03  0.00000000000E+00 0. -1.
          2    1    6    6  502    0  0.18468767228E+03  0.54318765100E+03 -0.53355701459E+03  0.78348289599E+03  0.00000000000E+00 0. -1.
          3    1    5    5  503    0 -0.14275843593E+03  0.64907889850E+02 -0.39409080362E+03  0.42414686925E+03  0.00000000000E+00 0. -1.
         -4    1    5    5    0  503 -0.19416286406E+03  0.68353301040E+02 -0.31507547972E+03  0.37635614711E+03  0.00000000000E+00 0.  1.
         -1    1    6    6    0  502  0.12094091388E+03  0.41626007464E+03 -0.49908325205E+03  0.66104708370E+03  0.00000000000E+00 0.  1.
<mgrwt>
<rscale>  0 0.27173904E+04</rscale>
<asrwt>0</asrwt>
<pdfrwt beam="1">  1        1 0.41268215E+00 0.27173904E+04</pdfrwt>
<pdfrwt beam="2">  1       -1 0.10587702E+00 0.27173904E+04</pdfrwt>
<totfact> 0.73474763E-01</totfact>
</mgrwt>
</event>
<event>
12    1  0.1097093E-007  0.1916433E+04  0.7818608E-02  0.8646720E-01
         -1   -1    0    0    0  501 -0.00000000000E+00  0.00000000000E+00  0.66151793879E+03  0.66151793879E+03  0.00000000000E+00 0.  1.
          1   -1    0    0  501    0  0.00000000000E+00 -0.00000000000E+00 -0.13879879398E+04  0.13879879398E+04  0.00000000000E+00 0. -1.
         23    2    1    2    0    0 -0.42981086852E+03 -0.60235790190E+03 -0.36567243049E+03  0.83036520739E+03  0.90651125455E+02 0.  0.
        254    2    1    2    0    0  0.42981086852E+03  0.60235790190E+03 -0.36079757053E+03  0.12191406712E+04  0.89919778948E+03 0.  0.
        -24    2    4    4    0    0  0.46473792610E+03 -0.56251796556E+02 -0.27641992847E+03  0.54918008478E+03  0.77750781944E+02 0.  0.
         24    2    4    4    0    0 -0.34927057576E+02  0.65860969845E+03 -0.84377642055E+02  0.66996058642E+03  0.82103389895E+02 0.  0.
         11    1    3    3    0    0 -0.16568279210E+03 -0.17234405840E+03 -0.90976603619E+02  0.25579289371E+03  0.00000000000E+00 0. -1.
        -11    1    3    3    0    0 -0.26412807642E+03 -0.43001384350E+03 -0.27469582687E+03  0.57457231368E+03  0.00000000000E+00 0.  1.
          4    1    6    6  502    0 -0.27304806141E+02  0.26805959802E+03 -0.73043444098E+02  0.27917171285E+03  0.00000000000E+00 0. -1.
          1    1    5    5  503    0  0.17145990183E+03 -0.10733419617E+02 -0.60419494548E+02  0.18211045976E+03  0.00000000000E+00 0. -1.
         -2    1    5    5    0  503  0.29327802427E+03 -0.45518376939E+02 -0.21600043393E+03  0.36706962503E+03  0.00000000000E+00 0.  1.
         -3    1    6    6    0  502 -0.76222514350E+01  0.39055010043E+03 -0.11334197957E+02  0.39078887357E+03  0.00000000000E+00 0.  1.
<mgrwt>
<rscale>  0 0.19164331E+04</rscale>
<asrwt>0</asrwt>
<pdfrwt beam="1">  1        1 0.21353660E+00 0.19164331E+04</pdfrwt>
<pdfrwt beam="2">  1       -1 0.10177199E+00 0.19164331E+04</pdfrwt>
<totfact> 0.66998029E+00</totfact>
</mgrwt>
</event>
<event>
12    1  0.1097093E-007  0.1540274E+04  0.7818608E-02  0.8858104E-01
          2   -1    0    0  501    0  0.00000000000E+00  0.00000000000E+00  0.98814624739E+03  0.98814624739E+03  0.00000000000E+00 0. -1.
         -2   -1    0    0    0  501 -0.00000000000E+00 -0.00000000000E+00 -0.60022590557E+03  0.60022590557E+03  0.00000000000E+00 0.  1.
         23    2    1    2    0    0 -0.43919294356E+03 -0.23038307215E+03  0.63460476201E+02  0.50838973316E+03  0.92011342454E+02 0.  0.
        254    2    1    2    0    0  0.43919294356E+03  0.23038307215E+03  0.32445986562E+03  0.10799824198E+04  0.90284052914E+03 0.  0.
        -24    2    4    4    0    0  0.32157605115E+02 -0.97504966274E+02 -0.26044652085E+03  0.29157411240E+03  0.81496888194E+02 0.  0.
         24    2    4    4    0    0  0.40703533844E+03  0.32788803843E+03  0.58490638647E+03  0.78840830740E+03  0.79270711842E+02 0.  0.
         13    1    3    3    0    0 -0.44155793531E+02 -0.24483842500E+02 -0.21513371152E+02  0.54881852959E+02  0.00000000000E+00 0. -1.
        -13    1    3    3    0    0 -0.39503715003E+03 -0.20589922965E+03  0.84973847353E+02  0.45350788020E+03  0.00000000000E+00 0.  1.
          4    1    6    6  502    0  0.10831526000E+03  0.45430535033E+02  0.12436094976E+03  0.17106073451E+03  0.00000000000E+00 0. -1.
          3    1    5    5  503    0 -0.50776035681E+01  0.74877883427E+00  0.43275822798E+01  0.67134712427E+01  0.00000000000E+00 0. -1.
         -2    1    5    5    0  503  0.37235208683E+02 -0.98253745108E+02 -0.26477410313E+03  0.28486064116E+03  0.00000000000E+00 0.  1.
         -3    1    6    6    0  502  0.29872007844E+03  0.28245750340E+03  0.46054543670E+03  0.61734757289E+03  0.00000000000E+00 0.  1.
<mgrwt>
<rscale>  0 0.15402740E+04</rscale>
<asrwt>0</asrwt>
<pdfrwt beam="1">  1        2 0.15202250E+00 0.15402740E+04</pdfrwt>
<pdfrwt beam="2">  1       -2 0.92342448E-01 0.15402740E+04</pdfrwt>
<totfact> 0.24595263E+01</totfact>
</mgrwt>
</event>
<event>
12    1  0.1097093E-007  0.1279222E+04  0.7818608E-02  0.9046206E-01
         -2   -1    0    0    0  501 -0.00000000000E+00  0.00000000000E+00  0.13325926151E+04  0.13325926151E+04  0.00000000000E+00 0. -1.
          2   -1    0    0  501    0  0.00000000000E+00 -0.00000000000E+00 -0.30699743708E+03  0.30699743708E+03  0.00000000000E+00 0.  1.
         23    2    1    2    0    0  0.28311238835E+02  0.12499670434E+03 -0.10263158539E+03  0.18977211029E+03  0.95155184734E+02 0.  0.
        254    2    1    2    0    0 -0.28311238835E+02 -0.12499670434E+03  0.11282267634E+04  0.14498179419E+04  0.90147142640E+03 0.  0.
        -24    2    4    4    0    0 -0.17802572160E+03 -0.40562267173E+03  0.25552227286E+03  0.51755036976E+03  0.79648251344E+02 0.  0.
         24    2    4    4    0    0  0.14971448276E+03  0.28062596739E+03  0.87270449054E+03  0.93226757212E+03  0.79651354733E+02 0.  0.
         13    1    3    3    0    0  0.27444604557E+02  0.10845445384E+03 -0.12116575341E+03  0.16491426463E+03  0.00000000000E+00 0.  1.
        -13    1    3    3    0    0  0.86663427785E+00  0.16542250497E+02  0.18534168021E+02  0.24857845657E+02  0.00000000000E+00 0. -1.
          4    1    6    6  502    0  0.12995797542E+02  0.37036581065E+02  0.20099380517E+03  0.20479040213E+03  0.00000000000E+00 0. -1.
          3    1    5    5  503    0 -0.78183090044E+02 -0.26050224522E+03  0.13137593628E+03  0.30204908867E+03  0.00000000000E+00 0. -1.
         -4    1    5    5    0  503 -0.99842631554E+02 -0.14512042651E+03  0.12414633658E+03  0.21550128109E+03  0.00000000000E+00 0.  1.
         -3    1    6    6    0  502  0.13671868522E+03  0.24358938632E+03  0.67171068537E+03  0.72747716999E+03  0.00000000000E+00 0.  1.
<mgrwt>
<rscale>  0 0.12792224E+04</rscale>
<asrwt>0</asrwt>
<pdfrwt beam="1">  1        2 0.47230376E-01 0.12792224E+04</pdfrwt>
<pdfrwt beam="2">  1       -2 0.20501425E+00 0.12792224E+04</pdfrwt>
<totfact> 0.12945362E+01</totfact>
</mgrwt>
</event>
<event>
12    1  0.1097093E-007  0.2620450E+04  0.7818608E-02  0.8361288E-01
         -2   -1    0    0    0  501 -0.00000000000E+00  0.00000000000E+00  0.63010135658E+03  0.63010135658E+03  0.00000000000E+00 0.  1.
          2   -1    0    0  501    0  0.00000000000E+00 -0.00000000000E+00 -0.27244666717E+04  0.27244666717E+04  0.00000000000E+00 0. -1.
         23    2    1    2    0    0  0.15258525902E+03  0.15646688706E+03 -0.23862603275E+04  0.23982458058E+04  0.97879754568E+02 0.  0.
        254    2    1    2    0    0 -0.15258525902E+03 -0.15646688706E+03  0.29189501237E+03  0.95632222251E+03  0.88407315704E+03 0.  0.
        -24    2    4    4    0    0  0.21737954769E+03  0.17027428703E+03  0.35017327730E+03  0.45300423050E+03  0.79651165342E+02 0.  0.
         24    2    4    4    0    0 -0.36996480671E+03 -0.32674117409E+03 -0.58278264925E+02  0.50331799201E+03  0.79365558489E+02 0.  0.
         11    1    3    3    0    0  0.33905523137E+02  0.10361884851E+03 -0.11685416571E+04  0.11736166557E+04  0.00000000000E+00 0. -1.
        -11    1    3    3    0    0  0.11867973588E+03  0.52848038548E+02 -0.12177186704E+04  0.12246291501E+04  0.00000000000E+00 0.  1.
          2    1    6    6  502    0 -0.32291084100E+03 -0.29669945731E+03 -0.27061850490E+02  0.43935671493E+03  0.00000000000E+00 0. -1.
          3    1    5    5  503    0  0.21261295443E+03  0.14012696542E+03  0.32819099139E+03  0.41539037261E+03  0.00000000000E+00 0. -1.
         -4    1    5    5    0  503  0.47665932602E+01  0.30147321608E+02  0.21982285907E+02  0.37613857887E+02  0.00000000000E+00 0.  1.
         -1    1    6    6    0  502 -0.47053965714E+02 -0.30041716781E+02 -0.31216414434E+02  0.63961277088E+02  0.00000000000E+00 0.  1.
<mgrwt>
<rscale>  0 0.26204505E+04</rscale>
<asrwt>0</asrwt>
<pdfrwt beam="1">  1        2 0.41914872E+00 0.26204505E+04</pdfrwt>
<pdfrwt beam="2">  1       -2 0.96938670E-01 0.26204505E+04</pdfrwt>
<totfact> 0.20149876E+00</totfact>
</mgrwt>
</event>
<event>
12    1  0.1097093E-007  0.1254851E+04  0.7818608E-02  0.9066155E-01
          2   -1    0    0  501    0  0.00000000000E+00  0.00000000000E+00  0.28790489917E+03  0.28790489917E+03  0.00000000000E+00 0. -1.
         -2   -1    0    0    0  501 -0.00000000000E+00 -0.00000000000E+00 -0.13673361250E+04  0.13673361250E+04  0.00000000000E+00 0.  1.
         23    2    1    2    0    0 -0.26362207984E+03  0.44533998449E+02 -0.42742240393E+03  0.51285213288E+03  0.94061261045E+02 0.  0.
        254    2    1    2    0    0  0.26362207984E+03 -0.44533998449E+02 -0.65200882187E+03  0.11423888913E+04  0.89914236752E+03 0.  0.
        -24    2    4    4    0    0  0.37435179590E+03  0.35153488055E+03 -0.36109671672E+03  0.63284498534E+03  0.79911809539E+02 0.  0.
         24    2    4    4    0    0 -0.11072971607E+03 -0.39606887900E+03 -0.29091210515E+03  0.50954390592E+03  0.76638842675E+02 0.  0.
         13    1    3    3    0    0  0.59938654872E+01 -0.64462543190E+01 -0.10036039597E+02  0.13349258744E+02  0.00000000000E+00 0. -1.
        -13    1    3    3    0    0 -0.26961594532E+03  0.50980252768E+02 -0.41738636433E+03  0.49950287414E+03  0.00000000000E+00 0.  1.
          4    1    6    6  502    0 -0.55560741916E+02 -0.14723622074E+03 -0.15416972179E+03  0.22030388979E+03  0.00000000000E+00 0. -1.
          1    1    5    5  503    0  0.36745456240E+03  0.34891209171E+03 -0.36500698290E+03  0.62449387566E+03  0.00000000000E+00 0. -1.
         -4    1    5    5    0  503  0.68972335047E+01  0.26227888400E+01  0.39102661792E+01  0.83511096813E+01  0.00000000000E+00 0.  1.
         -3    1    6    6    0  502 -0.55168974150E+02 -0.24883265825E+03 -0.13674238336E+03  0.28924001613E+03  0.00000000000E+00 0.  1.
<mgrwt>
<rscale>  0 0.12548510E+04</rscale>
<asrwt>0</asrwt>
<pdfrwt beam="1">  1        2 0.44293061E-01 0.12548510E+04</pdfrwt>
<pdfrwt beam="2">  1       -2 0.21035940E+00 0.12548510E+04</pdfrwt>
<totfact> 0.12868362E+01</totfact>
</mgrwt>
</event>
<event>
12    1  0.1097093E-007  0.2296952E+04  0.7818608E-02  0.8479124E-01
         -1   -1    0    0    0  501 -0.00000000000E+00  0.00000000000E+00  0.87185742251E+03  0.87185742251E+03  0.00000000000E+00 0.  1.
          1   -1    0    0  501    0  0.00000000000E+00 -0.00000000000E+00 -0.15128582617E+04  0.15128582617E+04  0.00000000000E+00 0. -1.
         23    2    1    2    0    0  0.80338422166E+03  0.45131104053E+03  0.77162694218E+02  0.92904436430E+03  0.89785781335E+02 0.  0.
        254    2    1    2    0    0 -0.80338422166E+03 -0.45131104053E+03 -0.71816353341E+03  0.14556713199E+04  0.86839637722E+03 0.  0.
        -24    2    4    4    0    0 -0.36146802018E+03  0.16439662626E+03  0.54001175351E+01  0.40472837058E+03  0.78041734643E+02 0.  0.
         24    2    4    4    0    0 -0.44191620149E+03 -0.61570766679E+03 -0.72356365095E+03  0.10509429493E+04  0.80937418410E+02 0.  0.
         13    1    3    3    0    0  0.69303277854E+03  0.39517416017E+03  0.36084721633E+02  0.79859824451E+03  0.00000000000E+00 0.  1.
        -13    1    3    3    0    0  0.11035144312E+03  0.56136880357E+02  0.41077972584E+02  0.13044611978E+03  0.00000000000E+00 0. -1.
          2    1    6    6  502    0 -0.38067306502E+03 -0.57133174089E+03 -0.64917177985E+03  0.94485762966E+03  0.00000000000E+00 0. -1.
          3    1    5    5  503    0 -0.33856646744E+03  0.16844013931E+03  0.17412911477E+02  0.37855322332E+03  0.00000000000E+00 0. -1.
         -4    1    5    5    0  503 -0.22901552739E+02 -0.40435130438E+01 -0.12012793942E+02  0.26175147257E+02  0.00000000000E+00 0.  1.
         -1    1    6    6    0  502 -0.61243136473E+02 -0.44375925904E+02 -0.74391871103E+02  0.10608531968E+03  0.00000000000E+00 0.  1.
<mgrwt>
<rscale>  0 0.22969516E+04</rscale>
<asrwt>0</asrwt>
<pdfrwt beam="1">  1        1 0.23274742E+00 0.22969516E+04</pdfrwt>
<pdfrwt beam="2">  1       -1 0.13413191E+00 0.22969516E+04</pdfrwt>
<totfact> 0.27136464E+00</totfact>
</mgrwt>
</event>
<event>
12    1  0.1097093E-007  0.1549613E+04  0.7818608E-02  0.8852115E-01
         -2   -1    0    0    0  501 -0.00000000000E+00  0.00000000000E+00  0.42963608426E+03  0.42963608426E+03  0.00000000000E+00 0.  1.
          2   -1    0    0  501    0  0.00000000000E+00 -0.00000000000E+00 -0.13972872724E+04  0.13972872724E+04  0.00000000000E+00 0. -1.
         23    2    1    2    0    0  0.35134593594E+03 -0.34992737321E+03 -0.21705449005E+03  0.55019686693E+03  0.98543429578E+02 0.  0.
        254    2    1    2    0    0 -0.35134593594E+03  0.34992737321E+03 -0.75059669808E+03  0.12767264897E+04  0.90594811834E+03 0.  0.
        -24    2    4    4    0    0  0.20166856214E+02  0.26661797949E+03  0.13428246261E+03  0.30992826675E+03  0.80820181206E+02 0.  0.
         24    2    4    4    0    0 -0.37151279215E+03  0.83309393723E+02 -0.88487916069E+03  0.96679822296E+03  0.82008932872E+02 0.  0.
         13    1    3    3    0    0  0.30625032153E+03 -0.34098340398E+03 -0.20812529084E+03  0.50336376301E+03  0.00000000000E+00 0.  1.
        -13    1    3    3    0    0  0.45095614407E+02 -0.89439692305E+01 -0.89291992017E+01  0.46833103919E+02  0.00000000000E+00 0. -1.
          2    1    6    6  502    0 -0.37024818948E+03  0.82866455381E+02 -0.83786945393E+03  0.91976942386E+03  0.00000000000E+00 0. -1.
          1    1    5    5  503    0  0.65824108325E+01  0.72600748672E+02  0.79510584636E+02  0.10787089463E+03  0.00000000000E+00 0. -1.
         -2    1    5    5    0  503  0.13584445381E+02  0.19401723081E+03  0.54771877979E+02  0.20205737212E+03  0.00000000000E+00 0.  1.
         -1    1    6    6    0  502 -0.12646026651E+01  0.44293834154E+00 -0.47009706765E+02  0.47028799096E+02  0.00000000000E+00 0.  1.
<mgrwt>
<rscale>  0 0.15496129E+04</rscale>
<asrwt>0</asrwt>
<pdfrwt beam="1">  1        2 0.21496728E+00 0.15496129E+04</pdfrwt>
<pdfrwt beam="2">  1       -2 0.66097858E-01 0.15496129E+04</pdfrwt>
<totfact> 0.29435001E+01</totfact>
</mgrwt>
</event>
<event>
12    1  0.1097093E-007  0.1562431E+04  0.7818608E-02  0.8843967E-01
         -2   -1    0    0    0  501 -0.00000000000E+00  0.00000000000E+00  0.25867189621E+03  0.25867189621E+03  0.00000000000E+00 0.  1.
          2   -1    0    0  501    0  0.00000000000E+00 -0.00000000000E+00 -0.23593495919E+04  0.23593495919E+04  0.00000000000E+00 0. -1.
         23    2    1    2    0    0 -0.12568266484E+03  0.25725906416E+03  0.16258432371E+02  0.29981697724E+03  0.87450128005E+02 0.  0.
        254    2    1    2    0    0  0.12568266484E+03 -0.25725906416E+03 -0.21169361280E+04  0.23182045108E+04  0.90037504718E+03 0.  0.
        -24    2    4    4    0    0  0.12202884024E+03 -0.43054550171E+03 -0.44931906780E+03  0.63971826204E+03  0.84210232198E+02 0.  0.
         24    2    4    4    0    0  0.36538246045E+01  0.17328643755E+03 -0.16676170602E+04  0.16784862488E+04  0.79548023149E+02 0.  0.
         11    1    3    3    0    0  0.12920383172E+02  0.20223587397E+02 -0.46226906203E+01  0.24439702476E+02  0.00000000000E+00 0. -1.
        -11    1    3    3    0    0 -0.13860304802E+03  0.23703547676E+03  0.20881122992E+02  0.27537727477E+03  0.00000000000E+00 0.  1.
          2    1    6    6  502    0 -0.16030413985E+02  0.11259440443E+03 -0.13328289406E+04  0.13376724034E+04  0.00000000000E+00 0. -1.
          1    1    5    5  503    0  0.42993840834E+02 -0.65740194918E+02 -0.50043034916E+02  0.93137258501E+02  0.00000000000E+00 0. -1.
         -2    1    5    5    0  503  0.79034999405E+02 -0.36480530679E+03 -0.39927603289E+03  0.54658100354E+03  0.00000000000E+00 0.  1.
         -1    1    6    6    0  502  0.19684238590E+02  0.60692033118E+02 -0.33478811962E+03  0.34081384534E+03  0.00000000000E+00 0.  1.
<mgrwt>
<rscale>  0 0.15624307E+04</rscale>
<asrwt>0</asrwt>
<pdfrwt beam="1">  1        2 0.36297686E+00 0.15624307E+04</pdfrwt>
<pdfrwt beam="2">  1       -2 0.39795676E-01 0.15624307E+04</pdfrwt>
<totfact> 0.24133770E+01</totfact>
</mgrwt>
</event>
<event>
12    1  0.1097093E-007  0.1621117E+04  0.7818608E-02  0.8807679E-01
         -1   -1    0    0    0  501 -0.00000000000E+00  0.00000000000E+00  0.12339487486E+04  0.12339487486E+04  0.00000000000E+00 0.  1.
          1   -1    0    0  501    0  0.00000000000E+00 -0.00000000000E+00 -0.53244128705E+03  0.53244128705E+03  0.00000000000E+00 0. -1.
         23    2    1    2    0    0  0.51111612790E+03 -0.46180666488E+02  0.47801299927E+03  0.70766266975E+03  0.94433450234E+02 0.  0.
        254    2    1    2    0    0 -0.51111612790E+03  0.46180666488E+02  0.22349446232E+03  0.10587273659E+04  0.89865539032E+03 0.  0.
        -24    2    4    4    0    0 -0.11298836481E+03 -0.38847579005E+03 -0.24476546464E+02  0.41409397965E+03  0.84822830739E+02 0.  0.
         24    2    4    4    0    0 -0.39812776310E+03  0.43465645654E+03  0.24797100879E+03  0.64463338630E+03  0.81428683961E+02 0.  0.
         11    1    3    3    0    0  0.14236305343E+03  0.29027235676E+02  0.14149139598E+03  0.20280442433E+03  0.00000000000E+00 0. -1.
        -11    1    3    3    0    0  0.36875307448E+03 -0.75207902164E+02  0.33652160329E+03  0.50485824542E+03  0.00000000000E+00 0.  1.
          4    1    6    6  502    0 -0.79025353176E+02  0.54893130964E+02  0.18014706314E+02  0.97891735684E+02  0.00000000000E+00 0. -1.
          1    1    5    5  503    0  0.10586231099E+01 -0.13093937630E+02 -0.17276603256E+02  0.21703753261E+02  0.00000000000E+00 0. -1.
         -2    1    5    5    0  503 -0.11404698792E+03 -0.37538185242E+03 -0.71999432075E+01  0.39239022638E+03  0.00000000000E+00 0.  1.
         -3    1    6    6    0  502 -0.31910240992E+03  0.37976332557E+03  0.22995630247E+03  0.54674165061E+03  0.00000000000E+00 0.  1.
<mgrwt>
<rscale>  0 0.16211172E+04</rscale>
<asrwt>0</asrwt>
<pdfrwt beam="1">  1        1 0.81914045E-01 0.16211172E+04</pdfrwt>
<pdfrwt beam="2">  1       -1 0.18983827E+00 0.16211172E+04</pdfrwt>
<totfact> 0.68894877E+00</totfact>
</mgrwt>
</event>
<event>
12    1  0.1097093E-007  0.1408632E+04  0.7818608E-02  0.8947594E-01
         -2   -1    0    0    0  501 -0.00000000000E+00  0.00000000000E+00  0.15389175259E+03  0.15389175259E+03  0.00000000000E+00 0.  1.
          2   -1    0    0  501    0  0.00000000000E+00 -0.00000000000E+00 -0.32234426283E+04  0.32234426283E+04  0.00000000000E+00 0. -1.
         23    2    1    2    0    0  0.18522858616E+03 -0.35244648943E+03 -0.65603948208E+03  0.77293968567E+03  0.92302755138E+02 0.  0.
        254    2    1    2    0    0 -0.18522858616E+03  0.35244648943E+03 -0.24135113936E+04  0.26043946952E+04  0.89403933033E+03 0.  0.
        -24    2    4    4    0    0 -0.19235606597E+03 -0.26547980170E+03 -0.10938346668E+04  0.11449998314E+04  0.84083020753E+02 0.  0.
         24    2    4    4    0    0  0.71274798146E+01  0.61792629113E+03 -0.13196767268E+04  0.14593948638E+04  0.80018766093E+02 0.  0.
         13    1    3    3    0    0  0.29177749533E+02 -0.64523080973E+02 -0.19470420064E+03  0.20718179165E+03  0.00000000000E+00 0.  1.
        -13    1    3    3    0    0  0.15605083662E+03 -0.28792340846E+03 -0.46133528144E+03  0.56575789402E+03  0.00000000000E+00 0. -1.
          2    1    6    6  502    0 -0.17757799029E+02  0.52655716275E+03 -0.10789782964E+04  0.12007380851E+04  0.00000000000E+00 0. -1.
          1    1    5    5  503    0 -0.19608465471E+03 -0.22834855944E+03 -0.96213434386E+03  0.10081144538E+04  0.00000000000E+00 0. -1.
         -2    1    5    5    0  503  0.37285887389E+01 -0.37131242257E+02 -0.13170032295E+03  0.13688537756E+03  0.00000000000E+00 0.  1.
         -1    1    6    6    0  502  0.24885278843E+02  0.91369128380E+02 -0.24069843041E+03  0.25865677862E+03  0.00000000000E+00 0.  1.
<mgrwt>
<rscale>  0 0.14086323E+04</rscale>
<asrwt>0</asrwt>
<pdfrwt beam="1">  1        2 0.49591425E+00 0.14086323E+04</pdfrwt>
<pdfrwt beam="2">  1       -2 0.23675654E-01 0.14086323E+04</pdfrwt>
<totfact> 0.19510924E+01</totfact>
</mgrwt>
</event>
<event>
12    1  0.1097093E-007  0.1473414E+04  0.7818608E-02  0.8902328E-01
         -2   -1    0    0    0  501 -0.00000000000E+00  0.00000000000E+00  0.55139246283E+03  0.55139246283E+03  0.00000000000E+00 0.  1.
          2   -1    0    0  501    0  0.00000000000E+00 -0.00000000000E+00 -0.98430248078E+03  0.98430248078E+03  0.00000000000E+00 0. -1.
         23    2    1    2    0    0 -0.33734675459E+03 -0.21909582975E+03  0.82409265110E+02  0.42020011455E+03  0.89280646525E+02 0.  0.
        254    2    1    2    0    0  0.33734675459E+03  0.21909582975E+03 -0.51531928307E+03  0.11154948291E+04  0.90386333851E+03 0.  0.
        -24    2    4    4    0    0 -0.17986100328E+03 -0.22792455675E+02  0.13969255866E+03  0.24294397127E+03  0.81475675469E+02 0.  0.
         24    2    4    4    0    0  0.51720775788E+03  0.24188828543E+03 -0.65501184173E+03  0.87255085779E+03  0.79313801988E+02 0.  0.
         13    1    3    3    0    0 -0.30247840786E+03 -0.16548124530E+03  0.49648846074E+02  0.34834212735E+03  0.00000000000E+00 0.  1.
        -13    1    3    3    0    0 -0.34868346731E+02 -0.53614584447E+02  0.32760419036E+02  0.71857987202E+02  0.00000000000E+00 0. -1.
          2    1    6    6  502    0  0.48182691935E+03  0.23975383542E+03 -0.59058959888E+03  0.79902137401E+03  0.00000000000E+00 0. -1.
          1    1    5    5  503    0 -0.17930060464E+03 -0.37158007689E+02  0.13602878472E+03  0.22810798897E+03  0.00000000000E+00 0. -1.
         -2    1    5    5    0  503 -0.56039863976E+00  0.14365552013E+02  0.36637739483E+01  0.14835982301E+02  0.00000000000E+00 0.  1.
         -1    1    6    6    0  502  0.35380838521E+02  0.21344500068E+01 -0.64422242853E+02  0.73529483783E+02  0.00000000000E+00 0.  1.
<mgrwt>
<rscale>  0 0.14734137E+04</rscale>
<asrwt>0</asrwt>
<pdfrwt beam="1">  1        2 0.15143115E+00 0.14734137E+04</pdfrwt>
<pdfrwt beam="2">  1       -2 0.84829611E-01 0.14734137E+04</pdfrwt>
<totfact> 0.30221551E+01</totfact>
</mgrwt>
</event>
<event>
12    1  0.1097093E-007  0.1468679E+04  0.7818608E-02  0.8905552E-01
         -2   -1    0    0    0  501 -0.00000000000E+00  0.00000000000E+00  0.47952274254E+03  0.47952274254E+03  0.00000000000E+00 0.  1.
          2   -1    0    0  501    0  0.00000000000E+00 -0.00000000000E+00 -0.11245654056E+04  0.11245654056E+04  0.00000000000E+00 0. -1.
         23    2    1    2    0    0 -0.39921560744E+03  0.15225201435E+03 -0.29566223012E+02  0.43788466966E+03  0.91186870111E+02 0.  0.
        254    2    1    2    0    0  0.39921560744E+03 -0.15225201435E+03 -0.61547644009E+03  0.11662034785E+04  0.89368088707E+03 0.  0.
        -24    2    4    4    0    0 -0.22211267805E+03 -0.17880458310E+03 -0.15744333656E+02  0.29862009032E+03  0.87298073342E+02 0.  0.
         24    2    4    4    0    0  0.62132828549E+03  0.26552568749E+02 -0.59973210643E+03  0.86758338820E+03  0.79173598755E+02 0.  0.
         11    1    3    3    0    0 -0.26093458394E+02  0.21602680269E+02  0.20183008394E+02  0.39432197423E+02  0.00000000000E+00 0. -1.
        -11    1    3    3    0    0 -0.37312214905E+03  0.13064933409E+03 -0.49749231406E+02  0.39845247224E+03  0.00000000000E+00 0.  1.
          4    1    6    6  502    0  0.36729779549E+03 -0.13404470000E+02 -0.38837522414E+03  0.53471736938E+03  0.00000000000E+00 0. -1.
          1    1    5    5  503    0 -0.17490153081E+03 -0.12845944575E+03  0.25047331601E+02  0.21844849165E+03  0.00000000000E+00 0. -1.
         -2    1    5    5    0  503 -0.47211147239E+02 -0.50345137356E+02 -0.40791665258E+02  0.80171598672E+02  0.00000000000E+00 0.  1.
         -3    1    6    6    0  502  0.25403049001E+03  0.39957038748E+02 -0.21135688229E+03  0.33286601883E+03  0.00000000000E+00 0.  1.
<mgrwt>
<rscale>  0 0.14686793E+04</rscale>
<asrwt>0</asrwt>
<pdfrwt beam="1">  1        2 0.17301006E+00 0.14686793E+04</pdfrwt>
<pdfrwt beam="2">  1       -2 0.73772731E-01 0.14686793E+04</pdfrwt>
<totfact> 0.33754860E+01</totfact>
</mgrwt>
</event>
<event>
12    1  0.1097093E-007  0.1424284E+04  0.7818608E-02  0.8936426E-01
          1   -1    0    0  501    0  0.00000000000E+00  0.00000000000E+00  0.10448622258E+04  0.10448622258E+04  0.00000000000E+00 0. -1.
         -1   -1    0    0    0  501 -0.00000000000E+00 -0.00000000000E+00 -0.48537143356E+03  0.48537143356E+03  0.00000000000E+00 0.  1.
         23    2    1    2    0    0  0.20169464707E+03 -0.20486302553E+03 -0.16014888847E+03  0.34270214138E+03  0.95642570764E+02 0.  0.
        254    2    1    2    0    0 -0.20169464707E+03  0.20486302553E+03  0.71963968072E+03  0.11875315180E+04  0.89983345474E+03 0.  0.
        -24    2    4    4    0    0 -0.10305969318E+03 -0.21977742667E+03 -0.84557318678E+02  0.26936375035E+03  0.80520011359E+02 0.  0.
         24    2    4    4    0    0 -0.98634953890E+02  0.42464045221E+03  0.80419699940E+03  0.91816776764E+03  0.79062430477E+02 0.  0.
         11    1    3    3    0    0  0.23721887005E+02 -0.41231251928E+02  0.79686494005E+01  0.48231145870E+02  0.00000000000E+00 0. -1.
        -11    1    3    3    0    0  0.17797276006E+03 -0.16363177360E+03 -0.16811753787E+03  0.29447099551E+03  0.00000000000E+00 0.  1.
          4    1    6    6  502    0 -0.73189300158E+02  0.20117150322E+03  0.45443052952E+03  0.50232833239E+03  0.00000000000E+00 0. -1.
          3    1    5    5  503    0 -0.10964863142E+03 -0.20973512300E+03 -0.93418416392E+02  0.25443789953E+03  0.00000000000E+00 0. -1.
         -4    1    5    5    0  503  0.65889382448E+01 -0.10042303669E+02  0.88610977145E+01  0.14925850826E+02  0.00000000000E+00 0.  1.
         -3    1    6    6    0  502 -0.25445653732E+02  0.22346894899E+03  0.34976646988E+03  0.41583943525E+03  0.00000000000E+00 0.  1.
<mgrwt>
<rscale>  0 0.14242841E+04</rscale>
<asrwt>0</asrwt>
<pdfrwt beam="1">  1        1 0.16074803E+00 0.14242841E+04</pdfrwt>
<pdfrwt beam="2">  1       -1 0.74672528E-01 0.14242841E+04</pdfrwt>
<totfact> 0.24528118E+01</totfact>
</mgrwt>
</event>
<event>
12    1  0.1097093E-007  0.1433479E+04  0.7818608E-02  0.8929935E-01
          2   -1    0    0  501    0  0.00000000000E+00  0.00000000000E+00  0.14986410277E+04  0.14986410277E+04  0.00000000000E+00 0.  1.
         -2   -1    0    0    0  501 -0.00000000000E+00 -0.00000000000E+00 -0.34278750604E+03  0.34278750604E+03  0.00000000000E+00 0. -1.
         23    2    1    2    0    0 -0.36276924434E+03  0.85029749818E+02  0.85492443807E+03  0.93726029913E+03  0.93431742660E+02 0.  0.
        254    2    1    2    0    0  0.36276924434E+03 -0.85029749818E+02  0.30092908355E+03  0.90416823455E+03  0.76689653804E+03 0.  0.
        -24    2    4    4    0    0  0.53057712351E+03  0.14590655265E+03  0.20895473013E+03  0.59390670454E+03  0.79134621658E+02 0.  0.
         24    2    4    4    0    0 -0.16780787918E+03 -0.23093630247E+03  0.91974353414E+02  0.31026153002E+03  0.79447310906E+02 0.  0.
         13    1    3    3    0    0 -0.50793627905E+02  0.47628497374E+02  0.14131737422E+03  0.15754068254E+03  0.00000000000E+00 0. -1.
        -13    1    3    3    0    0 -0.31197561643E+03  0.37401252444E+02  0.71360706384E+03  0.77971961659E+03  0.00000000000E+00 0.  1.
          4    1    6    6  502    0 -0.51355139975E+02 -0.12483360835E+03  0.67193950212E+02  0.15078397501E+03  0.00000000000E+00 0. -1.
          3    1    5    5  503    0  0.11842144849E+03  0.66307630757E+02  0.40970470628E+02  0.14177066277E+03  0.00000000000E+00 0. -1.
         -4    1    5    5    0  503  0.41215567502E+03  0.79598921892E+02  0.16798425951E+03  0.45213604176E+03  0.00000000000E+00 0.  1.
         -3    1    6    6    0  502 -0.11645273920E+03 -0.10610269412E+03  0.24780403202E+02  0.15947755500E+03  0.00000000000E+00 0.  1.
<mgrwt>
<rscale>  0 0.14334789E+04</rscale>
<asrwt>0</asrwt>
<pdfrwt beam="1">  1        2 0.23056015E+00 0.14334789E+04</pdfrwt>
<pdfrwt beam="2">  1       -2 0.52736540E-01 0.14334789E+04</pdfrwt>
<totfact> 0.41872171E+01</totfact>
</mgrwt>
</event>
<event>
12    1  0.1097093E-007  0.1413469E+04  0.7818608E-02  0.8944126E-01
          2   -1    0    0  501    0  0.00000000000E+00  0.00000000000E+00  0.62856950478E+03  0.62856950478E+03  0.00000000000E+00 0. -1.
         -2   -1    0    0    0  501 -0.00000000000E+00 -0.00000000000E+00 -0.79461965733E+03  0.79461965733E+03  0.00000000000E+00 0.  1.
         23    2    1    2    0    0 -0.27011665929E+03  0.81347123508E+02  0.24427727544E+03  0.38390437668E+03  0.90171054138E+02 0.  0.
        254    2    1    2    0    0  0.27011665929E+03 -0.81347123508E+02 -0.41032742799E+03  0.10392847854E+04  0.91223018090E+03 0.  0.
        -24    2    4    4    0    0 -0.11987102519E+03 -0.38483492615E+03 -0.34005501330E+03  0.53382480194E+03  0.82852423180E+02 0.  0.
         24    2    4    4    0    0  0.38998768449E+03  0.30348780265E+03 -0.70272414689E+02  0.50545998349E+03  0.79726672087E+02 0.  0.
         13    1    3    3    0    0 -0.21621281383E+03  0.31919795838E+02  0.21014855346E+03  0.30319839833E+03  0.00000000000E+00 0. -1.
        -13    1    3    3    0    0 -0.53903845461E+02  0.49427327669E+02  0.34128721978E+02  0.80705978341E+02  0.00000000000E+00 0.  1.
          4    1    6    6  502    0  0.37698444528E+03  0.30252016191E+03 -0.56756377488E+02  0.48667957295E+03  0.00000000000E+00 0. -1.
          1    1    5    5  503    0 -0.12736377534E+03 -0.31147472669E+03 -0.26228110015E+03  0.42664905031E+03  0.00000000000E+00 0. -1.
         -2    1    5    5    0  503  0.74927501532E+01 -0.73360199468E+02 -0.77773913146E+02  0.10717575163E+03  0.00000000000E+00 0.  1.
         -3    1    6    6    0  502  0.13003239210E+02  0.96764073587E+00 -0.13516037201E+02  0.18780410543E+02  0.00000000000E+00 0.  1.
<mgrwt>
<rscale>  0 0.14134690E+04</rscale>
<asrwt>0</asrwt>
<pdfrwt beam="1">  1        2 0.96703000E-01 0.14134690E+04</pdfrwt>
<pdfrwt beam="2">  1       -2 0.12224918E+00 0.14134690E+04</pdfrwt>
<totfact> 0.23095248E+01</totfact>
</mgrwt>
</event>
<event>
12    1  0.1097093E-007  0.2120364E+04  0.7818608E-02  0.8552326E-01
          1   -1    0    0  501    0  0.00000000000E+00  0.00000000000E+00  0.11809228831E+04  0.11809228831E+04  0.00000000000E+00 0. -1.
         -1   -1    0    0    0  501 -0.00000000000E+00 -0.00000000000E+00 -0.95178568665E+03  0.95178568665E+03  0.00000000000E+00 0.  1.
         23    2    1    2    0    0  0.28540060788E+03  0.81930155393E+03  0.13261815828E+03  0.88234153119E+03  0.90721874498E+02 0.  0.
        254    2    1    2    0    0 -0.28540060788E+03 -0.81930155393E+03  0.96519038162E+02  0.12503670386E+04  0.89520570995E+03 0.  0.
        -24    2    4    4    0    0 -0.37472035521E+03 -0.56594642342E+03  0.43537311197E+03  0.81071485940E+03  0.83654873379E+02 0.  0.
         24    2    4    4    0    0  0.89319747327E+02 -0.25335513050E+03 -0.33885407380E+03  0.43965217915E+03  0.79404759836E+02 0.  0.
         11    1    3    3    0    0  0.49390204599E+02  0.64123541944E+02  0.17536845171E+02  0.82817642326E+02  0.00000000000E+00 0.  1.
        -11    1    3    3    0    0  0.23601040328E+03  0.75517801198E+03  0.11508131311E+03  0.79952388886E+03  0.00000000000E+00 0. -1.
          2    1    6    6  502    0  0.71999276161E+02 -0.17376819760E+03 -0.28683994917E+03  0.34301084342E+03  0.00000000000E+00 0. -1.
          1    1    5    5  503    0 -0.27904336638E+03 -0.43785120988E+03  0.29046876864E+03  0.59493780168E+03  0.00000000000E+00 0. -1.
         -2    1    5    5    0  503 -0.95676988827E+02 -0.12809521354E+03  0.14490434333E+03  0.21577705772E+03  0.00000000000E+00 0.  1.
         -1    1    6    6    0  502  0.17320471166E+02 -0.79586932902E+02 -0.52014124633E+02  0.96641335729E+02  0.00000000000E+00 0.  1.
<mgrwt>
<rscale>  0 0.21203636E+04</rscale>
<asrwt>0</asrwt>
<pdfrwt beam="1">  1        1 0.18168044E+00 0.21203636E+04</pdfrwt>
<pdfrwt beam="2">  1       -1 0.14642857E+00 0.21203636E+04</pdfrwt>
<totfact> 0.37715523E+00</totfact>
</mgrwt>
</event>
<event>
12    1  0.1427944E-007  0.1367649E+04  0.7818608E-02  0.8977575E-01
         -1   -1    0    0    0  501 -0.00000000000E+00  0.00000000000E+00  0.28597383224E+03  0.28597383224E+03  0.00000000000E+00 0.  1.
          1   -1    0    0  501    0  0.00000000000E+00 -0.00000000000E+00 -0.16351703158E+04  0.16351703158E+04  0.00000000000E+00 0. -1.
         23    2    1    2    0    0  0.36148830829E+02  0.15252261594E+03 -0.86130440361E+03  0.88036584214E+03  0.92891624883E+02 0.  0.
        254    2    1    2    0    0 -0.36148830829E+02 -0.15252261594E+03 -0.48789207997E+03  0.10407783059E+04  0.90587577187E+03 0.  0.
        -24    2    4    4    0    0  0.35178545891E+03 -0.70322687906E+02  0.46398595176E+02  0.37055685490E+03  0.80381985188E+02 0.  0.
         24    2    4    4    0    0 -0.38793428974E+03 -0.82199928031E+02 -0.53429067515E+03  0.67022145103E+03  0.80501096541E+02 0.  0.
         13    1    3    3    0    0  0.60216041638E+02  0.13491066827E+03 -0.77752496522E+03  0.79143662515E+03  0.00000000000E+00 0. -1.
        -13    1    3    3    0    0 -0.24067210809E+02  0.17611947670E+02 -0.83779438391E+02  0.88929216987E+02  0.00000000000E+00 0.  1.
          4    1    6    6  502    0 -0.22780419929E+03 -0.23596591302E+02 -0.25282517277E+03  0.34113358134E+03  0.00000000000E+00 0. -1.
          3    1    5    5  503    0  0.80336874572E+02 -0.24047858071E+02 -0.22257341957E+02  0.86762331485E+02  0.00000000000E+00 0. -1.
         -4    1    5    5    0  503  0.27144858434E+03 -0.46274829835E+02  0.68655937133E+02  0.28379452342E+03  0.00000000000E+00 0.  1.
         -1    1    6    6    0  502 -0.16013009045E+03 -0.58603336730E+02 -0.28146550238E+03  0.32908786969E+03  0.00000000000E+00 0.  1.
<mgrwt>
<rscale>  0 0.13676490E+04</rscale>
<asrwt>0</asrwt>
<pdfrwt beam="1">  1        1 0.25156466E+00 0.13676490E+04</pdfrwt>
<pdfrwt beam="2">  1       -1 0.43995975E-01 0.13676490E+04</pdfrwt>
<totfact> 0.26357409E+01</totfact>
</mgrwt>
</event>
<event>
12    1  0.1097093E-007  0.1534358E+04  0.7818608E-02  0.8861922E-01
          1   -1    0    0  501    0  0.00000000000E+00  0.00000000000E+00  0.15995708605E+04  0.15995708605E+04  0.00000000000E+00 0. -1.
         -1   -1    0    0    0  501 -0.00000000000E+00 -0.00000000000E+00 -0.36795081084E+03  0.36795081084E+03  0.00000000000E+00 0.  1.
         23    2    1    2    0    0  0.36431726217E+03 -0.26864920929E+03  0.15455399438E+03  0.48704229734E+03  0.91781245605E+02 0.  0.
        254    2    1    2    0    0 -0.36431726217E+03  0.26864920929E+03  0.10770660552E+04  0.14804793740E+04  0.90931206098E+03 0.  0.
        -24    2    4    4    0    0 -0.28338213586E+03  0.52005577616E+03  0.32668812364E+03  0.68099913119E+03  0.79191169452E+02 0.  0.
         24    2    4    4    0    0 -0.80935126312E+02 -0.25140656687E+03  0.75037793161E+03  0.79948024279E+03  0.79660917767E+02 0.  0.
         13    1    3    3    0    0  0.31196168820E+03 -0.26150116139E+03  0.12190392547E+03  0.42492766367E+03  0.00000000000E+00 0.  1.
        -13    1    3    3    0    0  0.52355573978E+02 -0.71480479067E+01  0.32650068914E+02  0.62114633666E+02  0.00000000000E+00 0. -1.
          2    1    6    6  502    0 -0.59289378694E+02 -0.71471345254E+02  0.21293889227E+03  0.23230659797E+03  0.00000000000E+00 0. -1.
          3    1    5    5  503    0 -0.22213735207E+03  0.42456320884E+03  0.29696098011E+03  0.56372399735E+03  0.00000000000E+00 0. -1.
         -4    1    5    5    0  503 -0.61244783794E+02  0.95492567317E+02  0.29727143529E+02  0.11727513384E+03  0.00000000000E+00 0.  1.
         -1    1    6    6    0  502 -0.21645747618E+02 -0.17993522161E+03  0.53743903934E+03  0.56717364482E+03  0.00000000000E+00 0.  1.
<mgrwt>
<rscale>  0 0.15343577E+04</rscale>
<asrwt>0</asrwt>
<pdfrwt beam="1">  1        1 0.24608782E+00 0.15343577E+04</pdfrwt>
<pdfrwt beam="2">  1       -1 0.56607818E-01 0.15343577E+04</pdfrwt>
<totfact> 0.17013502E+01</totfact>
</mgrwt>
</event>
<event>
12    1  0.1097093E-007  0.1414418E+04  0.7818608E-02  0.8943448E-01
          1   -1    0    0  501    0  0.00000000000E+00  0.00000000000E+00  0.10756563502E+04  0.10756563502E+04  0.00000000000E+00 0. -1.
         -1   -1    0    0    0  501 -0.00000000000E+00 -0.00000000000E+00 -0.46496674182E+03  0.46496674182E+03  0.00000000000E+00 0.  1.
         23    2    1    2    0    0  0.29707081495E+03 -0.15096432331E+03 -0.77105923410E+02  0.35385757643E+03  0.90711437856E+02 0.  0.
        254    2    1    2    0    0 -0.29707081495E+03  0.15096432331E+03  0.68779553174E+03  0.11867655155E+04  0.90791431281E+03 0.  0.
        -24    2    4    4    0    0 -0.52952706513E+03 -0.12383632100E+03  0.58575704877E+03  0.80406486344E+03  0.87605007481E+02 0.  0.
         24    2    4    4    0    0  0.23245625018E+03  0.27480064431E+03  0.10203848297E+03  0.38270065211E+03  0.80601704405E+02 0.  0.
         11    1    3    3    0    0  0.58245195556E+02 -0.71360756006E+00  0.88037351644E+01  0.58911100770E+02  0.00000000000E+00 0. -1.
        -11    1    3    3    0    0  0.23882561940E+03 -0.15025071575E+03 -0.85909658575E+02  0.29494647566E+03  0.00000000000E+00 0.  1.
          4    1    6    6  502    0  0.31429556887E+02  0.85932393286E+02  0.40637191699E+02  0.10011780367E+03  0.00000000000E+00 0. -1.
          1    1    5    5  503    0 -0.19960110051E+01 -0.94017732999E+01  0.19503229679E+02  0.21742892379E+02  0.00000000000E+00 0. -1.
         -2    1    5    5    0  503 -0.52753105413E+03 -0.11443454770E+03  0.56625381909E+03  0.78232197106E+03  0.00000000000E+00 0.  1.
         -3    1    6    6    0  502  0.20102669329E+03  0.18886825103E+03  0.61401291271E+02  0.28258284844E+03  0.00000000000E+00 0.  1.
<mgrwt>
<rscale>  0 0.14144178E+04</rscale>
<asrwt>0</asrwt>
<pdfrwt beam="1">  1        1 0.16548559E+00 0.14144178E+04</pdfrwt>
<pdfrwt beam="2">  1       -1 0.71533345E-01 0.14144178E+04</pdfrwt>
<totfact> 0.25423954E+01</totfact>
</mgrwt>
</event>
<event>
12    1  0.1097093E-007  0.1905485E+04  0.7818608E-02  0.8652131E-01
         -1   -1    0    0    0  501 -0.00000000000E+00  0.00000000000E+00  0.26448041237E+04  0.26448041237E+04  0.00000000000E+00 0.  1.
          1   -1    0    0  501    0  0.00000000000E+00 -0.00000000000E+00 -0.34320798497E+03  0.34320798497E+03  0.00000000000E+00 0. -1.
         23    2    1    2    0    0 -0.10834566848E+03  0.66960662427E+02  0.20272982223E+04  0.20335519611E+04  0.95775684906E+02 0.  0.
        254    2    1    2    0    0  0.10834566848E+03 -0.66960662427E+02  0.27429791635E+03  0.95446014758E+03  0.90528023960E+03 0.  0.
        -24    2    4    4    0    0  0.51927638385E+02 -0.12436237267E+03 -0.31648350380E+03  0.35297124495E+03  0.79148039903E+02 0.  0.
         24    2    4    4    0    0  0.56418030095E+02  0.57401710240E+02  0.59078142015E+03  0.60148890263E+03  0.79298569571E+02 0.  0.
         11    1    3    3    0    0 -0.52010336139E+02  0.16196134280E+02  0.32252320985E+03  0.32709113519E+03  0.00000000000E+00 0. -1.
        -11    1    3    3    0    0 -0.56335332340E+02  0.50764528147E+02  0.17047750125E+04  0.17064608259E+04  0.00000000000E+00 0.  1.
          2    1    6    6  502    0  0.18534803559E+01 -0.11204321880E+02  0.13733250840E+02  0.17820617185E+02  0.00000000000E+00 0. -1.
          1    1    5    5  503    0  0.91739966715E+01  0.18919884542E+01 -0.87620379974E+02  0.88119650601E+02  0.00000000000E+00 0. -1.
         -2    1    5    5    0  503  0.42753641713E+02 -0.12625436112E+03 -0.22886312382E+03  0.26485159435E+03  0.00000000000E+00 0.  1.
         -1    1    6    6    0  502  0.54564549739E+02  0.68606032120E+02  0.57704816931E+03  0.58366828544E+03  0.00000000000E+00 0.  1.
<mgrwt>
<rscale>  0 0.19054846E+04</rscale>
<asrwt>0</asrwt>
<pdfrwt beam="1">  1        1 0.52801230E-01 0.19054846E+04</pdfrwt>
<pdfrwt beam="2">  1       -1 0.40689293E+00 0.19054846E+04</pdfrwt>
<totfact> 0.44205201E-01</totfact>
</mgrwt>
</event>
<event>
12    1  0.1097093E-007  0.2342115E+04  0.7818608E-02  0.8461498E-01
         -2   -1    0    0    0  501 -0.00000000000E+00  0.00000000000E+00  0.11056227819E+04  0.11056227819E+04  0.00000000000E+00 0.  1.
          2   -1    0    0  501    0  0.00000000000E+00 -0.00000000000E+00 -0.12403651089E+04  0.12403651089E+04  0.00000000000E+00 0. -1.
         23    2    1    2    0    0  0.18913589154E+03 -0.46676173260E+03 -0.92057459843E+03  0.10534709234E+04  0.93297880962E+02 0.  0.
        254    2    1    2    0    0 -0.18913589154E+03  0.46676173260E+03  0.78583227143E+03  0.12925169674E+04  0.89410785242E+03 0.  0.
        -24    2    4    4    0    0 -0.31021310686E+03 -0.42482223136E+02  0.68070675101E+03  0.75265353679E+03  0.71335507464E+02 0.  0.
         24    2    4    4    0    0  0.12107721532E+03  0.50924395573E+03  0.10512552043E+03  0.53986343063E+03  0.80075278121E+02 0.  0.
         11    1    3    3    0    0  0.12834900154E+03 -0.19560756288E+03 -0.40133963739E+03  0.46455278429E+03  0.00000000000E+00 0.  1.
        -11    1    3    3    0    0  0.60786889999E+02 -0.27115416972E+03 -0.51923496105E+03  0.58891813907E+03  0.00000000000E+00 0. -1.
          2    1    6    6  502    0  0.20275365062E+02  0.20663395285E+03  0.69368953324E+02  0.21890804596E+03  0.00000000000E+00 0. -1.
          3    1    5    5  503    0 -0.19478874239E+02  0.10768986329E+02  0.81927711165E+02  0.84897275957E+02  0.00000000000E+00 0. -1.
         -4    1    5    5    0  503 -0.29073423262E+03 -0.53251209465E+02  0.59877903984E+03  0.66775626083E+03  0.00000000000E+00 0.  1.
         -1    1    6    6    0  502  0.10080185026E+03  0.30261000288E+03  0.35756567101E+02  0.32095538467E+03  0.00000000000E+00 0.  1.
<mgrwt>
<rscale>  0 0.23421152E+04</rscale>
<asrwt>0</asrwt>
<pdfrwt beam="1">  1        2 0.19082540E+00 0.23421152E+04</pdfrwt>
<pdfrwt beam="2">  1       -2 0.17009581E+00 0.23421152E+04</pdfrwt>
<totfact> 0.34458012E+00</totfact>
</mgrwt>
</event>
<event>
12    1  0.1097093E-007  0.2032710E+04  0.7818608E-02  0.8591478E-01
         -1   -1    0    0    0  501 -0.00000000000E+00  0.00000000000E+00  0.16696249458E+04  0.16696249458E+04  0.00000000000E+00 0.  1.
          1   -1    0    0  501    0  0.00000000000E+00 -0.00000000000E+00 -0.61868848489E+03  0.61868848489E+03  0.00000000000E+00 0. -1.
         23    2    1    2    0    0 -0.37356280013E+03 -0.61832699725E+03 -0.42242519601E+01  0.72832210005E+03  0.92508356111E+02 0.  0.
        254    2    1    2    0    0  0.37356280013E+03  0.61832699725E+03  0.10551607129E+04  0.15599913307E+04  0.89349391747E+03 0.  0.
        -24    2    4    4    0    0  0.16014036732E+03 -0.19186941709E+03  0.45870230642E+03  0.52845788486E+03  0.80006997777E+02 0.  0.
         24    2    4    4    0    0  0.21342243281E+03  0.81019641434E+03  0.59645840649E+03  0.10315334458E+04  0.79569180810E+02 0.  0.
         11    1    3    3    0    0 -0.30438057839E+03 -0.44948295674E+03  0.25518707350E+02  0.54344610526E+03  0.00000000000E+00 0. -1.
        -11    1    3    3    0    0 -0.69182221738E+02 -0.16884404051E+03 -0.29742959310E+02  0.18487599479E+03  0.00000000000E+00 0.  1.
          2    1    6    6  502    0  0.10205232365E+03  0.42308467603E+03  0.35710028728E+03  0.56297063426E+03  0.00000000000E+00 0. -1.
          3    1    5    5  503    0  0.86960723714E+02 -0.50108776727E+02  0.14259447900E+03  0.17437385817E+03  0.00000000000E+00 0. -1.
         -4    1    5    5    0  503  0.73179643602E+02 -0.14176064036E+03  0.31610782742E+03  0.35408402668E+03  0.00000000000E+00 0.  1.
         -1    1    6    6    0  502  0.11137010917E+03  0.38711173831E+03  0.23935811920E+03  0.46856281156E+03  0.00000000000E+00 0.  1.
<mgrwt>
<rscale>  0 0.20327102E+04</rscale>
<asrwt>0</asrwt>
<pdfrwt beam="1">  1        1 0.95182845E-01 0.20327102E+04</pdfrwt>
<pdfrwt beam="2">  1       -1 0.25686537E+00 0.20327102E+04</pdfrwt>
<totfact> 0.19054600E+00</totfact>
</mgrwt>
</event>
<event>
12    1  0.1097093E-007  0.1887927E+04  0.7818608E-02  0.8660889E-01
         -2   -1    0    0    0  501 -0.00000000000E+00  0.00000000000E+00  0.21805565101E+04  0.21805565101E+04  0.00000000000E+00 0. -1.
          2   -1    0    0  501    0  0.00000000000E+00 -0.00000000000E+00 -0.40864206521E+03  0.40864206521E+03  0.00000000000E+00 0.  1.
         23    2    1    2    0    0 -0.60534907759E+03  0.39696474715E+03  0.73120941163E+03  0.10331333245E+04  0.93106102682E+02 0.  0.
        254    2    1    2    0    0  0.60534907759E+03 -0.39696474715E+03  0.10407050333E+04  0.15560652508E+04  0.90235446598E+03 0.  0.
        -24    2    4    4    0    0  0.59202795084E+03  0.77238583736E+02  0.30078166189E+03  0.67318737666E+03  0.79048988409E+02 0.  0.
         24    2    4    4    0    0  0.13321126749E+02 -0.47420333089E+03  0.73992337138E+03  0.88287787415E+03  0.83309625554E+02 0.  0.
         13    1    3    3    0    0 -0.54771992034E+03  0.38872832799E+03  0.67345324547E+03  0.95112885455E+03  0.00000000000E+00 0. -1.
        -13    1    3    3    0    0 -0.57629157249E+02  0.82364191625E+01  0.57756166163E+02  0.82004469974E+02  0.00000000000E+00 0.  1.
          4    1    6    6  502    0 -0.34909625295E+02 -0.23618019865E+03  0.37272012586E+03  0.44262858063E+03  0.00000000000E+00 0. -1.
          1    1    5    5  503    0  0.36126437925E+03  0.42000579610E+02  0.22539858852E+03  0.42787909988E+03  0.00000000000E+00 0. -1.
         -2    1    5    5    0  503  0.23076357159E+03  0.35238004126E+02  0.75383073371E+02  0.24530827678E+03  0.00000000000E+00 0.  1.
         -3    1    6    6    0  502  0.48230752045E+02 -0.23802313224E+03  0.36720324552E+03  0.44024929352E+03  0.00000000000E+00 0.  1.
<mgrwt>
<rscale>  0 0.18879270E+04</rscale>
<asrwt>0</asrwt>
<pdfrwt beam="1">  1        2 0.62868011E-01 0.18879270E+04</pdfrwt>
<pdfrwt beam="2">  1       -2 0.33547023E+00 0.18879270E+04</pdfrwt>
<totfact> 0.14001714E+00</totfact>
</mgrwt>
</event>
<event>
12    1  0.1097093E-007  0.1403476E+04  0.7818608E-02  0.8951307E-01
          1   -1    0    0  501    0  0.00000000000E+00  0.00000000000E+00  0.10339437325E+04  0.10339437325E+04  0.00000000000E+00 0. -1.
         -1   -1    0    0    0  501 -0.00000000000E+00 -0.00000000000E+00 -0.47626960710E+03  0.47626960710E+03  0.00000000000E+00 0.  1.
         23    2    1    2    0    0  0.13527176978E+03  0.31996202951E+03  0.39394064189E+03  0.53327117704E+03  0.92275494574E+02 0.  0.
        254    2    1    2    0    0 -0.13527176978E+03 -0.31996202951E+03  0.16373348347E+03  0.97694216253E+03  0.89829459716E+03 0.  0.
        -24    2    4    4    0    0 -0.50483757592E+03 -0.22389989596E+03  0.10040776509E+02  0.55758874734E+03  0.76238130204E+02 0.  0.
         24    2    4    4    0    0  0.36956580613E+03 -0.96062133549E+02  0.15369270696E+03  0.41935341519E+03  0.80181170448E+02 0.  0.
         11    1    3    3    0    0  0.13739583414E+03  0.32558845633E+03  0.38654587427E+03  0.52373960233E+03  0.00000000000E+00 0. -1.
        -11    1    3    3    0    0 -0.21240643522E+01 -0.56264268263E+01  0.73947676220E+01  0.95315747066E+01  0.00000000000E+00 0.  1.
          2    1    6    6  502    0  0.96121272809E+02 -0.59462672951E+02  0.60200268183E+02  0.12805928647E+03  0.00000000000E+00 0. -1.
          1    1    5    5  503    0 -0.35673693558E+01  0.42643189144E+01  0.39152751807E+01  0.67999940930E+01  0.00000000000E+00 0. -1.
         -2    1    5    5    0  503 -0.50127020656E+03 -0.22816421487E+03  0.61255013283E+01  0.55078875324E+03  0.00000000000E+00 0.  1.
         -1    1    6    6    0  502  0.27344453332E+03 -0.36599460598E+02  0.93492438782E+02  0.29129412873E+03  0.00000000000E+00 0.  1.
<mgrwt>
<rscale>  0 0.14034757E+04</rscale>
<asrwt>0</asrwt>
<pdfrwt beam="1">  1        1 0.15906827E+00 0.14034757E+04</pdfrwt>
<pdfrwt beam="2">  1       -1 0.73272247E-01 0.14034757E+04</pdfrwt>
<totfact> 0.26058361E+01</totfact>
</mgrwt>
</event>
<event>
12    1  0.1097093E-007  0.1987647E+04  0.7818608E-02  0.8612418E-01
          3   -1    0    0  501    0  0.00000000000E+00  0.00000000000E+00  0.22043330036E+04  0.22043330036E+04  0.00000000000E+00 0. -1.
         -3   -1    0    0    0  501 -0.00000000000E+00 -0.00000000000E+00 -0.44806532503E+03  0.44806532503E+03  0.00000000000E+00 0.  1.
         23    2    1    2    0    0  0.62595794557E+00  0.67097168656E+03  0.12444221747E+04  0.14160070239E+04  0.79283962551E+02 0.  0.
        254    2    1    2    0    0 -0.62595794557E+00 -0.67097168656E+03  0.51184550383E+03  0.12363913047E+04  0.90358964286E+03 0.  0.
        -24    2    4    4    0    0 -0.69049242776E+02 -0.53727928604E+03 -0.13782854986E+03  0.56439006451E+03  0.78119182151E+02 0.  0.
         24    2    4    4    0    0  0.68423284830E+02 -0.13369240052E+03  0.64967405369E+03  0.67200124024E+03  0.83389969319E+02 0.  0.
         13    1    3    3    0    0 -0.31874733642E+02  0.31747708086E+03  0.54087434461E+03  0.62797512066E+03  0.00000000000E+00 0. -1.
        -13    1    3    3    0    0  0.32500691588E+02  0.35349460570E+03  0.70354783013E+03  0.78803190322E+03  0.00000000000E+00 0.  1.
          2    1    6    6  502    0  0.15661281532E+02  0.81867867146E+01  0.38523582481E+02  0.42383553687E+02  0.00000000000E+00 0. -1.
          3    1    5    5  503    0 -0.25358976178E+02 -0.25502889581E+03 -0.25758769321E+02  0.25757781264E+03  0.00000000000E+00 0. -1.
         -4    1    5    5    0  503 -0.43690266598E+02 -0.28225039023E+03 -0.11206978054E+03  0.30681225186E+03  0.00000000000E+00 0.  1.
         -1    1    6    6    0  502  0.52762003298E+02 -0.14187918723E+03  0.61115047121E+03  0.62961768655E+03  0.00000000000E+00 0.  1.
<mgrwt>
<rscale>  0 0.19876470E+04</rscale>
<asrwt>0</asrwt>
<pdfrwt beam="1">  1        3 0.33912815E+00 0.19876470E+04</pdfrwt>
<pdfrwt beam="2">  1       -3 0.68933128E-01 0.19876470E+04</pdfrwt>
<totfact> 0.11609204E-01</totfact>
</mgrwt>
</event>
<event>
12    1  0.1097093E-007  0.1936843E+04  0.7818608E-02  0.8636731E-01
          2   -1    0    0  501    0  0.00000000000E+00  0.00000000000E+00  0.26212435257E+04  0.26212435257E+04  0.00000000000E+00 0. -1.
         -2   -1    0    0    0  501 -0.00000000000E+00 -0.00000000000E+00 -0.35778448842E+03  0.35778448842E+03  0.00000000000E+00 0.  1.
         23    2    1    2    0    0  0.54996219750E+02  0.21711469044E+03 -0.21853380534E+03  0.32614602266E+03  0.91928401620E+02 0.  0.
        254    2    1    2    0    0 -0.54996219750E+02 -0.21711469044E+03  0.24819928426E+04  0.26528819915E+04  0.90957738363E+03 0.  0.
        -24    2    4    4    0    0 -0.24339802151E+03  0.28298705358E+03  0.12685934153E+04  0.13247663573E+04  0.79701812348E+02 0.  0.
         24    2    4    4    0    0  0.18840180176E+03 -0.50010174403E+03  0.12133994273E+04  0.13281156341E+04  0.77174957265E+02 0.  0.
         13    1    3    3    0    0  0.55672351228E+02  0.20631548860E+03 -0.16087657638E+03  0.26748226923E+03  0.00000000000E+00 0.  1.
        -13    1    3    3    0    0 -0.67613147728E+00  0.10799201846E+02 -0.57657228960E+02  0.58663753423E+02  0.00000000000E+00 0. -1.
          4    1    6    6  502    0  0.83142586408E+02 -0.31679836967E+03  0.69645410511E+03  0.76962472493E+03  0.00000000000E+00 0. -1.
          1    1    5    5  503    0 -0.55187949298E+02  0.10959409658E+03  0.49321058086E+03  0.50824526837E+03  0.00000000000E+00 0. -1.
         -2    1    5    5    0  503 -0.18821007222E+03  0.17339295701E+03  0.77538283441E+03  0.81652108896E+03  0.00000000000E+00 0.  1.
         -3    1    6    6    0  502  0.10525921536E+03 -0.18330337436E+03  0.51694532223E+03  0.55849090919E+03  0.00000000000E+00 0.  1.
<mgrwt>
<rscale>  0 0.19368431E+04</rscale>
<asrwt>0</asrwt>
<pdfrwt beam="1">  1        2 0.40326822E+00 0.19368431E+04</pdfrwt>
<pdfrwt beam="2">  1       -2 0.55043769E-01 0.19368431E+04</pdfrwt>
<totfact> 0.85795802E+00</totfact>
</mgrwt>
</event>
<event>
12    1  0.1097093E-007  0.2289230E+04  0.7818608E-02  0.8482180E-01
          1   -1    0    0  501    0  0.00000000000E+00  0.00000000000E+00  0.13497695341E+04  0.13497695341E+04  0.00000000000E+00 0. -1.
         -1   -1    0    0    0  501 -0.00000000000E+00 -0.00000000000E+00 -0.97064255299E+03  0.97064255299E+03  0.00000000000E+00 0.  1.
         23    2    1    2    0    0 -0.11126520759E+02  0.29135113750E+03 -0.77174437966E+03  0.82991633146E+03  0.90346250033E+02 0.  0.
        254    2    1    2    0    0  0.11126520759E+02 -0.29135113750E+03  0.11508713608E+04  0.14904957556E+04  0.90114561738E+03 0.  0.
        -24    2    4    4    0    0 -0.23043154034E+03  0.23321103786E+03  0.60040797565E+03  0.68872624087E+03  0.79799841315E+02 0.  0.
         24    2    4    4    0    0  0.24155806110E+03 -0.52456217536E+03  0.55046338512E+03  0.80176951477E+03  0.79426971157E+02 0.  0.
         13    1    3    3    0    0  0.22491986004E+02  0.33466401181E+02 -0.61350851818E+02  0.73415369380E+02  0.00000000000E+00 0. -1.
        -13    1    3    3    0    0 -0.33618506763E+02  0.25788473632E+03 -0.71039352785E+03  0.75650096208E+03  0.00000000000E+00 0.  1.
          4    1    6    6  502    0  0.15870354074E+03 -0.25059413807E+03  0.27269160926E+03  0.40292052521E+03  0.00000000000E+00 0. -1.
          3    1    5    5  503    0  0.95820722022E+00  0.85959623235E+01  0.50517441955E+02  0.51252518679E+02  0.00000000000E+00 0. -1.
         -4    1    5    5    0  503 -0.23138974756E+03  0.22461507553E+03  0.54989053370E+03  0.63747372219E+03  0.00000000000E+00 0.  1.
         -3    1    6    6    0  502  0.82854520361E+02 -0.27396803729E+03  0.27777177586E+03  0.39884898955E+03  0.00000000000E+00 0.  1.
<mgrwt>
<rscale>  0 0.22892302E+04</rscale>
<asrwt>0</asrwt>
<pdfrwt beam="1">  1        1 0.20765685E+00 0.22892302E+04</pdfrwt>
<pdfrwt beam="2">  1       -1 0.14932962E+00 0.22892302E+04</pdfrwt>
<totfact> 0.26636822E+00</totfact>
</mgrwt>
</event>
<event>
12    1  0.1097093E-007  0.2119730E+04  0.7818608E-02  0.8552602E-01
          1   -1    0    0  501    0  0.00000000000E+00  0.00000000000E+00  0.25214453022E+04  0.25214453022E+04  0.00000000000E+00 0. -1.
         -1   -1    0    0    0  501 -0.00000000000E+00 -0.00000000000E+00 -0.44550399832E+03  0.44550399832E+03  0.00000000000E+00 0.  1.
         23    2    1    2    0    0  0.18225815258E+03  0.84160634150E+03  0.74540299374E+03  0.11427438550E+04  0.93373587285E+02 0.  0.
        254    2    1    2    0    0 -0.18225815258E+03 -0.84160634150E+03  0.13305383101E+04  0.18242054455E+04  0.90325746300E+03 0.  0.
        -24    2    4    4    0    0 -0.30980035969E+03  0.13186237419E+02  0.13705612197E+03  0.34840374891E+03  0.80315950877E+02 0.  0.
         24    2    4    4    0    0  0.12754220711E+03 -0.85479257892E+03  0.11934821881E+04  0.14758016966E+04  0.81569275271E+02 0.  0.
         13    1    3    3    0    0  0.42259735064E+02  0.26345556839E+03  0.28599414386E+03  0.39113600198E+03  0.00000000000E+00 0.  1.
        -13    1    3    3    0    0  0.13999841752E+03  0.57815077311E+03  0.45940884988E+03  0.75160785301E+03  0.00000000000E+00 0. -1.
          4    1    6    6  502    0 -0.10348957828E+02 -0.12156105191E+03  0.16520550255E+03  0.20537051479E+03  0.00000000000E+00 0. -1.
          3    1    5    5  503    0 -0.13584543870E+02  0.19813789003E+02  0.10180380981E+02  0.26091497153E+02  0.00000000000E+00 0. -1.
         -4    1    5    5    0  503 -0.29621581582E+03 -0.66275515837E+01  0.12687574099E+03  0.32231225176E+03  0.00000000000E+00 0.  1.
         -3    1    6    6    0  502  0.13789116493E+03 -0.73323152701E+03  0.10282766856E+04  0.12704311818E+04  0.00000000000E+00 0.  1.
<mgrwt>
<rscale>  0 0.21197301E+04</rscale>
<asrwt>0</asrwt>
<pdfrwt beam="1">  1        1 0.38791465E+00 0.21197301E+04</pdfrwt>
<pdfrwt beam="2">  1       -1 0.68539078E-01 0.21197301E+04</pdfrwt>
<totfact> 0.25899362E+00</totfact>
</mgrwt>
</event>
<event>
12    1  0.1097093E-007  0.1666712E+04  0.7818608E-02  0.8780581E-01
         -2   -1    0    0    0  501 -0.00000000000E+00  0.00000000000E+00  0.40127719352E+03  0.40127719352E+03  0.00000000000E+00 0.  1.
          2   -1    0    0  501    0  0.00000000000E+00 -0.00000000000E+00 -0.17306791437E+04  0.17306791437E+04  0.00000000000E+00 0. -1.
         23    2    1    2    0    0  0.18745175551E+03 -0.11353735894E+03  0.22754019575E+03  0.32874720600E+03  0.90946645086E+02 0.  0.
        254    2    1    2    0    0 -0.18745175551E+03  0.11353735894E+03 -0.15569421460E+04  0.18032091313E+04  0.88287339560E+03 0.  0.
        -24    2    4    4    0    0 -0.24489986391E+03 -0.16379255610E+03 -0.10923777704E+03  0.32593940053E+03  0.86600554897E+02 0.  0.
         24    2    4    4    0    0  0.57448108404E+02  0.27732991504E+03 -0.14477043689E+04  0.14772697307E+04  0.79156494416E+02 0.  0.
         11    1    3    3    0    0  0.15127011708E+03 -0.12799568129E+03  0.18560518811E+03  0.27150474877E+03  0.00000000000E+00 0.  1.
        -11    1    3    3    0    0  0.36181638430E+02  0.14458322345E+02  0.41935007639E+02  0.57242457234E+02  0.00000000000E+00 0. -1.
          4    1    6    6  502    0 -0.17605242970E+02  0.37433451184E+02 -0.15997219260E+03  0.16523410741E+03  0.00000000000E+00 0. -1.
          1    1    5    5  503    0  0.59295594663E+00 -0.18008748424E+02 -0.19734472340E+02  0.26722949221E+02  0.00000000000E+00 0. -1.
         -2    1    5    5    0  503 -0.24549281986E+03 -0.14578380767E+03 -0.89503304700E+02  0.29921645131E+03  0.00000000000E+00 0.  1.
         -3    1    6    6    0  502  0.75053351374E+02  0.23989646385E+03 -0.12877321763E+04  0.13120356233E+04  0.00000000000E+00 0.  1.
<mgrwt>
<rscale>  0 0.16667118E+04</rscale>
<asrwt>0</asrwt>
<pdfrwt beam="1">  1        2 0.26625833E+00 0.16667118E+04</pdfrwt>
<pdfrwt beam="2">  1       -2 0.61734953E-01 0.16667118E+04</pdfrwt>
<totfact> 0.21926897E+01</totfact>
</mgrwt>
</event>
<event>
12    1  0.1097093E-007  0.1678156E+04  0.7818608E-02  0.8773922E-01
          1   -1    0    0  501    0  0.00000000000E+00  0.00000000000E+00  0.87175294724E+03  0.87175294724E+03  0.00000000000E+00 0. -1.
         -1   -1    0    0    0  501 -0.00000000000E+00 -0.00000000000E+00 -0.80762735787E+03  0.80762735787E+03  0.00000000000E+00 0.  1.
         23    2    1    2    0    0 -0.34451908489E+03 -0.48252704693E+03  0.33195679513E+01  0.59967665488E+03  0.89862784336E+02 0.  0.
        254    2    1    2    0    0  0.34451908489E+03  0.48252704693E+03  0.60806021412E+02  0.10797036502E+04  0.90029820015E+03 0.  0.
        -24    2    4    4    0    0  0.37030333954E+03 -0.10548725623E+03  0.23868093504E+03  0.45958602944E+03  0.77450663073E+02 0.  0.
         24    2    4    4    0    0 -0.25784254642E+02  0.58801430315E+03 -0.17787491362E+03  0.62011762078E+03  0.80502982601E+02 0.  0.
         11    1    3    3    0    0 -0.15175779326E+03 -0.14731667521E+03  0.21342079004E+02  0.21257496312E+03  0.00000000000E+00 0.  1.
        -11    1    3    3    0    0 -0.19276129163E+03 -0.33521037172E+03 -0.18022511053E+02  0.38710169176E+03  0.00000000000E+00 0. -1.
          4    1    6    6  502    0 -0.50364076954E+01  0.42582656543E+03 -0.93003757340E+02  0.43589371193E+03  0.00000000000E+00 0. -1.
          3    1    5    5  503    0  0.95660048665E+02 -0.60788615978E+01  0.91517179919E+02  0.13252619246E+03  0.00000000000E+00 0. -1.
         -4    1    5    5    0  503  0.27464329087E+03 -0.99408394628E+02  0.14716375512E+03  0.32705983698E+03  0.00000000000E+00 0.  1.
         -3    1    6    6    0  502 -0.20747846947E+02  0.16218773773E+03 -0.84871156285E+02  0.18422390885E+03  0.00000000000E+00 0.  1.
<mgrwt>
<rscale>  0 0.16781556E+04</rscale>
<asrwt>0</asrwt>
<pdfrwt beam="1">  1        1 0.13411584E+00 0.16781556E+04</pdfrwt>
<pdfrwt beam="2">  1       -1 0.12425036E+00 0.16781556E+04</pdfrwt>
<totfact> 0.10402057E+01</totfact>
</mgrwt>
</event>
<event>
12    1  0.1097093E-007  0.1463606E+04  0.7818608E-02  0.8909022E-01
          1   -1    0    0  501    0  0.00000000000E+00  0.00000000000E+00  0.29412984062E+04  0.29412984062E+04  0.00000000000E+00 0. -1.
         -1   -1    0    0    0  501 -0.00000000000E+00 -0.00000000000E+00 -0.18207467575E+03  0.18207467575E+03  0.00000000000E+00 0.  1.
         23    2    1    2    0    0 -0.26259699862E+03 -0.14146430442E+03  0.15271759133E+03  0.34833145941E+03  0.95093689582E+02 0.  0.
        254    2    1    2    0    0  0.26259699862E+03  0.14146430442E+03  0.26065061391E+04  0.27750416226E+04  0.90444039082E+03 0.  0.
        -24    2    4    4    0    0 -0.23272118299E+03  0.26400284584E+03  0.16378550771E+04  0.16771734830E+04  0.80529416231E+02 0.  0.
         24    2    4    4    0    0  0.49531818162E+03 -0.12253854142E+03  0.96865106204E+03  0.10978681396E+04  0.81693186540E+02 0.  0.
         11    1    3    3    0    0 -0.52807158551E+02 -0.48001984395E+02  0.80499268760E+02  0.10757750123E+03  0.00000000000E+00 0. -1.
        -11    1    3    3    0    0 -0.20978984007E+03 -0.93462320025E+02  0.72218322573E+02  0.24075395817E+03  0.00000000000E+00 0.  1.
          2    1    6    6  502    0  0.55426241707E+02 -0.14319414701E+02  0.17384338611E+03  0.18302632817E+03  0.00000000000E+00 0. -1.
          1    1    5    5  503    0 -0.46344680004E+01  0.17707384173E+02  0.34499315392E+02  0.39054225257E+02  0.00000000000E+00 0. -1.
         -2    1    5    5    0  503 -0.22808671499E+03  0.24629546167E+03  0.16033557617E+04  0.16381192577E+04  0.00000000000E+00 0.  1.
         -3    1    6    6    0  502  0.43989193991E+03 -0.10821912672E+03  0.79480767593E+03  0.91484181141E+03  0.00000000000E+00 0.  1.
<mgrwt>
<rscale>  0 0.14636064E+04</rscale>
<asrwt>0</asrwt>
<pdfrwt beam="1">  1        1 0.45250741E+00 0.14636064E+04</pdfrwt>
<pdfrwt beam="2">  1       -1 0.28011491E-01 0.14636064E+04</pdfrwt>
<totfact> 0.74079711E+00</totfact>
</mgrwt>
</event>
<event>
12    1  0.1097093E-007  0.1703500E+04  0.7818608E-02  0.8759371E-01
          2   -1    0    0  501    0  0.00000000000E+00  0.00000000000E+00  0.19087799791E+04  0.19087799791E+04  0.00000000000E+00 0. -1.
         -2   -1    0    0    0  501 -0.00000000000E+00 -0.00000000000E+00 -0.38007421268E+03  0.38007421268E+03  0.00000000000E+00 0.  1.
         23    2    1    2    0    0 -0.18208427297E+03  0.43231683717E+03  0.10661704388E+04  0.11682860916E+04  0.90113578545E+02 0.  0.
        254    2    1    2    0    0  0.18208427297E+03 -0.43231683717E+03  0.46253532759E+03  0.11205681002E+04  0.90646644047E+03 0.  0.
        -24    2    4    4    0    0  0.16736281927E+03  0.10018179180E+03  0.53678832251E+03  0.57675787854E+03  0.80381854890E+02 0.  0.
         24    2    4    4    0    0  0.14721453701E+02 -0.53249862897E+03 -0.74252994919E+02  0.54381022163E+03  0.80277885119E+02 0.  0.
         13    1    3    3    0    0  0.18650557868E+01  0.40209544724E+02  0.54071595659E+02  0.67409371582E+02  0.00000000000E+00 0.  1.
        -13    1    3    3    0    0 -0.18394932875E+03  0.39210729245E+03  0.10120988432E+04  0.11008767200E+04  0.00000000000E+00 0. -1.
          4    1    6    6  502    0 -0.10084106034E+02 -0.19621132659E+02 -0.15545955325E+02  0.26988048620E+02  0.00000000000E+00 0. -1.
          1    1    5    5  503    0 -0.18413364918E+01  0.26209276571E+02  0.70015445455E+02  0.74782881067E+02  0.00000000000E+00 0. -1.
         -2    1    5    5    0  503  0.16920415576E+03  0.73972515232E+02  0.46677287706E+03  0.50197499748E+03  0.00000000000E+00 0.  1.
         -3    1    6    6    0  502  0.24805559735E+02 -0.51287749631E+03 -0.58707039594E+02  0.51682217301E+03  0.00000000000E+00 0.  1.
<mgrwt>
<rscale>  0 0.17035000E+04</rscale>
<asrwt>0</asrwt>
<pdfrwt beam="1">  1        2 0.29365845E+00 0.17035000E+04</pdfrwt>
<pdfrwt beam="2">  1       -2 0.58472957E-01 0.17035000E+04</pdfrwt>
<totfact> 0.19534594E+01</totfact>
</mgrwt>
</event>
<event>
12    1  0.1097093E-007  0.1614411E+04  0.7818608E-02  0.8811743E-01
          2   -1    0    0  501    0  0.00000000000E+00  0.00000000000E+00  0.10770448019E+04  0.10770448019E+04  0.00000000000E+00 0. -1.
         -2   -1    0    0    0  501 -0.00000000000E+00 -0.00000000000E+00 -0.60497115431E+03  0.60497115431E+03  0.00000000000E+00 0.  1.
         23    2    1    2    0    0  0.24019752275E+02  0.30512909371E+03 -0.31670026862E+03  0.44758269741E+03  0.79690015399E+02 0.  0.
        254    2    1    2    0    0 -0.24019752275E+02 -0.30512909371E+03  0.78877391620E+03  0.12344332588E+04  0.89887733714E+03 0.  0.
        -24    2    4    4    0    0 -0.30036996083E+03 -0.17693313139E+03  0.84248133187E+03  0.91497109042E+03  0.76614981572E+02 0.  0.
         24    2    4    4    0    0  0.27635020855E+03 -0.12819596232E+03 -0.53707415666E+02  0.31946216838E+03  0.79799423598E+02 0.  0.
         11    1    3    3    0    0  0.39501455251E+02  0.68051835144E+02 -0.77311192251E+02  0.11031064174E+03  0.00000000000E+00 0. -1.
        -11    1    3    3    0    0 -0.15481702976E+02  0.23707725856E+03 -0.23938907637E+03  0.33727205568E+03  0.00000000000E+00 0.  1.
          4    1    6    6  502    0  0.24732761368E+03 -0.13748029172E+03 -0.39058810225E+02  0.28565253326E+03  0.00000000000E+00 0. -1.
          1    1    5    5  503    0 -0.22276538152E+03 -0.14666342680E+03  0.71039998578E+03  0.75881665490E+03  0.00000000000E+00 0. -1.
         -2    1    5    5    0  503 -0.77604579312E+02 -0.30269704586E+02  0.13208134609E+03  0.15615443551E+03  0.00000000000E+00 0.  1.
         -3    1    6    6    0  502  0.29022594869E+02  0.92843294051E+01 -0.14648605441E+02  0.33809635118E+02  0.00000000000E+00 0.  1.
<mgrwt>
<rscale>  0 0.16144114E+04</rscale>
<asrwt>0</asrwt>
<pdfrwt beam="1">  1        2 0.16569920E+00 0.16144114E+04</pdfrwt>
<pdfrwt beam="2">  1       -2 0.93072485E-01 0.16144114E+04</pdfrwt>
<totfact> 0.21087032E+01</totfact>
</mgrwt>
</event>
<event>
12    1  0.1097093E-007  0.1503850E+04  0.7818608E-02  0.8881897E-01
          1   -1    0    0  501    0  0.00000000000E+00  0.00000000000E+00  0.64131321880E+03  0.64131321880E+03  0.00000000000E+00 0. -1.
         -1   -1    0    0    0  501 -0.00000000000E+00 -0.00000000000E+00 -0.88161494892E+03  0.88161494892E+03  0.00000000000E+00 0.  1.
         23    2    1    2    0    0  0.19806557213E+02  0.46480154581E+03 -0.19148054362E+03  0.51124634300E+03  0.90968389845E+02 0.  0.
        254    2    1    2    0    0 -0.19806557213E+02 -0.46480154581E+03 -0.48821186501E+02  0.10116818247E+04  0.89704171002E+03 0.  0.
        -24    2    4    4    0    0 -0.22710689381E+03  0.18026754544E+03  0.92403266366E+02  0.31508979940E+03  0.81665714346E+02 0.  0.
         24    2    4    4    0    0  0.20730033659E+03 -0.64506909125E+03 -0.14122445287E+03  0.69659202532E+03  0.78794299332E+02 0.  0.
         13    1    3    3    0    0 -0.29603503410E+02  0.20642819321E+03 -0.59064554223E+02  0.21674313814E+03  0.00000000000E+00 0.  1.
        -13    1    3    3    0    0  0.49410060623E+02  0.25837335261E+03 -0.13241598940E+03  0.29450320487E+03  0.00000000000E+00 0. -1.
          2    1    6    6  502    0  0.36961398242E+02 -0.22273284541E+03 -0.29538035725E+02  0.22770279080E+03  0.00000000000E+00 0. -1.
          3    1    5    5  503    0 -0.11137279179E+02 -0.39344750309E+00  0.22292657736E+02  0.24923008995E+02  0.00000000000E+00 0. -1.
         -4    1    5    5    0  503 -0.21596961463E+03  0.18066099294E+03  0.70110608630E+02  0.29016679041E+03  0.00000000000E+00 0.  1.
         -1    1    6    6    0  502  0.17033893835E+03 -0.42233624585E+03 -0.11168641714E+03  0.46888923452E+03  0.00000000000E+00 0.  1.
<mgrwt>
<rscale>  0 0.15038502E+04</rscale>
<asrwt>0</asrwt>
<pdfrwt beam="1">  1        1 0.98663572E-01 0.15038502E+04</pdfrwt>
<pdfrwt beam="2">  1       -1 0.13563307E+00 0.15038502E+04</pdfrwt>
<totfact> 0.13677686E+01</totfact>
</mgrwt>
</event>
<event>
12    1  0.1097093E-007  0.1698280E+04  0.7818608E-02  0.8762346E-01
          1   -1    0    0  501    0  0.00000000000E+00  0.00000000000E+00  0.51689792811E+03  0.51689792811E+03  0.00000000000E+00 0. -1.
         -1   -1    0    0    0  501 -0.00000000000E+00 -0.00000000000E+00 -0.13949349042E+04  0.13949349042E+04  0.00000000000E+00 0.  1.
         23    2    1    2    0    0  0.49848923102E+03 -0.14932687519E+03  0.33225554518E+02  0.52926007951E+03  0.90676707059E+02 0.  0.
        254    2    1    2    0    0 -0.49848923102E+03  0.14932687519E+03 -0.91126253065E+03  0.13825727528E+04  0.90017664270E+03 0.  0.
        -24    2    4    4    0    0 -0.18814140070E+03  0.48616521456E+03 -0.68845464060E+03  0.86690469293E+03  0.76158728692E+02 0.  0.
         24    2    4    4    0    0 -0.31034783031E+03 -0.33683833937E+03 -0.22280789005E+03  0.51566805992E+03  0.80587526943E+02 0.  0.
         11    1    3    3    0    0  0.41282777904E+03 -0.10755860999E+03  0.58657239219E+02  0.43062315479E+03  0.00000000000E+00 0. -1.
        -11    1    3    3    0    0  0.85661451981E+02 -0.41768265196E+02 -0.25431684701E+02  0.98636924727E+02  0.00000000000E+00 0.  1.
          2    1    6    6  502    0 -0.17319185869E+03 -0.22450424455E+03 -0.10290108383E+03  0.30163920301E+03  0.00000000000E+00 0. -1.
          3    1    5    5  503    0 -0.26151464330E+02  0.10700312644E+03 -0.19404681795E+03  0.22313165556E+03  0.00000000000E+00 0. -1.
         -4    1    5    5    0  503 -0.16198993637E+03  0.37916208812E+03 -0.49440782265E+03  0.64377303738E+03  0.00000000000E+00 0.  1.
         -1    1    6    6    0  502 -0.13715597163E+03 -0.11233409482E+03 -0.11990680622E+03  0.21402885691E+03  0.00000000000E+00 0.  1.
<mgrwt>
<rscale>  0 0.16982803E+04</rscale>
<asrwt>0</asrwt>
<pdfrwt beam="1">  1        1 0.79522759E-01 0.16982803E+04</pdfrwt>
<pdfrwt beam="2">  1       -1 0.21460537E+00 0.16982803E+04</pdfrwt>
<totfact> 0.48186935E+00</totfact>
</mgrwt>
</event>
<event>
12    1  0.1097093E-007  0.2891808E+04  0.7818608E-02  0.8275319E-01
         -2   -1    0    0    0  501 -0.00000000000E+00  0.00000000000E+00  0.77840920082E+03  0.77840920082E+03  0.00000000000E+00 0.  1.
          2   -1    0    0  501    0  0.00000000000E+00 -0.00000000000E+00 -0.26857840326E+04  0.26857840326E+04  0.00000000000E+00 0. -1.
         23    2    1    2    0    0 -0.34590198533E+03  0.84053036387E+03  0.25473124952E+03  0.94846707215E+03  0.92532704650E+02 0.  0.
        254    2    1    2    0    0  0.34590198533E+03 -0.84053036387E+03 -0.21621060813E+04  0.25157261613E+04  0.90996479915E+03 0.  0.
        -24    2    4    4    0    0  0.21737554262E+03 -0.92431822735E+03 -0.11709131641E+04  0.15096390039E+04  0.79724351742E+02 0.  0.
         24    2    4    4    0    0  0.12852644270E+03  0.83787863482E+02 -0.99119291729E+03  0.10060871575E+04  0.78794140499E+02 0.  0.
         13    1    3    3    0    0 -0.59412306198E+02  0.16244737899E+03  0.12110866098E+02  0.17339448130E+03  0.00000000000E+00 0. -1.
        -13    1    3    3    0    0 -0.28648967913E+03  0.67808298488E+03  0.24262038342E+03  0.77507259085E+03  0.00000000000E+00 0.  1.
          4    1    6    6  502    0  0.13061966249E+03  0.73534053889E+02 -0.75908118925E+03  0.77373962363E+03  0.00000000000E+00 0. -1.
          3    1    5    5  503    0  0.21213320123E+03 -0.79373272099E+03 -0.99133814217E+03  0.12875416263E+04  0.00000000000E+00 0. -1.
         -4    1    5    5    0  503  0.52423413946E+01 -0.13058550636E+03 -0.17957502189E+03  0.22209737752E+03  0.00000000000E+00 0.  1.
         -3    1    6    6    0  502 -0.20932197840E+01  0.10253809593E+02 -0.23211172805E+03  0.23234753383E+03  0.00000000000E+00 0.  1.
<mgrwt>
<rscale>  0 0.28918084E+04</rscale>
<asrwt>0</asrwt>
<pdfrwt beam="1">  1        2 0.41319754E+00 0.28918084E+04</pdfrwt>
<pdfrwt beam="2">  1       -2 0.11975526E+00 0.28918084E+04</pdfrwt>
<totfact> 0.12476757E+00</totfact>
</mgrwt>
</event>
<event>
12    1  0.1097093E-007  0.3742401E+04  0.7818608E-02  0.8058630E-01
          1   -1    0    0  501    0  0.00000000000E+00  0.00000000000E+00  0.28401520924E+04  0.28401520924E+04  0.00000000000E+00 0. -1.
         -1   -1    0    0    0  501 -0.00000000000E+00 -0.00000000000E+00 -0.12328179155E+04  0.12328179155E+04  0.00000000000E+00 0.  1.
         23    2    1    2    0    0  0.49901171851E+03 -0.16619668598E+04  0.10866580368E+04  0.20495102464E+04  0.92303970313E+02 0.  0.
        254    2    1    2    0    0 -0.49901171851E+03  0.16619668598E+04  0.52067614011E+03  0.20234597615E+04  0.90118767470E+03 0.  0.
        -24    2    4    4    0    0 -0.45999466082E+02  0.14286859970E+04  0.30397312413E+03  0.14635658012E+04  0.79784492915E+02 0.  0.
         24    2    4    4    0    0 -0.45301225243E+03  0.23328086280E+03  0.21670301597E+03  0.55989396026E+03  0.82951719730E+02 0.  0.
         11    1    3    3    0    0  0.39266527588E+03 -0.11663460634E+04  0.75750491958E+03  0.14451169025E+04  0.00000000000E+00 0. -1.
        -11    1    3    3    0    0  0.10634644263E+03 -0.49562079637E+03  0.32915311717E+03  0.60439334394E+03  0.00000000000E+00 0.  1.
          2    1    6    6  502    0 -0.44198992799E+03  0.23439802288E+03  0.22232269793E+03  0.54747137970E+03  0.00000000000E+00 0. -1.
          1    1    5    5  503    0 -0.67799425716E+02  0.11192541223E+04  0.22945601476E+03  0.11445420984E+04  0.00000000000E+00 0. -1.
         -2    1    5    5    0  503  0.21799959633E+02  0.30943187473E+03  0.74517109373E+02  0.31902370277E+03  0.00000000000E+00 0.  1.
         -1    1    6    6    0  502 -0.11022324434E+02 -0.11171600768E+01 -0.56196819525E+01  0.12422580562E+02  0.00000000000E+00 0.  1.
<mgrwt>
<rscale>  0 0.37424005E+04</rscale>
<asrwt>0</asrwt>
<pdfrwt beam="1">  1        1 0.43694647E+00 0.37424005E+04</pdfrwt>
<pdfrwt beam="2">  1       -1 0.18966430E+00 0.37424005E+04</pdfrwt>
<totfact> 0.11075616E-01</totfact>
</mgrwt>
</event>
<event>
12    1  0.1097093E-007  0.1440736E+04  0.7818608E-02  0.8924848E-01
         -2   -1    0    0    0  501 -0.00000000000E+00  0.00000000000E+00  0.10385504271E+04  0.10385504271E+04  0.00000000000E+00 0.  1.
          2   -1    0    0  501    0  0.00000000000E+00 -0.00000000000E+00 -0.49966753613E+03  0.49966753613E+03  0.00000000000E+00 0. -1.
         23    2    1    2    0    0  0.51973344589E+02 -0.18059832260E+03  0.59404511922E+03  0.62662992341E+03  0.66771809701E+02 0.  0.
        254    2    1    2    0    0 -0.51973344589E+02  0.18059832260E+03 -0.55162228212E+02  0.91158803985E+03  0.89029933186E+03 0.  0.
        -24    2    4    4    0    0 -0.32800522951E+03  0.22042793101E+03  0.26233983664E+03  0.48140192634E+03  0.82156688352E+02 0.  0.
         24    2    4    4    0    0  0.27603188492E+03 -0.39829608415E+02 -0.31750206485E+03  0.43018611351E+03  0.80452047049E+02 0.  0.
         13    1    3    3    0    0  0.19664310296E+02 -0.25443758134E+02  0.18840152637E+03  0.19112614962E+03  0.00000000000E+00 0. -1.
        -13    1    3    3    0    0  0.32309034294E+02 -0.15515456446E+03  0.40564359285E+03  0.43550377380E+03  0.00000000000E+00 0.  1.
          4    1    6    6  502    0  0.25222286321E+03 -0.13734537141E+02 -0.29470391936E+03  0.38814354345E+03  0.00000000000E+00 0. -1.
          1    1    5    5  503    0 -0.22806397386E+03  0.19421883251E+03  0.20774813472E+03  0.36454549587E+03  0.00000000000E+00 0. -1.
         -2    1    5    5    0  503 -0.99941255653E+02  0.26209098499E+02  0.54591701914E+02  0.11685643048E+03  0.00000000000E+00 0.  1.
         -3    1    6    6    0  502  0.23809021712E+02 -0.26095071273E+02 -0.22798145494E+02  0.42042570064E+02  0.00000000000E+00 0.  1.
<mgrwt>
<rscale>  0 0.14407358E+04</rscale>
<asrwt>0</asrwt>
<pdfrwt beam="1">  1        2 0.76871929E-01 0.14407358E+04</pdfrwt>
<pdfrwt beam="2">  1       -2 0.15977699E+00 0.14407358E+04</pdfrwt>
<totfact> 0.15106733E+01</totfact>
</mgrwt>
</event>
<event>
12    1  0.1097093E-007  0.2225537E+04  0.7818608E-02  0.8507874E-01
         -2   -1    0    0    0  501 -0.00000000000E+00  0.00000000000E+00  0.70945134750E+03  0.70945134750E+03  0.00000000000E+00 0.  1.
          2   -1    0    0  501    0  0.00000000000E+00 -0.00000000000E+00 -0.17453678374E+04  0.17453678374E+04  0.00000000000E+00 0. -1.
         23    2    1    2    0    0  0.69740293838E+03  0.38806699549E+03  0.96449978733E+02  0.80911148203E+03  0.91607535193E+02 0.  0.
        254    2    1    2    0    0 -0.69740293838E+03 -0.38806699549E+03 -0.11323664686E+04  0.16457077029E+04  0.88833167936E+03 0.  0.
        -24    2    4    4    0    0 -0.42139929912E+03 -0.14105213415E+03 -0.16033699774E+01  0.45316732346E+03  0.88797400868E+02 0.  0.
         24    2    4    4    0    0 -0.27600363926E+03 -0.24701486134E+03 -0.11307630986E+04  0.11925403794E+04  0.79580278043E+02 0.  0.
         13    1    3    3    0    0  0.13073687672E+03  0.46263955158E+02  0.42961294436E+02  0.14518318532E+03  0.00000000000E+00 0. -1.
        -13    1    3    3    0    0  0.56666606167E+03  0.34180304034E+03  0.53488684297E+02  0.66392829671E+03  0.00000000000E+00 0.  1.
          4    1    6    6  502    0 -0.34603589246E+02 -0.77205018296E+01 -0.16327369447E+03  0.16707876539E+03  0.00000000000E+00 0. -1.
          3    1    5    5  503    0 -0.33270427686E+03 -0.14288245089E+03 -0.19712691239E+02  0.36262393855E+03  0.00000000000E+00 0. -1.
         -4    1    5    5    0  503 -0.88695022265E+02  0.18303167349E+01  0.18109321262E+02  0.90543384908E+02  0.00000000000E+00 0.  1.
         -3    1    6    6    0  502 -0.24140005001E+03 -0.23929435951E+03 -0.96748940418E+03  0.10254616140E+04  0.00000000000E+00 0.  1.
<mgrwt>
<rscale>  0 0.22255368E+04</rscale>
<asrwt>0</asrwt>
<pdfrwt beam="1">  1        2 0.26851813E+00 0.22255368E+04</pdfrwt>
<pdfrwt beam="2">  1       -2 0.10914636E+00 0.22255368E+04</pdfrwt>
<totfact> 0.56513312E+00</totfact>
</mgrwt>
</event>
<event>
12    1  0.1097093E-007  0.1419434E+04  0.7818608E-02  0.8939870E-01
          2   -1    0    0  501    0  0.00000000000E+00  0.00000000000E+00  0.15932677139E+04  0.15932677139E+04  0.00000000000E+00 0. -1.
         -2   -1    0    0    0  501 -0.00000000000E+00 -0.00000000000E+00 -0.31614140832E+03  0.31614140832E+03  0.00000000000E+00 0.  1.
         23    2    1    2    0    0 -0.23236354583E+03  0.31863535215E+03  0.42528612877E+03  0.58732046757E+03  0.92497217399E+02 0.  0.
        254    2    1    2    0    0  0.23236354583E+03 -0.31863535215E+03  0.85184017681E+03  0.13220886547E+04  0.93100237319E+03 0.  0.
        -24    2    4    4    0    0 -0.24124861716E+03 -0.80645064250E+02  0.72186956138E+03  0.77003366469E+03  0.84567484531E+02 0.  0.
         24    2    4    4    0    0  0.47361216299E+03 -0.23799028790E+03  0.12997061543E+03  0.55205498997E+03  0.83213538619E+02 0.  0.
         11    1    3    3    0    0 -0.10005329171E+03  0.11133382408E+03  0.22456048138E+03  0.26987643721E+03  0.00000000000E+00 0.  1.
        -11    1    3    3    0    0 -0.13231025412E+03  0.20730152807E+03  0.20072564740E+03  0.31744403036E+03  0.00000000000E+00 0. -1.
          2    1    6    6  502    0  0.98487455255E+02 -0.89465883673E+02  0.34475123124E+02  0.13744983557E+03  0.00000000000E+00 0. -1.
          1    1    5    5  503    0 -0.16744524023E+02 -0.33879966666E+02  0.12655191023E+03  0.13207428670E+03  0.00000000000E+00 0. -1.
         -2    1    5    5    0  503 -0.22450409314E+03 -0.46765097584E+02  0.59531765116E+03  0.63795937799E+03  0.00000000000E+00 0.  1.
         -1    1    6    6    0  502  0.37512470774E+03 -0.14852440423E+03  0.95495492309E+02  0.41460515440E+03  0.00000000000E+00 0.  1.
<mgrwt>
<rscale>  0 0.14194335E+04</rscale>
<asrwt>0</asrwt>
<pdfrwt beam="1">  1        2 0.24511811E+00 0.14194335E+04</pdfrwt>
<pdfrwt beam="2">  1       -2 0.48637141E-01 0.14194335E+04</pdfrwt>
<totfact> 0.43763353E+01</totfact>
</mgrwt>
</event>
<event>
12    1  0.1097093E-007  0.1864358E+04  0.7818608E-02  0.8672804E-01
          1   -1    0    0  501    0  0.00000000000E+00  0.00000000000E+00  0.29582472713E+04  0.29582472713E+04  0.00000000000E+00 0. -1.
         -1   -1    0    0    0  501 -0.00000000000E+00 -0.00000000000E+00 -0.29374082130E+03  0.29374082130E+03  0.00000000000E+00 0.  1.
         23    2    1    2    0    0  0.13521414075E+03  0.70111332480E+03  0.10180005047E+04  0.12468071103E+04  0.91434044664E+02 0.  0.
        254    2    1    2    0    0 -0.13521414075E+03 -0.70111332480E+03  0.16465059453E+04  0.20051809824E+04  0.89438592679E+03 0.  0.
        -24    2    4    4    0    0  0.26115156300E+02 -0.53804013199E+01 -0.91298256951E+02  0.12460115079E+03  0.80493011808E+02 0.  0.
         24    2    4    4    0    0 -0.16132929705E+03 -0.69573292348E+03  0.17378042023E+04  0.18805798316E+04  0.80904972805E+02 0.  0.
         13    1    3    3    0    0  0.95909215235E+02  0.46219143461E+03  0.59613099773E+03  0.76038915448E+03  0.00000000000E+00 0.  1.
        -13    1    3    3    0    0  0.39304925511E+02  0.23892189019E+03  0.42186950700E+03  0.48641795579E+03  0.00000000000E+00 0. -1.
          2    1    6    6  502    0 -0.69135470288E+02 -0.31707119623E+03  0.89538386738E+03  0.95237919271E+03  0.00000000000E+00 0. -1.
          3    1    5    5  503    0  0.15094410291E+02 -0.41244681930E+02 -0.66260205988E+02  0.79494527530E+02  0.00000000000E+00 0. -1.
         -4    1    5    5    0  503  0.11020746008E+02  0.35864280610E+02 -0.25038050963E+02  0.45106623264E+02  0.00000000000E+00 0.  1.
         -1    1    6    6    0  502 -0.92193826757E+02 -0.37866172725E+03  0.84242033487E+03  0.92820063886E+03  0.00000000000E+00 0.  1.
<mgrwt>
<rscale>  0 0.18643583E+04</rscale>
<asrwt>0</asrwt>
<pdfrwt beam="1">  1        1 0.45511494E+00 0.18643583E+04</pdfrwt>
<pdfrwt beam="2">  1       -1 0.45190898E-01 0.18643583E+04</pdfrwt>
<totfact> 0.29305490E+00</totfact>
</mgrwt>
</event>
<event>
12    1  0.1097093E-007  0.1225697E+04  0.7818608E-02  0.9090657E-01
         -2   -1    0    0    0  501 -0.00000000000E+00  0.00000000000E+00  0.78236373662E+03  0.78236373662E+03  0.00000000000E+00 0. -1.
          2   -1    0    0  501    0  0.00000000000E+00 -0.00000000000E+00 -0.48006224342E+03  0.48006224342E+03  0.00000000000E+00 0.  1.
         23    2    1    2    0    0  0.16618432846E+03 -0.15502172990E+03  0.22359348643E+03  0.33191295698E+03  0.92321157206E+02 0.  0.
        254    2    1    2    0    0 -0.16618432846E+03  0.15502172990E+03  0.78708006765E+02  0.93051302306E+03  0.89889408051E+03 0.  0.
        -24    2    4    4    0    0 -0.63898109688E+02  0.19372666603E+02  0.47818475453E+03  0.48930379139E+03  0.79367954339E+02 0.  0.
         24    2    4    4    0    0 -0.10228621877E+03  0.13564906330E+03 -0.39947674776E+03  0.44120923166E+03  0.78871890940E+02 0.  0.
         11    1    3    3    0    0  0.95890110989E+02 -0.97247268056E+02  0.70187125969E+02  0.15355187131E+03  0.00000000000E+00 0. -1.
        -11    1    3    3    0    0  0.70294217473E+02 -0.57774461842E+02  0.15340636047E+03  0.17836108567E+03  0.00000000000E+00 0.  1.
          4    1    6    6  502    0 -0.79598651115E+02  0.44056210591E+02 -0.22806347576E+03  0.24553990292E+03  0.00000000000E+00 0. -1.
          1    1    5    5  503    0 -0.28110386398E+02  0.48553598596E+02  0.30207054929E+03  0.30723649280E+03  0.00000000000E+00 0. -1.
         -2    1    5    5    0  503 -0.35787723290E+02 -0.29180931993E+02  0.17611420523E+03  0.18206729859E+03  0.00000000000E+00 0.  1.
         -3    1    6    6    0  502 -0.22687567659E+02  0.91592852705E+02 -0.17141327200E+03  0.19566932875E+03  0.00000000000E+00 0.  1.
<mgrwt>
<rscale>  0 0.12256970E+04</rscale>
<asrwt>0</asrwt>
<pdfrwt beam="1">  1        2 0.73855729E-01 0.12256970E+04</pdfrwt>
<pdfrwt beam="2">  1       -2 0.12036365E+00 0.12256970E+04</pdfrwt>
<totfact> 0.33505268E+01</totfact>
</mgrwt>
</event>
<event>
12    1  0.1097093E-007  0.2870197E+04  0.7818608E-02  0.8281800E-01
         -2   -1    0    0    0  501 -0.00000000000E+00  0.00000000000E+00  0.14044124552E+04  0.14044124552E+04  0.00000000000E+00 0.  1.
          2   -1    0    0  501    0  0.00000000000E+00 -0.00000000000E+00 -0.14664545307E+04  0.14664545307E+04  0.00000000000E+00 0. -1.
         23    2    1    2    0    0 -0.53820475454E+03 -0.11784077490E+04 -0.87609943352E+02  0.13004904709E+04  0.72737761499E+02 0.  0.
        254    2    1    2    0    0  0.53820475454E+03  0.11784077490E+04  0.25567867836E+02  0.15703765150E+04  0.88719755534E+03 0.  0.
        -24    2    4    4    0    0 -0.18721224445E+03  0.87558519515E+02 -0.11577564944E+03  0.25035230941E+03  0.80977521672E+02 0.  0.
         24    2    4    4    0    0  0.72541699898E+03  0.10908492295E+04  0.14134351728E+03  0.13200242056E+04  0.79398044679E+02 0.  0.
         13    1    3    3    0    0 -0.36072016665E+03 -0.82699644895E+03 -0.31209982721E+02  0.90278249220E+03  0.00000000000E+00 0. -1.
        -13    1    3    3    0    0 -0.17748458789E+03 -0.35141130007E+03 -0.56399960631E+02  0.39770797869E+03  0.00000000000E+00 0.  1.
          2    1    6    6  502    0  0.13804832329E+03  0.16664330766E+03  0.42315217450E+02  0.22049469196E+03  0.00000000000E+00 0. -1.
          1    1    5    5  503    0 -0.36473821152E+02  0.50820402046E+02 -0.12001424091E+02  0.63695267279E+02  0.00000000000E+00 0. -1.
         -2    1    5    5    0  503 -0.15073842329E+03  0.36738117469E+02 -0.10377422535E+03  0.18665704214E+03  0.00000000000E+00 0.  1.
         -1    1    6    6    0  502  0.58736867569E+03  0.92420592184E+03  0.99028299827E+02  0.10995295136E+04  0.00000000000E+00 0.  1.
<mgrwt>
<rscale>  0 0.28701965E+04</rscale>
<asrwt>0</asrwt>
<pdfrwt beam="1">  1        2 0.22560839E+00 0.28701965E+04</pdfrwt>
<pdfrwt beam="2">  1       -2 0.21606345E+00 0.28701965E+04</pdfrwt>
<totfact> 0.12013669E+00</totfact>
</mgrwt>
</event>
<event>
12    1  0.1097093E-007  0.3446257E+04  0.7818608E-02  0.8126646E-01
         -1   -1    0    0    0  501 -0.00000000000E+00  0.00000000000E+00  0.10100687852E+04  0.10100687852E+04  0.00000000000E+00 0.  1.
          1   -1    0    0  501    0  0.00000000000E+00 -0.00000000000E+00 -0.29395732615E+04  0.29395732615E+04  0.00000000000E+00 0. -1.
         23    2    1    2    0    0 -0.13606191873E+03 -0.49724437682E+03  0.83692340624E+03  0.98703316613E+03  0.89603945945E+02 0.  0.
        254    2    1    2    0    0  0.13606191873E+03  0.49724437682E+03 -0.27664278825E+04  0.29626088806E+04  0.92637105657E+03 0.  0.
        -24    2    4    4    0    0 -0.27629981632E+03 -0.11049906164E+03 -0.10263251039E+04  0.10721358256E+04  0.87065369040E+02 0.  0.
         24    2    4    4    0    0  0.41236173505E+03  0.60774343846E+03 -0.17401027786E+04  0.18904730550E+04  0.80848031476E+02 0.  0.
         13    1    3    3    0    0 -0.31414862796E+02 -0.32761400809E+02  0.52313504860E+02  0.69259698081E+02  0.00000000000E+00 0. -1.
        -13    1    3    3    0    0 -0.10464705593E+03 -0.46448297601E+03  0.78460990138E+03  0.91777346805E+03  0.00000000000E+00 0.  1.
          2    1    6    6  502    0  0.74394850543E+02  0.11825184411E+03 -0.41779460321E+03  0.44053424713E+03  0.00000000000E+00 0. -1.
          1    1    5    5  503    0 -0.10603580033E+03 -0.11089445586E+01 -0.30231740221E+03  0.32037576748E+03  0.00000000000E+00 0. -1.
         -2    1    5    5    0  503 -0.17026401600E+03 -0.10939011708E+03 -0.72400770172E+03  0.75176005814E+03  0.00000000000E+00 0.  1.
         -1    1    6    6    0  502  0.33796688451E+03  0.48949159435E+03 -0.13223081753E+04  0.14499388079E+04  0.00000000000E+00 0.  1.
<mgrwt>
<rscale>  0 0.34462566E+04</rscale>
<asrwt>0</asrwt>
<pdfrwt beam="1">  1        1 0.45224203E+00 0.34462566E+04</pdfrwt>
<pdfrwt beam="2">  1       -1 0.15539520E+00 0.34462566E+04</pdfrwt>
<totfact> 0.17165614E-01</totfact>
</mgrwt>
</event>
<event>
12    1  0.1097093E-007  0.1187074E+04  0.7818608E-02  0.9124247E-01
         -1   -1    0    0    0  501 -0.00000000000E+00  0.00000000000E+00  0.35808957350E+03  0.35808957350E+03  0.00000000000E+00 0.  1.
          1   -1    0    0  501    0  0.00000000000E+00 -0.00000000000E+00 -0.98379261507E+03  0.98379261507E+03  0.00000000000E+00 0. -1.
         23    2    1    2    0    0  0.13665189552E+03 -0.11753907581E+03  0.49117258735E+02  0.20765577604E+03  0.90660031576E+02 0.  0.
        254    2    1    2    0    0 -0.13665189552E+03  0.11753907581E+03 -0.67482030030E+03  0.11342264125E+04  0.89364307320E+03 0.  0.
        -24    2    4    4    0    0 -0.24131285344E+03 -0.26671056847E+03 -0.26388766048E+02  0.36902947077E+03  0.78230190837E+02 0.  0.
         24    2    4    4    0    0  0.10466095792E+03  0.38424964428E+03 -0.64843153425E+03  0.76519694175E+03  0.80381588742E+02 0.  0.
         11    1    3    3    0    0  0.14201248432E+03 -0.11282625093E+03  0.63032521400E+02  0.19201668510E+03  0.00000000000E+00 0.  1.
        -11    1    3    3    0    0 -0.53605887955E+01 -0.47128248839E+01 -0.13915262665E+02  0.15639090947E+02  0.00000000000E+00 0. -1.
          4    1    6    6  502    0  0.65322391855E+02  0.17558021334E+03 -0.37311783875E+03  0.41750730267E+03  0.00000000000E+00 0. -1.
          1    1    5    5  503    0 -0.75705667112E+02 -0.10580157995E+03  0.24992321903E+02  0.13247618090E+03  0.00000000000E+00 0. -1.
         -4    1    5    5    0  503 -0.16560718633E+03 -0.16090898852E+03 -0.51381087951E+02  0.23655328987E+03  0.00000000000E+00 0.  1.
         -3    1    6    6    0  502  0.39338566061E+02  0.20866943094E+03 -0.27531369551E+03  0.34768963908E+03  0.00000000000E+00 0.  1.
<mgrwt>
<rscale>  0 0.11870735E+04</rscale>
<asrwt>0</asrwt>
<pdfrwt beam="1">  1        1 0.15135271E+00 0.11870735E+04</pdfrwt>
<pdfrwt beam="2">  1       -1 0.55090704E-01 0.11870735E+04</pdfrwt>
<totfact> 0.51398269E+01</totfact>
</mgrwt>
</event>
<event>
12    1  0.1097093E-007  0.1537419E+04  0.7818608E-02  0.8859944E-01
          1   -1    0    0  501    0  0.00000000000E+00  0.00000000000E+00  0.71748390329E+03  0.71748390329E+03  0.00000000000E+00 0. -1.
         -1   -1    0    0    0  501 -0.00000000000E+00 -0.00000000000E+00 -0.82359234566E+03  0.82359234566E+03  0.00000000000E+00 0.  1.
         23    2    1    2    0    0 -0.28350453704E+02  0.10385037460E+02 -0.53311187520E+03  0.54238303109E+03  0.95181320121E+02 0.  0.
        254    2    1    2    0    0  0.28350453704E+02 -0.10385037460E+02  0.42700343283E+03  0.99869321786E+03  0.90229962569E+03 0.  0.
        -24    2    4    4    0    0  0.20386750813E+03 -0.38206837602E+02  0.65986580938E+03  0.69594967628E+03  0.76820194032E+02 0.  0.
         24    2    4    4    0    0 -0.17551705443E+03  0.27821800142E+02 -0.23286237655E+03  0.30274354158E+03  0.76475333253E+02 0.  0.
         13    1    3    3    0    0  0.10299888599E+02  0.83554278806E+01 -0.72813899543E+01  0.15130086579E+02  0.00000000000E+00 0. -1.
        -13    1    3    3    0    0 -0.38650342302E+02  0.20296095793E+01 -0.52583048525E+03  0.52725294451E+03  0.00000000000E+00 0.  1.
          4    1    6    6  502    0 -0.11837219234E+03  0.22576401549E+02 -0.95113482354E+02  0.15351952434E+03  0.00000000000E+00 0. -1.
          3    1    5    5  503    0  0.11021295168E+03 -0.45401043371E+01  0.23525372179E+03  0.25983036944E+03  0.00000000000E+00 0. -1.
         -4    1    5    5    0  503  0.93654556455E+02 -0.33666733265E+02  0.42461208759E+03  0.43611930685E+03  0.00000000000E+00 0.  1.
         -3    1    6    6    0  502 -0.57144862083E+02  0.52453985931E+01 -0.13774889420E+03  0.14922401724E+03  0.00000000000E+00 0.  1.
<mgrwt>
<rscale>  0 0.15374189E+04</rscale>
<asrwt>0</asrwt>
<pdfrwt beam="1">  1        1 0.11038214E+00 0.15374189E+04</pdfrwt>
<pdfrwt beam="2">  1       -1 0.12670652E+00 0.15374189E+04</pdfrwt>
<totfact> 0.13691304E+01</totfact>
</mgrwt>
</event>
<event>
12    1  0.1097093E-007  0.2043810E+04  0.7818608E-02  0.8586408E-01
          2   -1    0    0  501    0  0.00000000000E+00  0.00000000000E+00  0.79961675164E+03  0.79961675164E+03  0.00000000000E+00 0. -1.
         -2   -1    0    0    0  501 -0.00000000000E+00 -0.00000000000E+00 -0.13059875540E+04  0.13059875540E+04  0.00000000000E+00 0.  1.
         23    2    1    2    0    0  0.48839472228E+03  0.64004021666E+03 -0.38030024766E+03  0.89522815830E+03  0.92867073508E+02 0.  0.
        254    2    1    2    0    0 -0.48839472228E+03 -0.64004021666E+03 -0.12607055467E+03  0.12103761473E+04  0.89495013803E+03 0.  0.
        -24    2    4    4    0    0 -0.71804931451E+03 -0.62683012799E+03 -0.61171762503E+02  0.95840253307E+03  0.79262875628E+02 0.  0.
         24    2    4    4    0    0  0.22965459222E+03 -0.13210088671E+02 -0.64898792172E+02  0.25197361425E+03  0.79769109818E+02 0.  0.
         13    1    3    3    0    0  0.29198954608E+03  0.35807197805E+03 -0.16977402306E+03  0.49223638162E+03  0.00000000000E+00 0.  1.
        -13    1    3    3    0    0  0.19640517620E+03  0.28196823861E+03 -0.21052622461E+03  0.40299177668E+03  0.00000000000E+00 0. -1.
          2    1    6    6  502    0  0.14199133681E+03  0.25141869479E+02 -0.17705936770E+02  0.14528301183E+03  0.00000000000E+00 0. -1.
          3    1    5    5  503    0 -0.58601709389E+03 -0.47747847291E+03 -0.67813759208E+02  0.75894692329E+03  0.00000000000E+00 0. -1.
         -4    1    5    5    0  503 -0.13203222061E+03 -0.14935165508E+03  0.66419967045E+01  0.19945560979E+03  0.00000000000E+00 0.  1.
         -1    1    6    6    0  502  0.87663255416E+02 -0.38351958149E+02 -0.47192855402E+02  0.10669060242E+03  0.00000000000E+00 0.  1.
<mgrwt>
<rscale>  0 0.20438097E+04</rscale>
<asrwt>0</asrwt>
<pdfrwt beam="1">  1        2 0.12301796E+00 0.20438097E+04</pdfrwt>
<pdfrwt beam="2">  1       -2 0.20092116E+00 0.20438097E+04</pdfrwt>
<totfact> 0.41831735E+00</totfact>
</mgrwt>
</event>
<event>
12    1  0.1097093E-007  0.2335197E+04  0.7818608E-02  0.8464171E-01
         -1   -1    0    0    0  501 -0.00000000000E+00  0.00000000000E+00  0.94120635127E+03  0.94120635127E+03  0.00000000000E+00 0.  1.
          1   -1    0    0  501    0  0.00000000000E+00 -0.00000000000E+00 -0.14484459535E+04  0.14484459535E+04  0.00000000000E+00 0. -1.
         23    2    1    2    0    0  0.68381579715E+02  0.46787715939E+02 -0.12290629586E+04  0.12351369635E+04  0.90013507382E+02 0.  0.
        254    2    1    2    0    0 -0.68381579715E+02 -0.46787715939E+02  0.72182335638E+03  0.11545153413E+04  0.89722437810E+03 0.  0.
        -24    2    4    4    0    0  0.92903938495E+02  0.30818329213E+03  0.67652528646E+03  0.75403497475E+03  0.85288900750E+02 0.  0.
         24    2    4    4    0    0 -0.16128551821E+03 -0.35497100807E+03  0.45298069922E+02  0.40048036654E+03  0.79468068381E+02 0.  0.
         11    1    3    3    0    0  0.22356500314E+02  0.36535957428E+01 -0.88806877806E+03  0.88835765120E+03  0.00000000000E+00 0. -1.
        -11    1    3    3    0    0  0.46025079401E+02  0.43134120196E+02 -0.34099418058E+03  0.34677931231E+03  0.00000000000E+00 0.  1.
          2    1    6    6  502    0 -0.79531893972E+02 -0.17083418119E+03 -0.18008539284E+02  0.18929856605E+03  0.00000000000E+00 0. -1.
          1    1    5    5  503    0  0.85517570884E+02  0.20140306721E+03  0.52255521212E+03  0.56651601930E+03  0.00000000000E+00 0. -1.
         -2    1    5    5    0  503  0.73863676118E+01  0.10678022492E+03  0.15397007434E+03  0.18751895545E+03  0.00000000000E+00 0.  1.
         -1    1    6    6    0  502 -0.81753624239E+02 -0.18413682688E+03  0.63306609206E+02  0.21118180049E+03  0.00000000000E+00 0.  1.
<mgrwt>
<rscale>  0 0.23351972E+04</rscale>
<asrwt>0</asrwt>
<pdfrwt beam="1">  1        1 0.22283784E+00 0.23351972E+04</pdfrwt>
<pdfrwt beam="2">  1       -1 0.14480098E+00 0.23351972E+04</pdfrwt>
<totfact> 0.24554530E+00</totfact>
</mgrwt>
</event>
<event>
12    1  0.1097093E-007  0.1760160E+04  0.7818608E-02  0.8727778E-01
          1   -1    0    0  501    0  0.00000000000E+00  0.00000000000E+00  0.38380619153E+03  0.38380619153E+03  0.00000000000E+00 0. -1.
         -1   -1    0    0    0  501 -0.00000000000E+00 -0.00000000000E+00 -0.20180516116E+04  0.20180516116E+04  0.00000000000E+00 0.  1.
         23    2    1    2    0    0  0.54982413169E+03  0.31970906905E+03 -0.59728674833E+03  0.87745595582E+03  0.93043162295E+02 0.  0.
        254    2    1    2    0    0 -0.54982413169E+03 -0.31970906905E+03 -0.10369586717E+04  0.15244018473E+04  0.91869322439E+03 0.  0.
        -24    2    4    4    0    0  0.24097407078E+03 -0.17530473696E+03 -0.32706148124E+03  0.44906421896E+03  0.76741166576E+02 0.  0.
         24    2    4    4    0    0 -0.79079820247E+03 -0.14440433209E+03 -0.70989719048E+03  0.10753376283E+04  0.78629420033E+02 0.  0.
         13    1    3    3    0    0  0.91772317636E+02  0.95318039584E+02 -0.13593986534E+03  0.18970327868E+03  0.00000000000E+00 0.  1.
        -13    1    3    3    0    0  0.45805181405E+03  0.22439102947E+03 -0.46134688299E+03  0.68775267713E+03  0.00000000000E+00 0. -1.
          4    1    6    6  502    0 -0.48259286444E+03 -0.12347667741E+03 -0.41695647069E+03  0.64961146936E+03  0.00000000000E+00 0. -1.
          3    1    5    5  503    0  0.16551102213E+03 -0.81590102373E+02 -0.22724044879E+03  0.29272694584E+03  0.00000000000E+00 0. -1.
         -4    1    5    5    0  503  0.75463048649E+02 -0.93714634591E+02 -0.99821032449E+02  0.15633727312E+03  0.00000000000E+00 0.  1.
         -3    1    6    6    0  502 -0.30820533803E+03 -0.20927654674E+02 -0.29294071978E+03  0.42572615896E+03  0.00000000000E+00 0.  1.
<mgrwt>
<rscale>  0 0.17601599E+04</rscale>
<asrwt>0</asrwt>
<pdfrwt beam="1">  1        1 0.59047107E-01 0.17601599E+04</pdfrwt>
<pdfrwt beam="2">  1       -1 0.31046947E+00 0.17601599E+04</pdfrwt>
<totfact> 0.16975113E+00</totfact>
</mgrwt>
</event>
<event>
12    1  0.1097093E-007  0.1757578E+04  0.7818608E-02  0.8729190E-01
          2   -1    0    0  501    0  0.00000000000E+00  0.00000000000E+00  0.14747600848E+04  0.14747600848E+04  0.00000000000E+00 0. -1.
         -2   -1    0    0    0  501 -0.00000000000E+00 -0.00000000000E+00 -0.52365823614E+03  0.52365823614E+03  0.00000000000E+00 0.  1.
         23    2    1    2    0    0  0.34624787827E+03  0.17413369647E+03  0.93889139727E+03  0.10194327306E+04  0.86694284278E+02 0.  0.
        254    2    1    2    0    0 -0.34624787827E+03 -0.17413369647E+03  0.12210451413E+02  0.97898559035E+03  0.89891799044E+03 0.  0.
        -24    2    4    4    0    0 -0.69280227485E+01 -0.49294363803E+03  0.66318548760E+02  0.50348605557E+03  0.77837204923E+02 0.  0.
         24    2    4    4    0    0 -0.33931985552E+03  0.31880994156E+03 -0.54108097347E+02  0.47549953478E+03  0.79964855959E+02 0.  0.
         13    1    3    3    0    0  0.21590332640E+03  0.73533048346E+02  0.61839801712E+03  0.65911870185E+03  0.00000000000E+00 0. -1.
        -13    1    3    3    0    0  0.13034455186E+03  0.10060064812E+03  0.32049338016E+03  0.36031402877E+03  0.00000000000E+00 0.  1.
          2    1    6    6  502    0 -0.24270300734E+03  0.25950247548E+03 -0.66416995178E+02  0.36146576850E+03  0.00000000000E+00 0. -1.
          3    1    5    5  503    0 -0.20110781697E+02 -0.47862861637E+03  0.58894180966E+02  0.48265756029E+03  0.00000000000E+00 0. -1.
         -4    1    5    5    0  503  0.13182758949E+02 -0.14315021655E+02  0.74243677940E+01  0.20828495280E+02  0.00000000000E+00 0.  1.
         -1    1    6    6    0  502 -0.96616848179E+02  0.59307466086E+02  0.12308897832E+02  0.11403376628E+03  0.00000000000E+00 0.  1.
<mgrwt>
<rscale>  0 0.17575782E+04</rscale>
<asrwt>0</asrwt>
<pdfrwt beam="1">  1        2 0.22688617E+00 0.17575782E+04</pdfrwt>
<pdfrwt beam="2">  1       -2 0.80562806E-01 0.17575782E+04</pdfrwt>
<totfact> 0.16907925E+01</totfact>
</mgrwt>
</event>
<event>
12    1  0.1097093E-007  0.3768929E+04  0.7818608E-02  0.8052856E-01
          1   -1    0    0  501    0  0.00000000000E+00  0.00000000000E+00  0.26681508535E+04  0.26681508535E+04  0.00000000000E+00 0. -1.
         -1   -1    0    0    0  501 -0.00000000000E+00 -0.00000000000E+00 -0.13309613785E+04  0.13309613785E+04  0.00000000000E+00 0.  1.
         23    2    1    2    0    0 -0.11973936776E+04  0.44892924389E+03  0.19398735260E+04  0.23249412305E+04  0.83386710161E+02 0.  0.
        254    2    1    2    0    0  0.11973936776E+04 -0.44892924389E+03 -0.60268405100E+03  0.16741710015E+04  0.89684524401E+03 0.  0.
        -24    2    4    4    0    0  0.34914261940E+03 -0.24324631855E+03  0.20869123438E+03  0.47989774529E+03  0.75368922326E+02 0.  0.
         24    2    4    4    0    0  0.84825105818E+03 -0.20568292534E+03 -0.81137528539E+03  0.11942732562E+04  0.78252368775E+02 0.  0.
         13    1    3    3    0    0 -0.11326400900E+04  0.43185144873E+03  0.18034975594E+04  0.21730100539E+04  0.00000000000E+00 0. -1.
        -13    1    3    3    0    0 -0.64753587563E+02  0.17077795158E+02  0.13637596653E+03  0.15193117665E+03  0.00000000000E+00 0.  1.
          2    1    6    6  502    0  0.63231307055E+03 -0.16185290111E+03 -0.56011135068E+03  0.86008191816E+03  0.00000000000E+00 0. -1.
          3    1    5    5  503    0  0.86747899765E+02 -0.58638060032E+02  0.89160889752E+02  0.13752557747E+03  0.00000000000E+00 0. -1.
         -4    1    5    5    0  503  0.26239471964E+03 -0.18460825851E+03  0.11953034463E+03  0.34237216781E+03  0.00000000000E+00 0.  1.
         -1    1    6    6    0  502  0.21593798763E+03 -0.43830024235E+02 -0.25126393470E+03  0.33419133802E+03  0.00000000000E+00 0.  1.
<mgrwt>
<rscale>  0 0.37689286E+04</rscale>
<asrwt>0</asrwt>
<pdfrwt beam="1">  1        1 0.41048474E+00 0.37689286E+04</pdfrwt>
<pdfrwt beam="2">  1       -1 0.20476329E+00 0.37689286E+04</pdfrwt>
<totfact> 0.11504655E-01</totfact>
</mgrwt>
</event>
<event>
12    1  0.1097093E-007  0.1432214E+04  0.7818608E-02  0.8930825E-01
         -2   -1    0    0    0  501 -0.00000000000E+00  0.00000000000E+00  0.42955117704E+03  0.42955117704E+03  0.00000000000E+00 0.  1.
          2   -1    0    0  501    0  0.00000000000E+00 -0.00000000000E+00 -0.11938252859E+04  0.11938252859E+04  0.00000000000E+00 0. -1.
         23    2    1    2    0    0 -0.69535747631E+02 -0.37083073878E+03 -0.89073841994E+01  0.38983614362E+03  0.97684289198E+02 0.  0.
        254    2    1    2    0    0  0.69535747631E+02  0.37083073878E+03 -0.75536672462E+03  0.12335403193E+04  0.89927313626E+03 0.  0.
        -24    2    4    4    0    0 -0.34665005309E+03 -0.66113205722E+02 -0.22072277769E+03  0.42332764726E+03  0.77139724292E+02 0.  0.
         24    2    4    4    0    0  0.41618580072E+03  0.43694394450E+03 -0.53464394693E+03  0.81021267202E+03  0.80435020688E+02 0.  0.
         13    1    3    3    0    0  0.23283484037E+02 -0.91248147174E+02 -0.13986034591E+02  0.95204801114E+02  0.00000000000E+00 0. -1.
        -13    1    3    3    0    0 -0.92819231669E+02 -0.27958259160E+03  0.50786503912E+01  0.29463134250E+03  0.00000000000E+00 0.  1.
          4    1    6    6  502    0  0.41810756879E+03  0.43854906137E+03 -0.53033689406E+03  0.80523067471E+03  0.00000000000E+00 0. -1.
          3    1    5    5  503    0 -0.34605936755E+03 -0.59177481730E+02 -0.22310014198E+03  0.41597203459E+03  0.00000000000E+00 0. -1.
         -4    1    5    5    0  503 -0.59068554243E+00 -0.69357239925E+01  0.23773642912E+01  0.73556126654E+01  0.00000000000E+00 0.  1.
         -3    1    6    6    0  502 -0.19217680615E+01 -0.16051168736E+01 -0.43070528793E+01  0.49819973068E+01  0.00000000000E+00 0.  1.
<mgrwt>
<rscale>  0 0.14322138E+04</rscale>
<asrwt>0</asrwt>
<pdfrwt beam="1">  1        2 0.18366543E+00 0.14322138E+04</pdfrwt>
<pdfrwt beam="2">  1       -2 0.66084796E-01 0.14322138E+04</pdfrwt>
<totfact> 0.39079251E+01</totfact>
</mgrwt>
</event>
<event>
12    1  0.1097093E-007  0.2929303E+04  0.7818608E-02  0.8264212E-01
          2   -1    0    0  501    0  0.00000000000E+00  0.00000000000E+00  0.24711083787E+04  0.24711083787E+04  0.00000000000E+00 0.  1.
         -2   -1    0    0    0  501 -0.00000000000E+00 -0.00000000000E+00 -0.86811386632E+03  0.86811386632E+03  0.00000000000E+00 0. -1.
         23    2    1    2    0    0  0.11162294636E+04  0.70152735401E+03  0.57242845039E+03  0.14403776484E+04  0.94364163408E+02 0.  0.
        254    2    1    2    0    0 -0.11162294636E+04 -0.70152735401E+03  0.10305660620E+04  0.18988445967E+04  0.89746061216E+03 0.  0.
        -24    2    4    4    0    0 -0.46126608931E+03 -0.11798841088E+03 -0.71473821942E+02  0.48804587035E+03  0.79953699691E+02 0.  0.
         24    2    4    4    0    0 -0.65496337426E+03 -0.58353894313E+03  0.11020398839E+04  0.14107987263E+04  0.79789852797E+02 0.  0.
         11    1    3    3    0    0  0.42982222102E+03  0.21675403324E+03  0.20380305495E+03  0.52274768083E+03  0.00000000000E+00 0.  1.
        -11    1    3    3    0    0  0.68640724255E+03  0.48477332077E+03  0.36862539544E+03  0.91762996754E+03  0.00000000000E+00 0. -1.
          4    1    6    6  502    0 -0.19800513720E+03 -0.16141938845E+03  0.37778296532E+03  0.45605067943E+03  0.00000000000E+00 0. -1.
          1    1    5    5  503    0 -0.92990628400E+02 -0.60674370990E+01  0.12680225681E+02  0.94047109932E+02  0.00000000000E+00 0. -1.
         -2    1    5    5    0  503 -0.36827546091E+03 -0.11192097378E+03 -0.84154047623E+02  0.39399876042E+03  0.00000000000E+00 0.  1.
         -1    1    6    6    0  502 -0.45695823705E+03 -0.42211955468E+03  0.72425691863E+03  0.95474804688E+03  0.00000000000E+00 0.  1.
<mgrwt>
<rscale>  0 0.29293026E+04</rscale>
<asrwt>0</asrwt>
<pdfrwt beam="1">  1        2 0.38017052E+00 0.29293026E+04</pdfrwt>
<pdfrwt beam="2">  1       -2 0.13355598E+00 0.29293026E+04</pdfrwt>
<totfact> 0.12628611E+00</totfact>
</mgrwt>
</event>
<event>
12    1  0.1097093E-007  0.1260148E+04  0.7818608E-02  0.9061779E-01
          1   -1    0    0  501    0  0.00000000000E+00  0.00000000000E+00  0.10811929006E+04  0.10811929006E+04  0.00000000000E+00 0. -1.
         -1   -1    0    0    0  501 -0.00000000000E+00 -0.00000000000E+00 -0.36718064045E+03  0.36718064045E+03  0.00000000000E+00 0.  1.
         23    2    1    2    0    0 -0.19787296859E+03  0.19724370023E+03  0.26685141270E+03  0.39723154037E+03  0.92327846415E+02 0.  0.
        254    2    1    2    0    0  0.19787296859E+03 -0.19724370023E+03  0.44716084749E+03  0.10511420007E+04  0.90933376336E+03 0.  0.
        -24    2    4    4    0    0  0.15858314718E+03 -0.49834675979E+03  0.30858837819E+02  0.52970038114E+03  0.78307843434E+02 0.  0.
         24    2    4    4    0    0  0.39289821412E+02  0.30110305956E+03  0.41630200967E+03  0.52144161959E+03  0.79920315557E+02 0.  0.
         11    1    3    3    0    0 -0.83257403851E+02  0.59586378722E+02  0.15594427656E+03  0.18655012521E+03  0.00000000000E+00 0.  1.
        -11    1    3    3    0    0 -0.11461556474E+03  0.13765732151E+03  0.11090713615E+03  0.21068141516E+03  0.00000000000E+00 0. -1.
          4    1    6    6  502    0 -0.18286280238E+01  0.58605967909E+01  0.44379574472E+02  0.44802199784E+02  0.00000000000E+00 0. -1.
          3    1    5    5  503    0  0.48161999203E+01 -0.62581927243E+02 -0.17276768661E+02  0.65101306703E+02  0.00000000000E+00 0. -1.
         -4    1    5    5    0  503  0.15376694726E+03 -0.43576483255E+03  0.48135606480E+02  0.46459907444E+03  0.00000000000E+00 0.  1.
         -3    1    6    6    0  502  0.41118449436E+02  0.29524246277E+03  0.37192243520E+03  0.47663941980E+03  0.00000000000E+00 0.  1.
<mgrwt>
<rscale>  0 0.12601478E+04</rscale>
<asrwt>0</asrwt>
<pdfrwt beam="1">  1        1 0.16633737E+00 0.12601478E+04</pdfrwt>
<pdfrwt beam="2">  1       -1 0.56489330E-01 0.12601478E+04</pdfrwt>
<totfact> 0.40940691E+01</totfact>
</mgrwt>
</event>
<event>
12    1  0.1097093E-007  0.1407560E+04  0.7818608E-02  0.8948364E-01
         -2   -1    0    0    0  501 -0.00000000000E+00  0.00000000000E+00  0.33639310017E+03  0.33639310017E+03  0.00000000000E+00 0.  1.
          2   -1    0    0  501    0  0.00000000000E+00 -0.00000000000E+00 -0.14724042713E+04  0.14724042713E+04  0.00000000000E+00 0. -1.
         23    2    1    2    0    0 -0.61258849790E+02  0.38420975020E+03 -0.31425207348E+03  0.50623903296E+03  0.78446248947E+02 0.  0.
        254    2    1    2    0    0  0.61258849790E+02 -0.38420975020E+03 -0.82175909764E+03  0.13025583385E+04  0.93273813678E+03 0.  0.
        -24    2    4    4    0    0 -0.16216148054E+03  0.71391056094E+01 -0.82551386907E+03  0.84489783557E+03  0.77665255622E+02 0.  0.
         24    2    4    4    0    0  0.22342033033E+03 -0.39134885581E+03  0.37547714277E+01  0.45766050293E+03  0.79802673379E+02 0.  0.
         11    1    3    3    0    0  0.10886201538E+02  0.88243380534E+01 -0.62803797382E+01  0.15356480576E+02  0.00000000000E+00 0. -1.
        -11    1    3    3    0    0 -0.72145051329E+02  0.37538541215E+03 -0.30797169374E+03  0.49088255238E+03  0.00000000000E+00 0.  1.
          2    1    6    6  502    0  0.20529922471E+03 -0.37215942842E+03  0.21961027308E+02  0.42559687329E+03  0.00000000000E+00 0. -1.
          3    1    5    5  503    0 -0.67273336910E+02  0.40366327334E+02 -0.40539249247E+03  0.41291429521E+03  0.00000000000E+00 0. -1.
         -4    1    5    5    0  503 -0.94888143634E+02 -0.33227221725E+02 -0.42012137660E+03  0.43198354036E+03  0.00000000000E+00 0.  1.
         -1    1    6    6    0  502  0.18121105624E+02 -0.19189427392E+02 -0.18206255881E+02  0.32063629642E+02  0.00000000000E+00 0.  1.
<mgrwt>
<rscale>  0 0.14075605E+04</rscale>
<asrwt>0</asrwt>
<pdfrwt beam="1">  1        2 0.22652373E+00 0.14075605E+04</pdfrwt>
<pdfrwt beam="2">  1       -2 0.51752784E-01 0.14075605E+04</pdfrwt>
<totfact> 0.45127656E+01</totfact>
</mgrwt>
</event>
<event>
12    1  0.1143445E-007  0.2079290E+04  0.7818608E-02  0.8570422E-01
         -1   -1    0    0    0  501 -0.00000000000E+00  0.00000000000E+00  0.40334025924E+03  0.40334025924E+03  0.00000000000E+00 0.  1.
          1   -1    0    0  501    0  0.00000000000E+00 -0.00000000000E+00 -0.26797757322E+04  0.26797757322E+04  0.00000000000E+00 0. -1.
         23    2    1    2    0    0  0.69951143956E+03  0.38570181600E+03 -0.53627396756E+03  0.96645068462E+03  0.91405757907E+02 0.  0.
        254    2    1    2    0    0 -0.69951143956E+03 -0.38570181600E+03 -0.17401615054E+04  0.21166653069E+04  0.90223489810E+03 0.  0.
        -24    2    4    4    0    0 -0.77791003240E+03 -0.31091880128E+03 -0.78143526309E+03  0.11484197571E+04  0.80077142264E+02 0.  0.
         24    2    4    4    0    0  0.78398592836E+02 -0.74783014717E+02 -0.95872624235E+03  0.96824554972E+03  0.81268678669E+02 0.  0.
         11    1    3    3    0    0  0.91936671796E+02  0.26787571459E+02 -0.40155248291E+02  0.10383818937E+03  0.00000000000E+00 0. -1.
        -11    1    3    3    0    0  0.60757476777E+03  0.35891424454E+03 -0.49611871927E+03  0.86261249526E+03  0.00000000000E+00 0.  1.
          2    1    6    6  502    0 -0.17175468053E+02 -0.14001784468E+02 -0.16214371711E+03  0.16365094460E+03  0.00000000000E+00 0. -1.
          1    1    5    5  503    0 -0.13661353441E+03 -0.23610070313E+02 -0.11939773629E+03  0.18296587834E+03  0.00000000000E+00 0. -1.
         -2    1    5    5    0  503 -0.64129649799E+03 -0.28730873097E+03 -0.66203752679E+03  0.96545387881E+03  0.00000000000E+00 0.  1.
         -1    1    6    6    0  502  0.95574060889E+02 -0.60781230249E+02 -0.79658252524E+03  0.80459460512E+03  0.00000000000E+00 0.  1.
<mgrwt>
<rscale>  0 0.20792897E+04</rscale>
<asrwt>0</asrwt>
<pdfrwt beam="1">  1        1 0.41227318E+00 0.20792897E+04</pdfrwt>
<pdfrwt beam="2">  1       -1 0.62052349E-01 0.20792897E+04</pdfrwt>
<totfact> 0.24628411E+00</totfact>
</mgrwt>
</event>
<event>
12    1  0.1097093E-007  0.1011589E+04  0.7818608E-02  0.9295925E-01
          3   -1    0    0  501    0  0.00000000000E+00  0.00000000000E+00  0.21862977814E+04  0.21862977814E+04  0.00000000000E+00 0. -1.
         -3   -1    0    0    0  501 -0.00000000000E+00 -0.00000000000E+00 -0.11701426089E+03  0.11701426089E+03  0.00000000000E+00 0.  1.
         23    2    1    2    0    0  0.61880810524E+02  0.60664486093E+02  0.70920343919E+03  0.72077022234E+03  0.95030419717E+02 0.  0.
        254    2    1    2    0    0 -0.61880810524E+02 -0.60664486093E+02  0.13600800813E+04  0.15825418200E+04  0.80443232762E+03 0.  0.
        -24    2    4    4    0    0 -0.21076297467E+03 -0.37461990897E+03  0.59126651522E+03  0.73518438911E+03  0.78351045212E+02 0.  0.
         24    2    4    4    0    0  0.14888216415E+03  0.31395542288E+03  0.76881356611E+03  0.84735743086E+03  0.78780770699E+02 0.  0.
         11    1    3    3    0    0  0.16428862018E+02  0.54177520609E+02  0.16130549987E+03  0.17095196851E+03  0.00000000000E+00 0.  1.
        -11    1    3    3    0    0  0.45451948506E+02  0.64869654847E+01  0.54789793931E+03  0.54981825383E+03  0.00000000000E+00 0. -1.
          2    1    6    6  502    0  0.12495770844E+03  0.17715715086E+03  0.49269861690E+03  0.53828525160E+03  0.00000000000E+00 0. -1.
          3    1    5    5  503    0 -0.16963419335E+03 -0.25498401280E+03  0.36999077073E+03  0.48029759187E+03  0.00000000000E+00 0. -1.
         -4    1    5    5    0  503 -0.41128781317E+02 -0.11963589617E+03  0.22127574449E+03  0.25488679723E+03  0.00000000000E+00 0.  1.
         -1    1    6    6    0  502  0.23924455702E+02  0.13679827202E+03  0.27611494921E+03  0.30907217925E+03  0.00000000000E+00 0.  1.
<mgrwt>
<rscale>  0 0.10115889E+04</rscale>
<asrwt>0</asrwt>
<pdfrwt beam="1">  1        3 0.33635348E+00 0.10115889E+04</pdfrwt>
<pdfrwt beam="2">  1       -3 0.18002196E-01 0.10115889E+04</pdfrwt>
<totfact> 0.18103353E+00</totfact>
</mgrwt>
</event>
<event>
12    1  0.1097093E-007  0.1760729E+04  0.7818608E-02  0.8727467E-01
         -2   -1    0    0    0  501 -0.00000000000E+00  0.00000000000E+00  0.99392725993E+03  0.99392725993E+03  0.00000000000E+00 0. -1.
          2   -1    0    0  501    0  0.00000000000E+00 -0.00000000000E+00 -0.77977701474E+03  0.77977701474E+03  0.00000000000E+00 0.  1.
         23    2    1    2    0    0  0.15110709893E+02  0.52159877322E+03 -0.30230942031E+03  0.60991894718E+03  0.91194971003E+02 0.  0.
        254    2    1    2    0    0 -0.15110709893E+02 -0.52159877322E+03  0.51645966550E+03  0.11637853275E+04  0.90297956157E+03 0.  0.
        -24    2    4    4    0    0  0.33202006401E+03  0.23100840259E+02  0.35441571517E+03  0.49293420470E+03  0.81256749114E+02 0.  0.
         24    2    4    4    0    0 -0.34713077390E+03 -0.54469961348E+03  0.16204395032E+03  0.67085112279E+03  0.81151364687E+02 0.  0.
         11    1    3    3    0    0 -0.19742789779E+02  0.38781595407E+02 -0.10762261935E+02  0.44828742705E+02  0.00000000000E+00 0. -1.
        -11    1    3    3    0    0  0.34853499672E+02  0.48281717782E+03 -0.29154715837E+03  0.56509020447E+03  0.00000000000E+00 0.  1.
          2    1    6    6  502    0 -0.13908653053E+02 -0.42219712601E+02 -0.62162292998E+01  0.44884254127E+02  0.00000000000E+00 0. -1.
          3    1    5    5  503    0  0.74349909754E+02 -0.25883024605E+02  0.10271122071E+03  0.12941188084E+03  0.00000000000E+00 0. -1.
         -4    1    5    5    0  503  0.25767015426E+03  0.48983864864E+02  0.25170449446E+03  0.36352232386E+03  0.00000000000E+00 0.  1.
         -1    1    6    6    0  502 -0.33322212085E+03 -0.50247990088E+03  0.16826017962E+03  0.62596686866E+03  0.00000000000E+00 0.  1.
<mgrwt>
<rscale>  0 0.17607290E+04</rscale>
<asrwt>0</asrwt>
<pdfrwt beam="1">  1        2 0.11996569E+00 0.17607290E+04</pdfrwt>
<pdfrwt beam="2">  1       -2 0.15291189E+00 0.17607290E+04</pdfrwt>
<totfact> 0.96027384E+00</totfact>
</mgrwt>
</event>
<event>
12    1  0.1097093E-007  0.1730072E+04  0.7818608E-02  0.8744396E-01
          1   -1    0    0  501    0  0.00000000000E+00  0.00000000000E+00  0.14781927284E+04  0.14781927284E+04  0.00000000000E+00 0. -1.
         -1   -1    0    0    0  501 -0.00000000000E+00 -0.00000000000E+00 -0.50621795671E+03  0.50621795671E+03  0.00000000000E+00 0.  1.
         23    2    1    2    0    0 -0.27485387264E+02  0.57906058797E+03  0.69574110115E+02  0.59099858392E+03  0.91499499168E+02 0.  0.
        254    2    1    2    0    0  0.27485387264E+02 -0.57906058797E+03  0.90240066160E+03  0.13934121012E+04  0.88949632865E+03 0.  0.
        -24    2    4    4    0    0 -0.17856235918E+03  0.17542980885E+03  0.13785378083E+03  0.29663629694E+03  0.79556859056E+02 0.  0.
         24    2    4    4    0    0  0.20604774645E+03 -0.75449039682E+03  0.76454688077E+03  0.10967758043E+04  0.81693324247E+02 0.  0.
         11    1    3    3    0    0  0.19208019139E+01  0.39740963880E+03  0.98601651530E+01  0.39753658115E+03  0.00000000000E+00 0. -1.
        -11    1    3    3    0    0 -0.29406189178E+02  0.18165094917E+03  0.59713944962E+02  0.19346200278E+03  0.00000000000E+00 0.  1.
          4    1    6    6  502    0  0.21185435846E+03 -0.69690687398E+03  0.71281540116E+03  0.10191502619E+04  0.00000000000E+00 0. -1.
          1    1    5    5  503    0 -0.10458348692E+03  0.14273216424E+03  0.67324492131E+02  0.18932185211E+03  0.00000000000E+00 0. -1.
         -2    1    5    5    0  503 -0.73978872268E+02  0.32697644604E+02  0.70529288703E+02  0.10731444483E+03  0.00000000000E+00 0.  1.
         -3    1    6    6    0  502 -0.58066120101E+01 -0.57583522839E+02  0.51731479611E+02  0.77625542370E+02  0.00000000000E+00 0.  1.
<mgrwt>
<rscale>  0 0.17300725E+04</rscale>
<asrwt>0</asrwt>
<pdfrwt beam="1">  1        1 0.22741426E+00 0.17300725E+04</pdfrwt>
<pdfrwt beam="2">  1       -1 0.77879686E-01 0.17300725E+04</pdfrwt>
<totfact> 0.10618771E+01</totfact>
</mgrwt>
</event>
<event>
12    1  0.1097093E-007  0.2086058E+04  0.7818608E-02  0.8567410E-01
         -1   -1    0    0    0  501 -0.00000000000E+00  0.00000000000E+00  0.54465913052E+03  0.54465913052E+03  0.00000000000E+00 0.  1.
          1   -1    0    0  501    0  0.00000000000E+00 -0.00000000000E+00 -0.19974140593E+04  0.19974140593E+04  0.00000000000E+00 0. -1.
         23    2    1    2    0    0  0.38602846463E+03  0.42016037640E+02 -0.13731193168E+04  0.14299156624E+04  0.91754130380E+02 0.  0.
        254    2    1    2    0    0 -0.38602846463E+03 -0.42016037640E+02 -0.79635611923E+02  0.11121575274E+04  0.10391194407E+04 0.  0.
        -24    2    4    4    0    0 -0.27892096523E+03  0.31732485301E+03  0.33689034430E+03  0.54616153135E+03  0.79406215517E+02 0.  0.
         24    2    4    4    0    0 -0.10710749941E+03 -0.35934089065E+03 -0.41652595623E+03  0.56599599602E+03  0.79118286020E+02 0.  0.
         11    1    3    3    0    0  0.37589954042E+03  0.55479184687E+02 -0.12770229667E+04  0.13323535799E+04  0.00000000000E+00 0. -1.
        -11    1    3    3    0    0  0.10128924211E+02 -0.13463147047E+02 -0.96096350141E+02  0.97562082514E+02  0.00000000000E+00 0.  1.
          4    1    6    6  502    0 -0.76713413358E+02 -0.12580811157E+03 -0.17243062943E+03  0.22681479381E+03  0.00000000000E+00 0. -1.
          3    1    5    5  503    0 -0.33853291159E+01  0.30149289934E+02  0.12864465590E+02  0.32953521992E+02  0.00000000000E+00 0. -1.
         -4    1    5    5    0  503 -0.27553563611E+03  0.28717556307E+03  0.32402587871E+03  0.51320800936E+03  0.00000000000E+00 0.  1.
         -3    1    6    6    0  502 -0.30394086048E+02 -0.23353277907E+03 -0.24409532680E+03  0.33918120221E+03  0.00000000000E+00 0.  1.
<mgrwt>
<rscale>  0 0.20860583E+04</rscale>
<asrwt>0</asrwt>
<pdfrwt beam="1">  1        1 0.30729446E+00 0.20860583E+04</pdfrwt>
<pdfrwt beam="2">  1       -1 0.83793715E-01 0.20860583E+04</pdfrwt>
<totfact> 0.38901266E+00</totfact>
</mgrwt>
</event>
<event>
12    1  0.1097093E-007  0.1627494E+04  0.7818608E-02  0.8803833E-01
         -1   -1    0    0    0  501 -0.00000000000E+00  0.00000000000E+00  0.13972645622E+04  0.13972645622E+04  0.00000000000E+00 0.  1.
          1   -1    0    0  501    0  0.00000000000E+00 -0.00000000000E+00 -0.47391490305E+03  0.47391490305E+03  0.00000000000E+00 0. -1.
         23    2    1    2    0    0  0.22425214423E+02  0.54035084438E+03  0.14761422795E+03  0.57069007950E+03  0.10684231971E+03 0.  0.
        254    2    1    2    0    0 -0.22425214423E+02 -0.54035084438E+03  0.77573543117E+03  0.13004893857E+04  0.89276271088E+03 0.  0.
        -24    2    4    4    0    0  0.27846611087E+03 -0.60402184623E+03  0.31282978661E+03  0.73921896890E+03  0.78717488269E+02 0.  0.
         24    2    4    4    0    0 -0.30089132529E+03  0.63671001855E+02  0.46290564456E+03  0.56127041682E+03  0.78442711092E+02 0.  0.
         13    1    3    3    0    0  0.49721492011E+02  0.40645000144E+03  0.14375514854E+03  0.43398084424E+03  0.00000000000E+00 0. -1.
        -13    1    3    3    0    0 -0.27296277587E+02  0.13390084294E+03  0.38590794053E+01  0.13670923526E+03  0.00000000000E+00 0.  1.
          4    1    6    6  502    0 -0.22207041930E+03  0.12478470077E+02  0.34510213388E+03  0.41056846707E+03  0.00000000000E+00 0. -1.
          3    1    5    5  503    0  0.24719972403E+03 -0.57856411945E+03  0.28876750756E+03  0.69226499067E+03  0.00000000000E+00 0. -1.
         -4    1    5    5    0  503  0.31266386835E+02 -0.25457726777E+02  0.24062279054E+02  0.46953978230E+02  0.00000000000E+00 0.  1.
         -3    1    6    6    0  502 -0.78820905996E+02  0.51192531778E+02  0.11780351068E+03  0.15070194975E+03  0.00000000000E+00 0.  1.
<mgrwt>
<rscale>  0 0.16274944E+04</rscale>
<asrwt>0</asrwt>
<pdfrwt beam="1">  1        1 0.72909986E-01 0.16274944E+04</pdfrwt>
<pdfrwt beam="2">  1       -1 0.21496378E+00 0.16274944E+04</pdfrwt>
<totfact> 0.54343125E+00</totfact>
</mgrwt>
</event>
<event>
12    1  0.1097093E-007  0.1923586E+04  0.7818608E-02  0.8643205E-01
         -1   -1    0    0    0  501 -0.00000000000E+00  0.00000000000E+00  0.44902917841E+03  0.44902917841E+03  0.00000000000E+00 0.  1.
          1   -1    0    0  501    0  0.00000000000E+00 -0.00000000000E+00 -0.20601011161E+04  0.20601011161E+04  0.00000000000E+00 0. -1.
         23    2    1    2    0    0 -0.46941602394E+03 -0.38290701008E+03 -0.50675690158E+02  0.61482687589E+03  0.92059110623E+02 0.  0.
        254    2    1    2    0    0  0.46941602394E+03  0.38290701008E+03 -0.15603962475E+04  0.18943034186E+04  0.88689334794E+03 0.  0.
        -24    2    4    4    0    0  0.54999783589E+03 -0.11148819886E+03 -0.83135694185E+03  0.10060341080E+04  0.77608141881E+02 0.  0.
         24    2    4    4    0    0 -0.80581811957E+02  0.49439520893E+03 -0.72903930569E+03  0.88826931065E+03  0.81265047666E+02 0.  0.
         11    1    3    3    0    0 -0.80153192571E+02 -0.33859706758E+02 -0.28345673631E+02  0.91512246364E+02  0.00000000000E+00 0. -1.
        -11    1    3    3    0    0 -0.38926283137E+03 -0.34904730332E+03 -0.22330016526E+02  0.52331462953E+03  0.00000000000E+00 0.  1.
          2    1    6    6  502    0 -0.78319052399E+02  0.49350598675E+03 -0.73077911933E+03  0.88527970392E+03  0.00000000000E+00 0. -1.
          1    1    5    5  503    0  0.52588377843E+03 -0.11923295226E+03 -0.77381484317E+03  0.94316470292E+03  0.00000000000E+00 0. -1.
         -2    1    5    5    0  503  0.24114057469E+02  0.77447533987E+01 -0.57542098683E+02  0.62869405068E+02  0.00000000000E+00 0.  1.
         -1    1    6    6    0  502 -0.22627595575E+01  0.88922218844E+00  0.17398136408E+01  0.29896067334E+01  0.00000000000E+00 0.  1.
<mgrwt>
<rscale>  0 0.19235857E+04</rscale>
<asrwt>0</asrwt>
<pdfrwt beam="1">  1        1 0.31693864E+00 0.19235857E+04</pdfrwt>
<pdfrwt beam="2">  1       -1 0.69081411E-01 0.19235857E+04</pdfrwt>
<totfact> 0.53699231E+00</totfact>
</mgrwt>
</event>
<event>
12    1  0.1097093E-007  0.1281419E+04  0.7818608E-02  0.9044431E-01
          2   -1    0    0  501    0  0.00000000000E+00  0.00000000000E+00  0.98599202188E+03  0.98599202188E+03  0.00000000000E+00 0. -1.
         -2   -1    0    0    0  501 -0.00000000000E+00 -0.00000000000E+00 -0.41634052689E+03  0.41634052689E+03  0.00000000000E+00 0.  1.
         23    2    1    2    0    0 -0.20742816353E+03  0.79388882425E+02 -0.85169185156E+02  0.25608770977E+03  0.94858248542E+02 0.  0.
        254    2    1    2    0    0  0.20742816353E+03 -0.79388882425E+02  0.65482068014E+03  0.11462448390E+04  0.91419804752E+03 0.  0.
        -24    2    4    4    0    0  0.17500427111E+02 -0.44450544327E+03  0.55366938328E+03  0.71517168924E+03  0.83841547377E+02 0.  0.
         24    2    4    4    0    0  0.18992773642E+03  0.36511656084E+03  0.10115129686E+03  0.43107314975E+03  0.78802458804E+02 0.  0.
         11    1    3    3    0    0 -0.16796367451E+02  0.16325157335E+01 -0.42644187886E+02  0.45861855911E+02  0.00000000000E+00 0. -1.
        -11    1    3    3    0    0 -0.19063179608E+03  0.77756366691E+02 -0.42524997270E+02  0.21022585386E+03  0.00000000000E+00 0.  1.
          4    1    6    6  502    0  0.10937975178E+03  0.19378428543E+03  0.14874050441E+02  0.22301909505E+03  0.00000000000E+00 0. -1.
          1    1    5    5  503    0 -0.19121274721E+02 -0.35398079414E+03  0.44800843284E+03  0.57129640438E+03  0.00000000000E+00 0. -1.
         -2    1    5    5    0  503  0.36621701832E+02 -0.90524649124E+02  0.10566095045E+03  0.14387528486E+03  0.00000000000E+00 0.  1.
         -3    1    6    6    0  502  0.80547984643E+02  0.17133227541E+03  0.86277246420E+02  0.20805405470E+03  0.00000000000E+00 0.  1.
<mgrwt>
<rscale>  0 0.12814186E+04</rscale>
<asrwt>0</asrwt>
<pdfrwt beam="1">  1        2 0.15169108E+00 0.12814186E+04</pdfrwt>
<pdfrwt beam="2">  1       -2 0.64052389E-01 0.12814186E+04</pdfrwt>
<totfact> 0.56882424E+01</totfact>
</mgrwt>
</event>
<event>
12    1  0.1097093E-007  0.2395090E+04  0.7818608E-02  0.8441344E-01
         -2   -1    0    0    0  501 -0.00000000000E+00  0.00000000000E+00  0.16101135622E+04  0.16101135622E+04  0.00000000000E+00 0. -1.
          2   -1    0    0  501    0  0.00000000000E+00 -0.00000000000E+00 -0.89069110819E+03  0.89069110819E+03  0.00000000000E+00 0.  1.
         23    2    1    2    0    0  0.19498920286E+03 -0.81930146523E+03  0.92267048654E+03  0.12525463424E+04  0.90971605818E+02 0.  0.
        254    2    1    2    0    0 -0.19498920286E+03  0.81930146523E+03 -0.20324803252E+03  0.12482583280E+04  0.89864531961E+03 0.  0.
        -24    2    4    4    0    0 -0.22421508088E+03 -0.10285425359E+03 -0.19082731171E+03  0.32194516574E+03  0.79888840731E+02 0.  0.
         24    2    4    4    0    0  0.29225878014E+02  0.92215571882E+03 -0.12420720810E+02  0.92631316223E+03  0.81709721030E+02 0.  0.
         11    1    3    3    0    0  0.15948710732E+02 -0.28697243132E+02  0.16612722399E+02  0.36795049706E+02  0.00000000000E+00 0.  1.
        -11    1    3    3    0    0  0.17904049213E+03 -0.79060422210E+03  0.90605776414E+03  0.12157512927E+04  0.00000000000E+00 0. -1.
          2    1    6    6  502    0 -0.13612331376E+02  0.63290130263E+03 -0.26083323328E+02  0.63358479637E+03  0.00000000000E+00 0. -1.
          3    1    5    5  503    0 -0.73528458634E+02 -0.67212834977E+02 -0.45252558835E+02  0.10941569127E+03  0.00000000000E+00 0. -1.
         -4    1    5    5    0  503 -0.15068662224E+03 -0.35641418618E+02 -0.14557475288E+03  0.21252947447E+03  0.00000000000E+00 0.  1.
         -1    1    6    6    0  502  0.42838209390E+02  0.28925441619E+03  0.13662602518E+02  0.29272836586E+03  0.00000000000E+00 0.  1.
<mgrwt>
<rscale>  0 0.23950898E+04</rscale>
<asrwt>0</asrwt>
<pdfrwt beam="1">  1        2 0.13702940E+00 0.23950898E+04</pdfrwt>
<pdfrwt beam="2">  1       -2 0.24770978E+00 0.23950898E+04</pdfrwt>
<totfact> 0.17764324E+00</totfact>
</mgrwt>
</event>
<event>
12    1  0.1097093E-007  0.1421685E+04  0.7818608E-02  0.8938270E-01
          2   -1    0    0  501    0  0.00000000000E+00  0.00000000000E+00  0.29419804114E+04  0.29419804114E+04  0.00000000000E+00 0. -1.
         -2   -1    0    0    0  501 -0.00000000000E+00 -0.00000000000E+00 -0.17175411536E+03  0.17175411536E+03  0.00000000000E+00 0.  1.
         23    2    1    2    0    0  0.24744042021E+03 -0.51924348395E+02  0.10112190833E+03  0.28704631690E+03  0.90813259982E+02 0.  0.
        254    2    1    2    0    0 -0.24744042021E+03  0.51924348395E+02  0.26691043877E+04  0.28266882098E+04  0.89561437222E+03 0.  0.
        -24    2    4    4    0    0 -0.51519509517E+03 -0.65668572957E+02  0.22410443589E+04  0.23017474867E+04  0.77610091590E+02 0.  0.
         24    2    4    4    0    0  0.26775467496E+03  0.11759292135E+03  0.42806002877E+03  0.52494072314E+03  0.82502808816E+02 0.  0.
         11    1    3    3    0    0  0.79909429165E+02  0.24299098291E+02  0.43561552482E+02  0.94199638545E+02  0.00000000000E+00 0. -1.
        -11    1    3    3    0    0  0.16753099105E+03 -0.76223446687E+02  0.57560355844E+02  0.19284667835E+03  0.00000000000E+00 0.  1.
          4    1    6    6  502    0  0.18490893520E+03  0.60753590052E+02  0.33790610579E+03  0.38995236806E+03  0.00000000000E+00 0. -1.
          3    1    5    5  503    0 -0.46312108237E+03 -0.71947740332E+02  0.19154213199E+04  0.19719270897E+04  0.00000000000E+00 0. -1.
         -4    1    5    5    0  503 -0.52074012806E+02  0.62791673742E+01  0.32562303897E+03  0.32982039697E+03  0.00000000000E+00 0.  1.
         -3    1    6    6    0  502  0.82845739763E+02  0.56839331301E+02  0.90153922976E+02  0.13498835508E+03  0.00000000000E+00 0.  1.
<mgrwt>
<rscale>  0 0.14216853E+04</rscale>
<asrwt>0</asrwt>
<pdfrwt beam="1">  1        2 0.45261233E+00 0.14216853E+04</pdfrwt>
<pdfrwt beam="2">  1       -2 0.26423712E-01 0.14216853E+04</pdfrwt>
<totfact> 0.24041257E+01</totfact>
</mgrwt>
</event>
<event>
12    1  0.1097093E-007  0.1414521E+04  0.7818608E-02  0.8943374E-01
         -1   -1    0    0    0  501 -0.00000000000E+00  0.00000000000E+00  0.29029453026E+03  0.29029453026E+03  0.00000000000E+00 0.  1.
          1   -1    0    0  501    0  0.00000000000E+00 -0.00000000000E+00 -0.17231384987E+04  0.17231384987E+04  0.00000000000E+00 0. -1.
         23    2    1    2    0    0 -0.18116012777E+03  0.33126389925E+03 -0.20373005676E+03  0.43827332962E+03  0.89570154599E+02 0.  0.
        254    2    1    2    0    0  0.18116012777E+03 -0.33126389925E+03 -0.12291139117E+04  0.15751596993E+04  0.90986389515E+03 0.  0.
        -24    2    4    4    0    0 -0.19468412807E+03 -0.51703243221E+03 -0.68948655026E+03  0.88713039012E+03  0.79901066337E+02 0.  0.
         24    2    4    4    0    0  0.37584425584E+03  0.18576853297E+03 -0.53962736141E+03  0.68802930921E+03  0.80111102009E+02 0.  0.
         11    1    3    3    0    0 -0.34595032169E+02  0.15463771299E+03 -0.87184370526E+02  0.18086114285E+03  0.00000000000E+00 0. -1.
        -11    1    3    3    0    0 -0.14656509560E+03  0.17662618626E+03 -0.11654568624E+03  0.25741218678E+03  0.00000000000E+00 0.  1.
          4    1    6    6  502    0  0.22483257150E+03  0.78502713979E+02 -0.25962110276E+03  0.35230026726E+03  0.00000000000E+00 0. -1.
          1    1    5    5  503    0 -0.20128670464E+03 -0.50678652275E+03 -0.66680721647E+03  0.86138306290E+03  0.00000000000E+00 0. -1.
         -2    1    5    5    0  503  0.66025765681E+01 -0.10245909460E+02 -0.22679333787E+02  0.25747327221E+02  0.00000000000E+00 0.  1.
         -3    1    6    6    0  502  0.15101168433E+03  0.10726581899E+03 -0.28000625865E+03  0.33572904195E+03  0.00000000000E+00 0.  1.
<mgrwt>
<rscale>  0 0.14145214E+04</rscale>
<asrwt>0</asrwt>
<pdfrwt beam="1">  1        1 0.26509823E+00 0.14145214E+04</pdfrwt>
<pdfrwt beam="2">  1       -1 0.44660697E-01 0.14145214E+04</pdfrwt>
<totfact> 0.22237462E+01</totfact>
</mgrwt>
</event>
<event>
12    1  0.1097093E-007  0.3258521E+04  0.7818608E-02  0.8173531E-01
          2   -1    0    0  501    0  0.00000000000E+00  0.00000000000E+00  0.27723563838E+04  0.27723563838E+04  0.00000000000E+00 0. -1.
         -2   -1    0    0    0  501 -0.00000000000E+00 -0.00000000000E+00 -0.95748506427E+03  0.95748506427E+03  0.00000000000E+00 0.  1.
         23    2    1    2    0    0 -0.14806219025E+04  0.12937160892E+03  0.57277662354E+03  0.15954350610E+04  0.91442560475E+02 0.  0.
        254    2    1    2    0    0  0.14806219025E+04 -0.12937160892E+03  0.12420946960E+04  0.21344063871E+04  0.89661204539E+03 0.  0.
        -24    2    4    4    0    0  0.62948737356E+02 -0.28882984795E+03  0.21649176303E+03  0.37557643480E+03  0.82484849008E+02 0.  0.
         24    2    4    4    0    0  0.14176731652E+04  0.15945823903E+03  0.10256029329E+04  0.17588299523E+04  0.79983071290E+02 0.  0.
         11    1    3    3    0    0 -0.41159478786E+03  0.22724159023E+02  0.20079987451E+03  0.45852725808E+03  0.00000000000E+00 0.  1.
        -11    1    3    3    0    0 -0.10690271147E+04  0.10664744989E+03  0.37197674903E+03  0.11369078029E+04  0.00000000000E+00 0. -1.
          4    1    6    6  502    0  0.68625918322E+03  0.52909681661E+02  0.45535498684E+03  0.82528738328E+03  0.00000000000E+00 0. -1.
          3    1    5    5  503    0  0.40429371974E+02 -0.84107989085E+02  0.10820261048E+03  0.14288629346E+03  0.00000000000E+00 0. -1.
         -4    1    5    5    0  503  0.22519365382E+02 -0.20472185886E+03  0.10828915256E+03  0.23269014133E+03  0.00000000000E+00 0.  1.
         -3    1    6    6    0  502  0.73141398196E+03  0.10654855737E+03  0.57024794611E+03  0.93354256900E+03  0.00000000000E+00 0.  1.
<mgrwt>
<rscale>  0 0.32585210E+04</rscale>
<asrwt>0</asrwt>
<pdfrwt beam="1">  1        2 0.42651636E+00 0.32585210E+04</pdfrwt>
<pdfrwt beam="2">  1       -2 0.14730540E+00 0.32585210E+04</pdfrwt>
<totfact> 0.63275683E-01</totfact>
</mgrwt>
</event>
<event>
12    1  0.1097093E-007  0.1716424E+04  0.7818608E-02  0.8752052E-01
          2   -1    0    0  501    0  0.00000000000E+00  0.00000000000E+00  0.85356019423E+03  0.85356019423E+03  0.00000000000E+00 0. -1.
         -2   -1    0    0    0  501 -0.00000000000E+00 -0.00000000000E+00 -0.86288944347E+03  0.86288944347E+03  0.00000000000E+00 0.  1.
         23    2    1    2    0    0  0.20162996030E+03  0.58727808978E+03 -0.40164169857E+02  0.62919178743E+03  0.93375313644E+02 0.  0.
        254    2    1    2    0    0 -0.20162996030E+03 -0.58727808978E+03  0.30834920614E+02  0.10872578503E+04  0.89198018197E+03 0.  0.
        -24    2    4    4    0    0  0.26699219791E+03 -0.78981463693E+02  0.22280770885E+03  0.36527253720E+03  0.79106548115E+02 0.  0.
         24    2    4    4    0    0 -0.46862215821E+03 -0.50829662609E+03 -0.19197278824E+03  0.72198531308E+03  0.80231250886E+02 0.  0.
         11    1    3    3    0    0  0.64725380747E+00  0.52041675892E+02 -0.23802735834E+02  0.57230456930E+02  0.00000000000E+00 0. -1.
        -11    1    3    3    0    0  0.20098270649E+03  0.53523641389E+03 -0.16361434023E+02  0.57196133050E+03  0.00000000000E+00 0.  1.
          2    1    6    6  502    0 -0.10126117572E+03 -0.10785189291E+03 -0.76021018216E+02  0.16632814471E+03  0.00000000000E+00 0. -1.
          1    1    5    5  503    0  0.19960924738E+02 -0.18603658719E+02  0.52626705681E+02  0.59279885163E+02  0.00000000000E+00 0. -1.
         -2    1    5    5    0  503  0.24703127317E+03 -0.60377804974E+02  0.17018100317E+03  0.30599265204E+03  0.00000000000E+00 0.  1.
         -1    1    6    6    0  502 -0.36736098249E+03 -0.40044473318E+03 -0.11595177002E+03  0.55565716837E+03  0.00000000000E+00 0.  1.
<mgrwt>
<rscale>  0 0.17164243E+04</rscale>
<asrwt>0</asrwt>
<pdfrwt beam="1">  1        2 0.13131695E+00 0.17164243E+04</pdfrwt>
<pdfrwt beam="2">  1       -2 0.13275222E+00 0.17164243E+04</pdfrwt>
<totfact> 0.12347564E+01</totfact>
</mgrwt>
</event>
<event>
12    1  0.1097093E-007  0.1905875E+04  0.7818608E-02  0.8651938E-01
          1   -1    0    0  501    0  0.00000000000E+00  0.00000000000E+00  0.38556717505E+03  0.38556717505E+03  0.00000000000E+00 0. -1.
         -1   -1    0    0    0  501 -0.00000000000E+00 -0.00000000000E+00 -0.23552055199E+04  0.23552055199E+04  0.00000000000E+00 0.  1.
         23    2    1    2    0    0  0.29784514750E+03  0.47100846302E+03 -0.66795839749E+02  0.56854970990E+03  0.90699417302E+02 0.  0.
        254    2    1    2    0    0 -0.29784514750E+03 -0.47100846302E+03 -0.19028425051E+04  0.21722229850E+04  0.88723299838E+03 0.  0.
        -24    2    4    4    0    0  0.13002812865E+02  0.20532821067E+03 -0.15294788792E+03  0.26889918143E+03  0.81147804131E+02 0.  0.
         24    2    4    4    0    0 -0.31084796037E+03 -0.67633667369E+03 -0.17498946172E+04  0.19033238036E+04  0.80327949838E+02 0.  0.
         13    1    3    3    0    0  0.18680425382E+03  0.35921293462E+03 -0.25639357461E+02  0.40569340430E+03  0.00000000000E+00 0. -1.
        -13    1    3    3    0    0  0.11104089368E+03  0.11179552840E+03 -0.41156482288E+02  0.16285630560E+03  0.00000000000E+00 0.  1.
          4    1    6    6  502    0 -0.88983298130E+02 -0.24721249762E+03 -0.53916692782E+03  0.59977747739E+03  0.00000000000E+00 0. -1.
          3    1    5    5  503    0 -0.16036761890E+01  0.18084697003E+03 -0.15775490242E+03  0.23998918222E+03  0.00000000000E+00 0. -1.
         -4    1    5    5    0  503  0.14606489054E+02  0.24481240643E+02  0.48070145000E+01  0.28909999210E+02  0.00000000000E+00 0.  1.
         -3    1    6    6    0  502 -0.22186466224E+03 -0.42912417607E+03 -0.12107276893E+04  0.13035463262E+04  0.00000000000E+00 0.  1.
<mgrwt>
<rscale>  0 0.19058751E+04</rscale>
<asrwt>0</asrwt>
<pdfrwt beam="1">  1        1 0.59318027E-01 0.19058751E+04</pdfrwt>
<pdfrwt beam="2">  1       -1 0.36233931E+00 0.19058751E+04</pdfrwt>
<totfact> 0.75933645E-01</totfact>
</mgrwt>
</event>
<event>
12    1  0.1097093E-007  0.1319263E+04  0.7818608E-02  0.9014427E-01
         -1   -1    0    0    0  501 -0.00000000000E+00  0.00000000000E+00  0.27451597921E+03  0.27451597921E+03  0.00000000000E+00 0.  1.
          1   -1    0    0  501    0  0.00000000000E+00 -0.00000000000E+00 -0.15850216395E+04  0.15850216395E+04  0.00000000000E+00 0. -1.
         23    2    1    2    0    0 -0.32889750267E+03 -0.74190823094E+02 -0.26204724395E+03  0.43729767075E+03  0.94247807856E+02 0.  0.
        254    2    1    2    0    0  0.32889750267E+03  0.74190823094E+02 -0.10484584164E+04  0.14222399480E+04  0.89990197984E+03 0.  0.
        -24    2    4    4    0    0  0.11066536569E+03 -0.32344540475E+03 -0.85217418390E+03  0.92166127399E+03  0.79968188982E+02 0.  0.
         24    2    4    4    0    0  0.21823213697E+03  0.39763622785E+03 -0.19628423245E+03  0.50057867399E+03  0.79446042304E+02 0.  0.
         13    1    3    3    0    0 -0.25936851616E+03 -0.24790690436E+02 -0.16643726787E+03  0.30917304158E+03  0.00000000000E+00 0. -1.
        -13    1    3    3    0    0 -0.69528986511E+02 -0.49400132657E+02 -0.95609976087E+02  0.12812462917E+03  0.00000000000E+00 0.  1.
          2    1    6    6  502    0  0.57430996465E+02  0.16867922213E+03 -0.51104835257E+02  0.18537179807E+03  0.00000000000E+00 0. -1.
          1    1    5    5  503    0  0.16916545007E+02 -0.52227754326E+02 -0.73112897029E+02  0.91429773755E+02  0.00000000000E+00 0. -1.
         -2    1    5    5    0  503  0.93748820688E+02 -0.27121765043E+03 -0.77906128687E+03  0.83023150023E+03  0.00000000000E+00 0.  1.
         -1    1    6    6    0  502  0.16080114051E+03  0.22895700572E+03 -0.14517939720E+03  0.31520687592E+03  0.00000000000E+00 0.  1.
<mgrwt>
<rscale>  0 0.13192631E+04</rscale>
<asrwt>0</asrwt>
<pdfrwt beam="1">  1        1 0.24384948E+00 0.13192631E+04</pdfrwt>
<pdfrwt beam="2">  1       -1 0.42233228E-01 0.13192631E+04</pdfrwt>
<totfact> 0.30894268E+01</totfact>
</mgrwt>
</event>
<event>
12    1  0.1097093E-007  0.1463621E+04  0.7818608E-02  0.8909012E-01
         -2   -1    0    0    0  501 -0.00000000000E+00  0.00000000000E+00  0.17660046383E+03  0.17660046383E+03  0.00000000000E+00 0.  1.
          2   -1    0    0  501    0  0.00000000000E+00 -0.00000000000E+00 -0.30325322458E+04  0.30325322458E+04  0.00000000000E+00 0. -1.
         23    2    1    2    0    0 -0.26969086291E+03  0.21709668599E+03 -0.15319832855E+04  0.15732511436E+04  0.91006819816E+02 0.  0.
        254    2    1    2    0    0  0.26969086291E+03 -0.21709668599E+03 -0.13239484964E+04  0.16358815660E+04  0.89632848000E+03 0.  0.
        -24    2    4    4    0    0  0.24606982631E+03  0.22945780358E+03 -0.10490341407E+04  0.11048453755E+04  0.83722352917E+02 0.  0.
         24    2    4    4    0    0  0.23621036601E+02 -0.44655448957E+03 -0.27491435572E+03  0.53103619045E+03  0.80328494726E+02 0.  0.
         11    1    3    3    0    0 -0.24007193897E+03  0.14975260153E+03 -0.11547056943E+04  0.11888673677E+04  0.00000000000E+00 0. -1.
        -11    1    3    3    0    0 -0.29618923946E+02  0.67344084460E+02 -0.37727759122E+03  0.38438377594E+03  0.00000000000E+00 0.  1.
          2    1    6    6  502    0  0.11171346189E+01 -0.23727051472E+03 -0.10052043095E+03  0.25768760580E+03  0.00000000000E+00 0. -1.
          3    1    5    5  503    0  0.69814404153E+02  0.31225404515E+02 -0.32125025419E+03  0.33022840994E+03  0.00000000000E+00 0. -1.
         -4    1    5    5    0  503  0.17625542216E+03  0.19823239906E+03 -0.72778388652E+03  0.77461696557E+03  0.00000000000E+00 0.  1.
         -1    1    6    6    0  502  0.22503901982E+02 -0.20928397485E+03 -0.17439392478E+03  0.27334858465E+03  0.00000000000E+00 0.  1.
<mgrwt>
<rscale>  0 0.14636210E+04</rscale>
<asrwt>0</asrwt>
<pdfrwt beam="1">  1        2 0.46654342E+00 0.14636210E+04</pdfrwt>
<pdfrwt beam="2">  1       -2 0.27169302E-01 0.14636210E+04</pdfrwt>
<totfact> 0.19995700E+01</totfact>
</mgrwt>
</event>
<event>
12    1  0.1097093E-007  0.2263446E+04  0.7818608E-02  0.8492475E-01
          1   -1    0    0  501    0  0.00000000000E+00  0.00000000000E+00  0.19195294995E+04  0.19195294995E+04  0.00000000000E+00 0. -1.
         -1   -1    0    0    0  501 -0.00000000000E+00 -0.00000000000E+00 -0.66724507782E+03  0.66724507782E+03  0.00000000000E+00 0.  1.
         23    2    1    2    0    0  0.58001669911E+03 -0.40313707705E+03 -0.18938857033E+03  0.73683309932E+03  0.90089464037E+02 0.  0.
        254    2    1    2    0    0 -0.58001669911E+03  0.40313707705E+03  0.14416729920E+04  0.18499414780E+04  0.91919724868E+03 0.  0.
        -24    2    4    4    0    0 -0.45708934796E+03 -0.90155783002E+01  0.15259551238E+03  0.48834675734E+03  0.78646120888E+02 0.  0.
         24    2    4    4    0    0 -0.12292735115E+03  0.41215265535E+03  0.12890774796E+04  0.13615947207E+04  0.85079315169E+02 0.  0.
         11    1    3    3    0    0  0.35678539366E+03 -0.21203611318E+03 -0.14503505150E+03  0.43964792344E+03  0.00000000000E+00 0. -1.
        -11    1    3    3    0    0  0.22323130545E+03 -0.19110096387E+03 -0.44353518828E+02  0.29718517587E+03  0.00000000000E+00 0.  1.
          4    1    6    6  502    0 -0.44612649082E+02  0.10119859902E+03  0.23314936498E+03  0.25805052082E+03  0.00000000000E+00 0. -1.
          1    1    5    5  503    0 -0.15545812819E+03  0.14770885156E+02  0.17999192050E+02  0.15719217405E+03  0.00000000000E+00 0. -1.
         -2    1    5    5    0  503 -0.30163121978E+03 -0.23786463456E+02  0.13459632033E+03  0.33115458329E+03  0.00000000000E+00 0.  1.
         -3    1    6    6    0  502 -0.78314702068E+02  0.31095405633E+03  0.10559281146E+04  0.11035441998E+04  0.00000000000E+00 0.  1.
<mgrwt>
<rscale>  0 0.22634457E+04</rscale>
<asrwt>0</asrwt>
<pdfrwt beam="1">  1        1 0.29531223E+00 0.22634457E+04</pdfrwt>
<pdfrwt beam="2">  1       -1 0.10265309E+00 0.22634457E+04</pdfrwt>
<totfact> 0.27490015E+00</totfact>
</mgrwt>
</event>
<event>
12    1  0.1097093E-007  0.2331073E+04  0.7818608E-02  0.8465769E-01
          1   -1    0    0  501    0  0.00000000000E+00  0.00000000000E+00  0.22871553708E+04  0.22871553708E+04  0.00000000000E+00 0. -1.
         -1   -1    0    0    0  501 -0.00000000000E+00 -0.00000000000E+00 -0.59395858220E+03  0.59395858220E+03  0.00000000000E+00 0.  1.
         23    2    1    2    0    0  0.12905162677E+03  0.90003324448E+03  0.20758700187E+03  0.93687940697E+03  0.89087015420E+02 0.  0.
        254    2    1    2    0    0 -0.12905162677E+03 -0.90003324448E+03  0.14856097868E+04  0.19442345461E+04  0.86388504330E+03 0.  0.
        -24    2    4    4    0    0  0.33537325219E+03 -0.34531018962E+03  0.83969273039E+03  0.97098101867E+03  0.77497818082E+02 0.  0.
         24    2    4    4    0    0 -0.46442487895E+03 -0.55472305486E+03  0.64591705636E+03  0.97325352739E+03  0.81273913933E+02 0.  0.
         11    1    3    3    0    0  0.73070324048E+02  0.44789982615E+03  0.14838100647E+03  0.47746251120E+03  0.00000000000E+00 0.  1.
        -11    1    3    3    0    0  0.55981302719E+02  0.45213341833E+03  0.59205995397E+02  0.45941689576E+03  0.00000000000E+00 0. -1.
          4    1    6    6  502    0 -0.22446828236E+03 -0.21590436180E+03  0.30675209000E+03  0.43714705529E+03  0.00000000000E+00 0. -1.
          3    1    5    5  503    0  0.30114486048E+03 -0.32561311305E+03  0.72746579202E+03  0.85200857093E+03  0.00000000000E+00 0. -1.
         -4    1    5    5    0  503  0.34228391701E+02 -0.19697076571E+02  0.11222693838E+03  0.11897244774E+03  0.00000000000E+00 0.  1.
         -3    1    6    6    0  502 -0.23995659659E+03 -0.33881869306E+03  0.33916496637E+03  0.53610647210E+03  0.00000000000E+00 0.  1.
<mgrwt>
<rscale>  0 0.23310732E+04</rscale>
<asrwt>0</asrwt>
<pdfrwt beam="1">  1        1 0.35187005E+00 0.23310732E+04</pdfrwt>
<pdfrwt beam="2">  1       -1 0.91378245E-01 0.23310732E+04</pdfrwt>
<totfact> 0.19992273E+00</totfact>
</mgrwt>
</event>
<event>
12    1  0.1097093E-007  0.1710694E+04  0.7818608E-02  0.8755289E-01
         -2   -1    0    0    0  501 -0.00000000000E+00  0.00000000000E+00  0.71460490915E+03  0.71460490915E+03  0.00000000000E+00 0.  1.
          2   -1    0    0  501    0  0.00000000000E+00 -0.00000000000E+00 -0.10238084369E+04  0.10238084369E+04  0.00000000000E+00 0. -1.
         23    2    1    2    0    0  0.61761593681E+03  0.11355415808E+02 -0.27460001884E+02  0.62493864860E+03  0.90641447123E+02 0.  0.
        254    2    1    2    0    0 -0.61761593681E+03 -0.11355415808E+02 -0.28174352586E+03  0.11134746975E+04  0.88253503989E+03 0.  0.
        -24    2    4    4    0    0  0.76187947718E+02 -0.17368817058E+03 -0.33628272370E+03  0.39420381110E+03  0.79614009149E+02 0.  0.
         24    2    4    4    0    0 -0.69380388453E+03  0.16233275477E+03  0.54539197841E+02  0.71927088635E+03  0.81610847226E+02 0.  0.
         13    1    3    3    0    0  0.34353592955E+02 -0.20760597960E+02 -0.37036213192E+01  0.40309906816E+02  0.00000000000E+00 0. -1.
        -13    1    3    3    0    0  0.58326234386E+03  0.32116013768E+02 -0.23756380565E+02  0.58462874178E+03  0.00000000000E+00 0.  1.
          4    1    6    6  502    0 -0.23495244875E+03  0.27674724312E+02  0.45913250257E+02  0.24099080914E+03  0.00000000000E+00 0. -1.
          3    1    5    5  503    0  0.46266394918E+02 -0.13857584231E+03 -0.30581140532E+03  0.33891659592E+03  0.00000000000E+00 0. -1.
         -4    1    5    5    0  503  0.29921552800E+02 -0.35112328267E+02 -0.30471318385E+02  0.55287215181E+02  0.00000000000E+00 0.  1.
         -3    1    6    6    0  502 -0.45885143578E+03  0.13465803046E+03  0.86259475841E+01  0.47828007721E+03  0.00000000000E+00 0.  1.
<mgrwt>
<rscale>  0 0.17106941E+04</rscale>
<asrwt>0</asrwt>
<pdfrwt beam="1">  1        2 0.15750899E+00 0.17106941E+04</pdfrwt>
<pdfrwt beam="2">  1       -2 0.10993922E+00 0.17106941E+04</pdfrwt>
<totfact> 0.15214158E+01</totfact>
</mgrwt>
</event>
<event>
12    1  0.1097093E-007  0.2216243E+04  0.7818608E-02  0.8511698E-01
          2   -1    0    0  501    0  0.00000000000E+00  0.00000000000E+00  0.21906002312E+04  0.21906002312E+04  0.00000000000E+00 0. -1.
         -2   -1    0    0    0  501 -0.00000000000E+00 -0.00000000000E+00 -0.56054629852E+03  0.56054629852E+03  0.00000000000E+00 0.  1.
         23    2    1    2    0    0  0.87876803118E+03  0.11823062316E+03  0.95343808598E+03  0.13050946876E+04  0.89533385130E+02 0.  0.
        254    2    1    2    0    0 -0.87876803118E+03 -0.11823062316E+03  0.67661584674E+03  0.14460518421E+04  0.92035058164E+03 0.  0.
        -24    2    4    4    0    0 -0.79809817549E+03 -0.43418763908E+03  0.62636558738E+03  0.11064648567E+04  0.80318281826E+02 0.  0.
         24    2    4    4    0    0 -0.80669855692E+02  0.31595701593E+03  0.50250259357E+02  0.33958698541E+03  0.80360254875E+02 0.  0.
         13    1    3    3    0    0  0.32169840744E+03  0.82084706684E+02  0.32672573364E+03  0.46580840422E+03  0.00000000000E+00 0. -1.
        -13    1    3    3    0    0  0.55706962374E+03  0.36145916472E+02  0.62671235234E+03  0.83928628343E+03  0.00000000000E+00 0.  1.
          2    1    6    6  502    0 -0.41193094527E+02  0.42095961988E+02  0.37680976433E+01  0.59018129522E+02  0.00000000000E+00 0. -1.
          1    1    5    5  503    0 -0.21683979508E+03 -0.14533219420E+03  0.21328020908E+03  0.33708958896E+03  0.00000000000E+00 0. -1.
         -2    1    5    5    0  503 -0.58125838041E+03 -0.28885544488E+03  0.41308537830E+03  0.76937526773E+03  0.00000000000E+00 0.  1.
         -1    1    6    6    0  502 -0.39476761165E+02  0.27386105394E+03  0.46482161714E+02  0.28056885589E+03  0.00000000000E+00 0.  1.
<mgrwt>
<rscale>  0 0.22162426E+04</rscale>
<asrwt>0</asrwt>
<pdfrwt beam="1">  1        2 0.33701542E+00 0.22162426E+04</pdfrwt>
<pdfrwt beam="2">  1       -2 0.86237893E-01 0.22162426E+04</pdfrwt>
<totfact> 0.55617325E+00</totfact>
</mgrwt>
</event>
<event>
12    1  0.1097093E-007  0.2187086E+04  0.7818608E-02  0.8523823E-01
         -3   -1    0    0    0  501 -0.00000000000E+00  0.00000000000E+00  0.10872043944E+04  0.10872043944E+04  0.00000000000E+00 0.  1.
          3   -1    0    0  501    0  0.00000000000E+00 -0.00000000000E+00 -0.10999182006E+04  0.10999182006E+04  0.00000000000E+00 0. -1.
         23    2    1    2    0    0  0.16856766525E+03  0.43596710774E+03  0.76333368490E+03  0.89987776501E+03  0.92840188820E+02 0.  0.
        254    2    1    2    0    0 -0.16856766525E+03 -0.43596710774E+03 -0.77604749112E+03  0.12872448300E+04  0.91447644428E+03 0.  0.
        -24    2    4    4    0    0  0.27096429610E+03 -0.28160106704E+03 -0.25497064437E+02  0.39988017551E+03  0.80828483527E+02 0.  0.
         24    2    4    4    0    0 -0.43953196136E+03 -0.15436604070E+03 -0.75055042669E+03  0.88736465451E+03  0.84100341860E+02 0.  0.
         11    1    3    3    0    0  0.17403287533E+03  0.37368575164E+03  0.63408350987E+03  0.75630045628E+03  0.00000000000E+00 0.  1.
        -11    1    3    3    0    0 -0.54652100742E+01  0.62281356098E+02  0.12925017503E+03  0.14357730873E+03  0.00000000000E+00 0. -1.
          4    1    6    6  502    0 -0.41500496961E+03 -0.14991017496E+03 -0.73699238245E+03  0.85898775145E+03  0.00000000000E+00 0. -1.
          3    1    5    5  503    0  0.16973332508E+03 -0.20548912999E+03  0.14903305712E+02  0.26694061645E+03  0.00000000000E+00 0. -1.
         -4    1    5    5    0  503  0.10123097102E+03 -0.76111937046E+02 -0.40400370149E+02  0.13293955906E+03  0.00000000000E+00 0.  1.
         -3    1    6    6    0  502 -0.24526991746E+02 -0.44558657395E+01 -0.13558044236E+02  0.28376903057E+02  0.00000000000E+00 0.  1.
<mgrwt>
<rscale>  0 0.21870856E+04</rscale>
<asrwt>0</asrwt>
<pdfrwt beam="1">  1        3 0.16921818E+00 0.21870856E+04</pdfrwt>
<pdfrwt beam="2">  1       -3 0.16726222E+00 0.21870856E+04</pdfrwt>
<totfact> 0.13573369E-01</totfact>
</mgrwt>
</event>
<event>
12    1  0.1097093E-007  0.2563240E+04  0.7818608E-02  0.8380796E-01
         -1   -1    0    0    0  501 -0.00000000000E+00  0.00000000000E+00  0.74748755532E+03  0.74748755532E+03  0.00000000000E+00 0.  1.
          1   -1    0    0  501    0  0.00000000000E+00 -0.00000000000E+00 -0.21974279462E+04  0.21974279462E+04  0.00000000000E+00 0. -1.
         23    2    1    2    0    0  0.65427546959E+03  0.54715056222E+03  0.18465476335E+03  0.87734595320E+03  0.90489845407E+02 0.  0.
        254    2    1    2    0    0 -0.65427546959E+03 -0.54715056222E+03 -0.16345951542E+04  0.20675695483E+04  0.93567750376E+03 0.  0.
        -24    2    4    4    0    0 -0.21737820063E+03 -0.57445140284E+03 -0.14664690293E+04  0.15919238593E+04  0.80264957722E+02 0.  0.
         24    2    4    4    0    0 -0.43689726896E+03  0.27300840616E+02 -0.16812612484E+03  0.47564568899E+03  0.79673509223E+02 0.  0.
         13    1    3    3    0    0  0.61561204603E+03  0.51761691473E+03  0.15144183893E+03  0.81843759213E+03  0.00000000000E+00 0.  1.
        -13    1    3    3    0    0  0.38663423560E+02  0.29533647492E+02  0.33212924419E+02  0.58908361071E+02  0.00000000000E+00 0. -1.
          2    1    6    6  502    0 -0.29237002223E+03 -0.10796072719E+02 -0.85221617550E+02  0.30472858281E+03  0.00000000000E+00 0. -1.
          3    1    5    5  503    0 -0.15986335678E+03 -0.34930173454E+03 -0.98665203132E+03  0.10587965931E+04  0.00000000000E+00 0. -1.
         -4    1    5    5    0  503 -0.57514843853E+02 -0.22514966830E+03 -0.47981699801E+03  0.53312726621E+03  0.00000000000E+00 0.  1.
         -1    1    6    6    0  502 -0.14452724674E+03  0.38096913335E+02 -0.82904507293E+02  0.17091710618E+03  0.00000000000E+00 0.  1.
<mgrwt>
<rscale>  0 0.25632402E+04</rscale>
<asrwt>0</asrwt>
<pdfrwt beam="1">  1        1 0.33806584E+00 0.25632402E+04</pdfrwt>
<pdfrwt beam="2">  1       -1 0.11499809E+00 0.25632402E+04</pdfrwt>
<totfact> 0.13262666E+00</totfact>
</mgrwt>
</event>
<event>
12    1  0.1097093E-007  0.1377656E+04  0.7818608E-02  0.8970153E-01
         -1   -1    0    0    0  501 -0.00000000000E+00  0.00000000000E+00  0.53479365781E+03  0.53479365781E+03  0.00000000000E+00 0.  1.
          1   -1    0    0  501    0  0.00000000000E+00 -0.00000000000E+00 -0.88722861473E+03  0.88722861473E+03  0.00000000000E+00 0. -1.
         23    2    1    2    0    0 -0.71482896804E+02 -0.11953201986E+03 -0.57340698823E+03  0.59718430401E+03  0.91846668389E+02 0.  0.
        254    2    1    2    0    0  0.71482896804E+02  0.11953201986E+03  0.22097203131E+03  0.82483796853E+03  0.78238822039E+03 0.  0.
        -24    2    4    4    0    0  0.41749430917E+03  0.10072979419E+03  0.90993970687E+02  0.44625751076E+03  0.80111631963E+02 0.  0.
         24    2    4    4    0    0 -0.34601141237E+03  0.18802225666E+02  0.12997806063E+03  0.37858045777E+03  0.79695957138E+02 0.  0.
         13    1    3    3    0    0 -0.73402697734E+02 -0.11384413540E+03 -0.57518784639E+03  0.59092258532E+03  0.00000000000E+00 0. -1.
        -13    1    3    3    0    0  0.19198009299E+01 -0.56878844565E+01  0.17808581596E+01  0.62617186926E+01  0.00000000000E+00 0.  1.
          2    1    6    6  502    0 -0.11790780503E+03 -0.31184063337E+02  0.48652065513E+02  0.13130772929E+03  0.00000000000E+00 0. -1.
          1    1    5    5  503    0  0.25934382059E+03  0.94009418001E+02  0.81658571682E+02  0.28768925993E+03  0.00000000000E+00 0. -1.
         -2    1    5    5    0  503  0.15815048858E+03  0.67203761933E+01  0.93353990050E+01  0.15856825083E+03  0.00000000000E+00 0.  1.
         -1    1    6    6    0  502 -0.22810360734E+03  0.49986289003E+02  0.81325995114E+02  0.24727272848E+03  0.00000000000E+00 0.  1.
<mgrwt>
<rscale>  0 0.13776563E+04</rscale>
<asrwt>0</asrwt>
<pdfrwt beam="1">  1        1 0.13649671E+00 0.13776563E+04</pdfrwt>
<pdfrwt beam="2">  1       -1 0.82275949E-01 0.13776563E+04</pdfrwt>
<totfact> 0.26757922E+01</totfact>
</mgrwt>
</event>
<event>
12    1  0.1097093E-007  0.1573086E+04  0.7818608E-02  0.8837255E-01
         -2   -1    0    0    0  501 -0.00000000000E+00  0.00000000000E+00  0.24194872417E+04  0.24194872417E+04  0.00000000000E+00 0.  1.
          2   -1    0    0  501    0  0.00000000000E+00 -0.00000000000E+00 -0.25569465084E+03  0.25569465084E+03  0.00000000000E+00 0. -1.
         23    2    1    2    0    0  0.28162012298E+03 -0.15698105646E+03  0.14226783874E+04  0.14616246846E+04  0.91542224237E+02 0.  0.
        254    2    1    2    0    0 -0.28162012298E+03  0.15698105646E+03  0.74111420350E+03  0.12135572080E+04  0.90527227326E+03 0.  0.
        -24    2    4    4    0    0 -0.47125359639E+03  0.20335388855E+03  0.87014541310E+02  0.52640311860E+03  0.78076608381E+02 0.  0.
         24    2    4    4    0    0  0.18963347341E+03 -0.46372832097E+02  0.65409966219E+03  0.68715408941E+03  0.78886505231E+02 0.  0.
         11    1    3    3    0    0  0.25667133266E+03 -0.10516033627E+03  0.11555172870E+04  0.11883429934E+04  0.00000000000E+00 0.  1.
        -11    1    3    3    0    0  0.24948790314E+02 -0.51820720181E+02  0.26716110037E+03  0.27328169117E+03  0.00000000000E+00 0. -1.
          2    1    6    6  502    0  0.12679729955E+03  0.68230670936E+01  0.43247884479E+03  0.45073502261E+03  0.00000000000E+00 0. -1.
          3    1    5    5  503    0 -0.35010421312E+03  0.18056089729E+03  0.46584876554E+02  0.39666780611E+03  0.00000000000E+00 0. -1.
         -4    1    5    5    0  503 -0.12114938327E+03  0.22792991261E+02  0.40429664757E+02  0.12973531250E+03  0.00000000000E+00 0.  1.
         -1    1    6    6    0  502  0.62836173867E+02 -0.53195899191E+02  0.22162081741E+03  0.23641906680E+03  0.00000000000E+00 0.  1.
<mgrwt>
<rscale>  0 0.15730861E+04</rscale>
<asrwt>0</asrwt>
<pdfrwt beam="1">  1        2 0.39337640E-01 0.15730861E+04</pdfrwt>
<pdfrwt beam="2">  1       -2 0.37222879E+00 0.15730861E+04</pdfrwt>
<totfact> 0.14269265E+00</totfact>
</mgrwt>
</event>
<event>
12    1  0.1097093E-007  0.1167969E+04  0.7818608E-02  0.9141365E-01
          2   -1    0    0  501    0  0.00000000000E+00  0.00000000000E+00  0.66625567196E+03  0.66625567196E+03  0.00000000000E+00 0. -1.
         -2   -1    0    0    0  501 -0.00000000000E+00 -0.00000000000E+00 -0.51187241849E+03  0.51187241849E+03  0.00000000000E+00 0.  1.
         23    2    1    2    0    0 -0.54529899394E+02 -0.14918023430E+03  0.17996677834E+03  0.25652845855E+03  0.90501693395E+02 0.  0.
        254    2    1    2    0    0  0.54529899394E+02  0.14918023430E+03 -0.25583524875E+02  0.92159963190E+03  0.90744868314E+03 0.  0.
        -24    2    4    4    0    0  0.11465250616E+02 -0.17605110973E+03 -0.38386460591E+03  0.42995508686E+03  0.79899285573E+02 0.  0.
         24    2    4    4    0    0  0.43064648778E+02  0.32523134403E+03  0.35828108104E+03  0.49164454504E+03  0.75624298492E+02 0.  0.
         13    1    3    3    0    0 -0.31664728809E+01 -0.65587623765E+02  0.13175456877E+03  0.14721083293E+03  0.00000000000E+00 0.  1.
        -13    1    3    3    0    0 -0.51363426513E+02 -0.83592610536E+02  0.48212209573E+02  0.10931762562E+03  0.00000000000E+00 0. -1.
          2    1    6    6  502    0 -0.12121830076E+02  0.10887731058E+03  0.84461557455E+02  0.13832918062E+03  0.00000000000E+00 0. -1.
          3    1    5    5  503    0  0.59973613524E+01 -0.16976149257E+03 -0.38567527761E+03  0.42142656829E+03  0.00000000000E+00 0. -1.
         -4    1    5    5    0  503  0.54678892634E+01 -0.62896171635E+01  0.18106716936E+01  0.85285185726E+01  0.00000000000E+00 0.  1.
         -1    1    6    6    0  502  0.55186478854E+02  0.21635403345E+03  0.27381952358E+03  0.35331536442E+03  0.00000000000E+00 0.  1.
<mgrwt>
<rscale>  0 0.11679690E+04</rscale>
<asrwt>0</asrwt>
<pdfrwt beam="1">  1        2 0.10250087E+00 0.11679690E+04</pdfrwt>
<pdfrwt beam="2">  1       -2 0.78749602E-01 0.11679690E+04</pdfrwt>
<totfact> 0.61774789E+01</totfact>
</mgrwt>
</event>
<event>
12    1  0.1097093E-007  0.1296225E+04  0.7818608E-02  0.9032564E-01
          2   -1    0    0  501    0  0.00000000000E+00  0.00000000000E+00  0.12484706915E+04  0.12484706915E+04  0.00000000000E+00 0. -1.
         -2   -1    0    0    0  501 -0.00000000000E+00 -0.00000000000E+00 -0.33645126467E+03  0.33645126467E+03  0.00000000000E+00 0.  1.
         23    2    1    2    0    0 -0.13736614720E+02 -0.33344527656E+03  0.21126569085E+03  0.40530863098E+03  0.90925503411E+02 0.  0.
        254    2    1    2    0    0  0.13736614720E+02  0.33344527656E+03  0.70075373598E+03  0.11796133252E+04  0.88828900222E+03 0.  0.
        -24    2    4    4    0    0  0.22890550186E+03 -0.29652579844E+02 -0.10709646355E+03  0.26457353112E+03  0.72474109813E+02 0.  0.
         24    2    4    4    0    0 -0.21516888714E+03  0.36309785640E+03  0.80785019953E+03  0.91503979409E+03  0.80858991852E+02 0.  0.
         13    1    3    3    0    0  0.26672884173E+02 -0.64134035667E+02  0.19194624810E+02  0.72062826080E+02  0.00000000000E+00 0.  1.
        -13    1    3    3    0    0 -0.40409498893E+02 -0.26931124089E+03  0.19207106604E+03  0.33324580490E+03  0.00000000000E+00 0. -1.
          4    1    6    6  502    0 -0.32359652118E+02  0.10769739702E+03  0.16659142363E+03  0.20099397712E+03  0.00000000000E+00 0. -1.
          1    1    5    5  503    0  0.19502710892E+02 -0.22067711239E+02 -0.27896064928E+02  0.40565133426E+02  0.00000000000E+00 0. -1.
         -2    1    5    5    0  503  0.20940279096E+03 -0.75848686046E+01 -0.79200398618E+02  0.22400839769E+03  0.00000000000E+00 0.  1.
         -3    1    6    6    0  502 -0.18280923502E+03  0.25540045938E+03  0.64125877590E+03  0.71404581696E+03  0.00000000000E+00 0.  1.
<mgrwt>
<rscale>  0 0.12962246E+04</rscale>
<asrwt>0</asrwt>
<pdfrwt beam="1">  1        2 0.19207241E+00 0.12962246E+04</pdfrwt>
<pdfrwt beam="2">  1       -2 0.51761734E-01 0.12962246E+04</pdfrwt>
<totfact> 0.61241806E+01</totfact>
</mgrwt>
</event>
<event>
12    1  0.1097093E-007  0.2359431E+04  0.7818608E-02  0.8454850E-01
          2   -1    0    0  501    0  0.00000000000E+00  0.00000000000E+00  0.26992933274E+04  0.26992933274E+04  0.00000000000E+00 0. -1.
         -2   -1    0    0    0  501 -0.00000000000E+00 -0.00000000000E+00 -0.51558995024E+03  0.51558995024E+03  0.00000000000E+00 0.  1.
         23    2    1    2    0    0 -0.18354168292E+03 -0.34620936635E+03 -0.32759535771E+03  0.51831032726E+03  0.88195250662E+02 0.  0.
        254    2    1    2    0    0  0.18354168292E+03  0.34620936635E+03  0.25112987349E+04  0.26965729504E+04  0.90074184218E+03 0.  0.
        -24    2    4    4    0    0  0.45663681514E+03 -0.16754861037E+02  0.17151705624E+04  0.17766663733E+04  0.77041791647E+02 0.  0.
         24    2    4    4    0    0 -0.27309513221E+03  0.36296422738E+03  0.79612817251E+03  0.91990657710E+03  0.78000396980E+02 0.  0.
         13    1    3    3    0    0 -0.13588705802E+03 -0.26851486100E+03 -0.19936416339E+03  0.36098697035E+03  0.00000000000E+00 0.  1.
        -13    1    3    3    0    0 -0.47654624902E+02 -0.77694505344E+02 -0.12823119431E+03  0.15732335691E+03  0.00000000000E+00 0. -1.
          2    1    6    6  502    0 -0.27776744527E+03  0.35225830859E+03  0.76749111026E+03  0.88897878150E+03  0.00000000000E+00 0. -1.
          3    1    5    5  503    0  0.40678098225E+03 -0.39004227616E+02  0.14979519716E+04  0.15526919226E+04  0.00000000000E+00 0. -1.
         -4    1    5    5    0  503  0.49855832885E+02  0.22249366579E+02  0.21721859076E+03  0.22397445068E+03  0.00000000000E+00 0.  1.
         -1    1    6    6    0  502  0.46723130598E+01  0.10705918795E+02  0.28637062249E+02  0.30927795602E+02  0.00000000000E+00 0.  1.
<mgrwt>
<rscale>  0 0.23594309E+04</rscale>
<asrwt>0</asrwt>
<pdfrwt beam="1">  1        2 0.41527589E+00 0.23594309E+04</pdfrwt>
<pdfrwt beam="2">  1       -2 0.79321533E-01 0.23594309E+04</pdfrwt>
<totfact> 0.33794273E+00</totfact>
</mgrwt>
</event>
<event>
12    1  0.1097093E-007  0.2481751E+04  0.7818608E-02  0.8409516E-01
         -1   -1    0    0    0  501 -0.00000000000E+00  0.00000000000E+00  0.10530825394E+04  0.10530825394E+04  0.00000000000E+00 0.  1.
          1   -1    0    0  501    0  0.00000000000E+00 -0.00000000000E+00 -0.14621572156E+04  0.14621572156E+04  0.00000000000E+00 0. -1.
         23    2    1    2    0    0  0.65694765818E+03 -0.81862366446E+03  0.65239605180E+02  0.10556679500E+04  0.91943922949E+02 0.  0.
        254    2    1    2    0    0 -0.65694765818E+03  0.81862366446E+03 -0.47431428143E+03  0.14595718050E+04  0.89646577559E+03 0.  0.
        -24    2    4    4    0    0 -0.60199660304E+03  0.16477569694E+03 -0.49145340868E+03  0.79822162003E+03  0.77976672149E+02 0.  0.
         24    2    4    4    0    0 -0.54951055141E+02  0.65384796751E+03  0.17139127248E+02  0.66135018498E+03  0.80953902954E+02 0.  0.
         13    1    3    3    0    0  0.54208413911E+03 -0.63493050272E+03  0.24487730485E+02  0.83521949576E+03  0.00000000000E+00 0.  1.
        -13    1    3    3    0    0  0.11486351907E+03 -0.18369316174E+03  0.40751874695E+02  0.22044845423E+03  0.00000000000E+00 0. -1.
          4    1    6    6  502    0 -0.17832762688E+02  0.59142323496E+02  0.21690754141E+02  0.65469921864E+02  0.00000000000E+00 0. -1.
          1    1    5    5  503    0 -0.86774082717E+02  0.46273268614E+02 -0.55080276949E+02  0.11271554342E+03  0.00000000000E+00 0. -1.
         -2    1    5    5    0  503 -0.51522252032E+03  0.11850242833E+03 -0.43637313173E+03  0.68550607661E+03  0.00000000000E+00 0.  1.
         -3    1    6    6    0  502 -0.37118292454E+02  0.59470564402E+03 -0.45516268936E+01  0.59588026311E+03  0.00000000000E+00 0.  1.
<mgrwt>
<rscale>  0 0.24817512E+04</rscale>
<asrwt>0</asrwt>
<pdfrwt beam="1">  1        1 0.22494727E+00 0.24817512E+04</pdfrwt>
<pdfrwt beam="2">  1       -1 0.16201270E+00 0.24817512E+04</pdfrwt>
<totfact> 0.17452256E+00</totfact>
</mgrwt>
</event>
<event>
12    1  0.1097093E-007  0.2446519E+04  0.7818608E-02  0.8422290E-01
          2   -1    0    0  501    0  0.00000000000E+00  0.00000000000E+00  0.20941979221E+04  0.20941979221E+04  0.00000000000E+00 0. -1.
         -2   -1    0    0    0  501 -0.00000000000E+00 -0.00000000000E+00 -0.71452852143E+03  0.71452852143E+03  0.00000000000E+00 0.  1.
         23    2    1    2    0    0 -0.61398715421E+03 -0.53213087776E+03  0.13766249510E+04  0.16011355154E+04  0.91625248747E+02 0.  0.
        254    2    1    2    0    0  0.61398715421E+03  0.53213087776E+03  0.30444496845E+01  0.12075909282E+04  0.89337734724E+03 0.  0.
        -24    2    4    4    0    0  0.37240394600E+03  0.13661191000E+03 -0.41389694602E+03  0.57900852191E+03  0.81195280434E+02 0.  0.
         24    2    4    4    0    0  0.24158320821E+03  0.39551896776E+03  0.41694139571E+03  0.62858240628E+03  0.80486108671E+02 0.  0.
         13    1    3    3    0    0 -0.17290518122E+03 -0.17430879543E+03  0.49229650937E+03  0.55012326890E+03  0.00000000000E+00 0.  1.
        -13    1    3    3    0    0 -0.44108197299E+03 -0.35782208233E+03  0.88432844164E+03  0.10510122465E+04  0.00000000000E+00 0. -1.
          2    1    6    6  502    0  0.20735330388E+03  0.34351883490E+03  0.39367555521E+03  0.56212189544E+03  0.00000000000E+00 0. -1.
          3    1    5    5  503    0  0.19322502878E+03  0.10841346122E+03 -0.19914753731E+03  0.29790792527E+03  0.00000000000E+00 0. -1.
         -4    1    5    5    0  503  0.17917891721E+03  0.28198448786E+02 -0.21474940871E+03  0.28110059664E+03  0.00000000000E+00 0.  1.
         -1    1    6    6    0  502  0.34229904329E+02  0.52000132853E+02  0.23265840493E+02  0.66460510839E+02  0.00000000000E+00 0.  1.
<mgrwt>
<rscale>  0 0.24465193E+04</rscale>
<asrwt>0</asrwt>
<pdfrwt beam="1">  1        2 0.32218429E+00 0.24465193E+04</pdfrwt>
<pdfrwt beam="2">  1       -2 0.10992747E+00 0.24465193E+04</pdfrwt>
<totfact> 0.34895536E+00</totfact>
</mgrwt>
</event>
<event>
12    1  0.1097093E-007  0.2263331E+04  0.7818608E-02  0.8492521E-01
         -2   -1    0    0    0  501 -0.00000000000E+00  0.00000000000E+00  0.81535947378E+03  0.81535947378E+03  0.00000000000E+00 0.  1.
          2   -1    0    0  501    0  0.00000000000E+00 -0.00000000000E+00 -0.15706778825E+04  0.15706778825E+04  0.00000000000E+00 0. -1.
         23    2    1    2    0    0  0.25150239963E+03  0.64154160727E+03  0.37009158804E+03  0.78723680993E+03  0.89134283459E+02 0.  0.
        254    2    1    2    0    0 -0.25150239963E+03 -0.64154160727E+03 -0.11254099968E+04  0.15988005464E+04  0.90265521397E+03 0.  0.
        -24    2    4    4    0    0  0.22173972535E+03 -0.56569376130E+03 -0.42282849407E+03  0.74460660333E+03  0.80480562635E+02 0.  0.
         24    2    4    4    0    0 -0.47324212498E+03 -0.75847845974E+02 -0.70258150272E+03  0.85419394304E+03  0.79470244512E+02 0.  0.
         13    1    3    3    0    0  0.15832585428E+03  0.42044841711E+03  0.28800457472E+03  0.53365773924E+03  0.00000000000E+00 0.  1.
        -13    1    3    3    0    0  0.93176545349E+02  0.22109319016E+03  0.82087013323E+02  0.25357907069E+03  0.00000000000E+00 0. -1.
          2    1    6    6  502    0 -0.16001539069E+03  0.42135994377E+01 -0.27427621447E+03  0.31756908146E+03  0.00000000000E+00 0. -1.
          3    1    5    5  503    0  0.21203274391E+03 -0.49387420119E+03 -0.39487369274E+03  0.66692941479E+03  0.00000000000E+00 0. -1.
         -4    1    5    5    0  503  0.97069814386E+01 -0.71819560108E+02 -0.27954801321E+02  0.77677188541E+02  0.00000000000E+00 0.  1.
         -1    1    6    6    0  502 -0.31322673429E+03 -0.80061445412E+02 -0.42830528825E+03  0.53662486157E+03  0.00000000000E+00 0.  1.
<mgrwt>
<rscale>  0 0.22633313E+04</rscale>
<asrwt>0</asrwt>
<pdfrwt beam="1">  1        2 0.24164275E+00 0.22633313E+04</pdfrwt>
<pdfrwt beam="2">  1       -2 0.12543992E+00 0.22633313E+04</pdfrwt>
<totfact> 0.50062757E+00</totfact>
</mgrwt>
</event>
<event>
12    1  0.1097093E-007  0.1242382E+04  0.7818608E-02  0.9076548E-01
         -2   -1    0    0    0  501 -0.00000000000E+00  0.00000000000E+00  0.47947626174E+03  0.47947626174E+03  0.00000000000E+00 0. -1.
          2   -1    0    0  501    0  0.00000000000E+00 -0.00000000000E+00 -0.80479056274E+03  0.80479056274E+03  0.00000000000E+00 0.  1.
         23    2    1    2    0    0 -0.11081243424E+03 -0.19322943197E+03 -0.26437074912E+03  0.35745977737E+03  0.90931790282E+02 0.  0.
        254    2    1    2    0    0  0.11081243424E+03  0.19322943197E+03 -0.60943551882E+02  0.92680704711E+03  0.89757460810E+03 0.  0.
        -24    2    4    4    0    0 -0.46844111205E+02  0.36965531254E+03 -0.36878048302E+03  0.53046417377E+03  0.80955383770E+02 0.  0.
         24    2    4    4    0    0  0.15765654544E+03 -0.17642588057E+03  0.30783693114E+03  0.39634287334E+03  0.79639308247E+02 0.  0.
         11    1    3    3    0    0 -0.96102303661E+02 -0.15187316295E+03 -0.25597619820E+03  0.31276976267E+03  0.00000000000E+00 0.  1.
        -11    1    3    3    0    0 -0.14710130579E+02 -0.41356269017E+02 -0.83945509192E+01  0.44690014699E+02  0.00000000000E+00 0. -1.
          4    1    6    6  502    0  0.15687649762E+03 -0.17434706422E+03  0.31276739971E+03  0.39093551979E+03  0.00000000000E+00 0. -1.
          3    1    5    5  503    0 -0.46396608661E+02  0.29555713927E+03 -0.33464277694E+03  0.44887911070E+03  0.00000000000E+00 0. -1.
         -4    1    5    5    0  503 -0.44750254362E+00  0.74098173268E+02 -0.34137706084E+02  0.81585063075E+02  0.00000000000E+00 0.  1.
         -3    1    6    6    0  502  0.78004781976E+00 -0.20788163517E+01 -0.49304685770E+01  0.54073535499E+01  0.00000000000E+00 0.  1.
<mgrwt>
<rscale>  0 0.12423815E+04</rscale>
<asrwt>0</asrwt>
<pdfrwt beam="1">  1        2 0.12381393E+00 0.12423815E+04</pdfrwt>
<pdfrwt beam="2">  1       -2 0.73765579E-01 0.12423815E+04</pdfrwt>
<totfact> 0.55729797E+01</totfact>
</mgrwt>
</event>
<event>
12    1  0.1097093E-007  0.1327176E+04  0.7818608E-02  0.9008287E-01
          2   -1    0    0  501    0  0.00000000000E+00  0.00000000000E+00  0.90933063396E+03  0.90933063396E+03  0.00000000000E+00 0. -1.
         -2   -1    0    0    0  501 -0.00000000000E+00 -0.00000000000E+00 -0.48425656649E+03  0.48425656649E+03  0.00000000000E+00 0.  1.
         23    2    1    2    0    0 -0.32043391320E+02  0.23078484662E+03 -0.16088425976E+03  0.29698466605E+03  0.89597558409E+02 0.  0.
        254    2    1    2    0    0  0.32043391320E+02 -0.23078484662E+03  0.58595832723E+03  0.10966025344E+04  0.89716304698E+03 0.  0.
        -24    2    4    4    0    0 -0.96115780880E+02  0.31534995378E+03  0.11021922571E+03  0.35686444108E+03  0.80747228491E+02 0.  0.
         24    2    4    4    0    0  0.12815917220E+03 -0.54613480040E+03  0.47573910151E+03  0.73973809332E+03  0.78719504424E+02 0.  0.
         11    1    3    3    0    0 -0.93961845455E+00 -0.64158946414E+00 -0.28575788633E+02  0.28598430304E+02  0.00000000000E+00 0. -1.
        -11    1    3    3    0    0 -0.31103772866E+02  0.23142643608E+03 -0.13230847113E+03  0.26838623574E+03  0.00000000000E+00 0.  1.
          4    1    6    6  502    0  0.11614667402E+03 -0.52423566753E+03  0.43112772026E+03  0.68861033697E+03  0.00000000000E+00 0. -1.
          1    1    5    5  503    0 -0.76607317322E+02  0.14326624740E+03  0.26883533284E+02  0.16467125758E+03  0.00000000000E+00 0. -1.
         -2    1    5    5    0  503 -0.19508463558E+02  0.17208370638E+03  0.83335692430E+02  0.19219318350E+03  0.00000000000E+00 0.  1.
         -3    1    6    6    0  502  0.12012498183E+02 -0.21899132869E+02  0.44611381250E+02  0.51127756356E+02  0.00000000000E+00 0.  1.
<mgrwt>
<rscale>  0 0.13271764E+04</rscale>
<asrwt>0</asrwt>
<pdfrwt beam="1">  1        2 0.13989702E+00 0.13271764E+04</pdfrwt>
<pdfrwt beam="2">  1       -2 0.74501010E-01 0.13271764E+04</pdfrwt>
<totfact> 0.45834923E+01</totfact>
</mgrwt>
</event>
<event>
12    1  0.1097093E-007  0.1817820E+04  0.7818608E-02  0.8696880E-01
         -2   -1    0    0    0  501 -0.00000000000E+00  0.00000000000E+00  0.13857812452E+04  0.13857812452E+04  0.00000000000E+00 0.  1.
          2   -1    0    0  501    0  0.00000000000E+00 -0.00000000000E+00 -0.59613806114E+03  0.59613806114E+03  0.00000000000E+00 0. -1.
         23    2    1    2    0    0 -0.24357514601E+03 -0.54696881254E+03  0.65847593911E+03  0.89467986548E+03  0.91420816367E+02 0.  0.
        254    2    1    2    0    0  0.24357514601E+03  0.54696881254E+03  0.13116724493E+03  0.10872394408E+04  0.89798720588E+03 0.  0.
        -24    2    4    4    0    0  0.57588489541E+03  0.38729048453E+03  0.12693435610E+03  0.70999055584E+03  0.79604814333E+02 0.  0.
         24    2    4    4    0    0 -0.33230974939E+03  0.15967832801E+03  0.42328888281E+01  0.37724888499E+03  0.79823968235E+02 0.  0.
         13    1    3    3    0    0 -0.12040444504E+02 -0.39972895923E+01  0.39217768810E+01  0.13278966897E+02  0.00000000000E+00 0.  1.
        -13    1    3    3    0    0 -0.23153470151E+03 -0.54297152295E+03  0.65455416223E+03  0.88140089858E+03  0.00000000000E+00 0. -1.
          2    1    6    6  502    0 -0.27856693361E+03  0.10607801727E+03 -0.16588046289E+02  0.29854186562E+03  0.00000000000E+00 0. -1.
          1    1    5    5  503    0  0.20318179809E+03  0.17507122641E+03  0.71231074294E+02  0.27750070872E+03  0.00000000000E+00 0. -1.
         -2    1    5    5    0  503  0.37270309731E+03  0.21221925811E+03  0.55703281803E+02  0.43248984712E+03  0.00000000000E+00 0.  1.
         -1    1    6    6    0  502 -0.53742815786E+02  0.53600310742E+02  0.20820935117E+02  0.78707019379E+02  0.00000000000E+00 0.  1.
<mgrwt>
<rscale>  0 0.18178195E+04</rscale>
<asrwt>0</asrwt>
<pdfrwt beam="1">  1        2 0.91713548E-01 0.18178195E+04</pdfrwt>
<pdfrwt beam="2">  1       -2 0.21319711E+00 0.18178195E+04</pdfrwt>
<totfact> 0.51427507E+00</totfact>
</mgrwt>
</event>
<event>
12    1  0.1097093E-007  0.1275826E+04  0.7818608E-02  0.9048958E-01
          2   -1    0    0  501    0  0.00000000000E+00  0.00000000000E+00  0.59961481668E+03  0.59961481668E+03  0.00000000000E+00 0. -1.
         -2   -1    0    0    0  501 -0.00000000000E+00 -0.00000000000E+00 -0.67865715840E+03  0.67865715840E+03  0.00000000000E+00 0.  1.
         23    2    1    2    0    0  0.17450218715E+03  0.29565872300E+02 -0.27489945480E+03  0.33931550069E+03  0.90775242383E+02 0.  0.
        254    2    1    2    0    0 -0.17450218715E+03 -0.29565872300E+02  0.19585711308E+03  0.93895647438E+03  0.90108495599E+03 0.  0.
        -24    2    4    4    0    0  0.10743194854E+03  0.62840520626E+02 -0.31155374420E+03  0.34481206338E+03  0.79618270066E+02 0.  0.
         24    2    4    4    0    0 -0.28193413570E+03 -0.92406392927E+02  0.50741085729E+03  0.59414441100E+03  0.86694894334E+02 0.  0.
         13    1    3    3    0    0  0.11238255091E+03 -0.76661463591E+01 -0.10240680333E+03  0.15223587263E+03  0.00000000000E+00 0. -1.
        -13    1    3    3    0    0  0.62119636248E+02  0.37232018660E+02 -0.17249265147E+03  0.18707962805E+03  0.00000000000E+00 0.  1.
          2    1    6    6  502    0 -0.13882870774E+03 -0.14465389471E+00  0.22714816003E+03  0.26621366911E+03  0.00000000000E+00 0. -1.
          1    1    5    5  503    0  0.25687364864E+02 -0.84883677920E+01 -0.19756817588E+02  0.33499626007E+02  0.00000000000E+00 0. -1.
         -2    1    5    5    0  503  0.81744583680E+02  0.71328888418E+02 -0.29179692661E+03  0.31131243738E+03  0.00000000000E+00 0.  1.
         -1    1    6    6    0  502 -0.14310542795E+03 -0.92261739032E+02  0.28026269726E+03  0.32793074189E+03  0.00000000000E+00 0.  1.
<mgrwt>
<rscale>  0 0.12758258E+04</rscale>
<asrwt>0</asrwt>
<pdfrwt beam="1">  1        2 0.92248434E-01 0.12758258E+04</pdfrwt>
<pdfrwt beam="2">  1       -2 0.10440879E+00 0.12758258E+04</pdfrwt>
<totfact> 0.36316066E+01</totfact>
</mgrwt>
</event>
<event>
12    1  0.1097093E-007  0.2597402E+04  0.7818608E-02  0.8369084E-01
          2   -1    0    0  501    0  0.00000000000E+00  0.00000000000E+00  0.17860523876E+04  0.17860523876E+04  0.00000000000E+00 0. -1.
         -2   -1    0    0    0  501 -0.00000000000E+00 -0.00000000000E+00 -0.94433095578E+03  0.94433095578E+03  0.00000000000E+00 0.  1.
         23    2    1    2    0    0 -0.14497915901E+03 -0.81681409827E+03 -0.45381897052E+03  0.94991191596E+03  0.90425452178E+02 0.  0.
        254    2    1    2    0    0  0.14497915901E+03  0.81681409827E+03  0.12955404023E+04  0.17804714274E+04  0.89635335780E+03 0.  0.
        -24    2    4    4    0    0  0.29106464565E+03  0.44987342354E+03  0.12655877331E+04  0.13765775922E+04  0.78414489047E+02 0.  0.
         24    2    4    4    0    0 -0.14608548664E+03  0.36694067473E+03  0.29952669190E+02  0.40389383514E+03  0.79035684973E+02 0.  0.
         11    1    3    3    0    0 -0.51720803362E+02 -0.34520118825E+03 -0.14162175982E+03  0.37669035655E+03  0.00000000000E+00 0.  1.
        -11    1    3    3    0    0 -0.93258355649E+02 -0.47161291003E+03 -0.31219721070E+03  0.57322155941E+03  0.00000000000E+00 0. -1.
          2    1    6    6  502    0 -0.34423371547E+02  0.18455761184E+03  0.29492786972E+02  0.19004290326E+03  0.00000000000E+00 0. -1.
          1    1    5    5  503    0  0.27358587003E+03  0.41681300085E+03  0.12177035469E+04  0.13158207454E+04  0.00000000000E+00 0. -1.
         -2    1    5    5    0  503  0.17478775621E+02  0.33060422692E+02  0.47884186225E+02  0.60756846826E+02  0.00000000000E+00 0.  1.
         -1    1    6    6    0  502 -0.11166211509E+03  0.18238306289E+03  0.45988221813E+00  0.21385093188E+03  0.00000000000E+00 0.  1.
<mgrwt>
<rscale>  0 0.25974022E+04</rscale>
<asrwt>0</asrwt>
<pdfrwt beam="1">  1        2 0.27477729E+00 0.25974022E+04</pdfrwt>
<pdfrwt beam="2">  1       -2 0.14528169E+00 0.25974022E+04</pdfrwt>
<totfact> 0.25339980E+00</totfact>
</mgrwt>
</event>
<event>
12    1  0.1097093E-007  0.3406185E+04  0.7818608E-02  0.8136390E-01
          2   -1    0    0  501    0  0.00000000000E+00  0.00000000000E+00  0.23179899677E+04  0.23179899677E+04  0.00000000000E+00 0. -1.
         -2   -1    0    0    0  501 -0.00000000000E+00 -0.00000000000E+00 -0.12513097601E+04  0.12513097601E+04  0.00000000000E+00 0.  1.
         23    2    1    2    0    0 -0.10394141353E+04  0.77841366205E+02  0.17427579985E+04  0.20326772650E+04  0.90168727055E+02 0.  0.
        254    2    1    2    0    0  0.10394141353E+04 -0.77841366205E+02 -0.67607779092E+03  0.15366224628E+04  0.90426013453E+03 0.  0.
        -24    2    4    4    0    0  0.73033498965E+03 -0.11208396028E+03  0.47739749041E+02  0.74470820378E+03  0.79744679375E+02 0.  0.
         24    2    4    4    0    0  0.30907914568E+03  0.34242594077E+02 -0.72381753996E+03  0.79191425905E+03  0.80708667376E+02 0.  0.
         11    1    3    3    0    0 -0.69944385399E+03  0.92768369237E+02  0.12001671233E+04  0.13922028584E+04  0.00000000000E+00 0. -1.
        -11    1    3    3    0    0 -0.33997028135E+03 -0.14927003032E+02  0.54259087522E+03  0.64047440658E+03  0.00000000000E+00 0.  1.
          4    1    6    6  502    0  0.26471626225E+03  0.10227650812E+02 -0.65536021884E+03  0.70687786836E+03  0.00000000000E+00 0. -1.
          3    1    5    5  503    0  0.42901463903E+03 -0.33976314040E+02  0.51330091111E+02  0.43340827020E+03  0.00000000000E+00 0. -1.
         -4    1    5    5    0  503  0.30132035061E+03 -0.78107646242E+02 -0.35903420703E+01  0.31129993359E+03  0.00000000000E+00 0.  1.
         -3    1    6    6    0  502  0.44362883436E+02  0.24014943266E+02 -0.68457321116E+02  0.85036390687E+02  0.00000000000E+00 0.  1.
<mgrwt>
<rscale>  0 0.34061847E+04</rscale>
<asrwt>0</asrwt>
<pdfrwt beam="1">  1        2 0.35661384E+00 0.34061847E+04</pdfrwt>
<pdfrwt beam="2">  1       -2 0.19250919E+00 0.34061847E+04</pdfrwt>
<totfact> 0.54673180E-01</totfact>
</mgrwt>
</event>
<event>
12    1  0.1097093E-007  0.2142364E+04  0.7818608E-02  0.8542808E-01
         -2   -1    0    0    0  501 -0.00000000000E+00  0.00000000000E+00  0.45807439304E+03  0.45807439304E+03  0.00000000000E+00 0.  1.
          2   -1    0    0  501    0  0.00000000000E+00 -0.00000000000E+00 -0.25049007277E+04  0.25049007277E+04  0.00000000000E+00 0. -1.
         23    2    1    2    0    0  0.49933165474E+03  0.32436648760E+03  0.50308456075E+02  0.60447600130E+03  0.91184295240E+02 0.  0.
        254    2    1    2    0    0 -0.49933165474E+03 -0.32436648760E+03 -0.20971347907E+04  0.23584991194E+04  0.89999891454E+03 0.  0.
        -24    2    4    4    0    0  0.48346636350E+02 -0.48376641064E+03 -0.80621186306E+03  0.94486152196E+03  0.80114856573E+02 0.  0.
         24    2    4    4    0    0 -0.54767829109E+03  0.15939992304E+03 -0.12909229277E+04  0.14136375975E+04  0.80804738718E+02 0.  0.
         13    1    3    3    0    0  0.20819620490E+02  0.37069293625E+02 -0.81471176910E+01  0.43289313391E+02  0.00000000000E+00 0. -1.
        -13    1    3    3    0    0  0.47851203425E+03  0.28729719397E+03  0.58455573766E+02  0.56118668791E+03  0.00000000000E+00 0.  1.
          2    1    6    6  502    0 -0.27675502322E+03  0.41070208040E+02 -0.59352180412E+03  0.65616174594E+03  0.00000000000E+00 0. -1.
          1    1    5    5  503    0  0.45764635271E+02 -0.13478098473E+03 -0.20222261225E+03  0.24729395583E+03  0.00000000000E+00 0. -1.
         -2    1    5    5    0  503  0.25820010789E+01 -0.34898542591E+03 -0.60398925081E+03  0.69756756613E+03  0.00000000000E+00 0.  1.
         -1    1    6    6    0  502 -0.27092326787E+03  0.11832971500E+03 -0.69740112357E+03  0.75747585155E+03  0.00000000000E+00 0.  1.
<mgrwt>
<rscale>  0 0.21423640E+04</rscale>
<asrwt>0</asrwt>
<pdfrwt beam="1">  1        2 0.38536935E+00 0.21423640E+04</pdfrwt>
<pdfrwt beam="2">  1       -2 0.70472983E-01 0.21423640E+04</pdfrwt>
<totfact> 0.58190062E+00</totfact>
</mgrwt>
</event>
<event>
12    1  0.1097093E-007  0.1193078E+04  0.7818608E-02  0.9118937E-01
          2   -1    0    0  501    0  0.00000000000E+00  0.00000000000E+00  0.14341503757E+04  0.14341503757E+04  0.00000000000E+00 0. -1.
         -2   -1    0    0    0  501 -0.00000000000E+00 -0.00000000000E+00 -0.24813206039E+03  0.24813206039E+03  0.00000000000E+00 0.  1.
         23    2    1    2    0    0  0.24103706925E+03  0.33627959261E+02  0.24508176075E+03  0.35680162349E+03  0.89513243001E+02 0.  0.
        254    2    1    2    0    0 -0.24103706925E+03 -0.33627959261E+02  0.94093655460E+03  0.13254808126E+04  0.90128135258E+03 0.  0.
        -24    2    4    4    0    0 -0.21612303165E+01 -0.10922833604E+03 -0.15005904985E+03  0.20284056807E+03  0.81799005527E+02 0.  0.
         24    2    4    4    0    0 -0.23887583893E+03  0.75600376774E+02  0.10909956044E+04  0.11226402446E+04  0.85279695141E+02 0.  0.
         13    1    3    3    0    0  0.21762728962E+03  0.15727187086E+02  0.24397476678E+03  0.32731127146E+03  0.00000000000E+00 0. -1.
        -13    1    3    3    0    0  0.23409779628E+02  0.17900772175E+02  0.11069939704E+01  0.29490352022E+02  0.00000000000E+00 0.  1.
          4    1    6    6  502    0 -0.18683345344E+02 -0.40827287473E+01  0.21625042447E+03  0.21709440838E+03  0.00000000000E+00 0. -1.
          1    1    5    5  503    0 -0.36893597625E+02 -0.48318445371E+02 -0.41503164475E+02  0.73609254651E+02  0.00000000000E+00 0. -1.
         -2    1    5    5    0  503  0.34732367308E+02 -0.60909890664E+02 -0.10855588538E+03  0.12923131342E+03  0.00000000000E+00 0.  1.
         -3    1    6    6    0  502 -0.22019249359E+03  0.79683105521E+02  0.87474517998E+03  0.90554583619E+03  0.00000000000E+00 0.  1.
<mgrwt>
<rscale>  0 0.11930778E+04</rscale>
<asrwt>0</asrwt>
<pdfrwt beam="1">  1        2 0.22063851E+00 0.11930778E+04</pdfrwt>
<pdfrwt beam="2">  1       -2 0.38174164E-01 0.11930778E+04</pdfrwt>
<totfact> 0.88432030E+01</totfact>
</mgrwt>
</event>
<event>
12    1  0.1097093E-007  0.2206296E+04  0.7818608E-02  0.8515812E-01
          1   -1    0    0  501    0  0.00000000000E+00  0.00000000000E+00  0.77474417493E+03  0.77474417493E+03  0.00000000000E+00 0. -1.
         -1   -1    0    0    0  501 -0.00000000000E+00 -0.00000000000E+00 -0.15707578750E+04  0.15707578750E+04  0.00000000000E+00 0.  1.
         23    2    1    2    0    0  0.58404926174E+03  0.64574769852E+03 -0.31838344080E+02  0.87587799799E+03  0.89693683847E+02 0.  0.
        254    2    1    2    0    0 -0.58404926174E+03 -0.64574769852E+03 -0.76417535600E+03  0.14696240519E+04  0.90428272628E+03 0.  0.
        -24    2    4    4    0    0  0.82538482096E+02 -0.51709687828E+03 -0.14945035412E+03  0.55026270441E+03  0.79068659830E+02 0.  0.
         24    2    4    4    0    0 -0.66658774383E+03 -0.12865082025E+03 -0.61472500187E+03  0.91936134753E+03  0.80300719969E+02 0.  0.
         11    1    3    3    0    0  0.41420975430E+03  0.39946191687E+03 -0.45294412088E+01  0.57546508098E+03  0.00000000000E+00 0.  1.
        -11    1    3    3    0    0  0.16983950744E+03  0.24628578165E+03 -0.27308902871E+02  0.30041291701E+03  0.00000000000E+00 0. -1.
          4    1    6    6  502    0 -0.47374725170E+03 -0.58385835314E+02 -0.40617577762E+03  0.62675683210E+03  0.00000000000E+00 0. -1.
          3    1    5    5  503    0  0.85765977452E+02 -0.48697822176E+03 -0.12180879061E+03  0.50925531202E+03  0.00000000000E+00 0. -1.
         -4    1    5    5    0  503 -0.32274953569E+01 -0.30118656520E+02 -0.27641563516E+02  0.41007392388E+02  0.00000000000E+00 0.  1.
         -3    1    6    6    0  502 -0.19284049213E+03 -0.70264984935E+02 -0.20854922426E+03  0.29260451543E+03  0.00000000000E+00 0.  1.
<mgrwt>
<rscale>  0 0.22062960E+04</rscale>
<asrwt>0</asrwt>
<pdfrwt beam="1">  1        1 0.11919141E+00 0.22062960E+04</pdfrwt>
<pdfrwt beam="2">  1       -1 0.24165505E+00 0.22062960E+04</pdfrwt>
<totfact> 0.16766276E+00</totfact>
</mgrwt>
</event>
<event>
12    1  0.1097093E-007  0.2322904E+04  0.7818608E-02  0.8468945E-01
         -2   -1    0    0    0  501 -0.00000000000E+00  0.00000000000E+00  0.17124434295E+04  0.17124434295E+04  0.00000000000E+00 0. -1.
          2   -1    0    0  501    0  0.00000000000E+00 -0.00000000000E+00 -0.78774607159E+03  0.78774607159E+03  0.00000000000E+00 0.  1.
         23    2    1    2    0    0 -0.63669890060E+03  0.63101534516E+03  0.82062407794E+03  0.12187457549E+04  0.91386443366E+02 0.  0.
        254    2    1    2    0    0  0.63669890060E+03 -0.63101534516E+03  0.10407327997E+03  0.12814437461E+04  0.90978072692E+03 0.  0.
        -24    2    4    4    0    0  0.64186073346E+03 -0.21280886729E+03 -0.25255799679E+03  0.72645132238E+03  0.81689453970E+02 0.  0.
         24    2    4    4    0    0 -0.51618328537E+01 -0.41820647787E+03  0.35663127676E+03  0.55499242377E+03  0.76859743883E+02 0.  0.
         11    1    3    3    0    0 -0.10413133642E+02  0.77317730984E+01  0.15014494616E+00  0.12970590233E+02  0.00000000000E+00 0.  1.
        -11    1    3    3    0    0 -0.62628576696E+03  0.62328357206E+03  0.82047393299E+03  0.12057751647E+04  0.00000000000E+00 0. -1.
          2    1    6    6  502    0 -0.26113720174E+02 -0.25853803095E+03  0.18081643936E+03  0.31657293720E+03  0.00000000000E+00 0. -1.
          3    1    5    5  503    0  0.78845613127E+00 -0.51552435572E+01 -0.80638072797E+01  0.96032904282E+01  0.00000000000E+00 0. -1.
         -4    1    5    5    0  503  0.64107227732E+03 -0.20765362373E+03 -0.24449418951E+03  0.71684803195E+03  0.00000000000E+00 0.  1.
         -1    1    6    6    0  502  0.20951887320E+02 -0.15966844692E+03  0.17581483740E+03  0.23841948657E+03  0.00000000000E+00 0.  1.
<mgrwt>
<rscale>  0 0.23229039E+04</rscale>
<asrwt>0</asrwt>
<pdfrwt beam="1">  1        2 0.12119170E+00 0.23229039E+04</pdfrwt>
<pdfrwt beam="2">  1       -2 0.26345283E+00 0.23229039E+04</pdfrwt>
<totfact> 0.16907928E+00</totfact>
</mgrwt>
</event>
<event>
12    1  0.1097093E-007  0.5528721E+04  0.7818608E-02  0.7751750E-01
         -2   -1    0    0    0  501 -0.00000000000E+00  0.00000000000E+00  0.20638366275E+04  0.20638366275E+04  0.00000000000E+00 0.  1.
          2   -1    0    0  501    0  0.00000000000E+00 -0.00000000000E+00 -0.37026612654E+04  0.37026612654E+04  0.00000000000E+00 0. -1.
         23    2    1    2    0    0  0.24519835926E+04 -0.93637828149E+03 -0.14142354278E+04  0.29828789376E+04  0.92071095771E+02 0.  0.
        254    2    1    2    0    0 -0.24519835926E+04  0.93637828149E+03 -0.22458921009E+03  0.27836189554E+04  0.89948115641E+03 0.  0.
        -24    2    4    4    0    0 -0.17783094157E+04  0.98900572520E+03  0.80444657236E+02  0.20380673986E+04  0.82040694956E+02 0.  0.
         24    2    4    4    0    0 -0.67367417691E+03 -0.52627443713E+02 -0.30503386733E+03  0.74555155681E+03  0.78707808828E+02 0.  0.
         11    1    3    3    0    0  0.58971997638E+03 -0.25820490590E+03 -0.37516326308E+03  0.74510864841E+03  0.00000000000E+00 0.  1.
        -11    1    3    3    0    0  0.18622636163E+04 -0.67817337559E+03 -0.10390721647E+04  0.22377702892E+04  0.00000000000E+00 0. -1.
          2    1    6    6  502    0 -0.25146682171E+03 -0.57353893843E+02 -0.12294291229E+03  0.28572712724E+03  0.00000000000E+00 0. -1.
          3    1    5    5  503    0 -0.17702786278E+04  0.97775274748E+03  0.82810925800E+02  0.20240416262E+04  0.00000000000E+00 0. -1.
         -4    1    5    5    0  503 -0.80307878977E+01  0.11252977723E+02 -0.23662685642E+01  0.14025772307E+02  0.00000000000E+00 0.  1.
         -1    1    6    6    0  502 -0.42220735521E+03  0.47264501298E+01 -0.18209095503E+03  0.45982442957E+03  0.00000000000E+00 0.  1.
<mgrwt>
<rscale>  0 0.55287206E+04</rscale>
<asrwt>0</asrwt>
<pdfrwt beam="1">  1        2 0.56964019E+00 0.55287206E+04</pdfrwt>
<pdfrwt beam="2">  1       -2 0.31751333E+00 0.55287206E+04</pdfrwt>
<totfact> 0.10032768E-02</totfact>
</mgrwt>
</event>
<event>
12    1  0.1097093E-007  0.4197980E+04  0.7818608E-02  0.7965757E-01
         -2   -1    0    0    0  501 -0.00000000000E+00  0.00000000000E+00  0.23429729437E+04  0.23429729437E+04  0.00000000000E+00 0. -1.
          2   -1    0    0  501    0  0.00000000000E+00 -0.00000000000E+00 -0.18804139563E+04  0.18804139563E+04  0.00000000000E+00 0.  1.
         23    2    1    2    0    0  0.14064659852E+04 -0.13430558945E+04  0.69647458946E+03  0.20677281441E+04  0.92071280671E+02 0.  0.
        254    2    1    2    0    0 -0.14064659852E+04  0.13430558945E+04 -0.23391560200E+03  0.21556587559E+04  0.90011247045E+03 0.  0.
        -24    2    4    4    0    0 -0.44335838767E+03  0.88588958539E+03 -0.40418114419E+03  0.10727239097E+04  0.77505945911E+02 0.  0.
         24    2    4    4    0    0 -0.96310759758E+03  0.45716630912E+03  0.17026554219E+03  0.10829348462E+04  0.84736341278E+02 0.  0.
         13    1    3    3    0    0  0.25584019707E+03 -0.28517461397E+03  0.11434222757E+03  0.39981609759E+03  0.00000000000E+00 0. -1.
        -13    1    3    3    0    0  0.11506257882E+04 -0.10578812805E+04  0.58213236189E+03  0.16679120465E+04  0.00000000000E+00 0.  1.
          4    1    6    6  502    0 -0.78866694918E+03  0.40195266054E+03  0.12078888262E+03  0.89339322373E+03  0.00000000000E+00 0. -1.
          1    1    5    5  503    0 -0.15246758218E+03  0.23638789224E+03 -0.96386268241E+02  0.29734813253E+03  0.00000000000E+00 0. -1.
         -2    1    5    5    0  503 -0.29089080548E+03  0.64950169315E+03 -0.30779487595E+03  0.77537577714E+03  0.00000000000E+00 0.  1.
         -3    1    6    6    0  502 -0.17444064840E+03  0.55213648581E+02  0.49476659568E+02  0.18954162246E+03  0.00000000000E+00 0.  1.
<mgrwt>
<rscale>  0 0.41979800E+04</rscale>
<asrwt>0</asrwt>
<pdfrwt beam="1">  1        2 0.28929445E+00 0.41979800E+04</pdfrwt>
<pdfrwt beam="2">  1       -2 0.36045738E+00 0.41979800E+04</pdfrwt>
<totfact> 0.80731088E-02</totfact>
</mgrwt>
</event>
<event>
12    1  0.1279090E-007  0.2468213E+04  0.7818608E-02  0.8414398E-01
         -1   -1    0    0    0  501 -0.00000000000E+00  0.00000000000E+00  0.90801544571E+03  0.90801544571E+03  0.00000000000E+00 0.  1.
          1   -1    0    0  501    0  0.00000000000E+00 -0.00000000000E+00 -0.16773051570E+04  0.16773051570E+04  0.00000000000E+00 0. -1.
         23    2    1    2    0    0  0.57600412635E+03  0.65049805394E+03 -0.98375696965E+03  0.13158454720E+04  0.93504326807E+02 0.  0.
        254    2    1    2    0    0 -0.57600412635E+03 -0.65049805394E+03  0.21446725838E+03  0.12694751307E+04  0.90035683523E+03 0.  0.
        -24    2    4    4    0    0 -0.30918622521E+03 -0.35986936046E+03 -0.33643473052E+03  0.58717970111E+03  0.80558022826E+02 0.  0.
         24    2    4    4    0    0 -0.26681790114E+03 -0.29062869348E+03  0.55090198890E+03  0.68229542957E+03  0.79857510591E+02 0.  0.
         13    1    3    3    0    0  0.22624625605E+03  0.27389357825E+03 -0.46976873618E+03  0.58897175321E+03  0.00000000000E+00 0.  1.
        -13    1    3    3    0    0  0.34975787030E+03  0.37660447569E+03 -0.51398823347E+03  0.72687371881E+03  0.00000000000E+00 0. -1.
          2    1    6    6  502    0 -0.24351612900E+03 -0.27827309904E+03  0.53828131879E+03  0.65305650666E+03  0.00000000000E+00 0. -1.
          3    1    5    5  503    0 -0.29764574387E+03 -0.35923529000E+03 -0.31525948179E+03  0.56305552416E+03  0.00000000000E+00 0. -1.
         -4    1    5    5    0  503 -0.11540481339E+02 -0.63407045381E+00 -0.21175248726E+02  0.24124176949E+02  0.00000000000E+00 0.  1.
         -1    1    6    6    0  502 -0.23301772143E+02 -0.12355594439E+02  0.12620670105E+02  0.29238922909E+02  0.00000000000E+00 0.  1.
<mgrwt>
<rscale>  0 0.24682131E+04</rscale>
<asrwt>0</asrwt>
<pdfrwt beam="1">  1        1 0.25804695E+00 0.24682131E+04</pdfrwt>
<pdfrwt beam="2">  1       -1 0.13969468E+00 0.24682131E+04</pdfrwt>
<totfact> 0.18548908E+00</totfact>
</mgrwt>
</event>
<event>
12    1  0.1097093E-007  0.1178545E+04  0.7818608E-02  0.9131846E-01
          2   -1    0    0  501    0  0.00000000000E+00  0.00000000000E+00  0.90004531818E+03  0.90004531818E+03  0.00000000000E+00 0. -1.
         -2   -1    0    0    0  501 -0.00000000000E+00 -0.00000000000E+00 -0.38580482668E+03  0.38580482668E+03  0.00000000000E+00 0.  1.
         23    2    1    2    0    0  0.21758991059E+03 -0.62099229365E+02  0.16486635691E+03  0.29453281805E+03  0.91471207454E+02 0.  0.
        254    2    1    2    0    0 -0.21758991059E+03  0.62099229365E+02  0.34937413459E+03  0.99131732682E+03  0.89969221017E+03 0.  0.
        -24    2    4    4    0    0 -0.81119318255E+02 -0.10522181518E+03 -0.28065950113E+03  0.32052813388E+03  0.79476756666E+02 0.  0.
         24    2    4    4    0    0 -0.13647059233E+03  0.16732104454E+03  0.63003363572E+03  0.67078919294E+03  0.79970023794E+02 0.  0.
         11    1    3    3    0    0  0.19442579070E+03 -0.84361234367E+02  0.14332476881E+03  0.25585190113E+03  0.00000000000E+00 0. -1.
        -11    1    3    3    0    0  0.23164119884E+02  0.22262005001E+02  0.21541588095E+02  0.38680916927E+02  0.00000000000E+00 0.  1.
          2    1    6    6  502    0 -0.12900643640E+03  0.12253355471E+03  0.42412606212E+03  0.45993483150E+03  0.00000000000E+00 0. -1.
          1    1    5    5  503    0 -0.66472049717E+02 -0.84130484483E+02 -0.27365599032E+03  0.29391167525E+03  0.00000000000E+00 0. -1.
         -2    1    5    5    0  503 -0.14647268538E+02 -0.21091330694E+02 -0.70035108101E+01  0.26616458625E+02  0.00000000000E+00 0.  1.
         -3    1    6    6    0  502 -0.74641559321E+01  0.44787489834E+02  0.20590757360E+03  0.21085436144E+03  0.00000000000E+00 0.  1.
<mgrwt>
<rscale>  0 0.11785446E+04</rscale>
<asrwt>0</asrwt>
<pdfrwt beam="1">  1        2 0.13846851E+00 0.11785446E+04</pdfrwt>
<pdfrwt beam="2">  1       -2 0.59354589E-01 0.11785446E+04</pdfrwt>
<totfact> 0.76783567E+01</totfact>
</mgrwt>
</event>
<event>
12    1  0.1097093E-007  0.1820224E+04  0.7818608E-02  0.8695618E-01
         -2   -1    0    0    0  501 -0.00000000000E+00  0.00000000000E+00  0.50421875392E+03  0.50421875392E+03  0.00000000000E+00 0.  1.
          2   -1    0    0  501    0  0.00000000000E+00 -0.00000000000E+00 -0.16427476360E+04  0.16427476360E+04  0.00000000000E+00 0. -1.
         23    2    1    2    0    0 -0.60905702413E+03 -0.24294280664E+03 -0.66134518628E+03  0.93671008649E+03  0.10038259197E+03 0.  0.
        254    2    1    2    0    0  0.60905702413E+03  0.24294280664E+03 -0.47718369583E+03  0.12102563035E+04  0.89835648522E+03 0.  0.
        -24    2    4    4    0    0  0.36987276549E+03  0.90077780977E+02  0.22466603183E+03  0.44893509963E+03  0.78409365157E+02 0.  0.
         24    2    4    4    0    0  0.23918425865E+03  0.15286502566E+03 -0.70184972767E+03  0.76132120383E+03  0.80250292935E+02 0.  0.
         13    1    3    3    0    0 -0.11652042901E+03 -0.20396451746E+02 -0.16409372186E+03  0.20228636923E+03  0.00000000000E+00 0. -1.
        -13    1    3    3    0    0 -0.49253659512E+03 -0.22254635489E+03 -0.49725146442E+03  0.73442371726E+03  0.00000000000E+00 0.  1.
          2    1    6    6  502    0  0.20594173494E+03  0.15351250951E+03 -0.65749649956E+03  0.70588932256E+03  0.00000000000E+00 0. -1.
          3    1    5    5  503    0  0.27883490647E+03  0.10104299931E+03  0.18014390773E+03  0.34700204649E+03  0.00000000000E+00 0. -1.
         -4    1    5    5    0  503  0.91037859017E+02 -0.10965218335E+02  0.44522124104E+02  0.10193305314E+03  0.00000000000E+00 0.  1.
         -1    1    6    6    0  502  0.33242523706E+02 -0.64748384603E+00 -0.44353228104E+02  0.55431881268E+02  0.00000000000E+00 0.  1.
<mgrwt>
<rscale>  0 0.18202243E+04</rscale>
<asrwt>0</asrwt>
<pdfrwt beam="1">  1        2 0.25273041E+00 0.18202243E+04</pdfrwt>
<pdfrwt beam="2">  1       -2 0.77572115E-01 0.18202243E+04</pdfrwt>
<totfact> 0.14735031E+01</totfact>
</mgrwt>
</event>
<event>
12    1  0.2306524E-007  0.2472769E+04  0.7818608E-02  0.8412752E-01
          2   -1    0    0  501    0  0.00000000000E+00  0.00000000000E+00  0.28506777790E+04  0.28506777790E+04  0.00000000000E+00 0. -1.
         -2   -1    0    0    0  501 -0.00000000000E+00 -0.00000000000E+00 -0.53623952897E+03  0.53623952897E+03  0.00000000000E+00 0.  1.
         23    2    1    2    0    0  0.23867298917E+03 -0.98305645366E+03  0.14782802061E+04  0.17936486848E+04  0.92187036774E+02 0.  0.
        254    2    1    2    0    0 -0.23867298917E+03  0.98305645366E+03  0.83615804390E+03  0.15932686232E+04  0.90331602688E+03 0.  0.
        -24    2    4    4    0    0 -0.15874372457E+03  0.30116039657E+03  0.83107136287E+03  0.90208762796E+03  0.84766289206E+02 0.  0.
         24    2    4    4    0    0 -0.79929264608E+02  0.68189605709E+03  0.50866810388E+01  0.69118099523E+03  0.79588779574E+02 0.  0.
         11    1    3    3    0    0  0.16585058085E+03 -0.68315204977E+03  0.10999244323E+04  0.13053876417E+04  0.00000000000E+00 0. -1.
        -11    1    3    3    0    0  0.72822408324E+02 -0.29990440389E+03  0.37835577385E+03  0.48826104312E+03  0.00000000000E+00 0.  1.
          2    1    6    6  502    0 -0.54501856359E+02  0.62033003600E+03  0.19517462970E+02  0.62302547081E+03  0.00000000000E+00 0. -1.
          1    1    5    5  503    0 -0.15998015338E+03  0.24044389717E+03  0.71414377409E+03  0.77032995997E+03  0.00000000000E+00 0. -1.
         -2    1    5    5    0  503  0.12364288096E+01  0.60716499401E+02  0.11692758878E+03  0.13175766798E+03  0.00000000000E+00 0.  1.
         -1    1    6    6    0  502 -0.25427408249E+02  0.61566021083E+02 -0.14430781931E+02  0.68155524424E+02  0.00000000000E+00 0.  1.
<mgrwt>
<rscale>  0 0.24727686E+04</rscale>
<asrwt>0</asrwt>
<pdfrwt beam="1">  1        2 0.43856580E+00 0.24727686E+04</pdfrwt>
<pdfrwt beam="2">  1       -2 0.82498391E-01 0.24727686E+04</pdfrwt>
<totfact> 0.24830191E+00</totfact>
</mgrwt>
</event>
<event>
12    1  0.1097093E-007  0.3687245E+04  0.7818608E-02  0.8070794E-01
         -2   -1    0    0    0  501 -0.00000000000E+00  0.00000000000E+00  0.90381865316E+03  0.90381865316E+03  0.00000000000E+00 0.  1.
          2   -1    0    0  501    0  0.00000000000E+00 -0.00000000000E+00 -0.37606479474E+04  0.37606479474E+04  0.00000000000E+00 0. -1.
         23    2    1    2    0    0  0.10965314316E+04 -0.29177909502E+03  0.31200939984E+03  0.11802168296E+04  0.89697706434E+02 0.  0.
        254    2    1    2    0    0 -0.10965314316E+04  0.29177909502E+03 -0.31688386940E+04  0.34842497709E+04  0.90052294604E+03 0.  0.
        -24    2    4    4    0    0 -0.72853891914E+03  0.19945959113E+03 -0.29348015519E+04  0.30314453769E+04  0.77767850405E+02 0.  0.
         24    2    4    4    0    0 -0.36799251247E+03  0.92319503891E+02 -0.23403714213E+03  0.45280439405E+03  0.79479905232E+02 0.  0.
         13    1    3    3    0    0  0.15063381865E+03 -0.16010664420E+02  0.62270387998E+02  0.16378183635E+03  0.00000000000E+00 0. -1.
        -13    1    3    3    0    0  0.94589761296E+03 -0.27576843060E+03  0.24973901184E+03  0.10164349933E+04  0.00000000000E+00 0.  1.
          4    1    6    6  502    0 -0.41776817891E+02  0.35088021476E+02 -0.18323342673E+02  0.57551860534E+02  0.00000000000E+00 0. -1.
          3    1    5    5  503    0 -0.41135252428E+03  0.88270360469E+02 -0.15078586240E+04  0.15654520708E+04  0.00000000000E+00 0. -1.
         -4    1    5    5    0  503 -0.31718639486E+03  0.11118923066E+03 -0.14269429279E+04  0.14659933061E+04  0.00000000000E+00 0.  1.
         -3    1    6    6    0  502 -0.32621569458E+03  0.57231482415E+02 -0.21571379946E+03  0.39525253351E+03  0.00000000000E+00 0.  1.
<mgrwt>
<rscale>  0 0.36872449E+04</rscale>
<asrwt>0</asrwt>
<pdfrwt beam="1">  1        2 0.57856122E+00 0.36872449E+04</pdfrwt>
<pdfrwt beam="2">  1       -2 0.13904903E+00 0.36872449E+04</pdfrwt>
<totfact> 0.15523218E-01</totfact>
</mgrwt>
</event>
<event>
12    1  0.1097093E-007  0.2321195E+04  0.7818608E-02  0.8469611E-01
         -2   -1    0    0    0  501 -0.00000000000E+00  0.00000000000E+00  0.90922188483E+03  0.90922188483E+03  0.00000000000E+00 0. -1.
          2   -1    0    0  501    0  0.00000000000E+00 -0.00000000000E+00 -0.14814721145E+04  0.14814721145E+04  0.00000000000E+00 0.  1.
         23    2    1    2    0    0 -0.37791815833E+03  0.85127642349E+03 -0.56960927287E+03  0.10955951617E+04  0.91544257370E+02 0.  0.
        254    2    1    2    0    0  0.37791815833E+03 -0.85127642349E+03 -0.26409568210E+01  0.12950988376E+04  0.89987795895E+03 0.  0.
        -24    2    4    4    0    0  0.43822711284E+03 -0.12068655191E+03 -0.23993714051E+03  0.52036196813E+03  0.81231153109E+02 0.  0.
         24    2    4    4    0    0 -0.60308954509E+02 -0.73058987157E+03  0.23729618369E+03  0.77473686951E+03  0.80678421822E+02 0.  0.
         13    1    3    3    0    0 -0.35976262874E+03  0.81595371103E+03 -0.56486918178E+03  0.10555978401E+04  0.00000000000E+00 0. -1.
        -13    1    3    3    0    0 -0.18155529593E+02  0.35322712455E+02 -0.47400910952E+01  0.39997321580E+02  0.00000000000E+00 0.  1.
          2    1    6    6  502    0 -0.27228459962E+02 -0.18006514882E+03  0.93837254016E+02  0.20486648602E+03  0.00000000000E+00 0. -1.
          1    1    5    5  503    0  0.13827544745E+03 -0.19894805428E+01 -0.57538093584E+02  0.14978214050E+03  0.00000000000E+00 0. -1.
         -2    1    5    5    0  503  0.29995166539E+03 -0.11869707137E+03 -0.18239904692E+03  0.37057982763E+03  0.00000000000E+00 0.  1.
         -1    1    6    6    0  502 -0.33080494547E+02 -0.55052472275E+03  0.14345892967E+03  0.56987038349E+03  0.00000000000E+00 0.  1.
<mgrwt>
<rscale>  0 0.23211953E+04</rscale>
<asrwt>0</asrwt>
<pdfrwt beam="1">  1        2 0.22791878E+00 0.23211953E+04</pdfrwt>
<pdfrwt beam="2">  1       -2 0.13988029E+00 0.23211953E+04</pdfrwt>
<totfact> 0.42372033E+00</totfact>
</mgrwt>
</event>
<event>
12    1  0.1097093E-007  0.1450996E+04  0.7818608E-02  0.8917710E-01
          1   -1    0    0  501    0  0.00000000000E+00  0.00000000000E+00  0.76212791390E+03  0.76212791390E+03  0.00000000000E+00 0. -1.
         -1   -1    0    0    0  501 -0.00000000000E+00 -0.00000000000E+00 -0.69062889751E+03  0.69062889751E+03  0.00000000000E+00 0.  1.
         23    2    1    2    0    0 -0.59231786237E+02 -0.37234875338E+03  0.23857345510E+03  0.45588532712E+03  0.93606299808E+02 0.  0.
        254    2    1    2    0    0  0.59231786237E+02  0.37234875338E+03 -0.16707443871E+03  0.99687148429E+03  0.90757197482E+03 0.  0.
        -24    2    4    4    0    0  0.20919835373E+02 -0.26939476538E+03 -0.20484837462E+03  0.34833039420E+03  0.79749782524E+02 0.  0.
         24    2    4    4    0    0  0.38311950864E+02  0.64174351876E+03  0.37773935909E+02  0.64854109009E+03  0.76655892522E+02 0.  0.
         11    1    3    3    0    0 -0.22271014816E+02 -0.33975059600E+02  0.72083034352E+00  0.40630313464E+02  0.00000000000E+00 0.  1.
        -11    1    3    3    0    0 -0.36960771421E+02 -0.33837369378E+03  0.23785262476E+03  0.41525501366E+03  0.00000000000E+00 0. -1.
          2    1    6    6  502    0  0.16821459566E+02  0.58646256772E+03  0.21765154411E+02  0.58710733839E+03  0.00000000000E+00 0. -1.
          3    1    5    5  503    0 -0.23628917632E+02 -0.14415027267E+03 -0.83023960402E+02  0.16801965617E+03  0.00000000000E+00 0. -1.
         -4    1    5    5    0  503  0.44548753005E+02 -0.12524449271E+03 -0.12182441422E+03  0.18031073802E+03  0.00000000000E+00 0.  1.
         -1    1    6    6    0  502  0.21490491298E+02  0.55280951035E+02  0.16008781498E+02  0.61433751705E+02  0.00000000000E+00 0.  1.
<mgrwt>
<rscale>  0 0.14509963E+04</rscale>
<asrwt>0</asrwt>
<pdfrwt beam="1">  1        1 0.11725045E+00 0.14509963E+04</pdfrwt>
<pdfrwt beam="2">  1       -1 0.10625060E+00 0.14509963E+04</pdfrwt>
<totfact> 0.19215805E+01</totfact>
</mgrwt>
</event>
<event>
12    1  0.1097093E-007  0.1287829E+04  0.7818608E-02  0.9039273E-01
         -2   -1    0    0    0  501 -0.00000000000E+00  0.00000000000E+00  0.37902053604E+03  0.37902053604E+03  0.00000000000E+00 0.  1.
          2   -1    0    0  501    0  0.00000000000E+00 -0.00000000000E+00 -0.10939406543E+04  0.10939406543E+04  0.00000000000E+00 0. -1.
         23    2    1    2    0    0  0.21550457686E+03  0.22151736250E+03 -0.10166780360E+03  0.33734216531E+03  0.89169667913E+02 0.  0.
        254    2    1    2    0    0 -0.21550457686E+03 -0.22151736250E+03 -0.61325231467E+03  0.11356190250E+04  0.90445563961E+03 0.  0.
        -24    2    4    4    0    0  0.46864102063E+02 -0.19928457287E+03  0.18796014501E+03  0.28829591346E+03  0.76648108635E+02 0.  0.
         24    2    4    4    0    0 -0.26236867892E+03 -0.22232789629E+02 -0.80121245968E+03  0.84732311157E+03  0.81752243039E+02 0.  0.
         13    1    3    3    0    0  0.19796393659E+03  0.18736972347E+03 -0.57048196656E+02  0.27848093329E+03  0.00000000000E+00 0.  1.
        -13    1    3    3    0    0  0.17540640270E+02  0.34147639025E+02 -0.44619606939E+02  0.58861232025E+02  0.00000000000E+00 0. -1.
          2    1    6    6  502    0 -0.44385537173E+02  0.22187729865E+02 -0.99433875157E+02  0.11112815483E+03  0.00000000000E+00 0. -1.
          3    1    5    5  503    0 -0.53986907398E+01 -0.12655240810E+02 -0.51608099798E+01  0.14694724949E+02  0.00000000000E+00 0. -1.
         -4    1    5    5    0  503  0.52262792803E+02 -0.18662933206E+03  0.19312095499E+03  0.27360118851E+03  0.00000000000E+00 0.  1.
         -1    1    6    6    0  502 -0.21798314175E+03 -0.44420519494E+02 -0.70177858453E+03  0.73619495675E+03  0.00000000000E+00 0.  1.
<mgrwt>
<rscale>  0 0.12878291E+04</rscale>
<asrwt>0</asrwt>
<pdfrwt beam="1">  1        2 0.16829856E+00 0.12878291E+04</pdfrwt>
<pdfrwt beam="2">  1       -2 0.58310853E-01 0.12878291E+04</pdfrwt>
<totfact> 0.59302489E+01</totfact>
</mgrwt>
</event>
<event>
12    1  0.1097093E-007  0.1867590E+04  0.7818608E-02  0.8671159E-01
         -2   -1    0    0    0  501 -0.00000000000E+00  0.00000000000E+00  0.34111541786E+03  0.34111541786E+03  0.00000000000E+00 0.  1.
          2   -1    0    0  501    0  0.00000000000E+00 -0.00000000000E+00 -0.25562402404E+04  0.25562402404E+04  0.00000000000E+00 0. -1.
         23    2    1    2    0    0 -0.24681277062E+03 -0.10816103596E+03  0.16970228619E+03  0.33009785457E+03  0.86892889290E+02 0.  0.
        254    2    1    2    0    0  0.24681277062E+03  0.10816103596E+03 -0.23848271087E+04  0.25672578037E+04  0.91148062986E+03 0.  0.
        -24    2    4    4    0    0  0.18015779303E+03  0.50332922349E+03 -0.14059807096E+04  0.15064873102E+04  0.83217320102E+02 0.  0.
         24    2    4    4    0    0  0.66654977596E+02 -0.39516818753E+03 -0.97884639907E+03  0.10607704935E+04  0.80579056375E+02 0.  0.
         13    1    3    3    0    0 -0.25393238566E+03 -0.10814356724E+03  0.16490050083E+03  0.32151028412E+03  0.00000000000E+00 0.  1.
        -13    1    3    3    0    0  0.71196150409E+01 -0.17468727310E-01  0.48017853653E+01  0.85875704470E+01  0.00000000000E+00 0. -1.
          4    1    6    6  502    0  0.66465471481E+02 -0.18250231962E+03 -0.51815979062E+03  0.55336635620E+03  0.00000000000E+00 0. -1.
          3    1    5    5  503    0  0.39697429397E+02  0.22793414116E+03 -0.63489919282E+03  0.67574169892E+03  0.00000000000E+00 0. -1.
         -4    1    5    5    0  503  0.14046036363E+03  0.27539508232E+03 -0.77108151682E+03  0.83074561131E+03  0.00000000000E+00 0.  1.
         -3    1    6    6    0  502  0.18950611517E+00 -0.21266586790E+03 -0.46068660846E+03  0.50740413725E+03  0.00000000000E+00 0.  1.
<mgrwt>
<rscale>  0 0.18675898E+04</rscale>
<asrwt>0</asrwt>
<pdfrwt beam="1">  1        2 0.39326773E+00 0.18675898E+04</pdfrwt>
<pdfrwt beam="2">  1       -2 0.52479295E-01 0.18675898E+04</pdfrwt>
<totfact> 0.10398240E+01</totfact>
</mgrwt>
</event>
<event>
12    1  0.1097093E-007  0.1689306E+04  0.7818608E-02  0.8767487E-01
         -1   -1    0    0    0  501 -0.00000000000E+00  0.00000000000E+00  0.50166061954E+03  0.50166061954E+03  0.00000000000E+00 0.  1.
          1   -1    0    0  501    0  0.00000000000E+00 -0.00000000000E+00 -0.14221534202E+04  0.14221534202E+04  0.00000000000E+00 0. -1.
         23    2    1    2    0    0 -0.18227643116E+03 -0.84375692304E+02  0.31275985590E+03  0.38324560969E+03  0.93351567097E+02 0.  0.
        254    2    1    2    0    0  0.18227643116E+03  0.84375692304E+02 -0.12332526565E+04  0.15405684300E+04  0.90116314722E+03 0.  0.
        -24    2    4    4    0    0 -0.67479075065E+02 -0.42166014182E+02  0.11493033755E+03  0.16137678281E+03  0.80635508429E+02 0.  0.
         24    2    4    4    0    0  0.24975550623E+03  0.12654170649E+03 -0.13481829941E+04  0.13791916472E+04  0.78623137831E+02 0.  0.
         13    1    3    3    0    0 -0.33756786439E+02  0.55626990147E+00  0.12388092616E+03  0.12839904179E+03  0.00000000000E+00 0.  1.
        -13    1    3    3    0    0 -0.14851964472E+03 -0.84931962205E+02  0.18887892974E+03  0.25484656790E+03  0.00000000000E+00 0. -1.
          4    1    6    6  502    0 -0.45856080385E+01  0.54582281712E+01 -0.15468872355E+02  0.17032500339E+02  0.00000000000E+00 0. -1.
          3    1    5    5  503    0 -0.61390486239E+01 -0.45577598863E+02  0.75413585866E+02  0.88330144171E+02  0.00000000000E+00 0. -1.
         -4    1    5    5    0  503 -0.61340026441E+02  0.34115846813E+01  0.39516751681E+02  0.73046638644E+02  0.00000000000E+00 0.  1.
         -3    1    6    6    0  502  0.25434111427E+03  0.12108347831E+03 -0.13327141217E+04  0.13621591469E+04  0.00000000000E+00 0.  1.
<mgrwt>
<rscale>  0 0.16893056E+04</rscale>
<asrwt>0</asrwt>
<pdfrwt beam="1">  1        1 0.21879284E+00 0.16893056E+04</pdfrwt>
<pdfrwt beam="2">  1       -1 0.77178556E-01 0.16893056E+04</pdfrwt>
<totfact> 0.11885024E+01</totfact>
</mgrwt>
</event>
<event>
12    1  0.1097093E-007  0.1869878E+04  0.7818608E-02  0.8669997E-01
          4   -1    0    0  501    0  0.00000000000E+00  0.00000000000E+00  0.91464104440E+03  0.91464104440E+03  0.00000000000E+00 0. -1.
         -4   -1    0    0    0  501 -0.00000000000E+00 -0.00000000000E+00 -0.95568783569E+03  0.95568783569E+03  0.00000000000E+00 0.  1.
         23    2    1    2    0    0 -0.57410507148E+03 -0.33542404933E+03  0.24244209552E+03  0.71393756853E+03  0.93929527363E+02 0.  0.
        254    2    1    2    0    0  0.57410507148E+03  0.33542404933E+03 -0.28348888682E+03  0.11563913116E+04  0.90264555088E+03 0.  0.
        -24    2    4    4    0    0 -0.14935137573E+03 -0.93324960679E+02  0.11229671515E+03  0.22355718284E+03  0.79698682841E+02 0.  0.
         24    2    4    4    0    0  0.72345644721E+03  0.42874901001E+03 -0.39578560196E+03  0.93283412872E+03  0.79487888275E+02 0.  0.
         11    1    3    3    0    0 -0.12280442659E+03 -0.54049226586E+02  0.86794403287E+02  0.15979835584E+03  0.00000000000E+00 0.  1.
        -11    1    3    3    0    0 -0.45130064489E+03 -0.28137482275E+03  0.15564769223E+03  0.55413921270E+03  0.00000000000E+00 0. -1.
          4    1    6    6  502    0  0.40513287220E+03  0.22868075460E+03 -0.17643771229E+03  0.49755180431E+03  0.00000000000E+00 0. -1.
          1    1    5    5  503    0 -0.87128924725E+02 -0.42237266101E+02  0.16166149837E+02  0.98167105346E+02  0.00000000000E+00 0. -1.
         -2    1    5    5    0  503 -0.62222451007E+02 -0.51087694578E+02  0.96130565309E+02  0.12539007749E+03  0.00000000000E+00 0.  1.
         -3    1    6    6    0  502  0.31832357501E+03  0.20006825542E+03 -0.21934788967E+03  0.43528232441E+03  0.00000000000E+00 0.  1.
<mgrwt>
<rscale>  0 0.18698784E+04</rscale>
<asrwt>0</asrwt>
<pdfrwt beam="1">  1        4 0.14071401E+00 0.18698784E+04</pdfrwt>
<pdfrwt beam="2">  1       -4 0.14702890E+00 0.18698784E+04</pdfrwt>
<totfact> 0.20812830E-01</totfact>
</mgrwt>
</event>
<event>
12    1  0.1097093E-007  0.2384879E+04  0.7818608E-02  0.8445186E-01
          2   -1    0    0  501    0  0.00000000000E+00  0.00000000000E+00  0.29292968889E+04  0.29292968889E+04  0.00000000000E+00 0. -1.
         -2   -1    0    0    0  501 -0.00000000000E+00 -0.00000000000E+00 -0.48541075427E+03  0.48541075427E+03  0.00000000000E+00 0.  1.
         23    2    1    2    0    0  0.65389603020E+03  0.33872927381E+03  0.38725160703E+02  0.74238261658E+03  0.85526440781E+02 0.  0.
        254    2    1    2    0    0 -0.65389603020E+03 -0.33872927381E+03  0.24051609740E+04  0.26723250266E+04  0.90233264265E+03 0.  0.
        -24    2    4    4    0    0  0.10312669640E+03  0.13250169911E+03  0.91645618911E+03  0.93508927356E+03  0.79424096990E+02 0.  0.
         24    2    4    4    0    0 -0.75702272660E+03 -0.47123097292E+03  0.14887047849E+04  0.17372357531E+04  0.81265533095E+02 0.  0.
         11    1    3    3    0    0  0.28362867853E+03  0.16692545842E+03  0.55993292504E+02  0.33383316905E+03  0.00000000000E+00 0.  1.
        -11    1    3    3    0    0  0.37026735168E+03  0.17180381539E+03 -0.17268131801E+02  0.40854944753E+03  0.00000000000E+00 0. -1.
          2    1    6    6  502    0 -0.66429510325E+03 -0.42790187783E+03  0.12698341388E+04  0.14956158401E+04  0.00000000000E+00 0. -1.
          3    1    5    5  503    0  0.10856025336E+03  0.13897809763E+03  0.85031021222E+03  0.86840526095E+03  0.00000000000E+00 0. -1.
         -4    1    5    5    0  503 -0.54335569623E+01 -0.64763985218E+01  0.66145976890E+02  0.66684012611E+02  0.00000000000E+00 0.  1.
         -1    1    6    6    0  502 -0.92727623352E+02 -0.43329095089E+02  0.21887064608E+03  0.24161991294E+03  0.00000000000E+00 0.  1.
<mgrwt>
<rscale>  0 0.23848792E+04</rscale>
<asrwt>0</asrwt>
<pdfrwt beam="1">  1        2 0.45066105E+00 0.23848792E+04</pdfrwt>
<pdfrwt beam="2">  1       -2 0.74678579E-01 0.23848792E+04</pdfrwt>
<totfact> 0.27980988E+00</totfact>
</mgrwt>
</event>
<event>
12    1  0.1097093E-007  0.1196645E+04  0.7818608E-02  0.9115798E-01
          2   -1    0    0  501    0  0.00000000000E+00  0.00000000000E+00  0.93412011698E+03  0.93412011698E+03  0.00000000000E+00 0. -1.
         -2   -1    0    0    0  501 -0.00000000000E+00 -0.00000000000E+00 -0.38323772129E+03  0.38323772129E+03  0.00000000000E+00 0.  1.
         23    2    1    2    0    0  0.22655341708E+03  0.91874907623E+02  0.95476371076E+02  0.27782586390E+03  0.91126416461E+02 0.  0.
        254    2    1    2    0    0 -0.22655341708E+03 -0.91874907623E+02  0.45540602461E+03  0.10395319744E+04  0.90192274005E+03 0.  0.
        -24    2    4    4    0    0 -0.52871796135E+03  0.88470852437E+02  0.13638064089E+03  0.55858068985E+03  0.77736307352E+02 0.  0.
         24    2    4    4    0    0  0.30216454426E+03 -0.18034576006E+03  0.31902538372E+03  0.48095128451E+03  0.75557512103E+02 0.  0.
         11    1    3    3    0    0  0.17206553240E+03  0.82144611044E+02  0.31539201411E+02  0.19325890869E+03  0.00000000000E+00 0. -1.
        -11    1    3    3    0    0  0.54487884684E+02  0.97302965788E+01  0.63937169665E+02  0.84566955211E+02  0.00000000000E+00 0.  1.
          2    1    6    6  502    0  0.29301500471E+03 -0.18783637074E+03  0.30730727964E+03  0.46430384371E+03  0.00000000000E+00 0. -1.
          1    1    5    5  503    0 -0.37524076675E+03  0.97587645746E+02  0.10456794626E+03  0.40157619080E+03  0.00000000000E+00 0. -1.
         -2    1    5    5    0  503 -0.15347719460E+03 -0.91167933098E+01  0.31812694634E+02  0.15700449905E+03  0.00000000000E+00 0.  1.
         -1    1    6    6    0  502  0.91495395477E+01  0.74906106752E+01  0.11718104076E+02  0.16647440805E+02  0.00000000000E+00 0.  1.
<mgrwt>
<rscale>  0 0.11966454E+04</rscale>
<asrwt>0</asrwt>
<pdfrwt beam="1">  1        2 0.14371079E+00 0.11966454E+04</pdfrwt>
<pdfrwt beam="2">  1       -2 0.58959650E-01 0.11966454E+04</pdfrwt>
<totfact> 0.73789572E+01</totfact>
</mgrwt>
</event>
<event>
12    1  0.1097093E-007  0.1495327E+04  0.7818608E-02  0.8887566E-01
         -1   -1    0    0    0  501 -0.00000000000E+00  0.00000000000E+00  0.60468959575E+03  0.60468959575E+03  0.00000000000E+00 0.  1.
          1   -1    0    0  501    0  0.00000000000E+00 -0.00000000000E+00 -0.92444301201E+03  0.92444301201E+03  0.00000000000E+00 0. -1.
         23    2    1    2    0    0  0.46776197902E+03 -0.20082647955E+02 -0.10227794850E+03  0.48735041729E+03  0.88572392529E+02 0.  0.
        254    2    1    2    0    0 -0.46776197902E+03  0.20082647955E+02 -0.21747546776E+03  0.10417821905E+04  0.90488119195E+03 0.  0.
        -24    2    4    4    0    0  0.90029869626E+02 -0.32607724456E+03 -0.14600664062E+03  0.37672105248E+03  0.78543398432E+02 0.  0.
         24    2    4    4    0    0 -0.55779184864E+03  0.34615989251E+03 -0.71468827140E+02  0.66506113799E+03  0.78994344193E+02 0.  0.
         11    1    3    3    0    0  0.25662997124E+03 -0.43037477466E+02 -0.87215613764E+02  0.27444075844E+03  0.00000000000E+00 0. -1.
        -11    1    3    3    0    0  0.21113200778E+03  0.22954829511E+02 -0.15062334738E+02  0.21290965885E+03  0.00000000000E+00 0.  1.
          4    1    6    6  502    0 -0.43687965936E+03  0.26827911931E+03 -0.88407822925E+02  0.52024366000E+03  0.00000000000E+00 0. -1.
          3    1    5    5  503    0  0.68832401083E+02 -0.25940296552E+03 -0.78802829651E+02  0.27970999968E+03  0.00000000000E+00 0. -1.
         -4    1    5    5    0  503  0.21197468543E+02 -0.66674279033E+02 -0.67203810965E+02  0.97011052801E+02  0.00000000000E+00 0.  1.
         -3    1    6    6    0  502 -0.12091218929E+03  0.77880773199E+02  0.16938995786E+02  0.14481747799E+03  0.00000000000E+00 0.  1.
<mgrwt>
<rscale>  0 0.14953275E+04</rscale>
<asrwt>0</asrwt>
<pdfrwt beam="1">  1        1 0.14222200E+00 0.14953275E+04</pdfrwt>
<pdfrwt beam="2">  1       -1 0.93029169E-01 0.14953275E+04</pdfrwt>
<totfact> 0.18880881E+01</totfact>
</mgrwt>
</event>
<event>
12    1  0.1097093E-007  0.1780948E+04  0.7818608E-02  0.8716497E-01
         -1   -1    0    0    0  501 -0.00000000000E+00  0.00000000000E+00  0.17523230152E+04  0.17523230152E+04  0.00000000000E+00 0.  1.
          1   -1    0    0  501    0  0.00000000000E+00 -0.00000000000E+00 -0.45250990407E+03  0.45250990407E+03  0.00000000000E+00 0. -1.
         23    2    1    2    0    0 -0.57321262834E+03 -0.25937700905E+03  0.73425304116E+03  0.97125696426E+03  0.91451692478E+02 0.  0.
        254    2    1    2    0    0  0.57321262834E+03  0.25937700905E+03  0.56556006998E+03  0.12335759550E+04  0.89777630504E+03 0.  0.
        -24    2    4    4    0    0 -0.61335718708E+02  0.29960924962E+03  0.49709712732E+03  0.58906980351E+03  0.79811694414E+02 0.  0.
         24    2    4    4    0    0  0.63454834705E+03 -0.40232240570E+02  0.68462942658E+02  0.64450615150E+03  0.80192062405E+02 0.  0.
         13    1    3    3    0    0 -0.44727927170E+03 -0.21425301886E+03  0.51930719313E+03  0.71808290874E+03  0.00000000000E+00 0.  1.
        -13    1    3    3    0    0 -0.12593335664E+03 -0.45123990195E+02  0.21494584802E+03  0.25317405552E+03  0.00000000000E+00 0. -1.
          4    1    6    6  502    0  0.45272185292E+03 -0.64508079861E+02  0.43100530182E+02  0.45932126467E+03  0.00000000000E+00 0. -1.
          3    1    5    5  503    0 -0.46695460271E+02  0.22873146352E+03  0.30711903497E+03  0.38577279590E+03  0.00000000000E+00 0. -1.
         -4    1    5    5    0  503 -0.14640258437E+02  0.70877786099E+02  0.18997809234E+03  0.20329700760E+03  0.00000000000E+00 0.  1.
         -3    1    6    6    0  502  0.18182649414E+03  0.24275839291E+02  0.25362412476E+02  0.18518488683E+03  0.00000000000E+00 0.  1.
<mgrwt>
<rscale>  0 0.17809475E+04</rscale>
<asrwt>0</asrwt>
<pdfrwt beam="1">  1        1 0.69616909E-01 0.17809475E+04</pdfrwt>
<pdfrwt beam="2">  1       -1 0.26958815E+00 0.17809475E+04</pdfrwt>
<totfact> 0.24982021E+00</totfact>
</mgrwt>
</event>
<event>
12    1  0.1097093E-007  0.1226791E+04  0.7818608E-02  0.9089725E-01
          2   -1    0    0  501    0  0.00000000000E+00  0.00000000000E+00  0.28621386376E+04  0.28621386376E+04  0.00000000000E+00 0. -1.
         -2   -1    0    0    0  501 -0.00000000000E+00 -0.00000000000E+00 -0.13145896316E+03  0.13145896316E+03  0.00000000000E+00 0.  1.
         23    2    1    2    0    0  0.23140115765E+03 -0.13587628819E+03  0.67453059800E+03  0.73243661421E+03  0.97277976610E+02 0.  0.
        254    2    1    2    0    0 -0.23140115765E+03  0.13587628819E+03  0.20561490765E+04  0.22611609866E+04  0.90171565424E+03 0.  0.
        -24    2    4    4    0    0  0.21801970092E+03  0.30571283971E+03  0.49849132484E+03  0.62915086321E+03  0.79650972239E+02 0.  0.
         24    2    4    4    0    0 -0.44942085857E+03 -0.16983655152E+03  0.15576577516E+04  0.16320101234E+04  0.79597796563E+02 0.  0.
         13    1    3    3    0    0  0.22214956087E+03 -0.12090870935E+03  0.66691435740E+03  0.71326299743E+03  0.00000000000E+00 0.  1.
        -13    1    3    3    0    0  0.92515967828E+01 -0.14967578848E+02  0.76162406039E+01  0.19173616783E+02  0.00000000000E+00 0. -1.
          4    1    6    6  502    0 -0.24353853806E+03 -0.55803983992E+02  0.73211647636E+03  0.77357587805E+03  0.00000000000E+00 0. -1.
          3    1    5    5  503    0  0.16764521208E+03  0.27450285747E+03  0.44667870453E+03  0.55043491983E+03  0.00000000000E+00 0. -1.
         -4    1    5    5    0  503  0.50374488843E+02  0.31209982240E+02  0.51812620312E+02  0.78715943374E+02  0.00000000000E+00 0.  1.
         -3    1    6    6    0  502 -0.20588232051E+03 -0.11403256753E+03  0.82554127526E+03  0.85843424531E+03  0.00000000000E+00 0.  1.
<mgrwt>
<rscale>  0 0.12267906E+04</rscale>
<asrwt>0</asrwt>
<pdfrwt beam="1">  1        2 0.44032898E+00 0.12267906E+04</pdfrwt>
<pdfrwt beam="2">  1       -2 0.20224458E-01 0.12267906E+04</pdfrwt>
<totfact> 0.44250034E+01</totfact>
</mgrwt>
</event>
<event>
12    1  0.1097093E-007  0.1534659E+04  0.7818608E-02  0.8861727E-01
         -2   -1    0    0    0  501 -0.00000000000E+00  0.00000000000E+00  0.44442460225E+03  0.44442460225E+03  0.00000000000E+00 0.  1.
          2   -1    0    0  501    0  0.00000000000E+00 -0.00000000000E+00 -0.13248470952E+04  0.13248470952E+04  0.00000000000E+00 0. -1.
         23    2    1    2    0    0  0.49295562101E+02  0.22294388360E+03 -0.82464310036E+03  0.86043155545E+03  0.90400171274E+02 0.  0.
        254    2    1    2    0    0 -0.49295562101E+02 -0.22294388360E+03 -0.55779392590E+02  0.90884014201E+03  0.87792085942E+03 0.  0.
        -24    2    4    4    0    0 -0.92060342726E+02  0.18752977006E+03 -0.33642470186E+03  0.40353009860E+03  0.77539919393E+02 0.  0.
         24    2    4    4    0    0  0.42764780625E+02 -0.41047365366E+03  0.28064530927E+03  0.50531004340E+03  0.79113864398E+02 0.  0.
         11    1    3    3    0    0  0.45005725550E+02  0.34829417369E+02 -0.16917492548E+03  0.17849022119E+03  0.00000000000E+00 0.  1.
        -11    1    3    3    0    0  0.42898365507E+01  0.18811446624E+03 -0.65546817488E+03  0.68194133427E+03  0.00000000000E+00 0. -1.
          2    1    6    6  502    0  0.50315906944E+02 -0.40759790879E+03  0.28028910156E+03  0.49722200896E+03  0.00000000000E+00 0. -1.
          1    1    5    5  503    0 -0.57364236803E+02  0.15608040655E+03 -0.20470828356E+03  0.26373704770E+03  0.00000000000E+00 0. -1.
         -2    1    5    5    0  503 -0.34696105924E+02  0.31449363504E+02 -0.13171641830E+03  0.13979305090E+03  0.00000000000E+00 0.  1.
         -1    1    6    6    0  502 -0.75511263189E+01 -0.28757448698E+01  0.35620770992E+00  0.80880344443E+01  0.00000000000E+00 0.  1.
<mgrwt>
<rscale>  0 0.15346591E+04</rscale>
<asrwt>0</asrwt>
<pdfrwt beam="1">  1        2 0.20382263E+00 0.15346591E+04</pdfrwt>
<pdfrwt beam="2">  1       -2 0.68373017E-01 0.15346591E+04</pdfrwt>
<totfact> 0.30151546E+01</totfact>
</mgrwt>
</event>
<event>
12    1  0.1097093E-007  0.2666163E+04  0.7818608E-02  0.8346068E-01
          2   -1    0    0  501    0  0.00000000000E+00  0.00000000000E+00  0.34110810922E+04  0.34110810922E+04  0.00000000000E+00 0. -1.
         -2   -1    0    0    0  501 -0.00000000000E+00 -0.00000000000E+00 -0.52098040997E+03  0.52098040997E+03  0.00000000000E+00 0.  1.
         23    2    1    2    0    0 -0.29992330116E+02 -0.11582960295E+04  0.16075355576E+04  0.19835749560E+04  0.88599128381E+02 0.  0.
        254    2    1    2    0    0  0.29992330116E+02  0.11582960295E+04  0.12825651246E+04  0.19484865461E+04  0.89948723708E+03 0.  0.
        -24    2    4    4    0    0 -0.28331526608E+03  0.84836169964E+03  0.11906090235E+04  0.14913008237E+04  0.80269462758E+02 0.  0.
         24    2    4    4    0    0  0.31330759620E+03  0.30993432984E+03  0.91956101165E+02  0.45718572239E+03  0.79636182520E+02 0.  0.
         13    1    3    3    0    0 -0.32887935258E+02 -0.66049615211E+03  0.98642394399E+03  0.11875895674E+04  0.00000000000E+00 0.  1.
        -13    1    3    3    0    0  0.28956051428E+01 -0.49779987737E+03  0.62111161357E+03  0.79598538866E+03  0.00000000000E+00 0. -1.
          2    1    6    6  502    0  0.89121803764E+00  0.23205119356E+02 -0.26828136389E+00  0.23223776799E+02  0.00000000000E+00 0. -1.
          1    1    5    5  503    0 -0.38102352491E+01  0.61097121444E+02  0.10387787225E+03  0.12057358121E+03  0.00000000000E+00 0. -1.
         -2    1    5    5    0  503 -0.27950503083E+03  0.78726457820E+03  0.10867311512E+04  0.13707272425E+04  0.00000000000E+00 0.  1.
         -1    1    6    6    0  502  0.31241637816E+03  0.28672921049E+03  0.92224382529E+02  0.43396194559E+03  0.00000000000E+00 0.  1.
<mgrwt>
<rscale>  0 0.26661631E+04</rscale>
<asrwt>0</asrwt>
<pdfrwt beam="1">  1        2 0.52478169E+00 0.26661631E+04</pdfrwt>
<pdfrwt beam="2">  1       -2 0.80150834E-01 0.26661631E+04</pdfrwt>
<totfact> 0.11347364E+00</totfact>
</mgrwt>
</event>
<event>
12    1  0.1097093E-007  0.1226318E+04  0.7818608E-02  0.9090127E-01
         -2   -1    0    0    0  501 -0.00000000000E+00  0.00000000000E+00  0.32423920918E+03  0.32423920918E+03  0.00000000000E+00 0.  1.
          2   -1    0    0  501    0  0.00000000000E+00 -0.00000000000E+00 -0.11595269531E+04  0.11595269531E+04  0.00000000000E+00 0. -1.
         23    2    1    2    0    0 -0.16026481271E+03  0.16839210758E+03 -0.36783868621E+03  0.44272226815E+03  0.81590413347E+02 0.  0.
        254    2    1    2    0    0  0.16026481271E+03 -0.16839210758E+03 -0.46744905775E+03  0.10410438942E+04  0.90067921920E+03 0.  0.
        -24    2    4    4    0    0 -0.21404136178E+03 -0.41469159504E+03 -0.25982773072E+03  0.53996545352E+03  0.79179655154E+02 0.  0.
         24    2    4    4    0    0  0.37430617449E+03  0.24629948746E+03 -0.20762132703E+03  0.50107844065E+03  0.84878963617E+02 0.  0.
         11    1    3    3    0    0 -0.14098759076E+03  0.16379865696E+03 -0.28574406877E+03  0.35826969395E+03  0.00000000000E+00 0. -1.
        -11    1    3    3    0    0 -0.19277221946E+02  0.45934506275E+01 -0.82094617443E+02  0.84452574192E+02  0.00000000000E+00 0.  1.
          4    1    6    6  502    0  0.50293630760E+02  0.50548779268E+01 -0.10654652869E+02  0.51657745921E+02  0.00000000000E+00 0. -1.
          3    1    5    5  503    0 -0.58324607824E+01 -0.19150354402E+00 -0.13621778267E+02  0.14819146923E+02  0.00000000000E+00 0. -1.
         -4    1    5    5    0  503 -0.20820890100E+03 -0.41450009150E+03 -0.24620595246E+03  0.52514630660E+03  0.00000000000E+00 0.  1.
         -3    1    6    6    0  502  0.32401254373E+03  0.24124460953E+03 -0.19696667416E+03  0.44942069473E+03  0.00000000000E+00 0.  1.
<mgrwt>
<rscale>  0 0.12263182E+04</rscale>
<asrwt>0</asrwt>
<pdfrwt beam="1">  1        2 0.17838876E+00 0.12263182E+04</pdfrwt>
<pdfrwt beam="2">  1       -2 0.49882954E-01 0.12263182E+04</pdfrwt>
<totfact> 0.75019187E+01</totfact>
</mgrwt>
</event>
<event>
12    1  0.1097093E-007  0.1778863E+04  0.7818608E-02  0.8717621E-01
          2   -1    0    0  501    0  0.00000000000E+00  0.00000000000E+00  0.99409038708E+03  0.99409038708E+03  0.00000000000E+00 0. -1.
         -2   -1    0    0    0  501 -0.00000000000E+00 -0.00000000000E+00 -0.79579144892E+03  0.79579144892E+03  0.00000000000E+00 0.  1.
         23    2    1    2    0    0  0.49939180092E+02  0.51156115995E+03  0.48218391007E+03  0.71158281076E+03  0.98285458547E+02 0.  0.
        254    2    1    2    0    0 -0.49939180092E+02 -0.51156115995E+03 -0.28388497190E+03  0.10782990252E+04  0.90440553320E+03 0.  0.
        -24    2    4    4    0    0  0.27535527068E+03 -0.55643777448E+02 -0.40640929465E+03  0.50055852378E+03  0.80458473028E+02 0.  0.
         24    2    4    4    0    0 -0.32529445078E+03 -0.45591738250E+03  0.12252432275E+03  0.57774050146E+03  0.71377433346E+02 0.  0.
         13    1    3    3    0    0 -0.16644301457E+02  0.15769218960E+02  0.24551545401E+02  0.33592847739E+02  0.00000000000E+00 0.  1.
        -13    1    3    3    0    0  0.66583481550E+02  0.49579194099E+03  0.45763236466E+03  0.67798996302E+03  0.00000000000E+00 0. -1.
          2    1    6    6  502    0 -0.14785256845E+03 -0.14812117151E+03  0.48456377546E+02  0.21482151655E+03  0.00000000000E+00 0. -1.
          3    1    5    5  503    0  0.13299005030E+02 -0.24531723057E+02 -0.31468040023E+02  0.42058370318E+02  0.00000000000E+00 0. -1.
         -4    1    5    5    0  503  0.26205626565E+03 -0.31112054391E+02 -0.37494125463E+03  0.45850015346E+03  0.00000000000E+00 0.  1.
         -1    1    6    6    0  502 -0.17744188232E+03 -0.30779621099E+03  0.74067945207E+02  0.36291898491E+03  0.00000000000E+00 0.  1.
<mgrwt>
<rscale>  0 0.17788633E+04</rscale>
<asrwt>0</asrwt>
<pdfrwt beam="1">  1        2 0.15293698E+00 0.17788633E+04</pdfrwt>
<pdfrwt beam="2">  1       -2 0.12242945E+00 0.17788633E+04</pdfrwt>
<totfact> 0.12138097E+01</totfact>
</mgrwt>
</event>
<event>
12    1  0.1097093E-007  0.1339677E+04  0.7818608E-02  0.8998679E-01
          2   -1    0    0  501    0  0.00000000000E+00  0.00000000000E+00  0.13662170666E+04  0.13662170666E+04  0.00000000000E+00 0. -1.
         -2   -1    0    0    0  501 -0.00000000000E+00 -0.00000000000E+00 -0.32841314972E+03  0.32841314972E+03  0.00000000000E+00 0.  1.
         23    2    1    2    0    0 -0.27598779616E+03 -0.16082179053E+03  0.22996512520E+03  0.40430013557E+03  0.92421474067E+02 0.  0.
        254    2    1    2    0    0  0.27598779616E+03  0.16082179053E+03  0.80783879168E+03  0.12903300808E+04  0.95410444504E+03 0.  0.
        -24    2    4    4    0    0  0.59310028433E+03  0.11509476826E+03  0.73043308325E+03  0.95151876678E+03  0.82708654139E+02 0.  0.
         24    2    4    4    0    0 -0.31711248817E+03  0.45727022270E+02  0.77405708432E+02  0.33881131398E+03  0.78423032745E+02 0.  0.
         13    1    3    3    0    0 -0.11697064930E+03 -0.48812772790E+02  0.14344577151E+03  0.19141971933E+03  0.00000000000E+00 0.  1.
        -13    1    3    3    0    0 -0.15901714686E+03 -0.11200901774E+03  0.86519353689E+02  0.21288041623E+03  0.00000000000E+00 0. -1.
          4    1    6    6  502    0 -0.15609449267E+03 -0.15025754353E+02  0.49659134437E+02  0.16449101364E+03  0.00000000000E+00 0. -1.
          3    1    5    5  503    0  0.11934055367E+02  0.89138525254E+01  0.40786087077E+02  0.43421001179E+02  0.00000000000E+00 0. -1.
         -4    1    5    5    0  503  0.58116622897E+03  0.10618091574E+03  0.68964699617E+03  0.90809776560E+03  0.00000000000E+00 0.  1.
         -3    1    6    6    0  502 -0.16101799550E+03  0.60752776623E+02  0.27746573995E+02  0.17432030034E+03  0.00000000000E+00 0.  1.
<mgrwt>
<rscale>  0 0.13396771E+04</rscale>
<asrwt>0</asrwt>
<pdfrwt beam="1">  1        2 0.21018724E+00 0.13396771E+04</pdfrwt>
<pdfrwt beam="2">  1       -2 0.50525101E-01 0.13396771E+04</pdfrwt>
<totfact> 0.54777583E+01</totfact>
</mgrwt>
</event>
<event>
12    1  0.1097093E-007  0.1655778E+04  0.7818608E-02  0.8786996E-01
         -1   -1    0    0    0  501 -0.00000000000E+00  0.00000000000E+00  0.67242768838E+03  0.67242768838E+03  0.00000000000E+00 0. -1.
          1   -1    0    0  501    0  0.00000000000E+00 -0.00000000000E+00 -0.10192914917E+04  0.10192914917E+04  0.00000000000E+00 0.  1.
         23    2    1    2    0    0 -0.12701206953E+03 -0.25122661447E+03  0.38862547860E+03  0.48983525805E+03  0.98295166638E+02 0.  0.
        254    2    1    2    0    0  0.12701206953E+03  0.25122661447E+03 -0.73548928190E+03  0.12018839220E+04  0.90792819131E+03 0.  0.
        -24    2    4    4    0    0  0.30453118651E+03 -0.95590109875E+02 -0.73359297203E+03  0.80412383081E+03  0.81115806180E+02 0.  0.
         24    2    4    4    0    0 -0.17751911698E+03  0.34681672435E+03 -0.18963098779E+01  0.39776009120E+03  0.80091304029E+02 0.  0.
         13    1    3    3    0    0 -0.15359691059E+02 -0.13534311316E+03  0.15786135502E+03  0.20850392274E+03  0.00000000000E+00 0.  1.
        -13    1    3    3    0    0 -0.11165237847E+03 -0.11588350131E+03  0.23076412358E+03  0.28133133530E+03  0.00000000000E+00 0. -1.
          4    1    6    6  502    0 -0.30685665979E+01  0.24279188647E+02  0.18229325070E+02  0.30515625421E+02  0.00000000000E+00 0. -1.
          1    1    5    5  503    0  0.11248295539E+03 -0.36339342514E+02 -0.18162254363E+03  0.21670189529E+03  0.00000000000E+00 0. -1.
         -2    1    5    5    0  503  0.19204823111E+03 -0.59250767362E+02 -0.55197042839E+03  0.58742193552E+03  0.00000000000E+00 0.  1.
         -3    1    6    6    0  502 -0.17445055038E+03  0.32253753570E+03 -0.20125634948E+02  0.36724446578E+03  0.00000000000E+00 0.  1.
<mgrwt>
<rscale>  0 0.16557775E+04</rscale>
<asrwt>0</asrwt>
<pdfrwt beam="1">  1        1 0.15681408E+00 0.16557775E+04</pdfrwt>
<pdfrwt beam="2">  1       -1 0.10345041E+00 0.16557775E+04</pdfrwt>
<totfact> 0.12306034E+01</totfact>
</mgrwt>
</event>
<event>
12    1  0.1097093E-007  0.2140137E+04  0.7818608E-02  0.8543766E-01
         -2   -1    0    0    0  501 -0.00000000000E+00  0.00000000000E+00  0.36543812271E+03  0.36543812271E+03  0.00000000000E+00 0.  1.
          2   -1    0    0  501    0  0.00000000000E+00 -0.00000000000E+00 -0.31333521764E+04  0.31333521764E+04  0.00000000000E+00 0. -1.
         23    2    1    2    0    0 -0.81424843159E+03  0.58481828930E+02 -0.91059899960E+03  0.12265812484E+04  0.94288855536E+02 0.  0.
        254    2    1    2    0    0  0.81424843159E+03 -0.58481828930E+02 -0.18573150541E+04  0.22722090507E+04  0.10231784435E+04 0.  0.
        -24    2    4    4    0    0  0.15510120493E+02  0.18243343773E+03 -0.11741379624E+04  0.11909024063E+04  0.78269172966E+02 0.  0.
         24    2    4    4    0    0  0.79873831109E+03 -0.24091526666E+03 -0.68317709166E+03  0.10813066444E+04  0.80436716218E+02 0.  0.
         13    1    3    3    0    0 -0.57010827972E+03  0.27485738246E+00 -0.60894660066E+03  0.83416993988E+03  0.00000000000E+00 0. -1.
        -13    1    3    3    0    0 -0.24414015187E+03  0.58206971547E+02 -0.30165239895E+03  0.39241130856E+03  0.00000000000E+00 0.  1.
          4    1    6    6  502    0  0.48340344111E+03 -0.11253609164E+03 -0.43517544540E+03  0.66009160507E+03  0.00000000000E+00 0. -1.
          1    1    5    5  503    0  0.21836648732E+02  0.18856434115E+03 -0.11021507541E+04  0.11183781269E+04  0.00000000000E+00 0. -1.
         -2    1    5    5    0  503 -0.63265282387E+01 -0.61309034167E+01 -0.71987208291E+02  0.72524279340E+02  0.00000000000E+00 0.  1.
         -3    1    6    6    0  502  0.31533486998E+03 -0.12837917502E+03 -0.24800164626E+03  0.42121503932E+03  0.00000000000E+00 0.  1.
<mgrwt>
<rscale>  0 0.21401368E+04</rscale>
<asrwt>0</asrwt>
<pdfrwt beam="1">  1        2 0.48205418E+00 0.21401368E+04</pdfrwt>
<pdfrwt beam="2">  1       -2 0.56221249E-01 0.21401368E+04</pdfrwt>
<totfact> 0.39157856E+00</totfact>
</mgrwt>
</event>
<event>
12    1  0.1097093E-007  0.2041457E+04  0.7818608E-02  0.8587480E-01
          2   -1    0    0  501    0  0.00000000000E+00  0.00000000000E+00  0.14834733620E+04  0.14834733620E+04  0.00000000000E+00 0. -1.
         -2   -1    0    0    0  501 -0.00000000000E+00 -0.00000000000E+00 -0.70232934472E+03  0.70232934472E+03  0.00000000000E+00 0.  1.
         23    2    1    2    0    0 -0.52261991796E+03 -0.22097984378E+03 -0.32166437864E+03  0.65776921246E+03  0.85021728823E+02 0.  0.
        254    2    1    2    0    0  0.52261991796E+03  0.22097984378E+03  0.11028083960E+04  0.15280334943E+04  0.89260088031E+03 0.  0.
        -24    2    4    4    0    0  0.19283234096E+03  0.54207767861E+03  0.50681501857E+03  0.77089397119E+03  0.79896998649E+02 0.  0.
         24    2    4    4    0    0  0.32978757700E+03 -0.32109783483E+03  0.59599337738E+03  0.75713952311E+03  0.78666931486E+02 0.  0.
         11    1    3    3    0    0 -0.12348199845E+03 -0.92400285657E+02 -0.94041456467E+02  0.18063613222E+03  0.00000000000E+00 0. -1.
        -11    1    3    3    0    0 -0.39913791951E+03 -0.12857955812E+03 -0.22762292217E+03  0.47713308023E+03  0.00000000000E+00 0.  1.
          2    1    6    6  502    0  0.40678988511E+02 -0.27911751343E+02  0.31883783463E+02  0.58740289557E+02  0.00000000000E+00 0. -1.
          3    1    5    5  503    0  0.46912808233E+02  0.86406790397E+02  0.12326083092E+03  0.15767110529E+03  0.00000000000E+00 0. -1.
         -4    1    5    5    0  503  0.14591953273E+03  0.45567088821E+03  0.38355418765E+03  0.61322286590E+03  0.00000000000E+00 0.  1.
         -1    1    6    6    0  502  0.28910858849E+03 -0.29318608349E+03  0.56410959391E+03  0.69839923356E+03  0.00000000000E+00 0.  1.
<mgrwt>
<rscale>  0 0.20414572E+04</rscale>
<asrwt>0</asrwt>
<pdfrwt beam="1">  1        2 0.22822667E+00 0.20414572E+04</pdfrwt>
<pdfrwt beam="2">  1       -2 0.10805067E+00 0.20414572E+04</pdfrwt>
<totfact> 0.82406111E+00</totfact>
</mgrwt>
</event>
<event>
12    1  0.1097093E-007  0.1339997E+04  0.7818608E-02  0.8998435E-01
         -2   -1    0    0    0  501 -0.00000000000E+00  0.00000000000E+00  0.20491735817E+03  0.20491735817E+03  0.00000000000E+00 0.  1.
          2   -1    0    0  501    0  0.00000000000E+00 -0.00000000000E+00 -0.21906309496E+04  0.21906309496E+04  0.00000000000E+00 0. -1.
         23    2    1    2    0    0  0.13100412060E+03  0.85730199358E+02  0.28062175675E+02  0.18487414547E+03  0.94229598662E+02 0.  0.
        254    2    1    2    0    0 -0.13100412060E+03 -0.85730199358E+02 -0.20137757671E+04  0.22106741623E+04  0.89848520573E+03 0.  0.
        -24    2    4    4    0    0 -0.14919162229E+03  0.32283195840E+03 -0.15237365284E+04  0.15670484773E+04  0.85961088972E+02 0.  0.
         24    2    4    4    0    0  0.18187501693E+02 -0.40856215776E+03 -0.49003923868E+03  0.64362568492E+03  0.82835649801E+02 0.  0.
         11    1    3    3    0    0  0.11734351571E+03  0.39653592033E+02  0.48007587917E+02  0.13284064340E+03  0.00000000000E+00 0.  1.
        -11    1    3    3    0    0  0.13660604887E+02  0.46076607325E+02 -0.19945412242E+02  0.52033502073E+02  0.00000000000E+00 0. -1.
          4    1    6    6  502    0 -0.14441932197E+02 -0.95209604854E+02 -0.72373963046E+02  0.12046339190E+03  0.00000000000E+00 0. -1.
          1    1    5    5  503    0 -0.81466909678E+02  0.19856038637E+03 -0.10858925285E+04  0.11068991227E+04  0.00000000000E+00 0. -1.
         -2    1    5    5    0  503 -0.67724712615E+02  0.12427157203E+03 -0.43784399991E+03  0.46014935463E+03  0.00000000000E+00 0.  1.
         -3    1    6    6    0  502  0.32629433890E+02 -0.31335255291E+03 -0.41766527563E+03  0.52316229302E+03  0.00000000000E+00 0.  1.
<mgrwt>
<rscale>  0 0.13399975E+04</rscale>
<asrwt>0</asrwt>
<pdfrwt beam="1">  1        2 0.33702014E+00 0.13399975E+04</pdfrwt>
<pdfrwt beam="2">  1       -2 0.31525748E-01 0.13399975E+04</pdfrwt>
<totfact> 0.47822525E+01</totfact>
</mgrwt>
</event>
<event>
12    1  0.1097093E-007  0.1523287E+04  0.7818608E-02  0.8869113E-01
         -2   -1    0    0    0  501 -0.00000000000E+00  0.00000000000E+00  0.35533768472E+03  0.35533768472E+03  0.00000000000E+00 0.  1.
          2   -1    0    0  501    0  0.00000000000E+00 -0.00000000000E+00 -0.16325343560E+04  0.16325343560E+04  0.00000000000E+00 0. -1.
         23    2    1    2    0    0  0.74141382081E+02  0.47181496097E+02  0.21128789892E+03  0.24601968539E+03  0.90333112761E+02 0.  0.
        254    2    1    2    0    0 -0.74141382081E+02 -0.47181496097E+02 -0.14884845702E+04  0.17418523553E+04  0.90041116938E+03 0.  0.
        -24    2    4    4    0    0 -0.38031766233E+03  0.15572985657E+03 -0.36073111240E+03  0.55259598888E+03  0.79637170735E+02 0.  0.
         24    2    4    4    0    0  0.30617628025E+03 -0.20291135267E+03 -0.11277534578E+04  0.11892563665E+04  0.87097140879E+02 0.  0.
         11    1    3    3    0    0  0.89230989474E+02  0.52730066606E+02  0.14774869481E+03  0.18047799374E+03  0.00000000000E+00 0. -1.
        -11    1    3    3    0    0 -0.15089607394E+02 -0.55485705086E+01  0.63539204106E+02  0.65541691651E+02  0.00000000000E+00 0.  1.
          2    1    6    6  502    0  0.14116892613E+03 -0.13047596221E+03 -0.67856660021E+03  0.70526964584E+03  0.00000000000E+00 0. -1.
          3    1    5    5  503    0 -0.21705393535E+03  0.11854787278E+03 -0.17776653737E+03  0.30457667475E+03  0.00000000000E+00 0. -1.
         -4    1    5    5    0  503 -0.16326372698E+03  0.37181983791E+02 -0.18296457503E+03  0.24801931413E+03  0.00000000000E+00 0.  1.
         -1    1    6    6    0  502  0.16500735412E+03 -0.72435390455E+02 -0.44918685760E+03  0.48398672063E+03  0.00000000000E+00 0.  1.
<mgrwt>
<rscale>  0 0.15232872E+04</rscale>
<asrwt>0</asrwt>
<pdfrwt beam="1">  1        2 0.25115913E+00 0.15232872E+04</pdfrwt>
<pdfrwt beam="2">  1       -2 0.54667336E-01 0.15232872E+04</pdfrwt>
<totfact> 0.32470565E+01</totfact>
</mgrwt>
</event>
<event>
12    1  0.1097093E-007  0.2722476E+04  0.7818608E-02  0.8327749E-01
         -1   -1    0    0    0  501 -0.00000000000E+00  0.00000000000E+00  0.48164326672E+03  0.48164326672E+03  0.00000000000E+00 0.  1.
          1   -1    0    0  501    0  0.00000000000E+00 -0.00000000000E+00 -0.38471804664E+04  0.38471804664E+04  0.00000000000E+00 0. -1.
         23    2    1    2    0    0  0.80884545287E+03 -0.20745148636E+03 -0.29144979977E+04  0.30330865708E+04  0.89713330684E+02 0.  0.
        254    2    1    2    0    0 -0.80884545287E+03  0.20745148636E+03 -0.45103920192E+03  0.12957371622E+04  0.88217421529E+03 0.  0.
        -24    2    4    4    0    0  0.14483883162E+03  0.51515410227E+02 -0.25246236901E+03  0.30605579150E+03  0.79377421909E+02 0.  0.
         24    2    4    4    0    0 -0.95368428450E+03  0.15593607613E+03 -0.19857683291E+03  0.98968137074E+03  0.78782502426E+02 0.  0.
         11    1    3    3    0    0  0.70741248568E+03 -0.15075436981E+03 -0.24808806608E+04  0.25841687557E+04  0.00000000000E+00 0. -1.
        -11    1    3    3    0    0  0.10143296719E+03 -0.56697116551E+02 -0.43361733690E+03  0.44891781511E+03  0.00000000000E+00 0.  1.
          4    1    6    6  502    0 -0.94839569431E+03  0.16086200604E+03 -0.19945227399E+03  0.98240123553E+03  0.00000000000E+00 0. -1.
          3    1    5    5  503    0  0.96009320324E+02  0.12381353004E+01 -0.10207053509E+03  0.14013463777E+03  0.00000000000E+00 0. -1.
         -4    1    5    5    0  503  0.48829511299E+02  0.50277274927E+02 -0.15039183391E+03  0.16592115373E+03  0.00000000000E+00 0.  1.
         -3    1    6    6    0  502 -0.52885901838E+01 -0.49259299070E+01  0.87544107523E+00  0.72801352088E+01  0.00000000000E+00 0.  1.
<mgrwt>
<rscale>  0 0.27224758E+04</rscale>
<asrwt>0</asrwt>
<pdfrwt beam="1">  1        1 0.59187390E+00 0.27224758E+04</pdfrwt>
<pdfrwt beam="2">  1       -1 0.74098966E-01 0.27224758E+04</pdfrwt>
<totfact> 0.20791772E-01</totfact>
</mgrwt>
</event>
<event>
12    1  0.1097093E-007  0.3383855E+04  0.7818608E-02  0.8141880E-01
          2   -1    0    0  501    0  0.00000000000E+00  0.00000000000E+00  0.13690749935E+04  0.13690749935E+04  0.00000000000E+00 0. -1.
         -2   -1    0    0    0  501 -0.00000000000E+00 -0.00000000000E+00 -0.20909141651E+04  0.20909141651E+04  0.00000000000E+00 0.  1.
         23    2    1    2    0    0 -0.14081170324E+03 -0.17553152088E+02  0.12625897417E+04  0.12738988486E+04  0.92462812531E+02 0.  0.
        254    2    1    2    0    0  0.14081170324E+03  0.17553152088E+02 -0.19844289133E+04  0.21860903099E+04  0.90603348858E+03 0.  0.
        -24    2    4    4    0    0  0.36720054369E+03  0.31337735266E+03 -0.14465949288E+04  0.15271346783E+04  0.80385529208E+02 0.  0.
         24    2    4    4    0    0 -0.22638884045E+03 -0.29582420058E+03 -0.53783398449E+03  0.65895563161E+03  0.78697298738E+02 0.  0.
         13    1    3    3    0    0 -0.19317998145E+02  0.32533119974E+02  0.26289319462E+03  0.26560199684E+03  0.00000000000E+00 0.  1.
        -13    1    3    3    0    0 -0.12149370510E+03 -0.50086272063E+02  0.99969654707E+03  0.10082968517E+04  0.00000000000E+00 0. -1.
          4    1    6    6  502    0 -0.18164594990E+03 -0.26541630405E+03 -0.41747254048E+03  0.52699562392E+03  0.00000000000E+00 0. -1.
          1    1    5    5  503    0  0.33449362127E+03  0.28127399409E+03 -0.13684385077E+04  0.14365322801E+04  0.00000000000E+00 0. -1.
         -2    1    5    5    0  503  0.32706922425E+02  0.32103358578E+02 -0.78156421053E+02  0.90602398193E+02  0.00000000000E+00 0.  1.
         -3    1    6    6    0  502 -0.44742890552E+02 -0.30407896521E+02 -0.12036144401E+03  0.13196000769E+03  0.00000000000E+00 0.  1.
<mgrwt>
<rscale>  0 0.33838548E+04</rscale>
<asrwt>0</asrwt>
<pdfrwt beam="1">  1        2 0.21062692E+00 0.33838548E+04</pdfrwt>
<pdfrwt beam="2">  1       -2 0.32167910E+00 0.33838548E+04</pdfrwt>
<totfact> 0.29228270E-01</totfact>
</mgrwt>
</event>
<event>
12    1  0.1097093E-007  0.1298464E+04  0.7818608E-02  0.9030784E-01
          2   -1    0    0  501    0  0.00000000000E+00  0.00000000000E+00  0.17333299499E+04  0.17333299499E+04  0.00000000000E+00 0. -1.
         -2   -1    0    0    0  501 -0.00000000000E+00 -0.00000000000E+00 -0.24317475448E+03  0.24317475448E+03  0.00000000000E+00 0.  1.
         23    2    1    2    0    0  0.24223294458E+01 -0.83223396973E+02  0.88371970910E+03  0.89235825673E+03  0.91710046506E+02 0.  0.
        254    2    1    2    0    0 -0.24223294458E+01  0.83223396973E+02  0.60643548632E+03  0.10841464477E+04  0.89480585571E+03 0.  0.
        -24    2    4    4    0    0 -0.42878592581E+03 -0.29333866261E+02  0.38899044369E+03  0.58560441231E+03  0.83072959163E+02 0.  0.
         24    2    4    4    0    0  0.42636359637E+03  0.11255726323E+03  0.21744504263E+03  0.49854203535E+03  0.82503094661E+02 0.  0.
         13    1    3    3    0    0 -0.30331060799E+02 -0.39939880287E+02  0.66925023615E+03  0.67112669882E+03  0.00000000000E+00 0.  1.
        -13    1    3    3    0    0  0.32753390245E+02 -0.43283516686E+02  0.21446947295E+03  0.22123155791E+03  0.00000000000E+00 0. -1.
          2    1    6    6  502    0  0.23771749285E+03  0.10076174008E+03  0.10587647505E+03  0.27905619978E+03  0.00000000000E+00 0. -1.
          1    1    5    5  503    0 -0.41940791819E+03 -0.14973359009E+02  0.36552542605E+03  0.55653934310E+03  0.00000000000E+00 0. -1.
         -2    1    5    5    0  503 -0.93780076222E+01 -0.14360507252E+02  0.23465017639E+02  0.29065069211E+02  0.00000000000E+00 0.  1.
         -1    1    6    6    0  502  0.18864610352E+03  0.11795523154E+02  0.11156856758E+03  0.21948583556E+03  0.00000000000E+00 0.  1.
<mgrwt>
<rscale>  0 0.12984638E+04</rscale>
<asrwt>0</asrwt>
<pdfrwt beam="1">  1        2 0.26666614E+00 0.12984638E+04</pdfrwt>
<pdfrwt beam="2">  1       -2 0.37411502E-01 0.12984638E+04</pdfrwt>
<totfact> 0.62062153E+01</totfact>
</mgrwt>
</event>
<event>
12    1  0.1097093E-007  0.1617410E+04  0.7818608E-02  0.8809923E-01
          1   -1    0    0  501    0  0.00000000000E+00  0.00000000000E+00  0.56526474039E+03  0.56526474039E+03  0.00000000000E+00 0. -1.
         -1   -1    0    0    0  501 -0.00000000000E+00 -0.00000000000E+00 -0.11569861906E+04  0.11569861906E+04  0.00000000000E+00 0.  1.
         23    2    1    2    0    0  0.91151589584E+02  0.53922543110E+03 -0.30306589422E+03  0.63189862588E+03  0.91510979227E+02 0.  0.
        254    2    1    2    0    0 -0.91151589584E+02 -0.53922543110E+03 -0.28865555603E+03  0.10903523052E+04  0.89803866370E+03 0.  0.
        -24    2    4    4    0    0 -0.60521063285E+01 -0.12034824921E+03 -0.55953024319E+03  0.57805463442E+03  0.80948985469E+02 0.  0.
         24    2    4    4    0    0 -0.85099483256E+02 -0.41887718188E+03  0.27087468716E+03  0.51229767074E+03  0.79848555091E+02 0.  0.
         13    1    3    3    0    0  0.26654894807E+02  0.12302795522E+03 -0.28281150883E+02  0.12902009409E+03  0.00000000000E+00 0.  1.
        -13    1    3    3    0    0  0.64496694777E+02  0.41619747587E+03 -0.27478474334E+03  0.50287853179E+03  0.00000000000E+00 0. -1.
          4    1    6    6  502    0 -0.77268563762E+02 -0.24973393313E+03  0.12959757354E+03  0.29177559763E+03  0.00000000000E+00 0. -1.
          3    1    5    5  503    0  0.27867156350E+02 -0.16049707860E+02 -0.18585647452E+03  0.18861813446E+03  0.00000000000E+00 0. -1.
         -4    1    5    5    0  503 -0.33919262679E+02 -0.10429854136E+03 -0.37367376867E+03  0.38943649996E+03  0.00000000000E+00 0.  1.
         -3    1    6    6    0  502 -0.78309194935E+01 -0.16914324876E+03  0.14127711361E+03  0.22052207311E+03  0.00000000000E+00 0.  1.
<mgrwt>
<rscale>  0 0.16174097E+04</rscale>
<asrwt>0</asrwt>
<pdfrwt beam="1">  1        1 0.86963807E-01 0.16174097E+04</pdfrwt>
<pdfrwt beam="2">  1       -1 0.17799787E+00 0.16174097E+04</pdfrwt>
<totfact> 0.76904865E+00</totfact>
</mgrwt>
</event>
<event>
12    1  0.1097093E-007  0.2930019E+04  0.7818608E-02  0.8264001E-01
         -2   -1    0    0    0  501 -0.00000000000E+00  0.00000000000E+00  0.15823801329E+04  0.15823801329E+04  0.00000000000E+00 0.  1.
          2   -1    0    0  501    0  0.00000000000E+00 -0.00000000000E+00 -0.13563449615E+04  0.13563449615E+04  0.00000000000E+00 0. -1.
         23    2    1    2    0    0 -0.96142648261E+03 -0.44674056112E+03  0.91264657868E+03  0.14018824521E+04  0.91829306953E+02 0.  0.
        254    2    1    2    0    0  0.96142648261E+03  0.44674056112E+03 -0.68661140728E+03  0.15368426422E+04  0.87551817331E+03 0.  0.
        -24    2    4    4    0    0  0.86175913171E+02 -0.23424443429E+03 -0.10718888988E+03  0.28317907097E+03  0.80026152720E+02 0.  0.
         24    2    4    4    0    0  0.87525056944E+03  0.68098499541E+03 -0.57942251740E+03  0.12536635712E+04  0.78343939272E+02 0.  0.
         13    1    3    3    0    0 -0.56750726920E+02 -0.48956335648E+02  0.79825725182E+02  0.10949664016E+03  0.00000000000E+00 0. -1.
        -13    1    3    3    0    0 -0.90467575569E+03 -0.39778422548E+03  0.83282085350E+03  0.12923858120E+04  0.00000000000E+00 0.  1.
          4    1    6    6  502    0  0.24064120190E+03  0.15484228288E+03 -0.17533928879E+03  0.33560123184E+03  0.00000000000E+00 0. -1.
          1    1    5    5  503    0  0.32321702958E+02 -0.17990877910E+03 -0.56169613943E+02  0.19122470240E+03  0.00000000000E+00 0. -1.
         -2    1    5    5    0  503  0.53854210213E+02 -0.54335655189E+02 -0.51019275932E+02  0.91954368570E+02  0.00000000000E+00 0.  1.
         -3    1    6    6    0  502  0.63460936754E+03  0.52614271253E+03 -0.40408322861E+03  0.91806233937E+03  0.00000000000E+00 0.  1.
<mgrwt>
<rscale>  0 0.29300193E+04</rscale>
<asrwt>0</asrwt>
<pdfrwt beam="1">  1        2 0.20866846E+00 0.29300193E+04</pdfrwt>
<pdfrwt beam="2">  1       -2 0.24344310E+00 0.29300193E+04</pdfrwt>
<totfact> 0.93101174E-01</totfact>
</mgrwt>
</event>
<event>
12    1  0.1097093E-007  0.1223924E+04  0.7818608E-02  0.9092170E-01
         -1   -1    0    0    0  501 -0.00000000000E+00  0.00000000000E+00  0.31787818948E+03  0.31787818948E+03  0.00000000000E+00 0.  1.
          1   -1    0    0  501    0  0.00000000000E+00 -0.00000000000E+00 -0.11781158471E+04  0.11781158471E+04  0.00000000000E+00 0. -1.
         23    2    1    2    0    0  0.52216888701E+02  0.91005161407E+02  0.10192132437E+03  0.17235662511E+03  0.91160885194E+02 0.  0.
        254    2    1    2    0    0 -0.52216888701E+02 -0.91005161407E+02 -0.96215898194E+03  0.13236374114E+04  0.90291613537E+03 0.  0.
        -24    2    4    4    0    0 -0.35634054979E+03 -0.12181628386E+01 -0.69038225947E+02  0.37245331502E+03  0.83517207118E+02 0.  0.
         24    2    4    4    0    0  0.30412366109E+03 -0.89786998569E+02 -0.89312075600E+03  0.95118409640E+03  0.80830650772E+02 0.  0.
         11    1    3    3    0    0  0.65139569774E+02  0.21989211776E+02  0.52090033363E+02  0.86255785665E+02  0.00000000000E+00 0. -1.
        -11    1    3    3    0    0 -0.12922681073E+02  0.69015949631E+02  0.49831291009E+02  0.86100839445E+02  0.00000000000E+00 0.  1.
          4    1    6    6  502    0  0.30686076537E+03 -0.80331824529E+02 -0.87138591466E+03  0.92732418475E+03  0.00000000000E+00 0. -1.
          1    1    5    5  503    0 -0.34661162720E+03 -0.16514768903E+02 -0.59846311810E+02  0.35212773072E+03  0.00000000000E+00 0. -1.
         -2    1    5    5    0  503 -0.97289225863E+01  0.15296606064E+02 -0.91919141375E+01  0.20325584304E+02  0.00000000000E+00 0.  1.
         -3    1    6    6    0  502 -0.27371042797E+01 -0.94551740396E+01 -0.21734841338E+02  0.23859911650E+02  0.00000000000E+00 0.  1.
<mgrwt>
<rscale>  0 0.12239237E+04</rscale>
<asrwt>0</asrwt>
<pdfrwt beam="1">  1        1 0.18124859E+00 0.12239237E+04</pdfrwt>
<pdfrwt beam="2">  1       -1 0.48904337E-01 0.12239237E+04</pdfrwt>
<totfact> 0.45855186E+01</totfact>
</mgrwt>
</event>
<event>
12    1  0.1097093E-007  0.2061861E+04  0.7818608E-02  0.8578233E-01
          2   -1    0    0  501    0  0.00000000000E+00  0.00000000000E+00  0.15369174625E+04  0.15369174625E+04  0.00000000000E+00 0. -1.
         -2   -1    0    0    0  501 -0.00000000000E+00 -0.00000000000E+00 -0.69152536703E+03  0.69152536703E+03  0.00000000000E+00 0.  1.
         23    2    1    2    0    0 -0.72911823711E+02  0.61288484079E+02  0.12221342321E+04  0.12292745340E+04  0.91822580915E+02 0.  0.
        254    2    1    2    0    0  0.72911823711E+02 -0.61288484079E+02 -0.37674213665E+03  0.99916829549E+03  0.92050542251E+03 0.  0.
        -24    2    4    4    0    0  0.78993159948E+02  0.12115894941E+03  0.27325451430E+03  0.31935244804E+03  0.79990912859E+02 0.  0.
         24    2    4    4    0    0 -0.60813362374E+01 -0.18244743348E+03 -0.64999665096E+03  0.67981584746E+03  0.79560615683E+02 0.  0.
         13    1    3    3    0    0 -0.88392657281E+02  0.58213691778E+02  0.11706626918E+04  0.11754374648E+04  0.00000000000E+00 0. -1.
        -13    1    3    3    0    0  0.15480833570E+02  0.30747923009E+01  0.51471540303E+02  0.53837069171E+02  0.00000000000E+00 0.  1.
          4    1    6    6  502    0  0.38488954561E+01 -0.15449319716E+03 -0.61410207871E+03  0.63324902293E+03  0.00000000000E+00 0. -1.
          3    1    5    5  503    0  0.54777381187E+02  0.11087145286E+03  0.15541959540E+03  0.19861593890E+03  0.00000000000E+00 0. -1.
         -4    1    5    5    0  503  0.24215778761E+02  0.10287496541E+02  0.11783491890E+03  0.12073650914E+03  0.00000000000E+00 0.  1.
         -3    1    6    6    0  502 -0.99302316935E+01 -0.27954236326E+02 -0.35894572241E+02  0.46566824526E+02  0.00000000000E+00 0.  1.
<mgrwt>
<rscale>  0 0.20618607E+04</rscale>
<asrwt>0</asrwt>
<pdfrwt beam="1">  1        2 0.23644884E+00 0.20618607E+04</pdfrwt>
<pdfrwt beam="2">  1       -2 0.10638852E+00 0.20618607E+04</pdfrwt>
<totfact> 0.79670267E+00</totfact>
</mgrwt>
</event>
<event>
12    1  0.1097093E-007  0.2421756E+04  0.7818608E-02  0.8431403E-01
          2   -1    0    0  501    0  0.00000000000E+00  0.00000000000E+00  0.13312715835E+04  0.13312715835E+04  0.00000000000E+00 0. -1.
         -2   -1    0    0    0  501 -0.00000000000E+00 -0.00000000000E+00 -0.11013721534E+04  0.11013721534E+04  0.00000000000E+00 0.  1.
         23    2    1    2    0    0 -0.87561619619E+03  0.21423928401E+03 -0.42307222979E+03  0.99945761278E+03  0.85575780887E+02 0.  0.
        254    2    1    2    0    0  0.87561619619E+03 -0.21423928401E+03  0.65297165991E+03  0.14331861241E+04  0.90280024574E+03 0.  0.
        -24    2    4    4    0    0  0.80355305671E+02 -0.43156749331E+03  0.25024616623E+03  0.51218052119E+03  0.83655640202E+02 0.  0.
         24    2    4    4    0    0  0.79526089052E+03  0.21732820931E+03  0.40272549368E+03  0.92100560287E+03  0.79950376559E+02 0.  0.
         13    1    3    3    0    0 -0.92471418713E+01 -0.52718446208E+01 -0.22389269082E-01  0.10644363756E+02  0.00000000000E+00 0. -1.
        -13    1    3    3    0    0 -0.86636905432E+03  0.21951112863E+03 -0.42304984052E+03  0.98881324902E+03  0.00000000000E+00 0.  1.
          2    1    6    6  502    0  0.44049654435E+03  0.15980032340E+03  0.24027548782E+03  0.52659819501E+03  0.00000000000E+00 0. -1.
          1    1    5    5  503    0  0.61782696904E+02 -0.12197726440E+03  0.77789594016E+02  0.15731107909E+03  0.00000000000E+00 0. -1.
         -2    1    5    5    0  503  0.18572608766E+02 -0.30959022892E+03  0.17245657222E+03  0.35486944210E+03  0.00000000000E+00 0.  1.
         -1    1    6    6    0  502  0.35476434618E+03  0.57527885901E+02  0.16245000586E+03  0.39440740787E+03  0.00000000000E+00 0.  1.
<mgrwt>
<rscale>  0 0.24217559E+04</rscale>
<asrwt>0</asrwt>
<pdfrwt beam="1">  1        2 0.20481101E+00 0.24217559E+04</pdfrwt>
<pdfrwt beam="2">  1       -2 0.16944187E+00 0.24217559E+04</pdfrwt>
<totfact> 0.30611171E+00</totfact>
</mgrwt>
</event>
<event>
12    1  0.1097093E-007  0.1980618E+04  0.7818608E-02  0.8615736E-01
          1   -1    0    0  501    0  0.00000000000E+00  0.00000000000E+00  0.11845614717E+04  0.11845614717E+04  0.00000000000E+00 0. -1.
         -1   -1    0    0    0  501 -0.00000000000E+00 -0.00000000000E+00 -0.82791162983E+03  0.82791162983E+03  0.00000000000E+00 0.  1.
         23    2    1    2    0    0  0.35645080523E+03 -0.27862617628E+03  0.79327435952E+03  0.91789092833E+03  0.92465259215E+02 0.  0.
        254    2    1    2    0    0 -0.35645080523E+03  0.27862617628E+03 -0.43662451767E+03  0.10945821732E+04  0.89597959897E+03 0.  0.
        -24    2    4    4    0    0 -0.51742961798E+02 -0.13037021807E+03 -0.54374328697E+03  0.56736570698E+03  0.81076232557E+02 0.  0.
         24    2    4    4    0    0 -0.30470784344E+03  0.40899639435E+03  0.10711876930E+03  0.52721646621E+03  0.79736133951E+02 0.  0.
         11    1    3    3    0    0  0.26285918136E+02 -0.55337664364E+02  0.13677752724E+03  0.14987093963E+03  0.00000000000E+00 0.  1.
        -11    1    3    3    0    0  0.33016488710E+03 -0.22328851192E+03  0.65649683229E+03  0.76801998869E+03  0.00000000000E+00 0. -1.
          4    1    6    6  502    0 -0.19417735058E+03  0.20608818613E+03  0.82029669999E+02  0.29479832208E+03  0.00000000000E+00 0. -1.
          3    1    5    5  503    0 -0.64295456599E+02 -0.13388457786E+03 -0.48699619549E+03  0.50914072746E+03  0.00000000000E+00 0. -1.
         -4    1    5    5    0  503  0.12552494801E+02  0.35143597932E+01 -0.56747091472E+02  0.58224979528E+02  0.00000000000E+00 0.  1.
         -3    1    6    6    0  502 -0.11053049285E+03  0.20290820822E+03  0.25089099298E+02  0.23241814412E+03  0.00000000000E+00 0.  1.
<mgrwt>
<rscale>  0 0.19806183E+04</rscale>
<asrwt>0</asrwt>
<pdfrwt beam="1">  1        1 0.18224023E+00 0.19806183E+04</pdfrwt>
<pdfrwt beam="2">  1       -1 0.12737102E+00 0.19806183E+04</pdfrwt>
<totfact> 0.54421229E+00</totfact>
</mgrwt>
</event>
<event>
12    1  0.1097093E-007  0.1155564E+04  0.7818608E-02  0.9152666E-01
         -2   -1    0    0    0  501 -0.00000000000E+00  0.00000000000E+00  0.19234903900E+03  0.19234903900E+03  0.00000000000E+00 0.  1.
          2   -1    0    0  501    0  0.00000000000E+00 -0.00000000000E+00 -0.17355543701E+04  0.17355543701E+04  0.00000000000E+00 0. -1.
         23    2    1    2    0    0  0.17988454059E+03  0.54936493443E+02 -0.14110981668E+03  0.25299975354E+03  0.93383235492E+02 0.  0.
        254    2    1    2    0    0 -0.17988454059E+03 -0.54936493443E+02 -0.14020955145E+04  0.16749036556E+04  0.89669055846E+03 0.  0.
        -24    2    4    4    0    0 -0.21773817127E+02  0.38888326287E+03 -0.39827863161E+03  0.56292936094E+03  0.80989541054E+02 0.  0.
         24    2    4    4    0    0 -0.15811072347E+03 -0.44381975631E+03 -0.10038168829E+04  0.11119742947E+04  0.82846368269E+02 0.  0.
         13    1    3    3    0    0  0.15408699010E+03  0.49556155385E+02 -0.68504159460E+02  0.17575958841E+03  0.00000000000E+00 0.  1.
        -13    1    3    3    0    0  0.25797550494E+02  0.53803380590E+01 -0.72605657219E+02  0.77240165130E+02  0.00000000000E+00 0. -1.
          4    1    6    6  502    0  0.43696083519E+01 -0.70656100663E+02 -0.16900224541E+03  0.18322973828E+03  0.00000000000E+00 0. -1.
          1    1    5    5  503    0  0.20165689571E+02  0.10643729770E+03 -0.75889587943E+02  0.13226784543E+03  0.00000000000E+00 0. -1.
         -2    1    5    5    0  503 -0.41939506698E+02  0.28244596517E+03 -0.32238904367E+03  0.43066151551E+03  0.00000000000E+00 0.  1.
         -3    1    6    6    0  502 -0.16248033182E+03 -0.37316365565E+03 -0.83481463744E+03  0.92874455638E+03  0.00000000000E+00 0.  1.
<mgrwt>
<rscale>  0 0.11555643E+04</rscale>
<asrwt>0</asrwt>
<pdfrwt beam="1">  1        2 0.26700838E+00 0.11555643E+04</pdfrwt>
<pdfrwt beam="2">  1       -2 0.29592158E-01 0.11555643E+04</pdfrwt>
<totfact> 0.97544179E+01</totfact>
</mgrwt>
</event>
<event>
12    1  0.1097093E-007  0.1101077E+04  0.7818608E-02  0.9204143E-01
         -2   -1    0    0    0  501 -0.00000000000E+00  0.00000000000E+00  0.21100271032E+03  0.21100271032E+03  0.00000000000E+00 0. -1.
          2   -1    0    0  501    0  0.00000000000E+00 -0.00000000000E+00 -0.14364396327E+04  0.14364396327E+04  0.00000000000E+00 0.  1.
         23    2    1    2    0    0 -0.49997261273E+02  0.82190202903E+02 -0.30351335516E+02  0.13635658541E+03  0.91743987426E+02 0.  0.
        254    2    1    2    0    0  0.49997261273E+02 -0.82190202903E+02 -0.11950855868E+04  0.15110857576E+04  0.91972585661E+03 0.  0.
        -24    2    4    4    0    0  0.44591539003E+03  0.10495592700E+03 -0.47583618340E+03  0.66530875712E+03  0.79745765974E+02 0.  0.
         24    2    4    4    0    0 -0.39591812875E+03 -0.18714612991E+03 -0.71924940343E+03  0.84577700046E+03  0.79020197148E+02 0.  0.
         11    1    3    3    0    0 -0.46344814490E+02  0.34024239740E+02 -0.57192834877E+02  0.81095690892E+02  0.00000000000E+00 0. -1.
        -11    1    3    3    0    0 -0.36524467827E+01  0.48165963163E+02  0.26841499361E+02  0.55260894517E+02  0.00000000000E+00 0.  1.
          4    1    6    6  502    0 -0.30844795411E+03 -0.16251617555E+03 -0.51145244926E+03  0.61897920447E+03  0.00000000000E+00 0. -1.
          3    1    5    5  503    0  0.19487557568E+03  0.22873337021E+02 -0.24998642333E+03  0.31779378753E+03  0.00000000000E+00 0. -1.
         -4    1    5    5    0  503  0.25103981434E+03  0.82082589983E+02 -0.22584976007E+03  0.34751496959E+03  0.00000000000E+00 0.  1.
         -3    1    6    6    0  502 -0.87470174644E+02 -0.24629954352E+02 -0.20779695418E+03  0.22679779600E+03  0.00000000000E+00 0.  1.
<mgrwt>
<rscale>  0 0.11010770E+04</rscale>
<asrwt>0</asrwt>
<pdfrwt beam="1">  1        2 0.22099072E+00 0.11010770E+04</pdfrwt>
<pdfrwt beam="2">  1       -2 0.32461954E-01 0.11010770E+04</pdfrwt>
<totfact> 0.12096519E+02</totfact>
</mgrwt>
</event>
<event>
12    1  0.1097093E-007  0.3603803E+04  0.7818608E-02  0.8089621E-01
          2   -1    0    0  501    0  0.00000000000E+00  0.00000000000E+00  0.67429186445E+03  0.67429186445E+03  0.00000000000E+00 0. -1.
         -2   -1    0    0    0  501 -0.00000000000E+00 -0.00000000000E+00 -0.48151995873E+04  0.48151995873E+04  0.00000000000E+00 0.  1.
         23    2    1    2    0    0 -0.99173080682E+03 -0.34794721092E+03 -0.40141517908E+04  0.41504472200E+04  0.90555349346E+02 0.  0.
        254    2    1    2    0    0  0.99173080682E+03  0.34794721092E+03 -0.12675593197E+03  0.13390442317E+04  0.81998483732E+03 0.  0.
        -24    2    4    4    0    0  0.59181563412E+03  0.58786317078E+03  0.35927337147E+02  0.83865890694E+03  0.78924877439E+02 0.  0.
         24    2    4    4    0    0  0.39991517269E+03 -0.23991595986E+03 -0.16268326912E+03  0.50038532478E+03  0.80173649400E+02 0.  0.
         13    1    3    3    0    0 -0.82465719380E+03 -0.29039658033E+03 -0.31958604239E+04  0.33132934537E+04  0.00000000000E+00 0.  1.
        -13    1    3    3    0    0 -0.16707361302E+03 -0.57550630592E+02 -0.81829136695E+03  0.83715376633E+03  0.00000000000E+00 0. -1.
          2    1    6    6  502    0  0.43291817019E+02  0.15718700123E+00 -0.15715561463E+02  0.46056324220E+02  0.00000000000E+00 0. -1.
          3    1    5    5  503    0  0.92382963203E+02  0.96279645405E+02  0.34741442808E+02  0.13788165164E+03  0.00000000000E+00 0. -1.
         -4    1    5    5    0  503  0.49943267092E+03  0.49158352538E+03  0.11858943394E+01  0.70077725530E+03  0.00000000000E+00 0.  1.
         -1    1    6    6    0  502  0.35662335567E+03 -0.24007314686E+03 -0.14696770766E+03  0.45432900056E+03  0.00000000000E+00 0.  1.
<mgrwt>
<rscale>  0 0.36038035E+04</rscale>
<asrwt>0</asrwt>
<pdfrwt beam="1">  1        2 0.10373721E+00 0.36038035E+04</pdfrwt>
<pdfrwt beam="2">  1       -2 0.74079997E+00 0.36038035E+04</pdfrwt>
<totfact> 0.55009453E-03</totfact>
</mgrwt>
</event>
<event>
12    1  0.1097093E-007  0.1383090E+04  0.7818608E-02  0.8966151E-01
         -2   -1    0    0    0  501 -0.00000000000E+00  0.00000000000E+00  0.46943631840E+03  0.46943631840E+03  0.00000000000E+00 0.  1.
          2   -1    0    0  501    0  0.00000000000E+00 -0.00000000000E+00 -0.10187415052E+04  0.10187415052E+04  0.00000000000E+00 0. -1.
         23    2    1    2    0    0 -0.33069645421E+03  0.13841372207E+03 -0.32794429791E+03  0.49526576741E+03  0.96032361974E+02 0.  0.
        254    2    1    2    0    0  0.33069645421E+03 -0.13841372207E+03 -0.22136088892E+03  0.99291205622E+03  0.89908576062E+03 0.  0.
        -24    2    4    4    0    0  0.61043190699E+03 -0.27571015074E+02 -0.27846797391E+03  0.67628651735E+03  0.80198298701E+02 0.  0.
         24    2    4    4    0    0 -0.27973545278E+03 -0.11084270700E+03  0.57107084994E+02  0.31662553886E+03  0.80327351923E+02 0.  0.
         13    1    3    3    0    0 -0.28467085136E+03  0.77972628079E+02 -0.25951177662E+03  0.39301855751E+03  0.00000000000E+00 0. -1.
        -13    1    3    3    0    0 -0.46025602850E+02  0.60441093994E+02 -0.68432521294E+02  0.10224720990E+03  0.00000000000E+00 0.  1.
          2    1    6    6  502    0 -0.34249889972E+02 -0.34039332564E+02  0.32554430919E+02  0.58236776155E+02  0.00000000000E+00 0. -1.
          3    1    5    5  503    0  0.11686127379E+03 -0.14915444081E+02 -0.88172074948E+02  0.14715074782E+03  0.00000000000E+00 0. -1.
         -4    1    5    5    0  503  0.49357063320E+03 -0.12655570992E+02 -0.19029589896E+03  0.52913576953E+03  0.00000000000E+00 0.  1.
         -1    1    6    6    0  502 -0.24548556281E+03 -0.76803374436E+02  0.24552654076E+02  0.25838876271E+03  0.00000000000E+00 0.  1.
<mgrwt>
<rscale>  0 0.13830897E+04</rscale>
<asrwt>0</asrwt>
<pdfrwt beam="1">  1        2 0.15672946E+00 0.13830897E+04</pdfrwt>
<pdfrwt beam="2">  1       -2 0.72220972E-01 0.13830897E+04</pdfrwt>
<totfact> 0.41453919E+01</totfact>
</mgrwt>
</event>
<event>
12    1  0.1097093E-007  0.1626155E+04  0.7818608E-02  0.8804639E-01
          2   -1    0    0  501    0  0.00000000000E+00  0.00000000000E+00  0.85812907621E+03  0.85812907621E+03  0.00000000000E+00 0. -1.
         -2   -1    0    0    0  501 -0.00000000000E+00 -0.00000000000E+00 -0.77039101457E+03  0.77039101457E+03  0.00000000000E+00 0.  1.
         23    2    1    2    0    0  0.20118830354E+03 -0.42257992361E+03 -0.27585247270E+03  0.55151812490E+03  0.95011210275E+02 0.  0.
        254    2    1    2    0    0 -0.20118830354E+03  0.42257992361E+03  0.36359053434E+03  0.10770019659E+04  0.89926894339E+03 0.  0.
        -24    2    4    4    0    0  0.13520214270E+03  0.59915178433E+03  0.16491261302E+03  0.64095767038E+03  0.79800283405E+02 0.  0.
         24    2    4    4    0    0 -0.33639044625E+03 -0.17657186072E+03  0.19867792131E+03  0.43604429550E+03  0.79533369714E+02 0.  0.
         13    1    3    3    0    0  0.20174511816E+03 -0.35112447878E+03 -0.22025337185E+03  0.46097835103E+03  0.00000000000E+00 0.  1.
        -13    1    3    3    0    0 -0.55681462021E+00 -0.71455444822E+02 -0.55599100847E+02  0.90539773869E+02  0.00000000000E+00 0. -1.
          2    1    6    6  502    0 -0.15594689474E+02  0.62035363560E+00  0.27361550592E+02  0.31499740145E+02  0.00000000000E+00 0. -1.
          3    1    5    5  503    0  0.32017278132E+02  0.90602968477E+02 -0.12177473668E+01  0.96101440699E+02  0.00000000000E+00 0. -1.
         -4    1    5    5    0  503  0.10318486457E+03  0.50854881585E+03  0.16613036039E+03  0.54485622968E+03  0.00000000000E+00 0.  1.
         -1    1    6    6    0  502 -0.32079575677E+03 -0.17719221436E+03  0.17131637072E+03  0.40454455536E+03  0.00000000000E+00 0.  1.
<mgrwt>
<rscale>  0 0.16261549E+04</rscale>
<asrwt>0</asrwt>
<pdfrwt beam="1">  1        2 0.13201986E+00 0.16261549E+04</pdfrwt>
<pdfrwt beam="2">  1       -2 0.11852170E+00 0.16261549E+04</pdfrwt>
<totfact> 0.16417482E+01</totfact>
</mgrwt>
</event>
<event>
12    1  0.1097093E-007  0.1448530E+04  0.7818608E-02  0.8919421E-01
         -1   -1    0    0    0  501 -0.00000000000E+00  0.00000000000E+00  0.12383748032E+03  0.12383748032E+03  0.00000000000E+00 0.  1.
          1   -1    0    0  501    0  0.00000000000E+00 -0.00000000000E+00 -0.42358703791E+04  0.42358703791E+04  0.00000000000E+00 0. -1.
         23    2    1    2    0    0 -0.13813119186E+03  0.25506647241E+03 -0.23379557855E+04  0.23575438382E+04  0.88524361770E+02 0.  0.
        254    2    1    2    0    0  0.13813119186E+03 -0.25506647241E+03 -0.17740771133E+04  0.20021640212E+04  0.88157361148E+03 0.  0.
        -24    2    4    4    0    0  0.44906929756E+03 -0.33559400487E+03 -0.85660559070E+03  0.10269520079E+04  0.81059967264E+02 0.  0.
         24    2    4    4    0    0 -0.31093810570E+03  0.80527532462E+02 -0.91747152259E+03  0.97521201337E+03  0.78213088413E+02 0.  0.
         13    1    3    3    0    0  0.88179376930E+01  0.26800757885E+02 -0.35031399641E+03  0.35144833579E+03  0.00000000000E+00 0.  1.
        -13    1    3    3    0    0 -0.14694912955E+03  0.22826571453E+03 -0.19876417891E+04  0.20060955025E+04  0.00000000000E+00 0. -1.
          4    1    6    6  502    0 -0.17957995375E+03  0.31828920847E+02 -0.62242453129E+03  0.64859412358E+03  0.00000000000E+00 0. -1.
          3    1    5    5  503    0  0.40297389984E+03 -0.32307815621E+03 -0.75607099792E+03  0.91564775589E+03  0.00000000000E+00 0. -1.
         -4    1    5    5    0  503  0.46095397720E+02 -0.12515848660E+02 -0.10053459278E+03  0.11130425196E+03  0.00000000000E+00 0.  1.
         -1    1    6    6    0  502 -0.13135815194E+03  0.48698611615E+02 -0.29504699130E+03  0.32661788979E+03  0.00000000000E+00 0.  1.
<mgrwt>
<rscale>  0 0.14485296E+04</rscale>
<asrwt>0</asrwt>
<pdfrwt beam="1">  1        1 0.65167227E+00 0.14485296E+04</pdfrwt>
<pdfrwt beam="2">  1       -1 0.19051923E-01 0.14485296E+04</pdfrwt>
<totfact> 0.12953103E+00</totfact>
</mgrwt>
</event>
<event>
12    1  0.1097093E-007  0.1942281E+04  0.7818608E-02  0.8634092E-01
          4   -1    0    0  501    0  0.00000000000E+00  0.00000000000E+00  0.32565405001E+04  0.32565405001E+04  0.00000000000E+00 0. -1.
         -4   -1    0    0    0  501 -0.00000000000E+00 -0.00000000000E+00 -0.28960605439E+03  0.28960605439E+03  0.00000000000E+00 0.  1.
         23    2    1    2    0    0  0.25050666597E+03 -0.34224033931E+03  0.14007687350E+02  0.43462304787E+03  0.93909205537E+02 0.  0.
        254    2    1    2    0    0 -0.25050666597E+03  0.34224033931E+03  0.29529267584E+04  0.31115235067E+04  0.88426243419E+03 0.  0.
        -24    2    4    4    0    0 -0.41682313803E+03  0.16514135721E+03  0.64548146168E+03  0.78997380564E+03  0.79994374577E+02 0.  0.
         24    2    4    4    0    0  0.16631647205E+03  0.17709898210E+03  0.23074452967E+04  0.23215497010E+04  0.79145427311E+02 0.  0.
         13    1    3    3    0    0  0.49715261531E+01  0.18303131513E+01 -0.99243678163E+01  0.11249853114E+02  0.00000000000E+00 0. -1.
        -13    1    3    3    0    0  0.24553513982E+03 -0.34407065246E+03  0.23932055166E+02  0.42337319476E+03  0.00000000000E+00 0.  1.
          4    1    6    6  502    0  0.16392340782E+03  0.13229271422E+03  0.19011069284E+04  0.19127414355E+04  0.00000000000E+00 0. -1.
          1    1    5    5  503    0 -0.23736105491E+03  0.12626652064E+03  0.42680549422E+03  0.50442683763E+03  0.00000000000E+00 0. -1.
         -2    1    5    5    0  503 -0.17946208311E+03  0.38874836576E+02  0.21867596746E+03  0.28554696801E+03  0.00000000000E+00 0.  1.
         -3    1    6    6    0  502  0.23930642338E+01  0.44806267878E+02  0.40633836833E+03  0.40880826554E+03  0.00000000000E+00 0.  1.
<mgrwt>
<rscale>  0 0.19422810E+04</rscale>
<asrwt>0</asrwt>
<pdfrwt beam="1">  1        4 0.50100621E+00 0.19422810E+04</pdfrwt>
<pdfrwt beam="2">  1       -4 0.44554780E-01 0.19422810E+04</pdfrwt>
<totfact> 0.10955138E-02</totfact>
</mgrwt>
</event>
<event>
12    1  0.1097093E-007  0.2099097E+04  0.7818608E-02  0.8561641E-01
         -2   -1    0    0    0  501 -0.00000000000E+00  0.00000000000E+00  0.32952880766E+03  0.32952880766E+03  0.00000000000E+00 0. -1.
          2   -1    0    0  501    0  0.00000000000E+00 -0.00000000000E+00 -0.33428088054E+04  0.33428088054E+04  0.00000000000E+00 0.  1.
         23    2    1    2    0    0 -0.35463911289E+03  0.71026940312E+03 -0.68612189879E+03  0.10531195005E+04  0.89698923572E+02 0.  0.
        254    2    1    2    0    0  0.35463911289E+03 -0.71026940312E+03 -0.23271580990E+04  0.26192181126E+04  0.90243402996E+03 0.  0.
        -24    2    4    4    0    0  0.51322866839E+03 -0.65708987463E+03 -0.11229162664E+04  0.14008604835E+04  0.79362355282E+02 0.  0.
         24    2    4    4    0    0 -0.15858955550E+03 -0.53179528484E+02 -0.12042418326E+04  0.12183576291E+04  0.78855638898E+02 0.  0.
         11    1    3    3    0    0 -0.27292919853E+03  0.58803627961E+03 -0.59630673979E+03  0.88082844043E+03  0.00000000000E+00 0. -1.
        -11    1    3    3    0    0 -0.81709914357E+02  0.12223312350E+03 -0.89815159005E+02  0.17229106005E+03  0.00000000000E+00 0.  1.
          2    1    6    6  502    0 -0.43909969664E+02 -0.44450861226E+02 -0.60186823246E+03  0.60510274643E+03  0.00000000000E+00 0. -1.
          3    1    5    5  503    0  0.88852409371E+02 -0.13303757700E+03 -0.16952819486E+03  0.23309559497E+03  0.00000000000E+00 0. -1.
         -4    1    5    5    0  503  0.42437625902E+03 -0.52405229764E+03 -0.95338807156E+03  0.11677648885E+04  0.00000000000E+00 0.  1.
         -1    1    6    6    0  502 -0.11467958584E+03 -0.87286672578E+01 -0.60237360009E+03  0.61325488268E+03  0.00000000000E+00 0.  1.
<mgrwt>
<rscale>  0 0.20990968E+04</rscale>
<asrwt>0</asrwt>
<pdfrwt beam="1">  1        2 0.51427831E+00 0.20990968E+04</pdfrwt>
<pdfrwt beam="2">  1       -2 0.50696737E-01 0.20990968E+04</pdfrwt>
<totfact> 0.35470823E+00</totfact>
</mgrwt>
</event>
<event>
12    1  0.1097093E-007  0.1726474E+04  0.7818608E-02  0.8746408E-01
         -2   -1    0    0    0  501 -0.00000000000E+00  0.00000000000E+00  0.61839270419E+03  0.61839270419E+03  0.00000000000E+00 0.  1.
          2   -1    0    0  501    0  0.00000000000E+00 -0.00000000000E+00 -0.12050241229E+04  0.12050241229E+04  0.00000000000E+00 0. -1.
         23    2    1    2    0    0 -0.58962123547E+03  0.13360016939E+03 -0.50345889123E+03  0.79146699897E+03  0.86295705141E+02 0.  0.
        254    2    1    2    0    0  0.58962123547E+03 -0.13360016939E+03 -0.83172527498E+02  0.10319498281E+04  0.83216619246E+03 0.  0.
        -24    2    4    4    0    0 -0.48284159914E+02  0.17056888839E+03 -0.23428031413E+03  0.30463315022E+03  0.80554235370E+02 0.  0.
         24    2    4    4    0    0  0.63790539538E+03 -0.30416905779E+03  0.15110778664E+03  0.72731667791E+03  0.81938254870E+02 0.  0.
         11    1    3    3    0    0 -0.50721460761E+03  0.89927058660E+02 -0.44981077508E+03  0.68387372185E+03  0.00000000000E+00 0. -1.
        -11    1    3    3    0    0 -0.82406627859E+02  0.43673110733E+02 -0.53648116141E+02  0.10759327712E+03  0.00000000000E+00 0.  1.
          4    1    6    6  502    0  0.88684416060E+02 -0.15024702591E+02  0.76693355731E+01  0.90274503865E+02  0.00000000000E+00 0. -1.
          3    1    5    5  503    0 -0.14626661281E+02  0.30938214938E+01 -0.55017972583E+02  0.57013053408E+02  0.00000000000E+00 0. -1.
         -4    1    5    5    0  503 -0.33657498632E+02  0.16747506690E+03 -0.17926234155E+03  0.24762009681E+03  0.00000000000E+00 0.  1.
         -3    1    6    6    0  502  0.54922097932E+03 -0.28914435520E+03  0.14343845106E+03  0.63704217405E+03  0.00000000000E+00 0.  1.
<mgrwt>
<rscale>  0 0.17264740E+04</rscale>
<asrwt>0</asrwt>
<pdfrwt beam="1">  1        2 0.18538833E+00 0.17264740E+04</pdfrwt>
<pdfrwt beam="2">  1       -2 0.95137340E-01 0.17264740E+04</pdfrwt>
<totfact> 0.16593917E+01</totfact>
</mgrwt>
</event>
<event>
12    1  0.1097093E-007  0.1530117E+04  0.7818608E-02  0.8864669E-01
          2   -1    0    0  501    0  0.00000000000E+00  0.00000000000E+00  0.10196039158E+04  0.10196039158E+04  0.00000000000E+00 0. -1.
         -2   -1    0    0    0  501 -0.00000000000E+00 -0.00000000000E+00 -0.57406079279E+03  0.57406079279E+03  0.00000000000E+00 0.  1.
         23    2    1    2    0    0 -0.36460983301E+03  0.31162908384E+03  0.32847727353E+02  0.48935864526E+03  0.91323021614E+02 0.  0.
        254    2    1    2    0    0  0.36460983301E+03 -0.31162908384E+03  0.41269539561E+03  0.11043060633E+04  0.90505324463E+03 0.  0.
        -24    2    4    4    0    0 -0.26523251583E+03 -0.26645225671E+03  0.20170699698E+03  0.43391165558E+03  0.79047578464E+02 0.  0.
         24    2    4    4    0    0  0.62984234883E+03 -0.45176827134E+02  0.21098839863E+03  0.67039440770E+03  0.78550795176E+02 0.  0.
         11    1    3    3    0    0 -0.50094938940E+02  0.60674914862E+02  0.37055555808E+02  0.86971618457E+02  0.00000000000E+00 0. -1.
        -11    1    3    3    0    0 -0.31451489407E+03  0.25095416898E+03 -0.42078284547E+01  0.40238702680E+03  0.00000000000E+00 0.  1.
          2    1    6    6  502    0  0.95227523117E+01  0.85914852328E+01 -0.43442264615E+00  0.12832971329E+02  0.00000000000E+00 0. -1.
          1    1    5    5  503    0 -0.73299019502E+02 -0.71796080894E+02  0.17022225941E+02  0.10400567132E+03  0.00000000000E+00 0. -1.
         -2    1    5    5    0  503 -0.19193349633E+03 -0.19465617582E+03  0.18468477104E+03  0.32990598426E+03  0.00000000000E+00 0.  1.
         -1    1    6    6    0  502  0.62031959652E+03 -0.53768312367E+02  0.21142282127E+03  0.65756143637E+03  0.00000000000E+00 0.  1.
<mgrwt>
<rscale>  0 0.15301172E+04</rscale>
<asrwt>0</asrwt>
<pdfrwt beam="1">  1        2 0.15686214E+00 0.15301172E+04</pdfrwt>
<pdfrwt beam="2">  1       -2 0.88317045E-01 0.15301172E+04</pdfrwt>
<totfact> 0.26044313E+01</totfact>
</mgrwt>
</event>
<event>
12    1  0.1097093E-007  0.1385218E+04  0.7818608E-02  0.8964588E-01
          1   -1    0    0  501    0  0.00000000000E+00  0.00000000000E+00  0.14072608505E+04  0.14072608505E+04  0.00000000000E+00 0. -1.
         -1   -1    0    0    0  501 -0.00000000000E+00 -0.00000000000E+00 -0.34088027061E+03  0.34088027061E+03  0.00000000000E+00 0.  1.
         23    2    1    2    0    0 -0.13426903907E+03 -0.36577516828E+03  0.39198419137E+03  0.55949482428E+03  0.86966680544E+02 0.  0.
        254    2    1    2    0    0  0.13426903907E+03  0.36577516828E+03  0.67439638855E+03  0.11886462969E+04  0.89791418385E+03 0.  0.
        -24    2    4    4    0    0 -0.27324985837E+03  0.45866217414E+03  0.27837678249E+03  0.60735832858E+03  0.79712177123E+02 0.  0.
         24    2    4    4    0    0  0.40751889744E+03 -0.92887005858E+02  0.39601960606E+03  0.58128796828E+03  0.79777979746E+02 0.  0.
         13    1    3    3    0    0 -0.18070168698E+02 -0.73046957063E+01  0.36856413047E+02  0.41692742280E+02  0.00000000000E+00 0.  1.
        -13    1    3    3    0    0 -0.11619887037E+03 -0.35847047257E+03  0.35512777832E+03  0.51780208200E+03  0.00000000000E+00 0. -1.
          4    1    6    6  502    0  0.36691528672E+03 -0.95233335867E+02  0.38226978267E+03  0.53835527548E+03  0.00000000000E+00 0. -1.
          1    1    5    5  503    0 -0.22824980785E+03  0.42356914867E+03  0.26261142088E+03  0.54815468334E+03  0.00000000000E+00 0. -1.
         -2    1    5    5    0  503 -0.45000050522E+02  0.35093025467E+02  0.15765361615E+02  0.59203645245E+02  0.00000000000E+00 0.  1.
         -3    1    6    6    0  502  0.40603610717E+02  0.23463300094E+01  0.13749823387E+02  0.42932692798E+02  0.00000000000E+00 0.  1.
<mgrwt>
<rscale>  0 0.13852183E+04</rscale>
<asrwt>0</asrwt>
<pdfrwt beam="1">  1        1 0.21650167E+00 0.13852183E+04</pdfrwt>
<pdfrwt beam="2">  1       -1 0.52443119E-01 0.13852183E+04</pdfrwt>
<totfact> 0.27150206E+01</totfact>
</mgrwt>
</event>
<event>
12    1  0.1097093E-007  0.2071940E+04  0.7818608E-02  0.8573706E-01
         -2   -1    0    0    0  501 -0.00000000000E+00  0.00000000000E+00  0.19065493347E+04  0.19065493347E+04  0.00000000000E+00 0. -1.
          2   -1    0    0  501    0  0.00000000000E+00 -0.00000000000E+00 -0.56291963949E+03  0.56291963949E+03  0.00000000000E+00 0.  1.
         23    2    1    2    0    0  0.65260947178E+03 -0.42460187463E+03  0.91565408229E+03  0.12052488093E+04  0.89534458538E+02 0.  0.
        254    2    1    2    0    0 -0.65260947178E+03  0.42460187463E+03  0.42797561293E+03  0.12642201649E+04  0.89939069681E+03 0.  0.
        -24    2    4    4    0    0 -0.18680124056E+02 -0.24246206904E+03  0.15958519519E+03  0.30223841458E+03  0.82120781558E+02 0.  0.
         24    2    4    4    0    0 -0.63392934773E+03  0.66706394367E+03  0.26839041773E+03  0.96198175033E+03  0.80837793090E+02 0.  0.
         13    1    3    3    0    0  0.32609136640E+03 -0.22844633888E+03  0.40228873305E+03  0.56600312166E+03  0.00000000000E+00 0. -1.
        -13    1    3    3    0    0  0.32651810539E+03 -0.19615553575E+03  0.51336534923E+03  0.63924568762E+03  0.00000000000E+00 0.  1.
          4    1    6    6  502    0 -0.56729919901E+03  0.59928989977E+03  0.26558784548E+03  0.86689888039E+03  0.00000000000E+00 0. -1.
          1    1    5    5  503    0  0.73450268968E+01 -0.96715029531E+02  0.20570686736E+02  0.99150892634E+02  0.00000000000E+00 0. -1.
         -2    1    5    5    0  503 -0.26025150953E+02 -0.14574703951E+03  0.13901450846E+03  0.20308752195E+03  0.00000000000E+00 0.  1.
         -3    1    6    6    0  502 -0.66630148722E+02  0.67774043900E+02  0.28025722527E+01  0.95082869942E+02  0.00000000000E+00 0.  1.
<mgrwt>
<rscale>  0 0.20719402E+04</rscale>
<asrwt>0</asrwt>
<pdfrwt beam="1">  1        2 0.86603023E-01 0.20719402E+04</pdfrwt>
<pdfrwt beam="2">  1       -2 0.29331528E+00 0.20719402E+04</pdfrwt>
<totfact> 0.17285122E+00</totfact>
</mgrwt>
</event>
<event>
12    1  0.1097093E-007  0.2365837E+04  0.7818608E-02  0.8452406E-01
          1   -1    0    0  501    0  0.00000000000E+00  0.00000000000E+00  0.15411544281E+04  0.15411544281E+04  0.00000000000E+00 0. -1.
         -1   -1    0    0    0  501 -0.00000000000E+00 -0.00000000000E+00 -0.90795310215E+03  0.90795310215E+03  0.00000000000E+00 0.  1.
         23    2    1    2    0    0 -0.26198847978E+03  0.15436458168E+03 -0.72519757486E+03  0.79149629191E+03  0.89935921165E+02 0.  0.
        254    2    1    2    0    0  0.26198847978E+03 -0.15436458168E+03  0.13583989008E+04  0.16576112383E+04  0.89997836425E+03 0.  0.
        -24    2    4    4    0    0  0.52227336608E+03 -0.32601311501E+03  0.79561203151E+03  0.10089807277E+04  0.77392404012E+02 0.  0.
         24    2    4    4    0    0 -0.26028488630E+03  0.17164853333E+03  0.56278686930E+03  0.64863051059E+03  0.82347058157E+02 0.  0.
         11    1    3    3    0    0 -0.13936021138E+03  0.35959839521E+02 -0.38402472492E+03  0.41010897079E+03  0.00000000000E+00 0.  1.
        -11    1    3    3    0    0 -0.12262826840E+03  0.11840474216E+03 -0.34117284994E+03  0.38138732112E+03  0.00000000000E+00 0. -1.
          2    1    6    6  502    0 -0.25827256215E+03  0.15923638083E+03  0.55803538720E+03  0.63518850329E+03  0.00000000000E+00 0. -1.
          1    1    5    5  503    0  0.29188762703E+03 -0.13721566838E+03  0.40350450212E+03  0.51656791393E+03  0.00000000000E+00 0. -1.
         -4    1    5    5    0  503  0.23038573904E+03 -0.18879744662E+03  0.39210752939E+03  0.49241281381E+03  0.00000000000E+00 0.  1.
         -1    1    6    6    0  502 -0.20123241421E+01  0.12412152502E+02  0.47514820947E+01  0.13442007301E+02  0.00000000000E+00 0.  1.
<mgrwt>
<rscale>  0 0.23658368E+04</rscale>
<asrwt>0</asrwt>
<pdfrwt beam="1">  1        1 0.23710068E+00 0.23658368E+04</pdfrwt>
<pdfrwt beam="2">  1       -1 0.13968509E+00 0.23658368E+04</pdfrwt>
<totfact> 0.23216029E+00</totfact>
</mgrwt>
</event>
<event>
12    1  0.1097093E-007  0.1601397E+04  0.7818608E-02  0.8819690E-01
         -2   -1    0    0    0  501 -0.00000000000E+00  0.00000000000E+00  0.41714189765E+03  0.41714189765E+03  0.00000000000E+00 0.  1.
          2   -1    0    0  501    0  0.00000000000E+00 -0.00000000000E+00 -0.15369313293E+04  0.15369313293E+04  0.00000000000E+00 0. -1.
         23    2    1    2    0    0  0.29051537178E+03  0.25070114630E+03  0.84655527670E+02  0.39887218719E+03  0.68426729768E+02 0.  0.
        254    2    1    2    0    0 -0.29051537178E+03 -0.25070114630E+03 -0.12044449594E+04  0.15552010398E+04  0.90593176789E+03 0.  0.
        -24    2    4    4    0    0 -0.19565046355E+03  0.22958040933E+03 -0.94528353369E+03  0.99551988857E+03  0.80700813131E+02 0.  0.
         24    2    4    4    0    0 -0.94864908234E+02 -0.48028155564E+03 -0.25916142568E+03  0.55968115124E+03  0.80053875551E+02 0.  0.
         13    1    3    3    0    0  0.24958933749E+03  0.18104964517E+03  0.76411230707E+02  0.31766725923E+03  0.00000000000E+00 0.  1.
        -13    1    3    3    0    0  0.40926034290E+02  0.69651501131E+02  0.82442969627E+01  0.81204927959E+02  0.00000000000E+00 0. -1.
          4    1    6    6  502    0 -0.87532572967E+02 -0.35025853000E+03 -0.22367208326E+03  0.42470247232E+03  0.00000000000E+00 0. -1.
          3    1    5    5  503    0 -0.18053846472E+03  0.20521898987E+03 -0.90941610099E+03  0.94960339921E+03  0.00000000000E+00 0. -1.
         -4    1    5    5    0  503 -0.15111998825E+02  0.24361419468E+02 -0.35867432695E+02  0.45916489359E+02  0.00000000000E+00 0.  1.
         -3    1    6    6    0  502 -0.73323352672E+01 -0.13002302564E+03 -0.35489342428E+02  0.13497867892E+03  0.00000000000E+00 0.  1.
<mgrwt>
<rscale>  0 0.16013975E+04</rscale>
<asrwt>0</asrwt>
<pdfrwt beam="1">  1        2 0.23645097E+00 0.16013975E+04</pdfrwt>
<pdfrwt beam="2">  1       -2 0.64175678E-01 0.16013975E+04</pdfrwt>
<totfact> 0.26028648E+01</totfact>
</mgrwt>
</event>
<event>
12    1  0.1097093E-007  0.2393949E+04  0.7818608E-02  0.8441772E-01
          2   -1    0    0  501    0  0.00000000000E+00  0.00000000000E+00  0.19379264353E+04  0.19379264353E+04  0.00000000000E+00 0. -1.
         -2   -1    0    0    0  501 -0.00000000000E+00 -0.00000000000E+00 -0.73932026494E+03  0.73932026494E+03  0.00000000000E+00 0.  1.
         23    2    1    2    0    0 -0.78762633239E+03 -0.49172454601E+03  0.99907415058E+03  0.13669718461E+04  0.91184434890E+02 0.  0.
        254    2    1    2    0    0  0.78762633239E+03  0.49172454601E+03  0.19953201983E+03  0.13102748541E+04  0.90269535162E+03 0.  0.
        -24    2    4    4    0    0  0.26725235560E+03  0.61098276331E+03  0.33887848902E+03  0.75246408638E+03  0.81485043580E+02 0.  0.
         24    2    4    4    0    0  0.52037397678E+03 -0.11925821730E+03 -0.13934646919E+03  0.55781076776E+03  0.81998878374E+02 0.  0.
         13    1    3    3    0    0 -0.75482436196E+02 -0.77245259277E+02  0.96271746520E+02  0.14468129607E+03  0.00000000000E+00 0.  1.
        -13    1    3    3    0    0 -0.71214389619E+03 -0.41447928674E+03  0.90280240406E+03  0.12222905501E+04  0.00000000000E+00 0. -1.
          4    1    6    6  502    0  0.41618272012E+03 -0.60642872942E+02 -0.10873672612E+03  0.43440682565E+03  0.00000000000E+00 0. -1.
          1    1    5    5  503    0  0.10214163962E+03  0.32727408150E+03  0.19072587222E+03  0.39232333260E+03  0.00000000000E+00 0. -1.
         -2    1    5    5    0  503  0.16511071599E+03  0.28370868181E+03  0.14815261679E+03  0.36014075377E+03  0.00000000000E+00 0.  1.
         -3    1    6    6    0  502  0.10419125666E+03 -0.58615344354E+02 -0.30609743061E+02  0.12340394211E+03  0.00000000000E+00 0.  1.
<mgrwt>
<rscale>  0 0.23939493E+04</rscale>
<asrwt>0</asrwt>
<pdfrwt beam="1">  1        2 0.29814253E+00 0.23939493E+04</pdfrwt>
<pdfrwt beam="2">  1       -2 0.11374158E+00 0.23939493E+04</pdfrwt>
<totfact> 0.39420472E+00</totfact>
</mgrwt>
</event>
<event>
12    1  0.1097093E-007  0.1729375E+04  0.7818608E-02  0.8744786E-01
         -2   -1    0    0    0  501 -0.00000000000E+00  0.00000000000E+00  0.90919095032E+03  0.90919095032E+03  0.00000000000E+00 0.  1.
          2   -1    0    0  501    0  0.00000000000E+00 -0.00000000000E+00 -0.82236195828E+03  0.82236195828E+03  0.00000000000E+00 0. -1.
         23    2    1    2    0    0  0.56515694938E+03  0.93281432815E+02 -0.20929753584E+03  0.61674338947E+03  0.91995362975E+02 0.  0.
        254    2    1    2    0    0 -0.56515694938E+03 -0.93281432815E+02  0.29612652788E+03  0.11148095191E+04  0.90939844968E+03 0.  0.
        -24    2    4    4    0    0 -0.30663437564E+03 -0.49488380632E+03  0.19645301996E+03  0.61968557318E+03  0.80509617248E+02 0.  0.
         24    2    4    4    0    0 -0.25852257374E+03  0.40160237351E+03  0.99673507913E+02  0.49512394595E+03  0.84229010049E+02 0.  0.
         11    1    3    3    0    0  0.56100814914E+03  0.91230189048E+02 -0.21647261098E+03  0.60820513160E+03  0.00000000000E+00 0. -1.
        -11    1    3    3    0    0  0.41488002361E+01  0.20512437664E+01  0.71750751326E+01  0.85382578754E+01  0.00000000000E+00 0.  1.
          2    1    6    6  502    0 -0.61109831298E+02  0.10441701604E+03 -0.11232356311E+02  0.12150510503E+03  0.00000000000E+00 0. -1.
          3    1    5    5  503    0 -0.10211727637E+03 -0.18778558335E+03  0.11140141663E+03  0.24104281586E+03  0.00000000000E+00 0. -1.
         -4    1    5    5    0  503 -0.20451709927E+03 -0.30709822296E+03  0.85051603338E+02  0.37864275732E+03  0.00000000000E+00 0.  1.
         -1    1    6    6    0  502 -0.19741274245E+03  0.29718535746E+03  0.11090586422E+03  0.37361884092E+03  0.00000000000E+00 0.  1.
<mgrwt>
<rscale>  0 0.17293745E+04</rscale>
<asrwt>0</asrwt>
<pdfrwt beam="1">  1        2 0.12651723E+00 0.17293745E+04</pdfrwt>
<pdfrwt beam="2">  1       -2 0.13987553E+00 0.17293745E+04</pdfrwt>
<totfact> 0.11342131E+01</totfact>
</mgrwt>
</event>
<event>
12    1  0.1097093E-007  0.1523044E+04  0.7818608E-02  0.8869272E-01
          1   -1    0    0  501    0  0.00000000000E+00  0.00000000000E+00  0.28118143062E+04  0.28118143062E+04  0.00000000000E+00 0. -1.
         -1   -1    0    0    0  501 -0.00000000000E+00 -0.00000000000E+00 -0.20624242324E+03  0.20624242324E+03  0.00000000000E+00 0.  1.
         23    2    1    2    0    0  0.35778904360E+03 -0.11883477079E+03  0.22527967213E+03  0.44856148755E+03  0.91223763193E+02 0.  0.
        254    2    1    2    0    0 -0.35778904360E+03  0.11883477079E+03  0.23802922108E+04  0.25694952419E+04  0.89128002708E+03 0.  0.
        -24    2    4    4    0    0  0.25121294149E+03 -0.12325920594E+03  0.96042536057E+03  0.10036025578E+04  0.80625349598E+02 0.  0.
         24    2    4    4    0    0 -0.60900198510E+03  0.24209397673E+03  0.14198668503E+04  0.15658926841E+04  0.80654287915E+02 0.  0.
         11    1    3    3    0    0  0.33669751942E+03 -0.11307252347E+03  0.23366194049E+03  0.42514528997E+03  0.00000000000E+00 0.  1.
        -11    1    3    3    0    0  0.21091524181E+02 -0.57622473262E+01 -0.83822683623E+01  0.23416197587E+02  0.00000000000E+00 0. -1.
          2    1    6    6  502    0 -0.54657933551E+03  0.23770002359E+03  0.13150555270E+04  0.14438217724E+04  0.00000000000E+00 0. -1.
          3    1    5    5  503    0  0.22356496388E+03 -0.12727207540E+03  0.78801618708E+03  0.82894450077E+03  0.00000000000E+00 0. -1.
         -4    1    5    5    0  503  0.27647977612E+02  0.40128694572E+01  0.17240917349E+03  0.17465805705E+03  0.00000000000E+00 0.  1.
         -1    1    6    6    0  502 -0.62422649586E+02  0.43939531386E+01  0.10481132322E+03  0.12207091168E+03  0.00000000000E+00 0.  1.
<mgrwt>
<rscale>  0 0.15230435E+04</rscale>
<asrwt>0</asrwt>
<pdfrwt beam="1">  1        1 0.43258679E+00 0.15230435E+04</pdfrwt>
<pdfrwt beam="2">  1       -1 0.31729606E-01 0.15230435E+04</pdfrwt>
<totfact> 0.73268037E+00</totfact>
</mgrwt>
</event>
<event>
12    1  0.1097093E-007  0.1504087E+04  0.7818608E-02  0.8881740E-01
         -2   -1    0    0    0  501 -0.00000000000E+00  0.00000000000E+00  0.49662925032E+03  0.49662925032E+03  0.00000000000E+00 0.  1.
          2   -1    0    0  501    0  0.00000000000E+00 -0.00000000000E+00 -0.11388155372E+04  0.11388155372E+04  0.00000000000E+00 0. -1.
         23    2    1    2    0    0 -0.10493915685E+03  0.12430587537E+03  0.27735549319E+03  0.33391136271E+03  0.90036388504E+02 0.  0.
        254    2    1    2    0    0  0.10493915685E+03 -0.12430587537E+03 -0.91954178012E+03  0.13015334249E+04  0.90662450515E+03 0.  0.
        -24    2    4    4    0    0 -0.31364838575E+03  0.43861045259E+02 -0.74141025791E+03  0.81025412599E+03  0.80768044265E+02 0.  0.
         24    2    4    4    0    0  0.41858754260E+03 -0.16816692062E+03 -0.17813152221E+03  0.49127929886E+03  0.78287076069E+02 0.  0.
         13    1    3    3    0    0 -0.10124741991E+03  0.13474540181E+03  0.22920230931E+03  0.28450142696E+03  0.00000000000E+00 0.  1.
        -13    1    3    3    0    0 -0.36917369421E+01 -0.10439526440E+02  0.48153183876E+02  0.49409935755E+02  0.00000000000E+00 0. -1.
          4    1    6    6  502    0  0.19947247843E+03 -0.46901237682E+02 -0.54739201259E+02  0.21209756222E+03  0.00000000000E+00 0. -1.
          3    1    5    5  503    0 -0.16960356516E+03 -0.16963934270E+02 -0.38148552028E+03  0.41783291704E+03  0.00000000000E+00 0. -1.
         -4    1    5    5    0  503 -0.14404482059E+03  0.60824979529E+02 -0.35992473763E+03  0.39242120895E+03  0.00000000000E+00 0.  1.
         -3    1    6    6    0  502  0.21911506417E+03 -0.12126568294E+03 -0.12339232095E+03  0.27918173664E+03  0.00000000000E+00 0.  1.
<mgrwt>
<rscale>  0 0.15040866E+04</rscale>
<asrwt>0</asrwt>
<pdfrwt beam="1">  1        2 0.17520239E+00 0.15040866E+04</pdfrwt>
<pdfrwt beam="2">  1       -2 0.76404500E-01 0.15040866E+04</pdfrwt>
<totfact> 0.30527230E+01</totfact>
</mgrwt>
</event>
<event>
12    1  0.1097093E-007  0.1351802E+04  0.7818608E-02  0.8989465E-01
          1   -1    0    0  501    0  0.00000000000E+00  0.00000000000E+00  0.75990750516E+03  0.75990750516E+03  0.00000000000E+00 0. -1.
         -1   -1    0    0    0  501 -0.00000000000E+00 -0.00000000000E+00 -0.60118155238E+03  0.60118155238E+03  0.00000000000E+00 0.  1.
         23    2    1    2    0    0 -0.30748393843E+03 -0.86810960570E+02 -0.14297727879E+03  0.36122187380E+03  0.89197671477E+02 0.  0.
        254    2    1    2    0    0  0.30748393843E+03  0.86810960570E+02  0.30170323156E+03  0.99986718373E+03  0.89812417288E+03 0.  0.
        -24    2    4    4    0    0 -0.22583898902E+03  0.23339573609E+03 -0.52383123517E+02  0.33840934192E+03  0.79372995921E+02 0.  0.
         24    2    4    4    0    0  0.53332292745E+03 -0.14658477552E+03  0.35408635508E+03  0.66145784181E+03  0.78923306345E+02 0.  0.
         13    1    3    3    0    0 -0.90108479436E+02 -0.46853129845E+02 -0.71703156766E+01  0.10181437654E+03  0.00000000000E+00 0. -1.
        -13    1    3    3    0    0 -0.21737545899E+03 -0.39957830725E+02 -0.13580696311E+03  0.25940749726E+03  0.00000000000E+00 0.  1.
          4    1    6    6  502    0  0.33339050542E+03 -0.10474658941E+03  0.26519666408E+03  0.43869163172E+03  0.00000000000E+00 0. -1.
          3    1    5    5  503    0 -0.20861398593E+03  0.23022328555E+03 -0.64247708904E+02  0.31725435290E+03  0.00000000000E+00 0. -1.
         -4    1    5    5    0  503 -0.17225003093E+02  0.31724505399E+01  0.11864585387E+02  0.21154989019E+02  0.00000000000E+00 0.  1.
         -3    1    6    6    0  502  0.19993242203E+03 -0.41838186116E+02  0.88889690997E+02  0.22276621010E+03  0.00000000000E+00 0.  1.
<mgrwt>
<rscale>  0 0.13518023E+04</rscale>
<asrwt>0</asrwt>
<pdfrwt beam="1">  1        1 0.11690885E+00 0.13518023E+04</pdfrwt>
<pdfrwt beam="2">  1       -1 0.92489469E-01 0.13518023E+04</pdfrwt>
<totfact> 0.26710409E+01</totfact>
</mgrwt>
</event>
<event>
12    1  0.1097093E-007  0.2983180E+04  0.7818608E-02  0.8248550E-01
          2   -1    0    0  501    0  0.00000000000E+00  0.00000000000E+00  0.25978116709E+04  0.25978116709E+04  0.00000000000E+00 0. -1.
         -2   -1    0    0    0  501 -0.00000000000E+00 -0.00000000000E+00 -0.85642854900E+03  0.85642854900E+03  0.00000000000E+00 0.  1.
         23    2    1    2    0    0 -0.12058155067E+04  0.57107297515E+03  0.10499827130E+04  0.17004041526E+04  0.93782756232E+02 0.  0.
        254    2    1    2    0    0  0.12058155067E+04 -0.57107297515E+03  0.69140040893E+03  0.17538360673E+04  0.90431800075E+03 0.  0.
        -24    2    4    4    0    0  0.35163868957E+03 -0.64539544425E+03  0.21498080182E+03  0.76951511554E+03  0.75840097731E+02 0.  0.
         24    2    4    4    0    0  0.85417681713E+03  0.74322469105E+02  0.47641960711E+03  0.98432095180E+03  0.82281405992E+02 0.  0.
         13    1    3    3    0    0 -0.66208844762E+02  0.55355705974E+02  0.77336151103E+02  0.11588246449E+03  0.00000000000E+00 0.  1.
        -13    1    3    3    0    0 -0.11396066619E+04  0.51571726917E+03  0.97264656187E+03  0.15845216881E+04  0.00000000000E+00 0. -1.
          2    1    6    6  502    0  0.16301825805E+03 -0.26386283704E+01  0.59889715121E+02  0.17369137225E+03  0.00000000000E+00 0. -1.
          3    1    5    5  503    0  0.23172788825E+03 -0.38720236258E+03  0.16508610531E+03  0.48049652022E+03  0.00000000000E+00 0. -1.
         -4    1    5    5    0  503  0.11991080132E+03 -0.25819308168E+03  0.49894696510E+02  0.28901859532E+03  0.00000000000E+00 0.  1.
         -1    1    6    6    0  502  0.69115855908E+03  0.76961097476E+02  0.41652989199E+03  0.81062957955E+03  0.00000000000E+00 0.  1.
<mgrwt>
<rscale>  0 0.29831796E+04</rscale>
<asrwt>0</asrwt>
<pdfrwt beam="1">  1        2 0.39966333E+00 0.29831796E+04</pdfrwt>
<pdfrwt beam="2">  1       -2 0.13175824E+00 0.29831796E+04</pdfrwt>
<totfact> 0.10978867E+00</totfact>
</mgrwt>
</event>
<event>
12    1  0.1097093E-007  0.2107955E+04  0.7818608E-02  0.8557747E-01
         -2   -1    0    0    0  501 -0.00000000000E+00  0.00000000000E+00  0.48528667037E+03  0.48528667037E+03  0.00000000000E+00 0.  1.
          2   -1    0    0  501    0  0.00000000000E+00 -0.00000000000E+00 -0.22890981865E+04  0.22890981865E+04  0.00000000000E+00 0. -1.
         23    2    1    2    0    0 -0.49800012070E+03 -0.21594553915E+03  0.13762552041E+03  0.56728855099E+03  0.90768497397E+02 0.  0.
        254    2    1    2    0    0  0.49800012070E+03  0.21594553915E+03 -0.19414370366E+04  0.22070963059E+04  0.89858763649E+03 0.  0.
        -24    2    4    4    0    0  0.35700081106E+03 -0.51440999348E+02 -0.16668876085E+03  0.40503779090E+03  0.78579345571E+02 0.  0.
         24    2    4    4    0    0  0.14099930964E+03  0.26738653849E+03 -0.17747482757E+04  0.18020585150E+04  0.79417145743E+02 0.  0.
         11    1    3    3    0    0 -0.71515659599E+02  0.53126009265E+00  0.95082836995E+01  0.72146928306E+02  0.00000000000E+00 0. -1.
        -11    1    3    3    0    0 -0.42648446110E+03 -0.21647679924E+03  0.12811723671E+03  0.49514162268E+03  0.00000000000E+00 0.  1.
          2    1    6    6  502    0  0.65714008706E+02  0.10545412395E+03 -0.51844623565E+03  0.53312794192E+03  0.00000000000E+00 0. -1.
          1    1    5    5  503    0  0.16994501777E+03 -0.56487443915E+02 -0.56052559187E+02  0.18765401615E+03  0.00000000000E+00 0. -1.
         -2    1    5    5    0  503  0.18705579328E+03  0.50464445674E+01 -0.11063620166E+03  0.21738377475E+03  0.00000000000E+00 0.  1.
         -1    1    6    6    0  502  0.75285300935E+02  0.16193241455E+03 -0.12563020401E+04  0.12689305731E+04  0.00000000000E+00 0.  1.
<mgrwt>
<rscale>  0 0.21079553E+04</rscale>
<asrwt>0</asrwt>
<pdfrwt beam="1">  1        2 0.35216895E+00 0.21079553E+04</pdfrwt>
<pdfrwt beam="2">  1       -2 0.74659489E-01 0.21079553E+04</pdfrwt>
<totfact> 0.68313173E+00</totfact>
</mgrwt>
</event>
<event>
12    1  0.1097093E-007  0.1464724E+04  0.7818608E-02  0.8908256E-01
          1   -1    0    0  501    0  0.00000000000E+00  0.00000000000E+00  0.51020352410E+03  0.51020352410E+03  0.00000000000E+00 0. -1.
         -1   -1    0    0    0  501 -0.00000000000E+00 -0.00000000000E+00 -0.10512548521E+04  0.10512548521E+04  0.00000000000E+00 0.  1.
         23    2    1    2    0    0  0.16801773285E+03 -0.30049579717E+03 -0.36265286067E+03  0.50924480701E+03  0.96361265309E+02 0.  0.
        254    2    1    2    0    0 -0.16801773285E+03  0.30049579717E+03 -0.17839846735E+03  0.10522135692E+04  0.97816138720E+03 0.  0.
        -24    2    4    4    0    0 -0.21034225184E+03  0.64086241763E+03 -0.16935044821E+03  0.70006992365E+03  0.80435206598E+02 0.  0.
         24    2    4    4    0    0  0.42324518988E+02 -0.34036662046E+03 -0.90480191455E+01  0.35214364556E+03  0.79262091980E+02 0.  0.
         11    1    3    3    0    0  0.10117670759E+01  0.69008468158E+01 -0.32552909817E+01  0.76969005948E+01  0.00000000000E+00 0. -1.
        -11    1    3    3    0    0  0.16700596578E+03 -0.30739664398E+03 -0.35939756968E+03  0.50154790642E+03  0.00000000000E+00 0.  1.
          4    1    6    6  502    0  0.30501516095E+02 -0.43126530627E+02 -0.13929431903E+02  0.54628465118E+02  0.00000000000E+00 0. -1.
          1    1    5    5  503    0 -0.54211013340E+02  0.29019156936E+03 -0.82215664013E+02  0.30644640038E+03  0.00000000000E+00 0. -1.
         -2    1    5    5    0  503 -0.15613123850E+03  0.35067084827E+03 -0.87134784194E+02  0.39362352328E+03  0.00000000000E+00 0.  1.
         -3    1    6    6    0  502  0.11823002893E+02 -0.29724008983E+03  0.48814127572E+01  0.29751518044E+03  0.00000000000E+00 0.  1.
<mgrwt>
<rscale>  0 0.14647238E+04</rscale>
<asrwt>0</asrwt>
<pdfrwt beam="1">  1        1 0.78492851E-01 0.14647238E+04</pdfrwt>
<pdfrwt beam="2">  1       -1 0.16173151E+00 0.14647238E+04</pdfrwt>
<totfact> 0.11854988E+01</totfact>
</mgrwt>
</event>
<event>
12    1  0.1097093E-007  0.1326536E+04  0.7818608E-02  0.9008783E-01
          2   -1    0    0  501    0  0.00000000000E+00  0.00000000000E+00  0.35418578387E+04  0.35418578387E+04  0.00000000000E+00 0. -1.
         -2   -1    0    0    0  501 -0.00000000000E+00 -0.00000000000E+00 -0.12420717510E+03  0.12420717510E+03  0.00000000000E+00 0.  1.
         23    2    1    2    0    0  0.24737303551E+03  0.45896499466E+02  0.14470566622E+04  0.14715865566E+04  0.91071963323E+02 0.  0.
        254    2    1    2    0    0 -0.24737303551E+03 -0.45896499466E+02  0.19705940014E+04  0.21944784572E+04  0.93230631959E+03 0.  0.
        -24    2    4    4    0    0 -0.37589567687E+03 -0.40229895731E+03  0.13845510767E+04  0.14921091183E+04  0.79157602955E+02 0.  0.
         24    2    4    4    0    0  0.12852264136E+03  0.35640245784E+03  0.58604292473E+03  0.70236933892E+03  0.79596465582E+02 0.  0.
         11    1    3    3    0    0  0.23866126849E+03  0.57021790052E+02  0.14201737448E+04  0.14412162055E+04  0.00000000000E+00 0. -1.
        -11    1    3    3    0    0  0.87117670255E+01 -0.11125290585E+02  0.26882917378E+02  0.30370351036E+02  0.00000000000E+00 0.  1.
          4    1    6    6  502    0  0.13267561546E+03  0.35427586080E+03  0.55932521531E+03  0.67524728875E+03  0.00000000000E+00 0. -1.
          3    1    5    5  503    0 -0.31759538957E+03 -0.34339296968E+03  0.12428033234E+04  0.13279102620E+04  0.00000000000E+00 0. -1.
         -4    1    5    5    0  503 -0.58300287301E+02 -0.58905987628E+02  0.14174775324E+03  0.16419885635E+03  0.00000000000E+00 0.  1.
         -3    1    6    6    0  502 -0.41529741039E+01  0.21265970444E+01  0.26717709416E+02  0.27122050169E+02  0.00000000000E+00 0.  1.
<mgrwt>
<rscale>  0 0.13265356E+04</rscale>
<asrwt>0</asrwt>
<pdfrwt beam="1">  1        2 0.54490113E+00 0.13265356E+04</pdfrwt>
<pdfrwt beam="2">  1       -2 0.19108799E-01 0.13265356E+04</pdfrwt>
<totfact> 0.17568587E+01</totfact>
</mgrwt>
</event>
<event>
12    1  0.1097093E-007  0.5062503E+04  0.7818608E-02  0.7818937E-01
          1   -1    0    0  501    0  0.00000000000E+00  0.00000000000E+00  0.32926992637E+04  0.32926992637E+04  0.00000000000E+00 0. -1.
         -1   -1    0    0    0  501 -0.00000000000E+00 -0.00000000000E+00 -0.19458909969E+04  0.19458909969E+04  0.00000000000E+00 0.  1.
         23    2    1    2    0    0  0.79112262475E+03 -0.16632727563E+04 -0.10196284442E+04  0.21072111457E+04  0.91353046051E+02 0.  0.
        254    2    1    2    0    0 -0.79112262475E+03  0.16632727563E+04  0.23664367110E+04  0.31313791148E+04  0.90175450341E+03 0.  0.
        -24    2    4    4    0    0 -0.81600063824E+03  0.17136280831E+04  0.20231623688E+04  0.27752874246E+04  0.81584741387E+02 0.  0.
         24    2    4    4    0    0  0.24878013485E+02 -0.50355326799E+02  0.34327434221E+03  0.35609169021E+03  0.76219704310E+02 0.  0.
         11    1    3    3    0    0  0.43679685467E+03 -0.82205192667E+03 -0.49266018966E+03  0.10532212136E+04  0.00000000000E+00 0. -1.
        -11    1    3    3    0    0  0.35432577008E+03 -0.84122082961E+03 -0.52696825456E+03  0.10539899320E+04  0.00000000000E+00 0.  1.
          4    1    6    6  502    0 -0.92118225784E+00  0.84386958602E+01  0.18631345397E+03  0.18650673794E+03  0.00000000000E+00 0. -1.
          1    1    5    5  503    0 -0.75556084460E+03  0.15368327149E+04  0.18071870610E+04  0.24897092314E+04  0.00000000000E+00 0. -1.
         -2    1    5    5    0  503 -0.60439793640E+02  0.17679536817E+03  0.21597530784E+03  0.28557819325E+03  0.00000000000E+00 0.  1.
         -3    1    6    6    0  502  0.25799195743E+02 -0.58794022659E+02  0.15696088824E+03  0.16958495228E+03  0.00000000000E+00 0.  1.
<mgrwt>
<rscale>  0 0.50625029E+04</rscale>
<asrwt>0</asrwt>
<pdfrwt beam="1">  1        1 0.50656912E+00 0.50625029E+04</pdfrwt>
<pdfrwt beam="2">  1       -1 0.29936785E+00 0.50625029E+04</pdfrwt>
<totfact> 0.86586868E-03</totfact>
</mgrwt>
</event>
<event>
12    1  0.1097093E-007  0.2265736E+04  0.7818608E-02  0.8491555E-01
         -2   -1    0    0    0  501 -0.00000000000E+00  0.00000000000E+00  0.84134429744E+03  0.84134429744E+03  0.00000000000E+00 0.  1.
          2   -1    0    0  501    0  0.00000000000E+00 -0.00000000000E+00 -0.15254045605E+04  0.15254045605E+04  0.00000000000E+00 0. -1.
         23    2    1    2    0    0 -0.78817710100E+03 -0.37855777610E+03 -0.68184941548E+03  0.11124859074E+04  0.90427519617E+02 0.  0.
        254    2    1    2    0    0  0.78817710100E+03  0.37855777610E+03 -0.22108476062E+01  0.12542629506E+04  0.89924497719E+03 0.  0.
        -24    2    4    4    0    0  0.86172899102E+03  0.23483578847E+03 -0.26585406635E+03  0.93519221948E+03  0.78621887990E+02 0.  0.
         24    2    4    4    0    0 -0.73551890018E+02  0.14372198763E+03  0.26364321874E+03  0.31907073112E+03  0.78946148824E+02 0.  0.
         11    1    3    3    0    0 -0.22686969583E+03 -0.99734227813E+02 -0.14416755616E+03  0.28670727115E+03  0.00000000000E+00 0. -1.
        -11    1    3    3    0    0 -0.56130740518E+03 -0.27882354829E+03 -0.53768185932E+03  0.82577863622E+03  0.00000000000E+00 0.  1.
          4    1    6    6  502    0 -0.61363547852E+02  0.14992346325E+03  0.21915346634E+03  0.27252664392E+03  0.00000000000E+00 0. -1.
          3    1    5    5  503    0  0.81023407884E+02  0.66136723021E+01 -0.68967613322E+01  0.81584916518E+02  0.00000000000E+00 0. -1.
         -4    1    5    5    0  503  0.78070558314E+03  0.22822211617E+03 -0.25895730501E+03  0.85360730296E+03  0.00000000000E+00 0.  1.
         -3    1    6    6    0  502 -0.12188342167E+02 -0.62014756151E+01  0.44489752396E+02  0.46544087195E+02  0.00000000000E+00 0.  1.
<mgrwt>
<rscale>  0 0.22657365E+04</rscale>
<asrwt>0</asrwt>
<pdfrwt beam="1">  1        2 0.23467762E+00 0.22657365E+04</pdfrwt>
<pdfrwt beam="2">  1       -2 0.12943759E+00 0.22657365E+04</pdfrwt>
<totfact> 0.49036979E+00</totfact>
</mgrwt>
</event>
<event>
12    1  0.1097093E-007  0.2553005E+04  0.7818608E-02  0.8384342E-01
          1   -1    0    0  501    0  0.00000000000E+00  0.00000000000E+00  0.20260116531E+04  0.20260116531E+04  0.00000000000E+00 0. -1.
         -1   -1    0    0    0  501 -0.00000000000E+00 -0.00000000000E+00 -0.80426900084E+03  0.80426900084E+03  0.00000000000E+00 0.  1.
         23    2    1    2    0    0  0.37269237265E+03 -0.22437668871E+03  0.16792057841E+04  0.17374148583E+04  0.98152032149E+02 0.  0.
        254    2    1    2    0    0 -0.37269237265E+03  0.22437668871E+03 -0.45746313183E+03  0.10928657957E+04  0.89209787987E+03 0.  0.
        -24    2    4    4    0    0 -0.19293372661E+03  0.43936658707E+03  0.68293643731E+02  0.49195574328E+03  0.84202202320E+02 0.  0.
         24    2    4    4    0    0 -0.17975864603E+03 -0.21498989836E+03 -0.52575677556E+03  0.60091005237E+03  0.78350984523E+02 0.  0.
         11    1    3    3    0    0  0.26487225568E+03 -0.15367532793E+03  0.13396646622E+04  0.13742178959E+04  0.00000000000E+00 0. -1.
        -11    1    3    3    0    0  0.10782011697E+03 -0.70701360778E+02  0.33954112187E+03  0.36319696237E+03  0.00000000000E+00 0.  1.
          4    1    6    6  502    0 -0.14835887108E+03 -0.19178151391E+03 -0.38629860657E+03  0.45608893556E+03  0.00000000000E+00 0. -1.
          3    1    5    5  503    0 -0.61714844327E+02  0.10505119510E+03 -0.16462868593E+02  0.12294511639E+03  0.00000000000E+00 0. -1.
         -4    1    5    5    0  503 -0.13121888229E+03  0.33431539198E+03  0.84756512324E+02  0.36901062690E+03  0.00000000000E+00 0.  1.
         -3    1    6    6    0  502 -0.31399774952E+02 -0.23208384451E+02 -0.13945816899E+03  0.14482111681E+03  0.00000000000E+00 0.  1.
<mgrwt>
<rscale>  0 0.25530048E+04</rscale>
<asrwt>0</asrwt>
<pdfrwt beam="1">  1        1 0.31169410E+00 0.25530048E+04</pdfrwt>
<pdfrwt beam="2">  1       -1 0.12373369E+00 0.25530048E+04</pdfrwt>
<totfact> 0.14520896E+00</totfact>
</mgrwt>
</event>
<event>
12    1  0.1097093E-007  0.1795840E+04  0.7818608E-02  0.8708515E-01
         -1   -1    0    0    0  501 -0.00000000000E+00  0.00000000000E+00  0.61416706396E+03  0.61416706396E+03  0.00000000000E+00 0.  1.
          1   -1    0    0  501    0  0.00000000000E+00 -0.00000000000E+00 -0.13127703344E+04  0.13127703344E+04  0.00000000000E+00 0. -1.
         23    2    1    2    0    0  0.95842095973E+02  0.66093429343E+03 -0.26355453591E+03  0.72479051742E+03  0.99199058192E+02 0.  0.
        254    2    1    2    0    0 -0.95842095973E+02 -0.66093429343E+03 -0.43504873449E+03  0.12021468809E+04  0.89992770503E+03 0.  0.
        -24    2    4    4    0    0 -0.15546248484E+03  0.13074738512E+03  0.10188863285E+03  0.24042422738E+03  0.78479632369E+02 0.  0.
         24    2    4    4    0    0  0.59620388870E+02 -0.79168167856E+03 -0.53693736734E+03  0.96172265352E+03  0.79336340457E+02 0.  0.
         11    1    3    3    0    0  0.76232598630E+02  0.52299079052E+03 -0.16340604002E+03  0.55320187091E+03  0.00000000000E+00 0. -1.
        -11    1    3    3    0    0  0.19609497342E+02  0.13794350292E+03 -0.10014849589E+03  0.17158864652E+03  0.00000000000E+00 0.  1.
          4    1    6    6  502    0  0.51723756148E+02 -0.39914905653E+03 -0.23168251182E+03  0.46440510609E+03  0.00000000000E+00 0. -1.
          1    1    5    5  503    0 -0.65660246804E+01 -0.10403882696E+02  0.87999670297E+01  0.15125900799E+02  0.00000000000E+00 0. -1.
         -2    1    5    5    0  503 -0.14889646016E+03  0.14115126782E+03  0.93088665819E+02  0.22529832658E+03  0.00000000000E+00 0.  1.
         -3    1    6    6    0  502  0.78966327217E+01 -0.39253262203E+03 -0.30525485553E+03  0.49731754743E+03  0.00000000000E+00 0.  1.
<mgrwt>
<rscale>  0 0.17958400E+04</rscale>
<asrwt>0</asrwt>
<pdfrwt beam="1">  1        1 0.20196467E+00 0.17958400E+04</pdfrwt>
<pdfrwt beam="2">  1       -1 0.94487241E-01 0.17958400E+04</pdfrwt>
<totfact> 0.90625401E+00</totfact>
</mgrwt>
</event>
<event>
12    1  0.1097093E-007  0.3129135E+04  0.7818608E-02  0.8207787E-01
         -2   -1    0    0    0  501 -0.00000000000E+00  0.00000000000E+00  0.22919234738E+04  0.22919234738E+04  0.00000000000E+00 0.  1.
          2   -1    0    0  501    0  0.00000000000E+00 -0.00000000000E+00 -0.10680425316E+04  0.10680425316E+04  0.00000000000E+00 0. -1.
         23    2    1    2    0    0  0.36239788237E+02  0.65548033769E+03 -0.80720339811E+03  0.10445620889E+04  0.92546400815E+02 0.  0.
        254    2    1    2    0    0 -0.36239788237E+02 -0.65548033769E+03  0.20310843403E+04  0.23154039165E+04  0.89711978236E+03 0.  0.
        -24    2    4    4    0    0 -0.25540139405E+03  0.48581815803E+00  0.12093286811E+04  0.12386118618E+04  0.80332915880E+02 0.  0.
         24    2    4    4    0    0  0.21916160582E+03 -0.65596615584E+03  0.82175565919E+03  0.10767920546E+04  0.76650886713E+02 0.  0.
         13    1    3    3    0    0  0.56812547513E+02  0.56539299886E+03 -0.66182511443E+03  0.87230120417E+03  0.00000000000E+00 0. -1.
        -13    1    3    3    0    0 -0.20572759276E+02  0.90087338831E+02 -0.14537828368E+03  0.17226088473E+03  0.00000000000E+00 0.  1.
          2    1    6    6  502    0  0.10551564061E+02 -0.64528431923E+01  0.72382924560E+01  0.14330651313E+02  0.00000000000E+00 0. -1.
          3    1    5    5  503    0 -0.19940162828E+02 -0.74991809432E+01  0.35729782813E+02  0.41598860420E+02  0.00000000000E+00 0. -1.
         -4    1    5    5    0  503 -0.23546123123E+03  0.79849991012E+01  0.11735988982E+04  0.11970130014E+04  0.00000000000E+00 0.  1.
         -1    1    6    6    0  502  0.20861004176E+03 -0.64951331265E+03  0.81451736674E+03  0.10624614033E+04  0.00000000000E+00 0.  1.
<mgrwt>
<rscale>  0 0.31291352E+04</rscale>
<asrwt>0</asrwt>
<pdfrwt beam="1">  1        2 0.16431424E+00 0.31291352E+04</pdfrwt>
<pdfrwt beam="2">  1       -2 0.35260361E+00 0.31291352E+04</pdfrwt>
<totfact> 0.28925462E-01</totfact>
</mgrwt>
</event>
<event>
12    1  0.1097093E-007  0.1557185E+04  0.7818608E-02  0.8847291E-01
          2   -1    0    0  501    0  0.00000000000E+00  0.00000000000E+00  0.10734152300E+04  0.10734152300E+04  0.00000000000E+00 0.  1.
         -2   -1    0    0    0  501 -0.00000000000E+00 -0.00000000000E+00 -0.56474567294E+03  0.56474567294E+03  0.00000000000E+00 0. -1.
         23    2    1    2    0    0 -0.23529093463E+03 -0.44356716396E+03  0.79838205811E+02  0.51660758166E+03  0.91627514796E+02 0.  0.
        254    2    1    2    0    0  0.23529093463E+03  0.44356716396E+03  0.42883135127E+03  0.11215533213E+04  0.90657149294E+03 0.  0.
        -24    2    4    4    0    0  0.51471378500E+03  0.21216307139E+03  0.48786080162E+03  0.74516171146E+03  0.85524061699E+02 0.  0.
         24    2    4    4    0    0 -0.27942285037E+03  0.23140409257E+03 -0.59029450356E+02  0.37639160983E+03  0.81001139342E+02 0.  0.
         11    1    3    3    0    0 -0.29369181574E+01 -0.56802276031E+01  0.15459259405E+02  0.16729589811E+02  0.00000000000E+00 0. -1.
        -11    1    3    3    0    0 -0.23235401647E+03 -0.43788693635E+03  0.64378946406E+02  0.49987799185E+03  0.00000000000E+00 0.  1.
          4    1    6    6  502    0 -0.93788101814E+02  0.96715237243E+02 -0.58917143390E+02  0.14704174558E+03  0.00000000000E+00 0. -1.
          1    1    5    5  503    0  0.42353744659E+03  0.15223901532E+03  0.42616627083E+03  0.61982124588E+03  0.00000000000E+00 0. -1.
         -2    1    5    5    0  503  0.91176338409E+02  0.59924056063E+02  0.61694530791E+02  0.12534046557E+03  0.00000000000E+00 0.  1.
         -3    1    6    6    0  502 -0.18563474856E+03  0.13468885533E+03 -0.11230696653E+00  0.22934986426E+03  0.00000000000E+00 0.  1.
<mgrwt>
<rscale>  0 0.15571854E+04</rscale>
<asrwt>0</asrwt>
<pdfrwt beam="1">  1        2 0.16514080E+00 0.15571854E+04</pdfrwt>
<pdfrwt beam="2">  1       -2 0.86883950E-01 0.15571854E+04</pdfrwt>
<totfact> 0.24956142E+01</totfact>
</mgrwt>
</event>
<event>
12    1  0.1097093E-007  0.2117084E+04  0.7818608E-02  0.8553755E-01
         -1   -1    0    0    0  501 -0.00000000000E+00  0.00000000000E+00  0.11334656615E+04  0.11334656615E+04  0.00000000000E+00 0.  1.
          1   -1    0    0  501    0  0.00000000000E+00 -0.00000000000E+00 -0.98857052376E+03  0.98857052376E+03  0.00000000000E+00 0. -1.
         23    2    1    2    0    0 -0.97242782043E+02  0.85411397973E+03 -0.39756540411E+02  0.86501242505E+03  0.87744310109E+02 0.  0.
        254    2    1    2    0    0  0.97242782043E+02 -0.85411397973E+03  0.18465167812E+03  0.12570237602E+04  0.89835719085E+03 0.  0.
        -24    2    4    4    0    0  0.29689843576E+03 -0.24493129669E+03 -0.26139823952E+03  0.47188253219E+03  0.78765876531E+02 0.  0.
         24    2    4    4    0    0 -0.19965565372E+03 -0.60918268304E+03  0.44604991764E+03  0.78514122797E+03  0.80748358867E+02 0.  0.
         13    1    3    3    0    0 -0.11394882471E+03  0.75781189654E+03 -0.37421831833E+02  0.76724415846E+03  0.00000000000E+00 0. -1.
        -13    1    3    3    0    0  0.16706042667E+02  0.96302083187E+02 -0.23347085785E+01  0.97768266590E+02  0.00000000000E+00 0.  1.
          4    1    6    6  502    0 -0.17974528385E+03 -0.56140595917E+03  0.43396182734E+03  0.73198899285E+03  0.00000000000E+00 0. -1.
          3    1    5    5  503    0  0.21882721038E+03 -0.21406907620E+03 -0.22725264015E+03  0.38125408830E+03  0.00000000000E+00 0. -1.
         -4    1    5    5    0  503  0.78071225383E+02 -0.30862220491E+02 -0.34145599373E+02  0.90628443896E+02  0.00000000000E+00 0.  1.
         -3    1    6    6    0  502 -0.19910369874E+02 -0.47776723863E+02  0.12088090299E+02  0.53152235124E+02  0.00000000000E+00 0.  1.
<mgrwt>
<rscale>  0 0.21170836E+04</rscale>
<asrwt>0</asrwt>
<pdfrwt beam="1">  1        1 0.15208777E+00 0.21170836E+04</pdfrwt>
<pdfrwt beam="2">  1       -1 0.17437933E+00 0.21170836E+04</pdfrwt>
<totfact> 0.32421303E+00</totfact>
</mgrwt>
</event>
<event>
12    1  0.1097093E-007  0.2340320E+04  0.7818608E-02  0.8462191E-01
          1   -1    0    0  501    0  0.00000000000E+00  0.00000000000E+00  0.17991998026E+04  0.17991998026E+04  0.00000000000E+00 0. -1.
         -1   -1    0    0    0  501 -0.00000000000E+00 -0.00000000000E+00 -0.76104641962E+03  0.76104641962E+03  0.00000000000E+00 0.  1.
         23    2    1    2    0    0  0.47192883816E+03  0.53338991432E+02  0.13956618051E+04  0.14770306266E+04  0.90474976026E+02 0.  0.
        254    2    1    2    0    0 -0.47192883816E+03 -0.53338991432E+02 -0.35750842217E+03  0.10832155956E+04  0.90552850775E+03 0.  0.
        -24    2    4    4    0    0  0.52995975958E+02 -0.69466284658E+02 -0.51584459458E+03  0.52914095707E+03  0.79122490631E+02 0.  0.
         24    2    4    4    0    0 -0.52492481412E+03  0.16127293227E+02  0.15833617241E+03  0.55407463853E+03  0.78244562193E+02 0.  0.
         13    1    3    3    0    0  0.33151619470E+03  0.65572311732E+02  0.10721889758E+04  0.11241850004E+04  0.00000000000E+00 0.  1.
        -13    1    3    3    0    0  0.14041264346E+03 -0.12233320300E+02  0.32347282933E+03  0.35284562613E+03  0.00000000000E+00 0. -1.
          4    1    6    6  502    0 -0.26226501297E+03 -0.22190208358E+02  0.10474489836E+03  0.28327872512E+03  0.00000000000E+00 0. -1.
          1    1    5    5  503    0 -0.97558042582E+01  0.83240979217E+01 -0.12742634681E+03  0.12807005967E+03  0.00000000000E+00 0. -1.
         -2    1    5    5    0  503  0.62751780217E+02 -0.77790382580E+02 -0.38841824777E+03  0.40107089740E+03  0.00000000000E+00 0.  1.
         -3    1    6    6    0  502 -0.26265980115E+03  0.38317501585E+02  0.53591274047E+02  0.27079591341E+03  0.00000000000E+00 0.  1.
<mgrwt>
<rscale>  0 0.23403201E+04</rscale>
<asrwt>0</asrwt>
<pdfrwt beam="1">  1        1 0.27679997E+00 0.23403201E+04</pdfrwt>
<pdfrwt beam="2">  1       -1 0.11708406E+00 0.23403201E+04</pdfrwt>
<totfact> 0.24149322E+00</totfact>
</mgrwt>
</event>
<event>
12    1  0.1097093E-007  0.1810256E+04  0.7818608E-02  0.8700864E-01
         -2   -1    0    0    0  501 -0.00000000000E+00  0.00000000000E+00  0.55701055890E+03  0.55701055890E+03  0.00000000000E+00 0.  1.
          2   -1    0    0  501    0  0.00000000000E+00 -0.00000000000E+00 -0.14708106810E+04  0.14708106810E+04  0.00000000000E+00 0. -1.
         23    2    1    2    0    0 -0.54195803578E+03 -0.14944181539E+03 -0.76069320449E+03  0.95011705799E+03  0.89537164375E+02 0.  0.
        254    2    1    2    0    0  0.54195803578E+03  0.14944181539E+03 -0.15310691761E+03  0.10777041819E+04  0.90661635036E+03 0.  0.
        -24    2    4    4    0    0  0.64253519774E+02 -0.35367543274E+03 -0.57708499985E+02  0.37260651424E+03  0.79312779280E+02 0.  0.
         24    2    4    4    0    0  0.47770451600E+03  0.50311724813E+03 -0.95398417623E+02  0.70509766766E+03  0.82056644308E+02 0.  0.
         13    1    3    3    0    0 -0.47258952415E+03 -0.10374057254E+03 -0.67768303780E+03  0.83268076984E+03  0.00000000000E+00 0. -1.
        -13    1    3    3    0    0 -0.69368511625E+02 -0.45701242847E+02 -0.83010166685E+02  0.11743628816E+03  0.00000000000E+00 0.  1.
          2    1    6    6  502    0  0.31991608967E+03  0.35741517721E+03 -0.30110085631E+02  0.48062306497E+03  0.00000000000E+00 0. -1.
          3    1    5    5  503    0  0.71003562108E+02 -0.32360878785E+03 -0.71357153604E+02  0.33890411147E+03  0.00000000000E+00 0. -1.
         -4    1    5    5    0  503 -0.67500423335E+01 -0.30066644892E+02  0.13648653619E+02  0.33702402766E+02  0.00000000000E+00 0.  1.
         -1    1    6    6    0  502  0.15778842634E+03  0.14570207093E+03 -0.65288331991E+02  0.22447460269E+03  0.00000000000E+00 0.  1.
<mgrwt>
<rscale>  0 0.18102564E+04</rscale>
<asrwt>0</asrwt>
<pdfrwt beam="1">  1        2 0.22627856E+00 0.18102564E+04</pdfrwt>
<pdfrwt beam="2">  1       -2 0.85693934E-01 0.18102564E+04</pdfrwt>
<totfact> 0.14712335E+01</totfact>
</mgrwt>
</event>
<event>
12    1  0.1097093E-007  0.3545667E+04  0.7818608E-02  0.8103052E-01
         -2   -1    0    0    0  501 -0.00000000000E+00  0.00000000000E+00  0.99673023124E+03  0.99673023124E+03  0.00000000000E+00 0.  1.
          2   -1    0    0  501    0  0.00000000000E+00 -0.00000000000E+00 -0.31532488426E+04  0.31532488426E+04  0.00000000000E+00 0. -1.
         23    2    1    2    0    0 -0.94973959552E+03  0.57176020076E+03 -0.24462719840E+04  0.26872564116E+04  0.90473066013E+02 0.  0.
        254    2    1    2    0    0  0.94973959552E+03 -0.57176020076E+03  0.28975337263E+03  0.14627226622E+04  0.90922249374E+03 0.  0.
        -24    2    4    4    0    0  0.21730284732E+03 -0.65272759188E+03  0.13626360923E+03  0.70573812016E+03  0.78896681691E+02 0.  0.
         24    2    4    4    0    0  0.73243674820E+03  0.80967391120E+02  0.15348976340E+03  0.75698454206E+03  0.80294339211E+02 0.  0.
         11    1    3    3    0    0 -0.85380415110E+03  0.54181942453E+03 -0.22001455256E+04  0.24214025173E+04  0.00000000000E+00 0. -1.
        -11    1    3    3    0    0 -0.95935444417E+02  0.29940776233E+02 -0.24612645839E+03  0.26585389427E+03  0.00000000000E+00 0.  1.
          4    1    6    6  502    0  0.35454867848E+03  0.15552180752E+00  0.83819452909E+02  0.36432195965E+03  0.00000000000E+00 0. -1.
          3    1    5    5  503    0  0.60847317647E+02 -0.30525306031E+03  0.67974983803E+02  0.31859445274E+03  0.00000000000E+00 0. -1.
         -4    1    5    5    0  503  0.15645552968E+03 -0.34747453157E+03  0.68288625430E+02  0.38714366741E+03  0.00000000000E+00 0.  1.
         -3    1    6    6    0  502  0.37788806972E+03  0.80811869313E+02  0.69670310492E+02  0.39266258241E+03  0.00000000000E+00 0.  1.
<mgrwt>
<rscale>  0 0.35456669E+04</rscale>
<asrwt>0</asrwt>
<pdfrwt beam="1">  1        2 0.48511520E+00 0.35456669E+04</pdfrwt>
<pdfrwt beam="2">  1       -2 0.15334312E+00 0.35456669E+04</pdfrwt>
<totfact> 0.32136908E-01</totfact>
</mgrwt>
</event>
<event>
12    1  0.1097093E-007  0.1965772E+04  0.7818608E-02  0.8622793E-01
         -2   -1    0    0    0  501 -0.00000000000E+00  0.00000000000E+00  0.57470599706E+03  0.57470599706E+03  0.00000000000E+00 0.  1.
          2   -1    0    0  501    0  0.00000000000E+00 -0.00000000000E+00 -0.16809728189E+04  0.16809728189E+04  0.00000000000E+00 0. -1.
         23    2    1    2    0    0  0.88852436116E+02 -0.10901068716E+03  0.43134987320E+03  0.46253383331E+03  0.89981934466E+02 0.  0.
        254    2    1    2    0    0 -0.88852436116E+02  0.10901068716E+03 -0.15376166950E+04  0.17931449826E+04  0.91177066337E+03 0.  0.
        -24    2    4    4    0    0 -0.22438079350E+03  0.43081425974E+03 -0.52923472671E+03  0.72290667688E+03  0.80975308750E+02 0.  0.
         24    2    4    4    0    0  0.13552835739E+03 -0.32180357258E+03 -0.10083819683E+04  0.10702383058E+04  0.81549752252E+02 0.  0.
         13    1    3    3    0    0  0.46281300394E+02  0.26537264076E+01  0.98022039404E+02  0.10843118204E+03  0.00000000000E+00 0. -1.
        -13    1    3    3    0    0  0.42571135722E+02 -0.11166441357E+03  0.33332783380E+03  0.35410265127E+03  0.00000000000E+00 0.  1.
          4    1    6    6  502    0  0.47799474664E+02 -0.17965656017E+03 -0.62461663866E+03  0.65169564575E+03  0.00000000000E+00 0. -1.
          1    1    5    5  503    0 -0.22573861756E+03  0.38797374342E+03 -0.47141947623E+03  0.65093615018E+03  0.00000000000E+00 0. -1.
         -2    1    5    5    0  503  0.13578240602E+01  0.42840516326E+02 -0.57815250479E+02  0.71970526698E+02  0.00000000000E+00 0.  1.
         -3    1    6    6    0  502  0.87728882722E+02 -0.14214701241E+03 -0.38376532967E+03  0.41854266002E+03  0.00000000000E+00 0.  1.
<mgrwt>
<rscale>  0 0.19657723E+04</rscale>
<asrwt>0</asrwt>
<pdfrwt beam="1">  1        2 0.25861120E+00 0.19657723E+04</pdfrwt>
<pdfrwt beam="2">  1       -2 0.88416309E-01 0.19657723E+04</pdfrwt>
<totfact> 0.10307087E+01</totfact>
</mgrwt>
</event>
<event>
12    1  0.1097093E-007  0.1782380E+04  0.7818608E-02  0.8715726E-01
          1   -1    0    0  501    0  0.00000000000E+00  0.00000000000E+00  0.22993468839E+04  0.22993468839E+04  0.00000000000E+00 0. -1.
         -1   -1    0    0    0  501 -0.00000000000E+00 -0.00000000000E+00 -0.34541084544E+03  0.34541084544E+03  0.00000000000E+00 0.  1.
         23    2    1    2    0    0  0.48752087573E+03 -0.44012678903E+03  0.83319122148E+03  0.10661337383E+04  0.10509682028E+03 0.  0.
        254    2    1    2    0    0 -0.48752087573E+03  0.44012678903E+03  0.11207448170E+04  0.15786239910E+04  0.89699306890E+03 0.  0.
        -24    2    4    4    0    0 -0.44275704707E+03 -0.32828008234E+02  0.97610623868E+03  0.10755443184E+04  0.83070517117E+02 0.  0.
         24    2    4    4    0    0 -0.44763828660E+02  0.47295479727E+03  0.14463857827E+03  0.50307967263E+03  0.80490981311E+02 0.  0.
         13    1    3    3    0    0  0.63378975702E+02 -0.59486358162E+02  0.17574119328E+03  0.19606246041E+03  0.00000000000E+00 0.  1.
        -13    1    3    3    0    0  0.42414190003E+03 -0.38064043087E+03  0.65745002820E+03  0.87007127786E+03  0.00000000000E+00 0. -1.
          2    1    6    6  502    0 -0.42462548463E+02  0.12386030519E+03  0.59065879761E+02  0.14364268647E+03  0.00000000000E+00 0. -1.
          3    1    5    5  503    0 -0.16242899677E+03 -0.40419245562E+02  0.29898929623E+03  0.34265360594E+03  0.00000000000E+00 0. -1.
         -4    1    5    5    0  503 -0.28032805030E+03  0.75912373279E+01  0.67711694245E+03  0.73289071247E+03  0.00000000000E+00 0.  1.
         -1    1    6    6    0  502 -0.23012801963E+01  0.34909449208E+03  0.85572698513E+02  0.35943698616E+03  0.00000000000E+00 0.  1.
<mgrwt>
<rscale>  0 0.17823797E+04</rscale>
<asrwt>0</asrwt>
<pdfrwt beam="1">  1        1 0.35374566E+00 0.17823797E+04</pdfrwt>
<pdfrwt beam="2">  1       -1 0.53140132E-01 0.17823797E+04</pdfrwt>
<totfact> 0.62917774E+00</totfact>
</mgrwt>
</event>
<event>
12    1  0.1097093E-007  0.1320284E+04  0.7818608E-02  0.9013632E-01
          1   -1    0    0  501    0  0.00000000000E+00  0.00000000000E+00  0.11599956898E+04  0.11599956898E+04  0.00000000000E+00 0. -1.
         -1   -1    0    0    0  501 -0.00000000000E+00 -0.00000000000E+00 -0.37568047098E+03  0.37568047098E+03  0.00000000000E+00 0.  1.
         23    2    1    2    0    0 -0.14609465818E+03  0.14077372555E+03 -0.11459085040E+03  0.25185627081E+03  0.95601397456E+02 0.  0.
        254    2    1    2    0    0  0.14609465818E+03 -0.14077372555E+03  0.89890606924E+03  0.12838198900E+04  0.89386827758E+03 0.  0.
        -24    2    4    4    0    0 -0.21654296306E+03  0.85695012239E+02  0.80119647033E+03  0.83810337906E+03  0.79164385592E+02 0.  0.
         24    2    4    4    0    0  0.36263762124E+03 -0.22646873779E+03  0.97709598912E+02  0.44571651093E+03  0.79510432404E+02 0.  0.
         11    1    3    3    0    0 -0.15531382906E+03  0.14005595664E+03 -0.12002489266E+03  0.24113073497E+03  0.00000000000E+00 0.  1.
        -11    1    3    3    0    0  0.92191708749E+01  0.71776890805E+00  0.54340422597E+01  0.10725535842E+02  0.00000000000E+00 0. -1.
          2    1    6    6  502    0 -0.10993762289E+01 -0.12766381154E+02  0.67158114948E+00  0.12831217289E+02  0.00000000000E+00 0. -1.
          1    1    5    5  503    0 -0.42592875903E+02  0.13868872223E+01  0.71497118877E+02  0.83234094826E+02  0.00000000000E+00 0. -1.
         -2    1    5    5    0  503 -0.17395008716E+03  0.84308125016E+02  0.72969935145E+03  0.75486928423E+03  0.00000000000E+00 0.  1.
         -1    1    6    6    0  502  0.36373699747E+03 -0.21370235663E+03  0.97038017763E+02  0.43288529364E+03  0.00000000000E+00 0.  1.
<mgrwt>
<rscale>  0 0.13202844E+04</rscale>
<asrwt>0</asrwt>
<pdfrwt beam="1">  1        1 0.17846087E+00 0.13202844E+04</pdfrwt>
<pdfrwt beam="2">  1       -1 0.57796996E-01 0.13202844E+04</pdfrwt>
<totfact> 0.34017025E+01</totfact>
</mgrwt>
</event>
<event>
12    1  0.1097093E-007  0.2317161E+04  0.7818608E-02  0.8471185E-01
         -1   -1    0    0    0  501 -0.00000000000E+00  0.00000000000E+00  0.99061118677E+03  0.99061118677E+03  0.00000000000E+00 0.  1.
          1   -1    0    0  501    0  0.00000000000E+00 -0.00000000000E+00 -0.13550313193E+04  0.13550313193E+04  0.00000000000E+00 0. -1.
         23    2    1    2    0    0  0.34577557644E+03 -0.34538595614E+03  0.70654461003E+03  0.86377991287E+03  0.89767722257E+02 0.  0.
        254    2    1    2    0    0 -0.34577557644E+03  0.34538595614E+03 -0.10709647426E+04  0.14818625932E+04  0.90005503018E+03 0.  0.
        -24    2    4    4    0    0  0.20279419026E+03  0.32573214454E+03 -0.73463004985E+03  0.83258811114E+03  0.79339391755E+02 0.  0.
         24    2    4    4    0    0 -0.54856976669E+03  0.19653811597E+02 -0.33633469272E+03  0.64927448206E+03  0.84387595590E+02 0.  0.
         13    1    3    3    0    0  0.25171613608E+03 -0.26370791418E+03  0.45460897685E+03  0.58272823769E+03  0.00000000000E+00 0.  1.
        -13    1    3    3    0    0  0.94059440351E+02 -0.81678041962E+02  0.25193563318E+03  0.28105167518E+03  0.00000000000E+00 0. -1.
          4    1    6    6  502    0 -0.28806834711E+03 -0.31422243207E+02 -0.16845737923E+03  0.33518445458E+03  0.00000000000E+00 0. -1.
          3    1    5    5  503    0  0.68752719817E+02  0.17467415001E+03 -0.31056021169E+03  0.36288516124E+03  0.00000000000E+00 0. -1.
         -4    1    5    5    0  503  0.13404147044E+03  0.15105799453E+03 -0.42406983816E+03  0.46970294990E+03  0.00000000000E+00 0.  1.
         -1    1    6    6    0  502 -0.26050141958E+03  0.51076054803E+02 -0.16787731349E+03  0.31409002748E+03  0.00000000000E+00 0.  1.
<mgrwt>
<rscale>  0 0.23171614E+04</rscale>
<asrwt>0</asrwt>
<pdfrwt beam="1">  1        1 0.20846635E+00 0.23171614E+04</pdfrwt>
<pdfrwt beam="2">  1       -1 0.15240172E+00 0.23171614E+04</pdfrwt>
<totfact> 0.24932619E+00</totfact>
</mgrwt>
</event>
<event>
12    1  0.1097093E-007  0.1633729E+04  0.7818608E-02  0.8800091E-01
          2   -1    0    0  501    0  0.00000000000E+00  0.00000000000E+00  0.19170835692E+04  0.19170835692E+04  0.00000000000E+00 0. -1.
         -2   -1    0    0    0  501 -0.00000000000E+00 -0.00000000000E+00 -0.34806381042E+03  0.34806381042E+03  0.00000000000E+00 0.  1.
         23    2    1    2    0    0 -0.77428118257E+02 -0.52743783026E+01  0.13462029805E+04  0.13514031060E+04  0.89470428143E+02 0.  0.
        254    2    1    2    0    0  0.77428118257E+02  0.52743783026E+01  0.22281677823E+03  0.91374427362E+03  0.88275610921E+03 0.  0.
        -24    2    4    4    0    0  0.30814667157E+03  0.33969072735E+03  0.16719207206E+03  0.49483312601E+03  0.81009087049E+02 0.  0.
         24    2    4    4    0    0 -0.23071855332E+03 -0.33441634905E+03  0.55624706165E+02  0.41891114761E+03  0.85598459668E+02 0.  0.
         11    1    3    3    0    0 -0.74418619348E+02  0.83021140453E+01  0.13162639361E+04  0.13183921289E+04  0.00000000000E+00 0. -1.
        -11    1    3    3    0    0 -0.30094989084E+01 -0.13576492348E+02  0.29939044409E+02  0.33010977087E+02  0.00000000000E+00 0.  1.
          4    1    6    6  502    0 -0.21776893623E+03 -0.33747474667E+03  0.51193223007E+02  0.40488672528E+03  0.00000000000E+00 0. -1.
          1    1    5    5  503    0  0.14955147335E+03  0.20182068717E+03  0.57110307818E+02  0.25760205785E+03  0.00000000000E+00 0. -1.
         -2    1    5    5    0  503  0.15859519823E+03  0.13787004019E+03  0.11008176424E+03  0.23723106816E+03  0.00000000000E+00 0.  1.
         -3    1    6    6    0  502 -0.12949617087E+02  0.30583976174E+01  0.44314831574E+01  0.14024422329E+02  0.00000000000E+00 0.  1.
<mgrwt>
<rscale>  0 0.16337288E+04</rscale>
<asrwt>0</asrwt>
<pdfrwt beam="1">  1        2 0.29493593E+00 0.16337288E+04</pdfrwt>
<pdfrwt beam="2">  1       -2 0.53548280E-01 0.16337288E+04</pdfrwt>
<totfact> 0.23354779E+01</totfact>
</mgrwt>
</event>
<event>
12    1  0.1097093E-007  0.1645117E+04  0.7818608E-02  0.8793301E-01
          2   -1    0    0  501    0  0.00000000000E+00  0.00000000000E+00  0.70205571003E+03  0.70205571003E+03  0.00000000000E+00 0. -1.
         -2   -1    0    0    0  501 -0.00000000000E+00 -0.00000000000E+00 -0.96374430425E+03  0.96374430425E+03  0.00000000000E+00 0.  1.
         23    2    1    2    0    0  0.42776555373E+02 -0.23784197863E+03 -0.60697319890E+03  0.66021527218E+03  0.95231827378E+02 0.  0.
        254    2    1    2    0    0 -0.42776555373E+02  0.23784197863E+03  0.34528460468E+03  0.10055847421E+04  0.91300633887E+03 0.  0.
        -24    2    4    4    0    0  0.12066068219E+03  0.53074665772E+03  0.52019159271E+02  0.55246481821E+03  0.79122484321E+02 0.  0.
         24    2    4    4    0    0 -0.16343723756E+03 -0.29290467908E+03  0.29326544541E+03  0.45311992389E+03  0.82511588900E+02 0.  0.
         13    1    3    3    0    0 -0.30056073172E+02 -0.54957816716E+02 -0.13436299116E+03  0.14824689726E+03  0.00000000000E+00 0. -1.
        -13    1    3    3    0    0  0.72832628545E+02 -0.18288416192E+03 -0.47261020774E+03  0.51196837492E+03  0.00000000000E+00 0.  1.
          4    1    6    6  502    0 -0.16331820608E+03 -0.27859286695E+03  0.29654622248E+03  0.43843640819E+03  0.00000000000E+00 0. -1.
          1    1    5    5  503    0  0.75506072877E+02  0.39287873071E+03  0.54712232621E+01  0.40010598392E+03  0.00000000000E+00 0. -1.
         -2    1    5    5    0  503  0.45154609309E+02  0.13786792700E+03  0.46547936009E+02  0.15235883429E+03  0.00000000000E+00 0.  1.
         -3    1    6    6    0  502 -0.11903147405E+00 -0.14311812136E+02 -0.32807770770E+01  0.14683515701E+02  0.00000000000E+00 0.  1.
<mgrwt>
<rscale>  0 0.16451166E+04</rscale>
<asrwt>0</asrwt>
<pdfrwt beam="1">  1        2 0.10800857E+00 0.16451166E+04</pdfrwt>
<pdfrwt beam="2">  1       -2 0.14826835E+00 0.16451166E+04</pdfrwt>
<totfact> 0.12046461E+01</totfact>
</mgrwt>
</event>
<event>
12    1  0.1097093E-007  0.1578018E+04  0.7818608E-02  0.8834168E-01
          1   -1    0    0  501    0  0.00000000000E+00  0.00000000000E+00  0.13055706460E+04  0.13055706460E+04  0.00000000000E+00 0. -1.
         -1   -1    0    0    0  501 -0.00000000000E+00 -0.00000000000E+00 -0.47682974554E+03  0.47682974554E+03  0.00000000000E+00 0.  1.
         23    2    1    2    0    0 -0.37181458166E+03 -0.18364079421E+03  0.65515366579E+03  0.78066503618E+03  0.90782974624E+02 0.  0.
        254    2    1    2    0    0  0.37181458166E+03  0.18364079421E+03  0.17358723467E+03  0.10017353554E+04  0.89519337001E+03 0.  0.
        -24    2    4    4    0    0  0.91853898643E+02  0.12097223267E+03  0.51856279772E+03  0.54618554384E+03  0.79623196007E+02 0.  0.
         24    2    4    4    0    0  0.27996068302E+03  0.62668561538E+02 -0.34497556305E+03  0.45554981152E+03  0.78817250873E+02 0.  0.
         11    1    3    3    0    0 -0.18924767845E+03 -0.14293848742E+03  0.35160945849E+03  0.42411709030E+03  0.00000000000E+00 0.  1.
        -11    1    3    3    0    0 -0.18256690321E+03 -0.40702306793E+02  0.30354420730E+03  0.35654794588E+03  0.00000000000E+00 0. -1.
          4    1    6    6  502    0  0.43844161952E+02 -0.41696154355E+01 -0.20103712071E+02  0.48413381097E+02  0.00000000000E+00 0. -1.
          1    1    5    5  503    0  0.92969914740E+01  0.52594291029E+02  0.92191302303E+02  0.10654496572E+03  0.00000000000E+00 0. -1.
         -2    1    5    5    0  503  0.82556907169E+02  0.68377941646E+02  0.42637149542E+03  0.43964057812E+03  0.00000000000E+00 0.  1.
         -3    1    6    6    0  502  0.23611652106E+03  0.66838176974E+02 -0.32487185098E+03  0.40713643042E+03  0.00000000000E+00 0.  1.
<mgrwt>
<rscale>  0 0.15780176E+04</rscale>
<asrwt>0</asrwt>
<pdfrwt beam="1">  1        1 0.20085702E+00 0.15780176E+04</pdfrwt>
<pdfrwt beam="2">  1       -1 0.73358423E-01 0.15780176E+04</pdfrwt>
<totfact> 0.16133234E+01</totfact>
</mgrwt>
</event>
<event>
12    1  0.1097093E-007  0.1327257E+04  0.7818608E-02  0.9008225E-01
         -2   -1    0    0    0  501 -0.00000000000E+00  0.00000000000E+00  0.17216668761E+03  0.17216668761E+03  0.00000000000E+00 0.  1.
          2   -1    0    0  501    0  0.00000000000E+00 -0.00000000000E+00 -0.25580030767E+04  0.25580030767E+04  0.00000000000E+00 0. -1.
         23    2    1    2    0    0  0.16258704972E+03  0.30405867028E+03 -0.74820911283E+03  0.82866605241E+03  0.89355056881E+02 0.  0.
        254    2    1    2    0    0 -0.16258704972E+03 -0.30405867028E+03 -0.16376272762E+04  0.19015037119E+04  0.90277740707E+03 0.  0.
        -24    2    4    4    0    0  0.23305526055E+03 -0.35488453422E+03 -0.36472764827E+03  0.56530944122E+03  0.79314058097E+02 0.  0.
         24    2    4    4    0    0 -0.39564231027E+03  0.50825863948E+02 -0.12728996279E+04  0.13361942706E+04  0.77624480448E+02 0.  0.
         11    1    3    3    0    0 -0.38388024186E+01  0.89166151389E+01 -0.68509563278E+02  0.69193949808E+02  0.00000000000E+00 0.  1.
        -11    1    3    3    0    0  0.16642585214E+03  0.29514205514E+03 -0.67969954955E+03  0.75947210260E+03  0.00000000000E+00 0. -1.
          4    1    6    6  502    0 -0.36743412694E+03  0.25646516364E+02 -0.11670571544E+04  0.12238006305E+04  0.00000000000E+00 0. -1.
          3    1    5    5  503    0  0.16850645938E+03 -0.23301317507E+03 -0.19897319331E+03  0.34968542758E+03  0.00000000000E+00 0. -1.
         -4    1    5    5    0  503  0.64548801169E+02 -0.12187135915E+03 -0.16575445496E+03  0.21562401363E+03  0.00000000000E+00 0.  1.
         -3    1    6    6    0  502 -0.28208183331E+02  0.25179347585E+02 -0.10584247351E+03  0.11239364017E+03  0.00000000000E+00 0.  1.
<mgrwt>
<rscale>  0 0.13272572E+04</rscale>
<asrwt>0</asrwt>
<pdfrwt beam="1">  1        2 0.39353894E+00 0.13272572E+04</pdfrwt>
<pdfrwt beam="2">  1       -2 0.26487182E-01 0.13272572E+04</pdfrwt>
<totfact> 0.40887693E+01</totfact>
</mgrwt>
</event>
<event>
12    1  0.1097093E-007  0.2430607E+04  0.7818608E-02  0.8428133E-01
         -1   -1    0    0    0  501 -0.00000000000E+00  0.00000000000E+00  0.15848364827E+04  0.15848364827E+04  0.00000000000E+00 0. -1.
          1   -1    0    0  501    0  0.00000000000E+00 -0.00000000000E+00 -0.93193336095E+03  0.93193336095E+03  0.00000000000E+00 0.  1.
         23    2    1    2    0    0  0.83258343253E+03 -0.58635807613E+03  0.54015309584E+03  0.11563904638E+04  0.91992240208E+02 0.  0.
        254    2    1    2    0    0 -0.83258343253E+03  0.58635807613E+03  0.11275002589E+03  0.13603793798E+04  0.89493492676E+03 0.  0.
        -24    2    4    4    0    0 -0.75738891236E+03  0.11002330410E+02 -0.90959822498E+01  0.76156864880E+03  0.78390395421E+02 0.  0.
         24    2    4    4    0    0 -0.75194520169E+02  0.57535574572E+03  0.12184600814E+03  0.59881073102E+03  0.83901083956E+02 0.  0.
         13    1    3    3    0    0  0.31757601628E+02 -0.97317680727E+01  0.43748516170E+01  0.33502117808E+02  0.00000000000E+00 0.  1.
        -13    1    3    3    0    0  0.80082583090E+03 -0.57662630806E+03  0.53577824423E+03  0.11228883460E+04  0.00000000000E+00 0. -1.
          4    1    6    6  502    0 -0.84481775388E+02  0.46184348339E+03  0.74109844070E+02  0.47531972662E+03  0.00000000000E+00 0. -1.
          3    1    5    5  503    0 -0.65849622212E+03 -0.16635348311E+02 -0.12600113397E+02  0.65882681504E+03  0.00000000000E+00 0. -1.
         -4    1    5    5    0  503 -0.98892690242E+02  0.27637678722E+02  0.35041311469E+01  0.10274183376E+03  0.00000000000E+00 0.  1.
         -3    1    6    6    0  502  0.92872552193E+01  0.11351226233E+03  0.47736164066E+02  0.12349100440E+03  0.00000000000E+00 0.  1.
<mgrwt>
<rscale>  0 0.24306065E+04</rscale>
<asrwt>0</asrwt>
<pdfrwt beam="1">  1        1 0.14337436E+00 0.24306065E+04</pdfrwt>
<pdfrwt beam="2">  1       -1 0.24382100E+00 0.24306065E+04</pdfrwt>
<totfact> 0.11721108E+00</totfact>
</mgrwt>
</event>
<event>
12    1  0.1097093E-007  0.1115637E+04  0.7818608E-02  0.9190084E-01
         -1   -1    0    0    0  501 -0.00000000000E+00  0.00000000000E+00  0.55704713594E+03  0.55704713594E+03  0.00000000000E+00 0.  1.
          1   -1    0    0  501    0  0.00000000000E+00 -0.00000000000E+00 -0.55859048276E+03  0.55859048276E+03  0.00000000000E+00 0. -1.
         23    2    1    2    0    0  0.13601275467E+03 -0.53238798529E+02  0.10126925586E+03  0.19898052461E+03  0.89464785749E+02 0.  0.
        254    2    1    2    0    0 -0.13601275467E+03  0.53238798529E+02 -0.10281260268E+03  0.91665709409E+03  0.89908617928E+03 0.  0.
        -24    2    4    4    0    0  0.42719927764E+02  0.38110797678E+03  0.18983978719E+03  0.43547276968E+03  0.80802884480E+02 0.  0.
         24    2    4    4    0    0 -0.17873268243E+03 -0.32786917825E+03 -0.29265238987E+03  0.48118432441E+03  0.80307925785E+02 0.  0.
         11    1    3    3    0    0  0.53522642737E+02 -0.19274004303E+01  0.85022159309E+02  0.10048460445E+03  0.00000000000E+00 0.  1.
        -11    1    3    3    0    0  0.82490111929E+02 -0.51311398099E+02  0.16247096553E+02  0.98495920155E+02  0.00000000000E+00 0. -1.
          2    1    6    6  502    0 -0.64423958218E+02 -0.77390414566E+02 -0.42894057890E+02  0.10945146350E+03  0.00000000000E+00 0. -1.
          3    1    5    5  503    0 -0.60509972568E+01  0.60624364372E+02  0.62224295513E+02  0.87084964692E+02  0.00000000000E+00 0. -1.
         -4    1    5    5    0  503  0.48770925021E+02  0.32048361241E+03  0.12761549168E+03  0.34838780499E+03  0.00000000000E+00 0.  1.
         -1    1    6    6    0  502 -0.11430872421E+03 -0.25047876369E+03 -0.24975833198E+03  0.37173286092E+03  0.00000000000E+00 0.  1.
<mgrwt>
<rscale>  0 0.11156366E+04</rscale>
<asrwt>0</asrwt>
<pdfrwt beam="1">  1        1 0.85936998E-01 0.11156366E+04</pdfrwt>
<pdfrwt beam="2">  1       -1 0.85699559E-01 0.11156366E+04</pdfrwt>
<totfact> 0.50834189E+01</totfact>
</mgrwt>
</event>
<event>
12    1  0.1097093E-007  0.2286476E+04  0.7818608E-02  0.8483273E-01
          2   -1    0    0  501    0  0.00000000000E+00  0.00000000000E+00  0.23572697461E+04  0.23572697461E+04  0.00000000000E+00 0. -1.
         -2   -1    0    0    0  501 -0.00000000000E+00 -0.00000000000E+00 -0.55445209431E+03  0.55445209431E+03  0.00000000000E+00 0.  1.
         23    2    1    2    0    0 -0.10070938882E+03  0.16130503661E+03 -0.43424657995E+03  0.48190942376E+03  0.86630852961E+02 0.  0.
        254    2    1    2    0    0  0.10070938882E+03 -0.16130503661E+03  0.22370642318E+04  0.24298124167E+04  0.92917722063E+03 0.  0.
        -24    2    4    4    0    0  0.53162840038E+01 -0.50583182169E+03  0.82612492918E+03  0.97215624660E+03  0.81922368553E+02 0.  0.
         24    2    4    4    0    0  0.95393104814E+02  0.34452678508E+03  0.14109393026E+04  0.14576561701E+04  0.78824136520E+02 0.  0.
         11    1    3    3    0    0 -0.29396968915E+02  0.96299752301E+02 -0.30099102539E+03  0.31738528863E+03  0.00000000000E+00 0. -1.
        -11    1    3    3    0    0 -0.71312419903E+02  0.65005284309E+02 -0.13325555456E+03  0.16452413513E+03  0.00000000000E+00 0.  1.
          2    1    6    6  502    0  0.67308468509E+02  0.10624726311E+03  0.51700064934E+03  0.53207948868E+03  0.00000000000E+00 0. -1.
          3    1    5    5  503    0  0.29452104823E+02 -0.91065952610E+02  0.18271452876E+03  0.20626447397E+03  0.00000000000E+00 0. -1.
         -4    1    5    5    0  503 -0.24135820819E+02 -0.41476586908E+03  0.64341040042E+03  0.76589177263E+03  0.00000000000E+00 0.  1.
         -1    1    6    6    0  502  0.28084636305E+02  0.23827952197E+03  0.89393865324E+03  0.92557668140E+03  0.00000000000E+00 0.  1.
<mgrwt>
<rscale>  0 0.22864760E+04</rscale>
<asrwt>0</asrwt>
<pdfrwt beam="1">  1        2 0.36265688E+00 0.22864760E+04</pdfrwt>
<pdfrwt beam="2">  1       -2 0.85300324E-01 0.22864760E+04</pdfrwt>
<totfact> 0.45620247E+00</totfact>
</mgrwt>
</event>
<event>
12    1  0.1097093E-007  0.1872711E+04  0.7818608E-02  0.8668560E-01
          1   -1    0    0  501    0  0.00000000000E+00  0.00000000000E+00  0.23211230553E+04  0.23211230553E+04  0.00000000000E+00 0. -1.
         -1   -1    0    0    0  501 -0.00000000000E+00 -0.00000000000E+00 -0.37773183579E+03  0.37773183579E+03  0.00000000000E+00 0.  1.
         23    2    1    2    0    0 -0.65821643600E+03  0.20528950471E+03  0.10314168995E+04  0.12436145973E+04  0.85812520251E+02 0.  0.
        254    2    1    2    0    0  0.65821643600E+03 -0.20528950471E+03  0.91197431998E+03  0.14552402938E+04  0.90035242822E+03 0.  0.
        -24    2    4    4    0    0  0.60699101103E+03  0.25535777733E+03  0.54227582521E+03  0.85725848315E+03  0.84754671955E+02 0.  0.
         24    2    4    4    0    0  0.51225424975E+02 -0.46064728204E+03  0.36969849478E+03  0.59798181064E+03  0.78008372613E+02 0.  0.
         13    1    3    3    0    0 -0.62692459273E+03  0.19623284075E+03  0.94189717975E+03  0.11483518929E+04  0.00000000000E+00 0.  1.
        -13    1    3    3    0    0 -0.31291843273E+02  0.90566639546E+01  0.89519719762E+02  0.95262704369E+02  0.00000000000E+00 0. -1.
          2    1    6    6  502    0  0.76152626391E+01 -0.38112964861E+01 -0.25392913453E+00  0.85195472868E+01  0.00000000000E+00 0. -1.
          1    1    5    5  503    0  0.39333172331E+03  0.14761437898E+03  0.39263891219E+03  0.57503492486E+03  0.00000000000E+00 0. -1.
         -2    1    5    5    0  503  0.21365928772E+03  0.10774339835E+03  0.14963691301E+03  0.28222355829E+03  0.00000000000E+00 0.  1.
         -1    1    6    6    0  502  0.43610162336E+02 -0.45683598556E+03  0.36995242391E+03  0.58946226335E+03  0.00000000000E+00 0.  1.
<mgrwt>
<rscale>  0 0.18727115E+04</rscale>
<asrwt>0</asrwt>
<pdfrwt beam="1">  1        1 0.35709585E+00 0.18727115E+04</pdfrwt>
<pdfrwt beam="2">  1       -1 0.58112591E-01 0.18727115E+04</pdfrwt>
<totfact> 0.50667606E+00</totfact>
</mgrwt>
</event>
<event>
12    1  0.1097093E-007  0.1630595E+04  0.7818608E-02  0.8801970E-01
          2   -1    0    0  501    0  0.00000000000E+00  0.00000000000E+00  0.10975987430E+04  0.10975987430E+04  0.00000000000E+00 0.  1.
         -2   -1    0    0    0  501 -0.00000000000E+00 -0.00000000000E+00 -0.60560404025E+03  0.60560404025E+03  0.00000000000E+00 0. -1.
         23    2    1    2    0    0 -0.37907323015E+03  0.27622337061E+03  0.50051834491E+03  0.69152545607E+03  0.87709626146E+02 0.  0.
        254    2    1    2    0    0  0.37907323015E+03 -0.27622337061E+03 -0.85236421895E+01  0.10116773271E+04  0.89633838337E+03 0.  0.
        -24    2    4    4    0    0  0.25454655999E+03 -0.59021398549E+03 -0.93308164400E+02  0.65441220979E+03  0.80015166736E+02 0.  0.
         24    2    4    4    0    0  0.12452667017E+03  0.31399061487E+03  0.84784522210E+02  0.35726511736E+03  0.79705401720E+02 0.  0.
         13    1    3    3    0    0 -0.23225678654E+03  0.17511269085E+03  0.36970090736E+03  0.47041091642E+03  0.00000000000E+00 0. -1.
        -13    1    3    3    0    0 -0.14681644362E+03  0.10111067976E+03  0.13081743755E+03  0.22111453965E+03  0.00000000000E+00 0.  1.
          4    1    6    6  502    0  0.37371568923E+02  0.19169706737E+03  0.64765433288E+02  0.20576433401E+03  0.00000000000E+00 0. -1.
          1    1    5    5  503    0  0.22849742198E+03 -0.45250310409E+03 -0.60958103736E+02  0.51057420760E+03  0.00000000000E+00 0. -1.
         -2    1    5    5    0  503  0.26049138011E+02 -0.13771088140E+03 -0.32350060664E+02  0.14383800219E+03  0.00000000000E+00 0.  1.
         -3    1    6    6    0  502  0.87155101242E+02  0.12229354751E+03  0.20019088922E+02  0.15150078335E+03  0.00000000000E+00 0.  1.
<mgrwt>
<rscale>  0 0.16305953E+04</rscale>
<asrwt>0</asrwt>
<pdfrwt beam="1">  1        2 0.16886135E+00 0.16305953E+04</pdfrwt>
<pdfrwt beam="2">  1       -2 0.93169852E-01 0.16305953E+04</pdfrwt>
<totfact> 0.20401152E+01</totfact>
</mgrwt>
</event>
<event>
12    1  0.1097093E-007  0.1621014E+04  0.7818608E-02  0.8807741E-01
          1   -1    0    0  501    0  0.00000000000E+00  0.00000000000E+00  0.13276049174E+04  0.13276049174E+04  0.00000000000E+00 0. -1.
         -1   -1    0    0    0  501 -0.00000000000E+00 -0.00000000000E+00 -0.49481702379E+03  0.49481702379E+03  0.00000000000E+00 0.  1.
         23    2    1    2    0    0 -0.25433559366E+03  0.33873460915E+03 -0.12064476973E+03  0.44964893568E+03  0.90560892517E+02 0.  0.
        254    2    1    2    0    0  0.25433559366E+03 -0.33873460915E+03  0.95343266338E+03  0.13727730056E+04  0.89221306399E+03 0.  0.
        -24    2    4    4    0    0 -0.39344541706E+02 -0.25539181331E+03 -0.88142050358E+02  0.28514629613E+03  0.82258239042E+02 0.  0.
         24    2    4    4    0    0  0.29368013537E+03 -0.83342795846E+02  0.10415747137E+04  0.10876267094E+04  0.69713207018E+02 0.  0.
         11    1    3    3    0    0 -0.18783348203E+03  0.30369793388E+03 -0.11052114122E+03  0.37380312288E+03  0.00000000000E+00 0.  1.
        -11    1    3    3    0    0 -0.66502111629E+02  0.35036675268E+02 -0.10123628508E+02  0.75845812798E+02  0.00000000000E+00 0. -1.
          4    1    6    6  502    0  0.36983962440E+01  0.76377507806E+01  0.42893105871E+02  0.43724500032E+02  0.00000000000E+00 0. -1.
          1    1    5    5  503    0  0.23020523826E+02 -0.34451006235E+02 -0.98485489482E+01  0.42588851407E+02  0.00000000000E+00 0. -1.
         -2    1    5    5    0  503 -0.62365065532E+02 -0.22094080707E+03 -0.78293501409E+02  0.24255744472E+03  0.00000000000E+00 0.  1.
         -3    1    6    6    0  502  0.28998173912E+03 -0.90980546627E+02  0.99868160786E+03  0.10439022094E+04  0.00000000000E+00 0.  1.
<mgrwt>
<rscale>  0 0.16210139E+04</rscale>
<asrwt>0</asrwt>
<pdfrwt beam="1">  1        1 0.20424691E+00 0.16210139E+04</pdfrwt>
<pdfrwt beam="2">  1       -1 0.76125696E-01 0.16210139E+04</pdfrwt>
<totfact> 0.14348708E+01</totfact>
</mgrwt>
</event>
<event>
12    1  0.1097093E-007  0.1326069E+04  0.7818608E-02  0.9009144E-01
          1   -1    0    0  501    0  0.00000000000E+00  0.00000000000E+00  0.62832095662E+03  0.62832095662E+03  0.00000000000E+00 0. -1.
         -1   -1    0    0    0  501 -0.00000000000E+00 -0.00000000000E+00 -0.69966631215E+03  0.69966631215E+03  0.00000000000E+00 0.  1.
         23    2    1    2    0    0  0.32938101735E+02 -0.26979870500E+03 -0.23687483207E+03  0.37152251934E+03  0.89682978019E+02 0.  0.
        254    2    1    2    0    0 -0.32938101735E+02  0.26979870500E+03  0.16552947654E+03  0.95646474944E+03  0.90196926197E+03 0.  0.
        -24    2    4    4    0    0  0.28014565856E+02  0.19414870612E+03 -0.35900890893E+03  0.41707833385E+03  0.81168983538E+02 0.  0.
         24    2    4    4    0    0 -0.60952667591E+02  0.75649998880E+02  0.52453838546E+03  0.53938641559E+03  0.79743573293E+02 0.  0.
         13    1    3    3    0    0  0.13597747069E+02 -0.12712426276E+03 -0.17015954598E+03  0.21283737453E+03  0.00000000000E+00 0. -1.
        -13    1    3    3    0    0  0.19340354666E+02 -0.14267444224E+03 -0.66715286083E+02  0.15868514481E+03  0.00000000000E+00 0.  1.
          2    1    6    6  502    0  0.11076394555E+02  0.81405594454E+01  0.19232043996E+03  0.19281106517E+03  0.00000000000E+00 0. -1.
          3    1    5    5  503    0 -0.11059202891E+02  0.15963714739E+03 -0.27713159132E+03  0.32001288053E+03  0.00000000000E+00 0. -1.
         -4    1    5    5    0  503  0.39073768747E+02  0.34511558731E+02 -0.81877317605E+02  0.97065453320E+02  0.00000000000E+00 0.  1.
         -1    1    6    6    0  502 -0.72029062146E+02  0.67509439435E+02  0.33221794550E+03  0.34657535042E+03  0.00000000000E+00 0.  1.
<mgrwt>
<rscale>  0 0.13260694E+04</rscale>
<asrwt>0</asrwt>
<pdfrwt beam="1">  1        1 0.96664763E-01 0.13260694E+04</pdfrwt>
<pdfrwt beam="2">  1       -1 0.10764097E+00 0.13260694E+04</pdfrwt>
<totfact> 0.25233506E+01</totfact>
</mgrwt>
</event>
<event>
12    1  0.1097093E-007  0.1216923E+04  0.7818608E-02  0.9098172E-01
          2   -1    0    0  501    0  0.00000000000E+00  0.00000000000E+00  0.90545374891E+03  0.90545374891E+03  0.00000000000E+00 0. -1.
         -2   -1    0    0    0  501 -0.00000000000E+00 -0.00000000000E+00 -0.40888373758E+03  0.40888373758E+03  0.00000000000E+00 0.  1.
         23    2    1    2    0    0  0.21982797059E+03 -0.13507011821E+03  0.11765822042E+03  0.29831876073E+03  0.92640988127E+02 0.  0.
        254    2    1    2    0    0 -0.21982797059E+03  0.13507011821E+03  0.37891179091E+03  0.10160187258E+04  0.90672577570E+03 0.  0.
        -24    2    4    4    0    0 -0.13644005931E+03  0.18854775084E+02 -0.28806224458E+03  0.32934540292E+03  0.80728838375E+02 0.  0.
         24    2    4    4    0    0 -0.83387911285E+02  0.11621534312E+03  0.66697403549E+03  0.68667332284E+03  0.78780318378E+02 0.  0.
         11    1    3    3    0    0  0.20680578246E+03 -0.87099683961E+02  0.94600699412E+02  0.24352469882E+03  0.00000000000E+00 0. -1.
        -11    1    3    3    0    0  0.13022188135E+02 -0.47970434245E+02  0.23057521007E+02  0.54794061909E+02  0.00000000000E+00 0.  1.
          2    1    6    6  502    0 -0.49331618743E+02  0.21459851683E+02  0.13632554522E+03  0.14655643323E+03  0.00000000000E+00 0. -1.
          1    1    5    5  503    0 -0.25870767094E+02  0.36505648781E+02 -0.11302494029E+03  0.12155902316E+03  0.00000000000E+00 0. -1.
         -2    1    5    5    0  503 -0.11056929222E+03 -0.17650873696E+02 -0.17503730429E+03  0.20778637976E+03  0.00000000000E+00 0.  1.
         -1    1    6    6    0  502 -0.34056292541E+02  0.94755491439E+02  0.53064849027E+03  0.54011688961E+03  0.00000000000E+00 0.  1.
<mgrwt>
<rscale>  0 0.12169229E+04</rscale>
<asrwt>0</asrwt>
<pdfrwt beam="1">  1        2 0.13930058E+00 0.12169229E+04</pdfrwt>
<pdfrwt beam="2">  1       -2 0.62905191E-01 0.12169229E+04</pdfrwt>
<totfact> 0.67133310E+01</totfact>
</mgrwt>
</event>
<event>
12    1  0.1097093E-007  0.1258032E+04  0.7818608E-02  0.9063524E-01
         -2   -1    0    0    0  501 -0.00000000000E+00  0.00000000000E+00  0.16477867915E+03  0.16477867915E+03  0.00000000000E+00 0. -1.
          2   -1    0    0  501    0  0.00000000000E+00 -0.00000000000E+00 -0.24011688063E+04  0.24011688063E+04  0.00000000000E+00 0.  1.
         23    2    1    2    0    0  0.26182820564E+03  0.33040915343E+02 -0.66365179980E+03  0.71976448950E+03  0.89339227707E+02 0.  0.
        254    2    1    2    0    0 -0.26182820564E+03 -0.33040915343E+02 -0.15727383274E+04  0.18461829960E+04  0.93018282984E+03 0.  0.
        -24    2    4    4    0    0 -0.35672280422E+03  0.23940314127E+02 -0.11741313504E+03  0.38435206259E+03  0.78207199460E+02 0.  0.
         24    2    4    4    0    0  0.94894598580E+02 -0.56981229469E+02 -0.14553251923E+04  0.14618309334E+04  0.82014736758E+02 0.  0.
         13    1    3    3    0    0  0.35933098451E+01  0.13622397401E+02 -0.11872219336E+02  0.18423658121E+02  0.00000000000E+00 0. -1.
        -13    1    3    3    0    0  0.25823489579E+03  0.19418517942E+02 -0.65177958047E+03  0.70134083138E+03  0.00000000000E+00 0.  1.
          4    1    6    6  502    0 -0.11448448233E+01 -0.27918905741E+02 -0.14488790918E+03  0.14755772495E+03  0.00000000000E+00 0. -1.
          3    1    5    5  503    0 -0.39142389663E+02  0.22377947547E+02 -0.32597587919E+02  0.55637235222E+02  0.00000000000E+00 0. -1.
         -4    1    5    5    0  503 -0.31758041455E+03  0.15623665792E+01 -0.84815547118E+02  0.32871482737E+03  0.00000000000E+00 0.  1.
         -3    1    6    6    0  502  0.96039443403E+02 -0.29062323729E+02 -0.13104372832E+04  0.13142732085E+04  0.00000000000E+00 0.  1.
<mgrwt>
<rscale>  0 0.12580325E+04</rscale>
<asrwt>0</asrwt>
<pdfrwt beam="1">  1        2 0.36941058E+00 0.12580325E+04</pdfrwt>
<pdfrwt beam="2">  1       -2 0.25350566E-01 0.12580325E+04</pdfrwt>
<totfact> 0.54810030E+01</totfact>
</mgrwt>
</event>
<event>
12    1  0.1097093E-007  0.1416685E+04  0.7818608E-02  0.8941829E-01
         -1   -1    0    0    0  501 -0.00000000000E+00  0.00000000000E+00  0.27676466782E+03  0.27676466782E+03  0.00000000000E+00 0.  1.
          1   -1    0    0  501    0  0.00000000000E+00 -0.00000000000E+00 -0.18129076720E+04  0.18129076720E+04  0.00000000000E+00 0. -1.
         23    2    1    2    0    0 -0.16574170779E+02  0.11472150495E+03  0.11902736753E+03  0.18973749465E+03  0.91635559817E+02 0.  0.
        254    2    1    2    0    0  0.16574170779E+02 -0.11472150495E+03 -0.16551703717E+04  0.18999348451E+04  0.92559587813E+03 0.  0.
        -24    2    4    4    0    0  0.21042946205E+03 -0.45274323228E+03 -0.68758144362E+03  0.85358460512E+03  0.81126096940E+02 0.  0.
         24    2    4    4    0    0 -0.19385529127E+03  0.33802172734E+03 -0.96758892806E+03  0.10463502400E+04  0.82352467873E+02 0.  0.
         11    1    3    3    0    0  0.18292735019E+02 -0.22320501082E+01 -0.11426911324E+01  0.18463800941E+02  0.00000000000E+00 0. -1.
        -11    1    3    3    0    0 -0.34866905799E+02  0.11695355505E+03  0.12017005866E+03  0.17127369371E+03  0.00000000000E+00 0.  1.
          4    1    6    6  502    0 -0.76337364118E+02  0.96746747902E+02 -0.39917984249E+03  0.41777011985E+03  0.00000000000E+00 0. -1.
          1    1    5    5  503    0  0.13847095438E+03 -0.20656697896E+03 -0.31700119968E+03  0.40290679146E+03  0.00000000000E+00 0. -1.
         -2    1    5    5    0  503  0.71958507669E+02 -0.24617625332E+03 -0.37058024395E+03  0.45067781366E+03  0.00000000000E+00 0.  1.
         -3    1    6    6    0  502 -0.11751792715E+03  0.24127497943E+03 -0.56840908556E+03  0.62858012016E+03  0.00000000000E+00 0.  1.
<mgrwt>
<rscale>  0 0.14166846E+04</rscale>
<asrwt>0</asrwt>
<pdfrwt beam="1">  1        1 0.27890888E+00 0.14166846E+04</pdfrwt>
<pdfrwt beam="2">  1       -1 0.42579179E-01 0.14166846E+04</pdfrwt>
<totfact> 0.21112017E+01</totfact>
</mgrwt>
</event>
<event>
12    1  0.1097093E-007  0.1501062E+04  0.7818608E-02  0.8883747E-01
          2   -1    0    0  501    0  0.00000000000E+00  0.00000000000E+00  0.46996374034E+03  0.46996374034E+03  0.00000000000E+00 0. -1.
         -2   -1    0    0    0  501 -0.00000000000E+00 -0.00000000000E+00 -0.11985955858E+04  0.11985955858E+04  0.00000000000E+00 0.  1.
         23    2    1    2    0    0  0.33796211959E+03  0.27282603902E+02  0.14286290278E+03  0.37936965018E+03  0.92459654627E+02 0.  0.
        254    2    1    2    0    0 -0.33796211959E+03 -0.27282603902E+02 -0.87149474824E+03  0.12891896760E+04  0.88743686516E+03 0.  0.
        -24    2    4    4    0    0 -0.39753321683E+03 -0.37032564837E+03 -0.70948090093E+03  0.89700999192E+03  0.78038660255E+02 0.  0.
         24    2    4    4    0    0  0.59571097243E+02  0.34304304447E+03 -0.16201384730E+03  0.39217968404E+03  0.79556092602E+02 0.  0.
         13    1    3    3    0    0  0.29977837089E+03  0.48459699283E+02  0.14311868292E+03  0.33570578116E+03  0.00000000000E+00 0. -1.
        -13    1    3    3    0    0  0.38183748701E+02 -0.21177095381E+02 -0.25578014564E+00  0.43663869012E+02  0.00000000000E+00 0.  1.
          2    1    6    6  502    0  0.47172805153E+01  0.24059315505E+03 -0.10166906703E+03  0.26123536932E+03  0.00000000000E+00 0. -1.
          1    1    5    5  503    0 -0.16218236880E+03 -0.20423309347E+03 -0.34119359226E+03  0.42945004903E+03  0.00000000000E+00 0. -1.
         -2    1    5    5    0  503 -0.23535084803E+03 -0.16609255490E+03 -0.36828730868E+03  0.46755994289E+03  0.00000000000E+00 0.  1.
         -1    1    6    6    0  502  0.54853816727E+02  0.10244988942E+03 -0.60344780272E+02  0.13094431472E+03  0.00000000000E+00 0.  1.
<mgrwt>
<rscale>  0 0.15010616E+04</rscale>
<asrwt>0</asrwt>
<pdfrwt beam="1">  1        2 0.72302114E-01 0.15010616E+04</pdfrwt>
<pdfrwt beam="2">  1       -2 0.18439932E+00 0.15010616E+04</pdfrwt>
<totfact> 0.10799633E+01</totfact>
</mgrwt>
</event>
<event>
12    1  0.1097093E-007  0.2033873E+04  0.7818608E-02  0.8590946E-01
         -2   -1    0    0    0  501 -0.00000000000E+00  0.00000000000E+00  0.93237620761E+03  0.93237620761E+03  0.00000000000E+00 0.  1.
          2   -1    0    0  501    0  0.00000000000E+00 -0.00000000000E+00 -0.11091660372E+04  0.11091660372E+04  0.00000000000E+00 0. -1.
         23    2    1    2    0    0  0.23527273612E+03 -0.15297487874E+03 -0.83942419685E+03  0.88966612329E+03  0.90101358438E+02 0.  0.
        254    2    1    2    0    0 -0.23527273612E+03  0.15297487874E+03  0.66263436727E+03  0.11518761215E+04  0.89943299958E+03 0.  0.
        -24    2    4    4    0    0 -0.34090056593E+03  0.47694696611E+03  0.39759781165E+03  0.71292009029E+03  0.80494912721E+02 0.  0.
         24    2    4    4    0    0  0.10562782981E+03 -0.32397208737E+03  0.26503655562E+03  0.43895603122E+03  0.79516474444E+02 0.  0.
         13    1    3    3    0    0  0.22642494735E+03 -0.11665878926E+03 -0.76663244379E+03  0.80783837106E+03  0.00000000000E+00 0. -1.
        -13    1    3    3    0    0  0.88477887716E+01 -0.36316089479E+02 -0.72791753056E+02  0.81827752225E+02  0.00000000000E+00 0.  1.
          2    1    6    6  502    0  0.93374658003E+02 -0.16627700150E+03  0.12796540966E+03  0.22965629548E+03  0.00000000000E+00 0. -1.
          3    1    5    5  503    0 -0.11827436400E+03  0.23310280086E+03  0.16708060438E+03  0.31022841474E+03  0.00000000000E+00 0. -1.
         -4    1    5    5    0  503 -0.22262620193E+03  0.24384416525E+03  0.23051720727E+03  0.40269167555E+03  0.00000000000E+00 0.  1.
         -1    1    6    6    0  502  0.12253171803E+02 -0.15769508587E+03  0.13707114596E+03  0.20929973574E+03  0.00000000000E+00 0.  1.
<mgrwt>
<rscale>  0 0.20338732E+04</rscale>
<asrwt>0</asrwt>
<pdfrwt beam="1">  1        2 0.17064093E+00 0.20338732E+04</pdfrwt>
<pdfrwt beam="2">  1       -2 0.14344249E+00 0.20338732E+04</pdfrwt>
<totfact> 0.67165209E+00</totfact>
</mgrwt>
</event>
<event>
12    1  0.1097093E-007  0.1260270E+04  0.7818608E-02  0.9061678E-01
          2   -1    0    0  501    0  0.00000000000E+00  0.00000000000E+00  0.45339799524E+03  0.45339799524E+03  0.00000000000E+00 0. -1.
         -2   -1    0    0    0  501 -0.00000000000E+00 -0.00000000000E+00 -0.87576542682E+03  0.87576542682E+03  0.00000000000E+00 0.  1.
         23    2    1    2    0    0 -0.26189392862E+03 -0.11867052389E+03 -0.42478085660E+02  0.30464617285E+03  0.91289538191E+02 0.  0.
        254    2    1    2    0    0  0.26189392862E+03  0.11867052389E+03 -0.37988934593E+03  0.10245172492E+04  0.90699975506E+03 0.  0.
        -24    2    4    4    0    0  0.55570205155E+03  0.21481081443E+03 -0.12032310309E+03  0.61306285797E+03  0.80124669031E+02 0.  0.
         24    2    4    4    0    0 -0.29380812293E+03 -0.96140290540E+02 -0.25956624283E+03  0.41145439124E+03  0.79711436341E+02 0.  0.
         13    1    3    3    0    0 -0.24035507541E+03 -0.91572528432E+02 -0.10346490190E+02  0.25741627784E+03  0.00000000000E+00 0. -1.
        -13    1    3    3    0    0 -0.21538853216E+02 -0.27097995455E+02 -0.32131595470E+02  0.47229895013E+02  0.00000000000E+00 0.  1.
          2    1    6    6  502    0 -0.18651826103E+03 -0.52841251147E+02 -0.20937091319E+03  0.28533741221E+03  0.00000000000E+00 0. -1.
          1    1    5    5  503    0  0.13976068091E+02  0.18889151148E+02 -0.13739414506E+02  0.27219515451E+02  0.00000000000E+00 0. -1.
         -2    1    5    5    0  503  0.54172598346E+03  0.19592166328E+03 -0.10658368859E+03  0.58584334252E+03  0.00000000000E+00 0.  1.
         -1    1    6    6    0  502 -0.10728986190E+03 -0.43299039393E+02 -0.50195329646E+02  0.12611697902E+03  0.00000000000E+00 0.  1.
<mgrwt>
<rscale>  0 0.12602703E+04</rscale>
<asrwt>0</asrwt>
<pdfrwt beam="1">  1        2 0.69753538E-01 0.12602703E+04</pdfrwt>
<pdfrwt beam="2">  1       -2 0.13473314E+00 0.12602703E+04</pdfrwt>
<totfact> 0.26851688E+01</totfact>
</mgrwt>
</event>
<event>
12    1  0.1097093E-007  0.1522892E+04  0.7818608E-02  0.8869371E-01
         -1   -1    0    0    0  501 -0.00000000000E+00  0.00000000000E+00  0.64908363621E+03  0.64908363621E+03  0.00000000000E+00 0.  1.
          1   -1    0    0  501    0  0.00000000000E+00 -0.00000000000E+00 -0.89325925562E+03  0.89325925562E+03  0.00000000000E+00 0. -1.
         23    2    1    2    0    0  0.13531475908E+03 -0.16960889780E+03 -0.53381846753E+03  0.58535991604E+03  0.10298938194E+03 0.  0.
        254    2    1    2    0    0 -0.13531475908E+03  0.16960889780E+03  0.28964284811E+03  0.95698297579E+03  0.88591544419E+03 0.  0.
        -24    2    4    4    0    0  0.82432391646E+02 -0.24186222619E+03  0.39004653813E+03  0.47396510840E+03  0.84936366961E+02 0.  0.
         24    2    4    4    0    0 -0.21774715072E+03  0.41147112399E+03 -0.10040369001E+03  0.48301786739E+03  0.80641501235E+02 0.  0.
         13    1    3    3    0    0  0.10064337302E+03 -0.45615931818E+02 -0.27232722080E+03  0.29389116516E+03  0.00000000000E+00 0. -1.
        -13    1    3    3    0    0  0.34671386060E+02 -0.12399296599E+03 -0.26149124673E+03  0.29146875088E+03  0.00000000000E+00 0.  1.
          4    1    6    6  502    0 -0.13127668553E+03  0.23354519841E+03 -0.97711460414E+02  0.28517443322E+03  0.00000000000E+00 0. -1.
          3    1    5    5  503    0  0.54999399248E+02 -0.70125935066E+02  0.18315919449E+03  0.20369062623E+03  0.00000000000E+00 0. -1.
         -4    1    5    5    0  503  0.27432992397E+02 -0.17173629112E+03  0.20688734364E+03  0.27027448218E+03  0.00000000000E+00 0.  1.
         -3    1    6    6    0  502 -0.86470465195E+02  0.17792592558E+03 -0.26922295980E+01  0.19784343417E+03  0.00000000000E+00 0.  1.
<mgrwt>
<rscale>  0 0.15228919E+04</rscale>
<asrwt>0</asrwt>
<pdfrwt beam="1">  1        1 0.13742450E+00 0.15228919E+04</pdfrwt>
<pdfrwt beam="2">  1       -1 0.99859021E-01 0.15228919E+04</pdfrwt>
<totfact> 0.17021876E+01</totfact>
</mgrwt>
</event>
<event>
12    1  0.1097093E-007  0.1621176E+04  0.7818608E-02  0.8807643E-01
         -1   -1    0    0    0  501 -0.00000000000E+00  0.00000000000E+00  0.56031730787E+03  0.56031730787E+03  0.00000000000E+00 0.  1.
          1   -1    0    0  501    0  0.00000000000E+00 -0.00000000000E+00 -0.11726443109E+04  0.11726443109E+04  0.00000000000E+00 0. -1.
         23    2    1    2    0    0 -0.21079565274E+03 -0.50595084947E+03 -0.10102329560E+03  0.56458551859E+03  0.90166691501E+02 0.  0.
        254    2    1    2    0    0  0.21079565274E+03  0.50595084947E+03 -0.51130370744E+03  0.11683761002E+04  0.89624224458E+03 0.  0.
        -24    2    4    4    0    0  0.25436279987E+03 -0.21528393395E+02  0.15861705775E+03  0.31090742186E+03  0.79625048090E+02 0.  0.
         24    2    4    4    0    0 -0.43567147122E+02  0.52747924286E+03 -0.66992076518E+03  0.85746867833E+03  0.79537756645E+02 0.  0.
         11    1    3    3    0    0 -0.87244995088E+02 -0.23593961370E+03 -0.90912760161E+02  0.26747770083E+03  0.00000000000E+00 0. -1.
        -11    1    3    3    0    0 -0.12355065766E+03 -0.27001123577E+03 -0.10110535435E+02  0.29710781776E+03  0.00000000000E+00 0.  1.
          2    1    6    6  502    0 -0.48273187544E+02  0.38466110626E+03 -0.43670668870E+03  0.58395821705E+03  0.00000000000E+00 0. -1.
          3    1    5    5  503    0  0.21558188091E+03 -0.14101698450E+02  0.94943347725E+02  0.23598441591E+03  0.00000000000E+00 0. -1.
         -4    1    5    5    0  503  0.38780918956E+02 -0.74266949450E+01  0.63673710021E+02  0.74923005951E+02  0.00000000000E+00 0.  1.
         -1    1    6    6    0  502  0.47060404225E+01  0.14281813660E+03 -0.23321407649E+03  0.27351046128E+03  0.00000000000E+00 0.  1.
<mgrwt>
<rscale>  0 0.16211760E+04</rscale>
<asrwt>0</asrwt>
<pdfrwt beam="1">  1        1 0.18040682E+00 0.16211760E+04</pdfrwt>
<pdfrwt beam="2">  1       -1 0.86202664E-01 0.16211760E+04</pdfrwt>
<totfact> 0.14236892E+01</totfact>
</mgrwt>
</event>
<event>
12    1  0.1097093E-007  0.1662816E+04  0.7818608E-02  0.8782861E-01
          2   -1    0    0  501    0  0.00000000000E+00  0.00000000000E+00  0.83782367916E+03  0.83782367916E+03  0.00000000000E+00 0. -1.
         -2   -1    0    0    0  501 -0.00000000000E+00 -0.00000000000E+00 -0.82504156838E+03  0.82504156838E+03  0.00000000000E+00 0.  1.
         23    2    1    2    0    0  0.51975176922E+02 -0.53118214571E+02  0.50458528623E+03  0.51794023672E+03  0.90182115707E+02 0.  0.
        254    2    1    2    0    0 -0.51975176922E+02  0.53118214571E+02 -0.49180317544E+03  0.11449250108E+04  0.10312419470E+04 0.  0.
        -24    2    4    4    0    0 -0.35727453800E+03 -0.15388127887E+03  0.12918710699E+03  0.41793976821E+03  0.81607583915E+02 0.  0.
         24    2    4    4    0    0  0.30529936107E+03  0.20699949345E+03 -0.62099028243E+03  0.72698524261E+03  0.82596137594E+02 0.  0.
         13    1    3    3    0    0  0.52715832072E+02 -0.43551957953E+02  0.17027071088E+03  0.18348800227E+03  0.00000000000E+00 0. -1.
        -13    1    3    3    0    0 -0.74065514950E+00 -0.95662566185E+01  0.33431457535E+03  0.33445223445E+03  0.00000000000E+00 0.  1.
          4    1    6    6  502    0  0.55855376858E+02  0.69856506732E+02 -0.19634657076E+03  0.21575850043E+03  0.00000000000E+00 0. -1.
          1    1    5    5  503    0 -0.59269122951E+02 -0.36309837339E+02  0.56165797070E+02  0.89363471192E+02  0.00000000000E+00 0. -1.
         -2    1    5    5    0  503 -0.29800541505E+03 -0.11757144153E+03  0.73021309918E+02  0.32857629702E+03  0.00000000000E+00 0.  1.
         -3    1    6    6    0  502  0.24944398422E+03  0.13714298671E+03 -0.42464371167E+03  0.51122674218E+03  0.00000000000E+00 0.  1.
<mgrwt>
<rscale>  0 0.16628161E+04</rscale>
<asrwt>0</asrwt>
<pdfrwt beam="1">  1        2 0.12889595E+00 0.16628161E+04</pdfrwt>
<pdfrwt beam="2">  1       -2 0.12692947E+00 0.16628161E+04</pdfrwt>
<totfact> 0.14249663E+01</totfact>
</mgrwt>
</event>
<event>
12    1  0.1097093E-007  0.1838565E+04  0.7818608E-02  0.8686055E-01
          2   -1    0    0  501    0  0.00000000000E+00  0.00000000000E+00  0.38842704787E+04  0.38842704787E+04  0.00000000000E+00 0.  1.
         -2   -1    0    0    0  501 -0.00000000000E+00 -0.00000000000E+00 -0.21756484536E+03  0.21756484536E+03  0.00000000000E+00 0. -1.
         23    2    1    2    0    0 -0.38677627294E+03  0.41304187334E+03  0.49534054813E+03  0.75781775183E+03  0.93413125036E+02 0.  0.
        254    2    1    2    0    0  0.38677627294E+03 -0.41304187334E+03  0.31713650852E+04  0.33440175722E+04  0.89704935492E+03 0.  0.
        -24    2    4    4    0    0 -0.16458491809E+03  0.17309881424E+03  0.73788413339E+03  0.77962606870E+03  0.79324762372E+02 0.  0.
         24    2    4    4    0    0  0.55136119103E+03 -0.58614068758E+03  0.24334809518E+04  0.25643915035E+04  0.81940050374E+02 0.  0.
         13    1    3    3    0    0 -0.43855112612E+02  0.52874017881E+02  0.24373899308E+02  0.72890463276E+02  0.00000000000E+00 0.  1.
        -13    1    3    3    0    0 -0.34292116033E+03  0.36016785546E+03  0.47096664882E+03  0.68492728856E+03  0.00000000000E+00 0. -1.
          2    1    6    6  502    0  0.50040781741E+03 -0.51712127313E+03  0.20921843025E+04  0.22124776949E+04  0.00000000000E+00 0. -1.
          3    1    5    5  503    0 -0.16532065923E+03  0.13511753451E+03  0.61546967798E+03  0.65145267903E+03  0.00000000000E+00 0. -1.
         -4    1    5    5    0  503  0.73574114396E+00  0.37981279731E+02  0.12241445542E+03  0.12817338967E+03  0.00000000000E+00 0.  1.
         -1    1    6    6    0  502  0.50953373619E+02 -0.69019414447E+02  0.34129664933E+03  0.35191380862E+03  0.00000000000E+00 0.  1.
<mgrwt>
<rscale>  0 0.18385654E+04</rscale>
<asrwt>0</asrwt>
<pdfrwt beam="1">  1        2 0.59758002E+00 0.18385654E+04</pdfrwt>
<pdfrwt beam="2">  1       -2 0.33471517E-01 0.18385654E+04</pdfrwt>
<totfact> 0.33608695E+00</totfact>
</mgrwt>
</event>
<event>
12    1  0.1097093E-007  0.3463847E+04  0.7818608E-02  0.8122412E-01
         -2   -1    0    0    0  501 -0.00000000000E+00  0.00000000000E+00  0.82957286586E+03  0.82957286586E+03  0.00000000000E+00 0.  1.
          2   -1    0    0  501    0  0.00000000000E+00 -0.00000000000E+00 -0.36157872246E+04  0.36157872246E+04  0.00000000000E+00 0. -1.
         23    2    1    2    0    0 -0.12391925346E+04  0.89576010803E+03 -0.66501799716E+03  0.16695608239E+04  0.84853398122E+02 0.  0.
        254    2    1    2    0    0  0.12391925346E+04 -0.89576010803E+03 -0.21211963615E+04  0.27757992665E+04  0.93145222888E+03 0.  0.
        -24    2    4    4    0    0  0.40762736518E+03 -0.22661517607E+03 -0.92656463818E+02  0.48221870611E+03  0.80219407646E+02 0.  0.
         24    2    4    4    0    0  0.83156516946E+03 -0.66914493195E+03 -0.20285398977E+04  0.22935805604E+04  0.79259695760E+02 0.  0.
         13    1    3    3    0    0 -0.67298342851E+03  0.48309375223E+03 -0.31421718610E+03  0.88601281511E+03  0.00000000000E+00 0. -1.
        -13    1    3    3    0    0 -0.56620910613E+03  0.41266635580E+03 -0.35080081105E+03  0.78354800881E+03  0.00000000000E+00 0.  1.
          2    1    6    6  502    0  0.68848739119E+03 -0.58959221936E+03 -0.17041533130E+04  0.19302259938E+04  0.00000000000E+00 0. -1.
          3    1    5    5  503    0  0.27011995061E+03 -0.11011561683E+03 -0.39804306813E+02  0.29440553600E+03  0.00000000000E+00 0. -1.
         -4    1    5    5    0  503  0.13750741457E+03 -0.11649955925E+03 -0.52852157005E+02  0.18781317011E+03  0.00000000000E+00 0.  1.
         -1    1    6    6    0  502  0.14307777827E+03 -0.79552712592E+02 -0.32438658476E+03  0.36335456663E+03  0.00000000000E+00 0.  1.
<mgrwt>
<rscale>  0 0.34638470E+04</rscale>
<asrwt>0</asrwt>
<pdfrwt beam="1">  1        2 0.55627497E+00 0.34638470E+04</pdfrwt>
<pdfrwt beam="2">  1       -2 0.12762659E+00 0.34638470E+04</pdfrwt>
<totfact> 0.25174922E-01</totfact>
</mgrwt>
</event>
<event>
12    1  0.1097093E-007  0.1316483E+04  0.7818608E-02  0.9016595E-01
          2   -1    0    0  501    0  0.00000000000E+00  0.00000000000E+00  0.10544296747E+04  0.10544296747E+04  0.00000000000E+00 0. -1.
         -2   -1    0    0    0  501 -0.00000000000E+00 -0.00000000000E+00 -0.41091614616E+03  0.41091614616E+03  0.00000000000E+00 0.  1.
         23    2    1    2    0    0 -0.88265271986E+02  0.15739479843E+03 -0.15123482236E+03  0.25239074440E+03  0.90913340898E+02 0.  0.
        254    2    1    2    0    0  0.88265271986E+02 -0.15739479843E+03  0.79474835090E+03  0.12129550765E+04  0.89837141287E+03 0.  0.
        -24    2    4    4    0    0  0.31215444939E+03 -0.38737858201E+03  0.21958458946E+03  0.54974532731E+03  0.80622372175E+02 0.  0.
         24    2    4    4    0    0 -0.22388917741E+03  0.22998378359E+03  0.57516376144E+03  0.66320974916E+03  0.77555879407E+02 0.  0.
         13    1    3    3    0    0 -0.87874224795E+02  0.14864296002E+03 -0.16317817424E+03  0.23757888268E+03  0.00000000000E+00 0.  1.
        -13    1    3    3    0    0 -0.39104719143E+00  0.87518384114E+01  0.11943351882E+02  0.14811861721E+02  0.00000000000E+00 0. -1.
          4    1    6    6  502    0 -0.25880135300E+02 -0.42542648119E+00  0.35901976184E+02  0.44259623640E+02  0.00000000000E+00 0. -1.
          1    1    5    5  503    0  0.93667996133E+01 -0.12440222468E+02 -0.71563809210E+01  0.17137965397E+02  0.00000000000E+00 0. -1.
         -2    1    5    5    0  503  0.30278764978E+03 -0.37493835955E+03  0.22674097038E+03  0.53260736192E+03  0.00000000000E+00 0.  1.
         -3    1    6    6    0  502 -0.19800904211E+03  0.23040921007E+03  0.53926178525E+03  0.61895012552E+03  0.00000000000E+00 0.  1.
<mgrwt>
<rscale>  0 0.13164835E+04</rscale>
<asrwt>0</asrwt>
<pdfrwt beam="1">  1        2 0.16221995E+00 0.13164835E+04</pdfrwt>
<pdfrwt beam="2">  1       -2 0.63217869E-01 0.13164835E+04</pdfrwt>
<totfact> 0.52777223E+01</totfact>
</mgrwt>
</event>
<event>
12    1  0.1097093E-007  0.1546938E+04  0.7818608E-02  0.8853826E-01
         -2   -1    0    0    0  501 -0.00000000000E+00  0.00000000000E+00  0.49058438385E+03  0.49058438385E+03  0.00000000000E+00 0.  1.
          2   -1    0    0  501    0  0.00000000000E+00 -0.00000000000E+00 -0.12194720088E+04  0.12194720088E+04  0.00000000000E+00 0. -1.
         23    2    1    2    0    0 -0.10017785489E+03 -0.41280072464E+03  0.10005588586E+03  0.44610103059E+03  0.92492747411E+02 0.  0.
        254    2    1    2    0    0  0.10017785489E+03  0.41280072464E+03 -0.82894351077E+03  0.12639553620E+04  0.85439790044E+03 0.  0.
        -24    2    4    4    0    0 -0.36434462811E+03  0.24193312616E+03 -0.47153739999E+03  0.64813171889E+03  0.80302925675E+02 0.  0.
         24    2    4    4    0    0  0.46452248301E+03  0.17086759848E+03 -0.35740611079E+03  0.61582364314E+03  0.80763593261E+02 0.  0.
         11    1    3    3    0    0 -0.68776857271E+02 -0.38763468579E+03  0.82724287450E+02  0.40228623324E+03  0.00000000000E+00 0.  1.
        -11    1    3    3    0    0 -0.31400997622E+02 -0.25166038852E+02  0.17331598409E+02  0.43814797347E+02  0.00000000000E+00 0. -1.
          4    1    6    6  502    0  0.41575703794E+03  0.13315027501E+03 -0.28803484808E+03  0.52301719287E+03  0.00000000000E+00 0. -1.
          3    1    5    5  503    0 -0.20776201262E+03  0.18310160791E+03 -0.30818650179E+03  0.41433099400E+03  0.00000000000E+00 0. -1.
         -4    1    5    5    0  503 -0.15658261549E+03  0.58831518254E+02 -0.16335089820E+03  0.23380072488E+03  0.00000000000E+00 0.  1.
         -3    1    6    6    0  502  0.48765445065E+02  0.37717323461E+02 -0.69371262706E+02  0.92806450265E+02  0.00000000000E+00 0.  1.
<mgrwt>
<rscale>  0 0.15469375E+04</rscale>
<asrwt>0</asrwt>
<pdfrwt beam="1">  1        2 0.18761108E+00 0.15469375E+04</pdfrwt>
<pdfrwt beam="2">  1       -2 0.75474521E-01 0.15469375E+04</pdfrwt>
<totfact> 0.27959111E+01</totfact>
</mgrwt>
</event>
<event>
12    1  0.1097093E-007  0.1617748E+04  0.7818608E-02  0.8809718E-01
          1   -1    0    0  501    0  0.00000000000E+00  0.00000000000E+00  0.91278689453E+03  0.91278689453E+03  0.00000000000E+00 0. -1.
         -1   -1    0    0    0  501 -0.00000000000E+00 -0.00000000000E+00 -0.71679082604E+03  0.71679082604E+03  0.00000000000E+00 0.  1.
         23    2    1    2    0    0  0.38386403942E+03  0.38509016108E+03  0.15734467468E+03  0.57319953528E+03  0.90301316017E+02 0.  0.
        254    2    1    2    0    0 -0.38386403942E+03 -0.38509016108E+03  0.38651393813E+02  0.10563781853E+04  0.90487286797E+03 0.  0.
        -24    2    4    4    0    0 -0.34972836031E+03  0.18623657605E+03  0.20716386587E+03  0.45430357360E+03  0.80503921656E+02 0.  0.
         24    2    4    4    0    0 -0.34135679110E+02 -0.57132673713E+03 -0.16851247206E+03  0.60207461169E+03  0.80733510137E+02 0.  0.
         11    1    3    3    0    0  0.36164578540E+03  0.38213609943E+03  0.16158835423E+03  0.55038756237E+03  0.00000000000E+00 0. -1.
        -11    1    3    3    0    0  0.22218254021E+02  0.29540616455E+01 -0.42436795505E+01  0.22811972911E+02  0.00000000000E+00 0.  1.
          2    1    6    6  502    0  0.95644247742E+00 -0.47867573253E+03 -0.14638509920E+03  0.50055965575E+03  0.00000000000E+00 0. -1.
          3    1    5    5  503    0 -0.32163732188E+03  0.16620761217E+03  0.15988703358E+03  0.39577695825E+03  0.00000000000E+00 0. -1.
         -4    1    5    5    0  503 -0.28091038429E+02  0.20028963873E+02  0.47276832285E+02  0.58526615354E+02  0.00000000000E+00 0.  1.
         -1    1    6    6    0  502 -0.35092121588E+02 -0.92651004596E+02 -0.22127372857E+02  0.10151495594E+03  0.00000000000E+00 0.  1.
<mgrwt>
<rscale>  0 0.16177482E+04</rscale>
<asrwt>0</asrwt>
<pdfrwt beam="1">  1        1 0.14042875E+00 0.16177482E+04</pdfrwt>
<pdfrwt beam="2">  1       -1 0.11027551E+00 0.16177482E+04</pdfrwt>
<totfact> 0.12915646E+01</totfact>
</mgrwt>
</event>
<event>
12    1  0.1097093E-007  0.3714160E+04  0.7818608E-02  0.8064831E-01
         -2   -1    0    0    0  501 -0.00000000000E+00  0.00000000000E+00  0.11646083403E+04  0.11646083403E+04  0.00000000000E+00 0.  1.
          2   -1    0    0  501    0  0.00000000000E+00 -0.00000000000E+00 -0.29612922308E+04  0.29612922308E+04  0.00000000000E+00 0. -1.
         23    2    1    2    0    0  0.13141884722E+04 -0.26286241843E+03 -0.20899060230E+04  0.24844059513E+04  0.91530074579E+02 0.  0.
        254    2    1    2    0    0 -0.13141884722E+04  0.26286241843E+03  0.29322213252E+03  0.16414946198E+04  0.90129760708E+03 0.  0.
        -24    2    4    4    0    0 -0.40843225260E+03  0.16394502233E+03 -0.31160361108E+03  0.54495574335E+03  0.78645257073E+02 0.  0.
         24    2    4    4    0    0 -0.90575621955E+03  0.98917396104E+02  0.60482574360E+03  0.10965388765E+04  0.80027163968E+02 0.  0.
         11    1    3    3    0    0  0.62911697455E+03 -0.17068836112E+03 -0.99105988447E+03  0.11862218928E+04  0.00000000000E+00 0.  1.
        -11    1    3    3    0    0  0.68507149760E+03 -0.92174057316E+02 -0.10988461385E+04  0.12981840585E+04  0.00000000000E+00 0. -1.
          2    1    6    6  502    0 -0.67939031617E+03  0.10632106947E+03  0.43910721131E+03  0.81589859330E+03  0.00000000000E+00 0. -1.
          3    1    5    5  503    0 -0.21783428405E+03  0.71446172205E+02 -0.20612928556E+03  0.30829468564E+03  0.00000000000E+00 0. -1.
         -4    1    5    5    0  503 -0.19059796856E+03  0.92498850124E+02 -0.10547432552E+03  0.23666105771E+03  0.00000000000E+00 0.  1.
         -1    1    6    6    0  502 -0.22636590337E+03 -0.74036733669E+01  0.16571853230E+03  0.28064028317E+03  0.00000000000E+00 0.  1.
<mgrwt>
<rscale>  0 0.37141597E+04</rscale>
<asrwt>0</asrwt>
<pdfrwt beam="1">  1        2 0.45558341E+00 0.37141597E+04</pdfrwt>
<pdfrwt beam="2">  1       -2 0.17917052E+00 0.37141597E+04</pdfrwt>
<totfact> 0.27296138E-01</totfact>
</mgrwt>
</event>
<event>
12    1  0.1097093E-007  0.1274853E+04  0.7818608E-02  0.9049748E-01
          2   -1    0    0  501    0  0.00000000000E+00  0.00000000000E+00  0.70927441991E+03  0.70927441991E+03  0.00000000000E+00 0.  1.
         -2   -1    0    0    0  501 -0.00000000000E+00 -0.00000000000E+00 -0.57285624269E+03  0.57285624269E+03  0.00000000000E+00 0. -1.
         23    2    1    2    0    0 -0.30387200374E+03 -0.45338444501E+02  0.61217333726E+02  0.32621941836E+03  0.90982293646E+02 0.  0.
        254    2    1    2    0    0  0.30387200374E+03  0.45338444501E+02  0.75200843498E+02  0.95591124424E+03  0.90206284193E+03 0.  0.
        -24    2    4    4    0    0 -0.21713010083E+03  0.27399945487E+03 -0.68658657606E+02  0.36378089791E+03  0.73493866867E+02 0.  0.
         24    2    4    4    0    0  0.52100210457E+03 -0.22866101037E+03  0.14385950110E+03  0.59213034632E+03  0.78700319868E+02 0.  0.
         11    1    3    3    0    0 -0.65119854388E+02 -0.30518197268E+01  0.52316904657E+02  0.83588082596E+02  0.00000000000E+00 0. -1.
        -11    1    3    3    0    0 -0.23875214935E+03 -0.42286624774E+02  0.89004290690E+01  0.24263133576E+03  0.00000000000E+00 0.  1.
          2    1    6    6  502    0  0.30605047473E+03 -0.96468761400E+02  0.99070803559E+02  0.33583945439E+03  0.00000000000E+00 0. -1.
          1    1    5    5  503    0 -0.20444891010E+03  0.23220060839E+03 -0.78112478592E+02  0.31908938981E+03  0.00000000000E+00 0. -1.
         -2    1    5    5    0  503 -0.12681190734E+02  0.41798846482E+02  0.94538209855E+01  0.44691508107E+02  0.00000000000E+00 0.  1.
         -1    1    6    6    0  502  0.21495162985E+03 -0.13219224897E+03  0.44788697545E+02  0.25629089193E+03  0.00000000000E+00 0.  1.
<mgrwt>
<rscale>  0 0.12748526E+04</rscale>
<asrwt>0</asrwt>
<pdfrwt beam="1">  1        2 0.10911914E+00 0.12748526E+04</pdfrwt>
<pdfrwt beam="2">  1       -2 0.88131730E-01 0.12748526E+04</pdfrwt>
<totfact> 0.43898051E+01</totfact>
</mgrwt>
</event>
<event>
12    1  0.1097093E-007  0.1250354E+04  0.7818608E-02  0.9069889E-01
          2   -1    0    0  501    0  0.00000000000E+00  0.00000000000E+00  0.14594771637E+04  0.14594771637E+04  0.00000000000E+00 0. -1.
         -2   -1    0    0    0  501 -0.00000000000E+00 -0.00000000000E+00 -0.26779872598E+03  0.26779872598E+03  0.00000000000E+00 0.  1.
         23    2    1    2    0    0  0.18597529502E+03  0.96012344450E+01  0.59065079431E+03  0.62618367310E+03  0.92512904929E+02 0.  0.
        254    2    1    2    0    0 -0.18597529502E+03 -0.96012344450E+01  0.60102764343E+03  0.11010922166E+04  0.90359883092E+03 0.  0.
        -24    2    4    4    0    0 -0.36601644197E+02 -0.16875044328E+03 -0.19471536852E+03  0.27223659013E+03  0.79889259604E+02 0.  0.
         24    2    4    4    0    0 -0.14937365082E+03  0.15914920884E+03  0.79574301194E+03  0.82885562648E+03  0.78445842793E+02 0.  0.
         13    1    3    3    0    0  0.17964054486E+03  0.27917060970E+02  0.56794350852E+03  0.59633037531E+03  0.00000000000E+00 0. -1.
        -13    1    3    3    0    0  0.63347501537E+01 -0.18315826525E+02  0.22707285793E+02  0.29853297789E+02  0.00000000000E+00 0.  1.
          2    1    6    6  502    0 -0.63136675426E+02  0.16583726864E+02  0.21713536724E+03  0.22673558937E+03  0.00000000000E+00 0. -1.
          1    1    5    5  503    0  0.12874029310E+02 -0.12890846582E+02 -0.52328605345E+02  0.55409362870E+02  0.00000000000E+00 0. -1.
         -2    1    5    5    0  503 -0.49475673507E+02 -0.15585959670E+03 -0.14238676317E+03  0.21682722726E+03  0.00000000000E+00 0.  1.
         -1    1    6    6    0  502 -0.86236975395E+02  0.14256548197E+03  0.57860764471E+03  0.60212003711E+03  0.00000000000E+00 0.  1.
<mgrwt>
<rscale>  0 0.12503538E+04</rscale>
<asrwt>0</asrwt>
<pdfrwt beam="1">  1        2 0.22453494E+00 0.12503538E+04</pdfrwt>
<pdfrwt beam="2">  1       -2 0.41199805E-01 0.12503538E+04</pdfrwt>
<totfact> 0.73414058E+01</totfact>
</mgrwt>
</event>
<event>
12    1  0.1097093E-007  0.1463141E+04  0.7818608E-02  0.8909340E-01
         -1   -1    0    0    0  501 -0.00000000000E+00  0.00000000000E+00  0.28627867505E+03  0.28627867505E+03  0.00000000000E+00 0.  1.
          1   -1    0    0  501    0  0.00000000000E+00 -0.00000000000E+00 -0.18694921887E+04  0.18694921887E+04  0.00000000000E+00 0. -1.
         23    2    1    2    0    0 -0.30446739068E+03 -0.15118871444E+03 -0.25616710625E+02  0.35273433119E+03  0.90591794184E+02 0.  0.
        254    2    1    2    0    0  0.30446739068E+03  0.15118871444E+03 -0.15575968030E+04  0.18030365325E+04  0.84218437269E+03 0.  0.
        -24    2    4    4    0    0  0.48099613963E+03  0.13797786843E+03 -0.15254771803E+04  0.16073753163E+04  0.78610441657E+02 0.  0.
         24    2    4    4    0    0 -0.17652874895E+03  0.13210846015E+02 -0.32119622706E+02  0.19566121618E+03  0.76907188844E+02 0.  0.
         11    1    3    3    0    0 -0.10785776866E+02  0.36582107185E+01 -0.17193764498E+02  0.20623797562E+02  0.00000000000E+00 0. -1.
        -11    1    3    3    0    0 -0.29368161381E+03 -0.15484692516E+03 -0.84229461266E+01  0.33211053362E+03  0.00000000000E+00 0.  1.
          4    1    6    6  502    0 -0.47180729979E+02  0.42151244110E-01 -0.44756325484E+02  0.65031928534E+02  0.00000000000E+00 0. -1.
          3    1    5    5  503    0  0.37026383197E+03  0.81569158277E+02 -0.10672209582E+04  0.11325676167E+04  0.00000000000E+00 0. -1.
         -4    1    5    5    0  503  0.11073230765E+03  0.56408710150E+02 -0.45825622207E+03  0.47480769961E+03  0.00000000000E+00 0.  1.
         -3    1    6    6    0  502 -0.12934801897E+03  0.13168694771E+02  0.12636702778E+02  0.13062928765E+03  0.00000000000E+00 0.  1.
<mgrwt>
<rscale>  0 0.14631415E+04</rscale>
<asrwt>0</asrwt>
<pdfrwt beam="1">  1        1 0.28761419E+00 0.14631415E+04</pdfrwt>
<pdfrwt beam="2">  1       -1 0.44042872E-01 0.14631415E+04</pdfrwt>
<totfact> 0.18081770E+01</totfact>
</mgrwt>
</event>
<event>
12    1  0.1097093E-007  0.1949080E+04  0.7818608E-02  0.8630805E-01
          2   -1    0    0  501    0  0.00000000000E+00  0.00000000000E+00  0.13796122403E+04  0.13796122403E+04  0.00000000000E+00 0. -1.
         -2   -1    0    0    0  501 -0.00000000000E+00 -0.00000000000E+00 -0.68840232288E+03  0.68840232288E+03  0.00000000000E+00 0.  1.
         23    2    1    2    0    0  0.26873976592E+03 -0.13338127249E+03 -0.47091452825E+03  0.56550190986E+03  0.89556080211E+02 0.  0.
        254    2    1    2    0    0 -0.26873976592E+03  0.13338127249E+03  0.11621244457E+04  0.15025126533E+04  0.90388020254E+03 0.  0.
        -24    2    4    4    0    0 -0.16117604538E+03 -0.18097928654E+03 -0.34411500634E+02  0.25800769006E+03  0.81563453786E+02 0.  0.
         24    2    4    4    0    0 -0.10756372054E+03  0.31436055903E+03  0.11965359463E+04  0.12445049633E+04  0.81864630526E+02 0.  0.
         11    1    3    3    0    0  0.22912202342E+03 -0.11857646181E+03 -0.33297366696E+03  0.42122291225E+03  0.00000000000E+00 0.  1.
        -11    1    3    3    0    0  0.39617742500E+02 -0.14804810677E+02 -0.13794086128E+03  0.14427899761E+03  0.00000000000E+00 0. -1.
          4    1    6    6  502    0 -0.67781261079E+02  0.22196707774E+03  0.68727061655E+03  0.72539960251E+03  0.00000000000E+00 0. -1.
          3    1    5    5  503    0 -0.14818039837E+03 -0.15986547975E+03 -0.30103233928E+01  0.21799877093E+03  0.00000000000E+00 0. -1.
         -4    1    5    5    0  503 -0.12995647009E+02 -0.21113806788E+02 -0.31401177241E+02  0.40008919136E+02  0.00000000000E+00 0.  1.
         -3    1    6    6    0  502 -0.39782459457E+02  0.92393481286E+02  0.50926532976E+03  0.51910536075E+03  0.00000000000E+00 0.  1.
<mgrwt>
<rscale>  0 0.19490801E+04</rscale>
<asrwt>0</asrwt>
<pdfrwt beam="1">  1        2 0.21224804E+00 0.19490801E+04</pdfrwt>
<pdfrwt beam="2">  1       -2 0.10590805E+00 0.19490801E+04</pdfrwt>
<totfact> 0.99869046E+00</totfact>
</mgrwt>
</event>
<event>
12    1  0.1097093E-007  0.3063985E+04  0.7818608E-02  0.8225692E-01
         -2   -1    0    0    0  501 -0.00000000000E+00  0.00000000000E+00  0.96059381775E+03  0.96059381775E+03  0.00000000000E+00 0.  1.
          2   -1    0    0  501    0  0.00000000000E+00 -0.00000000000E+00 -0.24432819712E+04  0.24432819712E+04  0.00000000000E+00 0. -1.
         23    2    1    2    0    0 -0.13372474073E+04  0.40192432242E+03 -0.56506113600E+03  0.15089894503E+04  0.89338035622E+02 0.  0.
        254    2    1    2    0    0  0.13372474073E+04 -0.40192432242E+03 -0.91762701746E+03  0.18948863386E+04  0.89374554766E+03 0.  0.
        -24    2    4    4    0    0  0.58886342587E+03  0.26578371642E+03 -0.38903888592E+03  0.75833602011E+03  0.79505637520E+02 0.  0.
         24    2    4    4    0    0  0.74838398140E+03 -0.66770803884E+03 -0.52858813154E+03  0.11365503185E+04  0.80178581814E+02 0.  0.
         11    1    3    3    0    0 -0.73888356858E+03  0.18810182172E+03 -0.34086823256E+03  0.83517805001E+03  0.00000000000E+00 0.  1.
        -11    1    3    3    0    0 -0.59836383868E+03  0.21382250070E+03 -0.22419290344E+03  0.67381140032E+03  0.00000000000E+00 0. -1.
          2    1    6    6  502    0  0.11524633736E+03 -0.14014208707E+03 -0.80734166090E+02  0.19859387810E+03  0.00000000000E+00 0. -1.
          1    1    5    5  503    0  0.25200122772E+03  0.81562286542E+02 -0.18913444709E+03  0.32546714801E+03  0.00000000000E+00 0. -1.
         -2    1    5    5    0  503  0.33686219815E+03  0.18422142988E+03 -0.19990443883E+03  0.43286887210E+03  0.00000000000E+00 0.  1.
         -1    1    6    6    0  502  0.63313764403E+03 -0.52756595177E+03 -0.44785396545E+03  0.93795644042E+03  0.00000000000E+00 0.  1.
<mgrwt>
<rscale>  0 0.30639854E+04</rscale>
<asrwt>0</asrwt>
<pdfrwt beam="1">  1        2 0.37588953E+00 0.30639854E+04</pdfrwt>
<pdfrwt beam="2">  1       -2 0.14778367E+00 0.30639854E+04</pdfrwt>
<totfact> 0.99615259E-01</totfact>
</mgrwt>
</event>
<event>
12    1  0.1097093E-007  0.1708416E+04  0.7818608E-02  0.8756579E-01
         -2   -1    0    0    0  501 -0.00000000000E+00  0.00000000000E+00  0.33136302169E+03  0.33136302169E+03  0.00000000000E+00 0.  1.
          2   -1    0    0  501    0  0.00000000000E+00 -0.00000000000E+00 -0.22020294257E+04  0.22020294257E+04  0.00000000000E+00 0. -1.
         23    2    1    2    0    0 -0.42179163578E+03 -0.44488902946E+03 -0.71616605795E+03  0.94712453509E+03  0.91195558315E+02 0.  0.
        254    2    1    2    0    0  0.42179163578E+03  0.44488902946E+03 -0.11545003460E+04  0.15862679123E+04  0.89863252110E+03 0.  0.
        -24    2    4    4    0    0  0.63046360902E+03  0.45276802768E+03 -0.11119737692E+04  0.13584911501E+04  0.80804036174E+02 0.  0.
         24    2    4    4    0    0 -0.20867197324E+03 -0.78789982226E+01 -0.42526576848E+02  0.22777676221E+03  0.80421841800E+02 0.  0.
         13    1    3    3    0    0 -0.53268345289E+02 -0.50396569828E+02 -0.45980920438E+02  0.86553890175E+02  0.00000000000E+00 0. -1.
        -13    1    3    3    0    0 -0.36852329049E+03 -0.39449245963E+03 -0.67018513751E+03  0.86057064491E+03  0.00000000000E+00 0.  1.
          2    1    6    6  502    0 -0.45554968831E+02 -0.32517590424E+02 -0.26817755914E+02  0.62063200888E+02  0.00000000000E+00 0. -1.
          1    1    5    5  503    0  0.22588716601E+03  0.20802874819E+03 -0.46090082009E+03  0.55383259005E+03  0.00000000000E+00 0. -1.
         -2    1    5    5    0  503  0.40457644300E+03  0.24473927949E+03 -0.65107294910E+03  0.80465856002E+03  0.00000000000E+00 0.  1.
         -1    1    6    6    0  502 -0.16311700441E+03  0.24638592201E+02 -0.15708820934E+02  0.16571356133E+03  0.00000000000E+00 0.  1.
<mgrwt>
<rscale>  0 0.17084158E+04</rscale>
<asrwt>0</asrwt>
<pdfrwt beam="1">  1        2 0.33877376E+00 0.17084158E+04</pdfrwt>
<pdfrwt beam="2">  1       -2 0.50978926E-01 0.17084158E+04</pdfrwt>
<totfact> 0.17821096E+01</totfact>
</mgrwt>
</event>
<event>
12    1  0.1097093E-007  0.2081917E+04  0.7818608E-02  0.8569251E-01
         -1   -1    0    0    0  501 -0.00000000000E+00  0.00000000000E+00  0.57236018860E+03  0.57236018860E+03  0.00000000000E+00 0. -1.
          1   -1    0    0  501    0  0.00000000000E+00 -0.00000000000E+00 -0.18932047836E+04  0.18932047836E+04  0.00000000000E+00 0.  1.
         23    2    1    2    0    0  0.73719518853E+03 -0.23549269248E+03 -0.93957817514E+03  0.12206103346E+04  0.90381898306E+02 0.  0.
        254    2    1    2    0    0 -0.73719518853E+03  0.23549269248E+03 -0.38126641985E+03  0.12449546376E+04  0.89757139691E+03 0.  0.
        -24    2    4    4    0    0  0.23233178233E+02  0.12643122578E+03 -0.44467503136E+03  0.46982772646E+03  0.80483374780E+02 0.  0.
         24    2    4    4    0    0 -0.76042836677E+03  0.10906146670E+03  0.63408611502E+02  0.77512691113E+03  0.81580462423E+02 0.  0.
         13    1    3    3    0    0  0.72562804198E+03 -0.22282381931E+03 -0.93159482025E+03  0.12016885698E+04  0.00000000000E+00 0.  1.
        -13    1    3    3    0    0  0.11567146557E+02 -0.12668873166E+02 -0.79833548901E+01  0.18921764772E+02  0.00000000000E+00 0. -1.
          4    1    6    6  502    0 -0.39813725749E+02  0.24996606359E+02  0.26192094045E+01  0.47083153520E+02  0.00000000000E+00 0. -1.
          1    1    5    5  503    0  0.51432252528E+02  0.60753700028E+02 -0.25485014331E+03  0.26699229242E+03  0.00000000000E+00 0. -1.
         -2    1    5    5    0  503 -0.28199074295E+02  0.65677525752E+02 -0.18982488805E+03  0.20283543404E+03  0.00000000000E+00 0.  1.
         -3    1    6    6    0  502 -0.72061464102E+03  0.84064860337E+02  0.60789402098E+02  0.72804375761E+03  0.00000000000E+00 0.  1.
<mgrwt>
<rscale>  0 0.20819174E+04</rscale>
<asrwt>0</asrwt>
<pdfrwt beam="1">  1        1 0.29126227E+00 0.20819174E+04</pdfrwt>
<pdfrwt beam="2">  1       -1 0.88055414E-01 0.20819174E+04</pdfrwt>
<totfact> 0.41106120E+00</totfact>
</mgrwt>
</event>
<event>
12    1  0.1097093E-007  0.1223376E+04  0.7818608E-02  0.9092638E-01
          2   -1    0    0  501    0  0.00000000000E+00  0.00000000000E+00  0.10794184673E+04  0.10794184673E+04  0.00000000000E+00 0. -1.
         -2   -1    0    0    0  501 -0.00000000000E+00 -0.00000000000E+00 -0.34663322054E+03  0.34663322054E+03  0.00000000000E+00 0.  1.
         23    2    1    2    0    0  0.51369811469E+01  0.12759532623E+03 -0.96736403485E+02  0.18393315177E+03  0.90368781723E+02 0.  0.
        254    2    1    2    0    0 -0.51369811469E+01 -0.12759532623E+03  0.82952165028E+03  0.12421185361E+04  0.91566660614E+03 0.  0.
        -24    2    4    4    0    0  0.32622641904E+03  0.24320606621E+03  0.30308461013E+03  0.51375343931E+03  0.80681152628E+02 0.  0.
         24    2    4    4    0    0 -0.33136340019E+03 -0.37080139244E+03  0.52643704015E+03  0.72836509680E+03  0.78002444607E+02 0.  0.
         13    1    3    3    0    0  0.30694115722E-01 -0.12911326828E+02  0.60530435669E+00  0.12925544319E+02  0.00000000000E+00 0. -1.
        -13    1    3    3    0    0  0.51062870312E+01  0.14050665306E+03 -0.97341707842E+02  0.17100760745E+03  0.00000000000E+00 0.  1.
          4    1    6    6  502    0 -0.27563109269E+03 -0.32748528453E+03  0.48348697564E+03  0.64573893057E+03  0.00000000000E+00 0. -1.
          3    1    5    5  503    0  0.15285356546E+03  0.10953320417E+03  0.90848872315E+02  0.20884265104E+03  0.00000000000E+00 0. -1.
         -4    1    5    5    0  503  0.17337285358E+03  0.13367286204E+03  0.21223573782E+03  0.30491078828E+03  0.00000000000E+00 0.  1.
         -3    1    6    6    0  502 -0.55732307497E+02 -0.43316107906E+02  0.42950064518E+02  0.82626166226E+02  0.00000000000E+00 0.  1.
<mgrwt>
<rscale>  0 0.12233761E+04</rscale>
<asrwt>0</asrwt>
<pdfrwt beam="1">  1        2 0.16606438E+00 0.12233761E+04</pdfrwt>
<pdfrwt beam="2">  1       -2 0.53328188E-01 0.12233761E+04</pdfrwt>
<totfact> 0.73262549E+01</totfact>
</mgrwt>
</event>
<event>
12    1  0.1097093E-007  0.1506106E+04  0.7818608E-02  0.8880403E-01
         -2   -1    0    0    0  501 -0.00000000000E+00  0.00000000000E+00  0.45259581533E+03  0.45259581533E+03  0.00000000000E+00 0. -1.
          2   -1    0    0  501    0  0.00000000000E+00 -0.00000000000E+00 -0.12529698112E+04  0.12529698112E+04  0.00000000000E+00 0.  1.
         23    2    1    2    0    0  0.52504633394E+02 -0.23377944992E+03 -0.73806424809E+03  0.78136460918E+03  0.91554630835E+02 0.  0.
        254    2    1    2    0    0 -0.52504633394E+02  0.23377944992E+03 -0.62309747796E+02  0.92420101738E+03  0.89042430791E+03 0.  0.
        -24    2    4    4    0    0  0.31283391220E+03  0.19295803145E+03 -0.29839359400E+03  0.47982158751E+03  0.78052292584E+02 0.  0.
         24    2    4    4    0    0 -0.36533854559E+03  0.40821418465E+02  0.23608384620E+03  0.44437942987E+03  0.81233331558E+02 0.  0.
         11    1    3    3    0    0  0.60443397531E+01  0.76833907447E+01 -0.18148921363E+02  0.20614361087E+02  0.00000000000E+00 0. -1.
        -11    1    3    3    0    0  0.46460293640E+02 -0.24146284066E+03 -0.71991532673E+03  0.76075024809E+03  0.00000000000E+00 0.  1.
          4    1    6    6  502    0 -0.13825886601E+03 -0.24002663809E+02  0.88763450940E+02  0.16604394636E+03  0.00000000000E+00 0. -1.
          3    1    5    5  503    0  0.18910764144E+03  0.73151134057E+02 -0.14606188925E+03  0.24989370531E+03  0.00000000000E+00 0. -1.
         -4    1    5    5    0  503  0.12372627076E+03  0.11980689739E+03 -0.15233170475E+03  0.22992788220E+03  0.00000000000E+00 0.  1.
         -3    1    6    6    0  502 -0.22707967958E+03  0.64824082274E+02  0.14732039526E+03  0.27833548351E+03  0.00000000000E+00 0.  1.
<mgrwt>
<rscale>  0 0.15061061E+04</rscale>
<asrwt>0</asrwt>
<pdfrwt beam="1">  1        2 0.19276459E+00 0.15061061E+04</pdfrwt>
<pdfrwt beam="2">  1       -2 0.69630125E-01 0.15061061E+04</pdfrwt>
<totfact> 0.31995836E+01</totfact>
</mgrwt>
</event>
<event>
12    1  0.1097093E-007  0.2858151E+04  0.7818608E-02  0.8285439E-01
         -1   -1    0    0    0  501 -0.00000000000E+00  0.00000000000E+00  0.15476646567E+04  0.15476646567E+04  0.00000000000E+00 0.  1.
          1   -1    0    0  501    0  0.00000000000E+00 -0.00000000000E+00 -0.13195730152E+04  0.13195730152E+04  0.00000000000E+00 0. -1.
         23    2    1    2    0    0  0.11577644768E+03  0.11303352168E+04  0.70052558754E+03  0.13406614331E+04  0.12480020472E+03 0.  0.
        254    2    1    2    0    0 -0.11577644768E+03 -0.11303352168E+04 -0.47243394602E+03  0.15265762389E+04  0.90342641734E+03 0.  0.
        -24    2    4    4    0    0  0.38756058591E+03 -0.56939130803E+03 -0.24655806318E+03  0.73573586469E+03  0.78145471151E+02 0.  0.
         24    2    4    4    0    0 -0.50333703359E+03 -0.56094390879E+03 -0.22587588284E+03  0.79084037419E+03  0.80014653719E+02 0.  0.
         11    1    3    3    0    0  0.14874584317E+02  0.14940610341E+03  0.14555189449E+03  0.20911430124E+03  0.00000000000E+00 0. -1.
        -11    1    3    3    0    0  0.10090186337E+03  0.98092911341E+03  0.55497369305E+03  0.11315471318E+04  0.00000000000E+00 0.  1.
          4    1    6    6  502    0 -0.26542201855E+03 -0.30959912348E+03 -0.16256604618E+03  0.43900818279E+03  0.00000000000E+00 0. -1.
          3    1    5    5  503    0  0.19059697312E+03 -0.26230448506E+03 -0.76079182217E+02  0.33304487838E+03  0.00000000000E+00 0. -1.
         -4    1    5    5    0  503  0.19696361279E+03 -0.30708682297E+03 -0.17047888096E+03  0.40269098631E+03  0.00000000000E+00 0.  1.
         -3    1    6    6    0  502 -0.23791501504E+03 -0.25134478531E+03 -0.63309836660E+02  0.35183219140E+03  0.00000000000E+00 0.  1.
<mgrwt>
<rscale>  0 0.28581508E+04</rscale>
<asrwt>0</asrwt>
<pdfrwt beam="1">  1        1 0.20301123E+00 0.28581508E+04</pdfrwt>
<pdfrwt beam="2">  1       -1 0.23810226E+00 0.28581508E+04</pdfrwt>
<totfact> 0.62957346E-01</totfact>
</mgrwt>
</event>
<event>
12    1  0.1097093E-007  0.2415857E+04  0.7818608E-02  0.8433591E-01
         -2   -1    0    0    0  501 -0.00000000000E+00  0.00000000000E+00  0.10156912781E+04  0.10156912781E+04  0.00000000000E+00 0.  1.
          2   -1    0    0  501    0  0.00000000000E+00 -0.00000000000E+00 -0.14365495104E+04  0.14365495104E+04  0.00000000000E+00 0. -1.
         23    2    1    2    0    0  0.86533107170E+03 -0.20530722160E+03  0.31585807715E+03  0.94805947727E+03  0.90008492045E+02 0.  0.
        254    2    1    2    0    0 -0.86533107170E+03  0.20530722160E+03 -0.73671630944E+03  0.15041813113E+04  0.96377465088E+03 0.  0.
        -24    2    4    4    0    0 -0.94328748253E+03  0.17890734541E+03 -0.23793306193E+03  0.99250519113E+03  0.81580019081E+02 0.  0.
         24    2    4    4    0    0  0.77956410827E+02  0.26399876187E+02 -0.49878324751E+03  0.51167612014E+03  0.79079507297E+02 0.  0.
         11    1    3    3    0    0  0.12333616247E+03 -0.51791357827E+02  0.23043068294E+02  0.13573922320E+03  0.00000000000E+00 0. -1.
        -11    1    3    3    0    0  0.74199490923E+03 -0.15351586377E+03  0.29281500886E+03  0.81232025407E+03  0.00000000000E+00 0.  1.
          2    1    6    6  502    0 -0.14050723430E+02  0.14802991797E+02 -0.11880651972E+03  0.12054683954E+03  0.00000000000E+00 0. -1.
          1    1    5    5  503    0 -0.80714844078E+02  0.12053532454E+02 -0.44297911894E+02  0.92857302876E+02  0.00000000000E+00 0. -1.
         -2    1    5    5    0  503 -0.86257263845E+03  0.16685381296E+03 -0.19363515004E+03  0.89964788825E+03  0.00000000000E+00 0.  1.
         -1    1    6    6    0  502  0.92007134257E+02  0.11596884390E+02 -0.37997672779E+03  0.39112928060E+03  0.00000000000E+00 0.  1.
<mgrwt>
<rscale>  0 0.24158566E+04</rscale>
<asrwt>0</asrwt>
<pdfrwt beam="1">  1        2 0.22100762E+00 0.24158566E+04</pdfrwt>
<pdfrwt beam="2">  1       -2 0.15626020E+00 0.24158566E+04</pdfrwt>
<totfact> 0.33271278E+00</totfact>
</mgrwt>
</event>
<event>
12    1  0.1097093E-007  0.2380003E+04  0.7818608E-02  0.8447028E-01
          1   -1    0    0  501    0  0.00000000000E+00  0.00000000000E+00  0.21961577749E+04  0.21961577749E+04  0.00000000000E+00 0. -1.
         -1   -1    0    0    0  501 -0.00000000000E+00 -0.00000000000E+00 -0.64480963589E+03  0.64480963589E+03  0.00000000000E+00 0.  1.
         23    2    1    2    0    0 -0.90713092808E+03  0.21789559420E+03  0.11515629248E+04  0.14847507480E+04  0.89568986772E+02 0.  0.
        254    2    1    2    0    0  0.90713092808E+03 -0.21789559420E+03  0.39978521422E+03  0.13562166627E+04  0.89951676368E+03 0.  0.
        -24    2    4    4    0    0 -0.14501107562E+03 -0.16072964303E+03  0.13458224214E+03  0.26683636217E+03  0.78911558576E+02 0.  0.
         24    2    4    4    0    0  0.10521420037E+04 -0.57165951168E+02  0.26520297208E+03  0.10893803006E+04  0.78396944673E+02 0.  0.
         11    1    3    3    0    0 -0.35421851823E+03  0.73790395211E+02  0.51451665644E+03  0.62900172562E+03  0.00000000000E+00 0.  1.
        -11    1    3    3    0    0 -0.55291240986E+03  0.14410519899E+03  0.63704626836E+03  0.85574902242E+03  0.00000000000E+00 0. -1.
          4    1    6    6  502    0  0.10492105250E+04 -0.52146553350E+02  0.26176804961E+03  0.10826285146E+04  0.00000000000E+00 0. -1.
          3    1    5    5  503    0 -0.14359912901E+03 -0.14772316651E+03  0.98298787606E+02  0.22826628183E+03  0.00000000000E+00 0. -1.
         -4    1    5    5    0  503 -0.14119466131E+01 -0.13006476516E+02  0.36283454533E+02  0.38570080340E+02  0.00000000000E+00 0.  1.
         -3    1    6    6    0  502  0.29314787407E+01 -0.50193978177E+01  0.34349224691E+01  0.67517860177E+01  0.00000000000E+00 0.  1.
<mgrwt>
<rscale>  0 0.23800031E+04</rscale>
<asrwt>0</asrwt>
<pdfrwt beam="1">  1        1 0.33787042E+00 0.23800031E+04</pdfrwt>
<pdfrwt beam="2">  1       -1 0.99201484E-01 0.23800031E+04</pdfrwt>
<totfact> 0.19094564E+00</totfact>
</mgrwt>
</event>
<event>
12    1  0.1097093E-007  0.2420069E+04  0.7818608E-02  0.8432028E-01
         -2   -1    0    0    0  501 -0.00000000000E+00  0.00000000000E+00  0.56408043378E+03  0.56408043378E+03  0.00000000000E+00 0.  1.
          2   -1    0    0  501    0  0.00000000000E+00 -0.00000000000E+00 -0.25956999492E+04  0.25956999492E+04  0.00000000000E+00 0. -1.
         23    2    1    2    0    0 -0.49947711337E+03 -0.70459237452E+03 -0.16355189606E+04  0.18516463440E+04  0.88000634529E+02 0.  0.
        254    2    1    2    0    0  0.49947711337E+03  0.70459237452E+03 -0.39610055478E+03  0.13081340390E+04  0.89910578541E+03 0.  0.
        -24    2    4    4    0    0  0.61249336965E+03  0.47096408914E+03  0.58171366386E+02  0.77889452528E+03  0.79608244026E+02 0.  0.
         24    2    4    4    0    0 -0.11301625628E+03  0.23362828538E+03 -0.45427192116E+03  0.52923951368E+03  0.79853832520E+02 0.  0.
         13    1    3    3    0    0 -0.47812436925E+03 -0.69643520867E+03 -0.16018338633E+04  0.18109380547E+04  0.00000000000E+00 0. -1.
        -13    1    3    3    0    0 -0.21352744119E+02 -0.81571658522E+01 -0.33685097335E+02  0.40708289311E+02  0.00000000000E+00 0.  1.
          4    1    6    6  502    0 -0.18761323654E+02  0.39474975831E+02 -0.29342168369E+02  0.52642414712E+02  0.00000000000E+00 0. -1.
          1    1    5    5  503    0  0.11418922089E+03  0.54808828950E+02 -0.38039683928E+01  0.12671880710E+03  0.00000000000E+00 0. -1.
         -4    1    5    5    0  503  0.49830414876E+03  0.41615526019E+03  0.61975334778E+02  0.65217571817E+03  0.00000000000E+00 0.  1.
         -3    1    6    6    0  502 -0.94254932625E+02  0.19415330955E+03 -0.42492975279E+03  0.47659709896E+03  0.00000000000E+00 0.  1.
<mgrwt>
<rscale>  0 0.24200691E+04</rscale>
<asrwt>0</asrwt>
<pdfrwt beam="1">  1        2 0.39933846E+00 0.24200691E+04</pdfrwt>
<pdfrwt beam="2">  1       -2 0.86781605E-01 0.24200691E+04</pdfrwt>
<totfact> 0.31575714E+00</totfact>
</mgrwt>
</event>
<event>
12    1  0.1097093E-007  0.1866398E+04  0.7818608E-02  0.8671765E-01
         -2   -1    0    0    0  501 -0.00000000000E+00  0.00000000000E+00  0.30630610528E+03  0.30630610528E+03  0.00000000000E+00 0.  1.
          2   -1    0    0  501    0  0.00000000000E+00 -0.00000000000E+00 -0.28431043360E+04  0.28431043360E+04  0.00000000000E+00 0. -1.
         23    2    1    2    0    0 -0.68066242483E+03 -0.15502892104E+03 -0.75315138226E+03  0.10308802220E+04  0.90231505845E+02 0.  0.
        254    2    1    2    0    0  0.68066242483E+03  0.15502892104E+03 -0.17836468484E+04  0.21185302192E+04  0.90522864894E+03 0.  0.
        -24    2    4    4    0    0  0.22239008926E+03  0.22210210230E+03 -0.15699731034E+04  0.16028573284E+04  0.74494120606E+02 0.  0.
         24    2    4    4    0    0  0.45827233557E+03 -0.67073181260E+02 -0.21367374502E+03  0.51567289085E+03  0.75826880807E+02 0.  0.
         11    1    3    3    0    0 -0.39677524471E+03 -0.56221836744E+02 -0.38638347702E+03  0.55667196899E+03  0.00000000000E+00 0. -1.
        -11    1    3    3    0    0 -0.28388718012E+03 -0.98807084298E+02 -0.36676790524E+03  0.47420825305E+03  0.00000000000E+00 0.  1.
          4    1    6    6  502    0  0.57101323557E+02 -0.28777435696E+01 -0.55536380850E+02  0.79706537737E+02  0.00000000000E+00 0. -1.
          1    1    5    5  503    0  0.55250624165E+02  0.21505216767E+02 -0.21897719682E+03  0.22686145232E+03  0.00000000000E+00 0. -1.
         -2    1    5    5    0  503  0.16713946509E+03  0.20059688553E+03 -0.13509959066E+04  0.13759958760E+04  0.00000000000E+00 0.  1.
         -3    1    6    6    0  502  0.40117101201E+03 -0.64195437691E+02 -0.15813736417E+03  0.43596635311E+03  0.00000000000E+00 0.  1.
<mgrwt>
<rscale>  0 0.18663978E+04</rscale>
<asrwt>0</asrwt>
<pdfrwt beam="1">  1        2 0.43740069E+00 0.18663978E+04</pdfrwt>
<pdfrwt beam="2">  1       -2 0.47124014E-01 0.18663978E+04</pdfrwt>
<totfact> 0.87470760E+00</totfact>
</mgrwt>
</event>
<event>
12    1  0.1097093E-007  0.1923340E+04  0.7818608E-02  0.8643325E-01
         -1   -1    0    0    0  501 -0.00000000000E+00  0.00000000000E+00  0.72085091009E+03  0.72085091009E+03  0.00000000000E+00 0.  1.
          1   -1    0    0  501    0  0.00000000000E+00 -0.00000000000E+00 -0.12829410337E+04  0.12829410337E+04  0.00000000000E+00 0. -1.
         23    2    1    2    0    0 -0.34972210794E+02 -0.72017458845E+03 -0.13840032013E+02  0.72660733677E+03  0.88837953516E+02 0.  0.
        254    2    1    2    0    0  0.34972210794E+02  0.72017458845E+03 -0.54825009157E+03  0.12771846070E+04  0.90041538417E+03 0.  0.
        -24    2    4    4    0    0  0.12527347753E+03  0.25583966684E+03 -0.71110908319E+03  0.77031407841E+03  0.80995505407E+02 0.  0.
         24    2    4    4    0    0 -0.90301266735E+02  0.46433492161E+03  0.16285899162E+03  0.50687052859E+03  0.81445953869E+02 0.  0.
         11    1    3    3    0    0  0.10962971602E+01 -0.54627970581E+03 -0.36873281281E+02  0.54752384215E+03  0.00000000000E+00 0.  1.
        -11    1    3    3    0    0 -0.36068507954E+02 -0.17389488264E+03  0.23033249269E+02  0.17908349462E+03  0.00000000000E+00 0. -1.
          4    1    6    6  502    0 -0.61563571955E+02  0.14257624685E+03  0.33368870979E+02  0.15884439275E+03  0.00000000000E+00 0. -1.
          3    1    5    5  503    0  0.13120046113E+03  0.24532009119E+03 -0.70222131837E+03  0.75532131449E+03  0.00000000000E+00 0. -1.
         -4    1    5    5    0  503 -0.59269836000E+01  0.10519575653E+02 -0.88877648151E+01  0.14992763919E+02  0.00000000000E+00 0.  1.
         -3    1    6    6    0  502 -0.28737694780E+02  0.32175867476E+03  0.12949012064E+03  0.34802613584E+03  0.00000000000E+00 0.  1.
<mgrwt>
<rscale>  0 0.19233400E+04</rscale>
<asrwt>0</asrwt>
<pdfrwt beam="1">  1        1 0.19737554E+00 0.19233400E+04</pdfrwt>
<pdfrwt beam="2">  1       -1 0.11090014E+00 0.19233400E+04</pdfrwt>
<totfact> 0.65037923E+00</totfact>
</mgrwt>
</event>
<event>
12    1  0.1097093E-007  0.2269722E+04  0.7818608E-02  0.8489956E-01
         -2   -1    0    0    0  501 -0.00000000000E+00  0.00000000000E+00  0.16632270897E+04  0.16632270897E+04  0.00000000000E+00 0.  1.
          2   -1    0    0  501    0  0.00000000000E+00 -0.00000000000E+00 -0.77434369717E+03  0.77434369717E+03  0.00000000000E+00 0. -1.
         23    2    1    2    0    0 -0.67763999654E+02 -0.28624786799E+03  0.13540172767E+04  0.13887368517E+04  0.93260153259E+02 0.  0.
        254    2    1    2    0    0  0.67763999654E+02  0.28624786799E+03 -0.46513388416E+03  0.10488339351E+04  0.89284561473E+03 0.  0.
        -24    2    4    4    0    0  0.84992012965E+02 -0.10059214828E+03 -0.60788349398E+03  0.62837778894E+03  0.89408505250E+02 0.  0.
         24    2    4    4    0    0 -0.17228013311E+02  0.38684001627E+03  0.14274960982E+03  0.42045614621E+03  0.80398489770E+02 0.  0.
         11    1    3    3    0    0 -0.48857675636E+02 -0.15994350077E+03  0.96236002533E+03  0.97678340192E+03  0.00000000000E+00 0.  1.
        -11    1    3    3    0    0 -0.18906324018E+02 -0.12630436721E+03  0.39165725138E+03  0.41195344983E+03  0.00000000000E+00 0. -1.
          4    1    6    6  502    0 -0.23799863118E+02  0.50071923655E+02  0.39783548214E+02  0.68237539019E+02  0.00000000000E+00 0. -1.
          3    1    5    5  503    0 -0.11387429778E+02  0.76229634441E+01 -0.39392671343E+02  0.41708100942E+02  0.00000000000E+00 0. -1.
         -4    1    5    5    0  503  0.96379442742E+02 -0.10821511172E+03 -0.56849082264E+03  0.58666968799E+03  0.00000000000E+00 0.  1.
         -3    1    6    6    0  502  0.65718498069E+01  0.33676809261E+03  0.10296606161E+03  0.35221860719E+03  0.00000000000E+00 0.  1.
<mgrwt>
<rscale>  0 0.22697219E+04</rscale>
<asrwt>0</asrwt>
<pdfrwt beam="1">  1        2 0.11912980E+00 0.22697219E+04</pdfrwt>
<pdfrwt beam="2">  1       -2 0.25588109E+00 0.22697219E+04</pdfrwt>
<totfact> 0.19325986E+00</totfact>
</mgrwt>
</event>
<event>
12    1  0.1097093E-007  0.1330984E+04  0.7818608E-02  0.9005349E-01
          2   -1    0    0  501    0  0.00000000000E+00  0.00000000000E+00  0.96424797333E+03  0.96424797333E+03  0.00000000000E+00 0. -1.
         -2   -1    0    0    0  501 -0.00000000000E+00 -0.00000000000E+00 -0.45930035003E+03  0.45930035003E+03  0.00000000000E+00 0.  1.
         23    2    1    2    0    0 -0.83749834506E+02  0.16262227365E+03  0.46201502307E+03  0.50620179887E+03  0.96552270631E+02 0.  0.
        254    2    1    2    0    0  0.83749834506E+02 -0.16262227365E+03  0.42932600228E+02  0.91734652450E+03  0.89789832341E+03 0.  0.
        -24    2    4    4    0    0 -0.26892857242E+03 -0.11619560797E+03  0.33416993044E+03  0.45064501569E+03  0.74748855384E+02 0.  0.
         24    2    4    4    0    0  0.35267840692E+03 -0.46426665685E+02 -0.29123733021E+03  0.46670150881E+03  0.80334437297E+02 0.  0.
         11    1    3    3    0    0  0.14045390596E+02  0.59625189020E+02  0.18534666884E+03  0.19520713054E+03  0.00000000000E+00 0.  1.
        -11    1    3    3    0    0 -0.97795225103E+02  0.10299708463E+03  0.27666835423E+03  0.31099466833E+03  0.00000000000E+00 0. -1.
          2    1    6    6  502    0  0.17641154328E+03  0.17057306633E+02 -0.14689504001E+03  0.23019586680E+03  0.00000000000E+00 0. -1.
          3    1    5    5  503    0 -0.27628879755E+02  0.45032190509E+01  0.12093939286E+02  0.30494218236E+02  0.00000000000E+00 0. -1.
         -2    1    5    5    0  503 -0.24129969266E+03 -0.12069882702E+03  0.32207599116E+03  0.42015079745E+03  0.00000000000E+00 0.  1.
         -1    1    6    6    0  502  0.17626686364E+03 -0.63483972318E+02 -0.14434229020E+03  0.23650564200E+03  0.00000000000E+00 0.  1.
<mgrwt>
<rscale>  0 0.13309837E+04</rscale>
<asrwt>0</asrwt>
<pdfrwt beam="1">  1        2 0.14834584E+00 0.13309837E+04</pdfrwt>
<pdfrwt beam="2">  1       -2 0.70661593E-01 0.13309837E+04</pdfrwt>
<totfact> 0.47338813E+01</totfact>
</mgrwt>
</event>
<event>
12    1  0.1097093E-007  0.1541219E+04  0.7818608E-02  0.8857496E-01
          2   -1    0    0  501    0  0.00000000000E+00  0.00000000000E+00  0.15041992732E+04  0.15041992732E+04  0.00000000000E+00 0.  1.
         -2   -1    0    0    0  501 -0.00000000000E+00 -0.00000000000E+00 -0.39478756637E+03  0.39478756637E+03  0.00000000000E+00 0. -1.
         23    2    1    2    0    0 -0.11831919578E+02  0.28073746376E+03  0.88643123580E+03  0.93422648136E+03  0.89806819269E+02 0.  0.
        254    2    1    2    0    0  0.11831919578E+02 -0.28073746376E+03  0.22298047106E+03  0.96476035825E+03  0.89559407127E+03 0.  0.
        -24    2    4    4    0    0  0.44348615708E+03 -0.16332993613E+03  0.16491998885E+03  0.50684434059E+03  0.79598638855E+02 0.  0.
         24    2    4    4    0    0 -0.43165423750E+03 -0.11740752763E+03  0.58060482205E+02  0.45791601766E+03  0.78779130114E+02 0.  0.
         11    1    3    3    0    0  0.10678851817E+02  0.26624842241E+03  0.83087121727E+03  0.87255328777E+03  0.00000000000E+00 0.  1.
        -11    1    3    3    0    0 -0.22510771395E+02  0.14489041345E+02  0.55560018534E+02  0.61673193589E+02  0.00000000000E+00 0. -1.
          4    1    6    6  502    0 -0.54678056965E+02 -0.71577612482E+01  0.33189925403E+02  0.64362214131E+02  0.00000000000E+00 0. -1.
          3    1    5    5  503    0  0.78263522128E+02 -0.36257252361E+00  0.39759660715E+02  0.87784628352E+02  0.00000000000E+00 0. -1.
         -4    1    5    5    0  503  0.36522263495E+03 -0.16296736360E+03  0.12516032814E+03  0.41905971223E+03  0.00000000000E+00 0.  1.
         -3    1    6    6    0  502 -0.37697618053E+03 -0.11024976638E+03  0.24870556802E+02  0.39355380353E+03  0.00000000000E+00 0.  1.
<mgrwt>
<rscale>  0 0.15412192E+04</rscale>
<asrwt>0</asrwt>
<pdfrwt beam="1">  1        2 0.23141527E+00 0.15412192E+04</pdfrwt>
<pdfrwt beam="2">  1       -2 0.60736549E-01 0.15412192E+04</pdfrwt>
<totfact> 0.30686146E+01</totfact>
</mgrwt>
</event>
<event>
12    1  0.1097093E-007  0.1874160E+04  0.7818608E-02  0.8667827E-01
          1   -1    0    0  501    0  0.00000000000E+00  0.00000000000E+00  0.11882798979E+04  0.11882798979E+04  0.00000000000E+00 0. -1.
         -1   -1    0    0    0  501 -0.00000000000E+00 -0.00000000000E+00 -0.73898332351E+03  0.73898332351E+03  0.00000000000E+00 0.  1.
         23    2    1    2    0    0 -0.55004257937E+03  0.47940358956E+01  0.64252915037E+03  0.85209764365E+03  0.10323208483E+03 0.  0.
        254    2    1    2    0    0  0.55004257937E+03 -0.47940358956E+01 -0.19323257602E+03  0.10751655777E+04  0.90336723937E+03 0.  0.
        -24    2    4    4    0    0 -0.71670506855E+02 -0.32322052625E+03  0.14161415573E+02  0.34237005304E+03  0.86072860902E+02 0.  0.
         24    2    4    4    0    0  0.62171308623E+03  0.31842649035E+03 -0.20739399159E+03  0.73279552468E+03  0.77810165731E+02 0.  0.
         13    1    3    3    0    0 -0.35663433825E+02 -0.11903147260E+02  0.87207911771E+02  0.94967285432E+02  0.00000000000E+00 0.  1.
        -13    1    3    3    0    0 -0.51437914555E+03  0.16697183156E+02  0.55532123860E+03  0.75713035822E+03  0.00000000000E+00 0. -1.
          2    1    6    6  502    0  0.47973325467E+03  0.22814993179E+03 -0.12633657114E+03  0.54603783406E+03  0.00000000000E+00 0. -1.
          3    1    5    5  503    0 -0.46727975915E+02 -0.30785101813E+03  0.41362472830E+01  0.31140465898E+03  0.00000000000E+00 0. -1.
         -4    1    5    5    0  503 -0.24942530941E+02 -0.15369508122E+02  0.10025168290E+02  0.30965394054E+02  0.00000000000E+00 0.  1.
         -1    1    6    6    0  502  0.14197983155E+03  0.90276558565E+02 -0.81057420457E+02  0.18675769062E+03  0.00000000000E+00 0.  1.
<mgrwt>
<rscale>  0 0.18741601E+04</rscale>
<asrwt>0</asrwt>
<pdfrwt beam="1">  1        1 0.18281229E+00 0.18741601E+04</pdfrwt>
<pdfrwt beam="2">  1       -1 0.11368974E+00 0.18741601E+04</pdfrwt>
<totfact> 0.72112430E+00</totfact>
</mgrwt>
</event>
<event>
12    1  0.1097093E-007  0.3442562E+04  0.7818608E-02  0.8127539E-01
         -1   -1    0    0    0  501 -0.00000000000E+00  0.00000000000E+00  0.49660021609E+04  0.49660021609E+04  0.00000000000E+00 0.  1.
          1   -1    0    0  501    0  0.00000000000E+00 -0.00000000000E+00 -0.59661833282E+03  0.59661833282E+03  0.00000000000E+00 0. -1.
         23    2    1    2    0    0  0.16443136770E+03  0.17286152376E+02 -0.53785710147E+03  0.56989190215E+03  0.90277532040E+02 0.  0.
        254    2    1    2    0    0 -0.16443136770E+03 -0.17286152376E+02  0.49072409295E+04  0.49927285915E+04  0.90497997911E+03 0.  0.
        -24    2    4    4    0    0  0.26655847015E+03  0.19382160356E+03  0.10149592840E+04  0.10701061154E+04  0.79777928349E+02 0.  0.
         24    2    4    4    0    0 -0.43098983785E+03 -0.21110775593E+03  0.38922816455E+04  0.39226224762E+04  0.82413335638E+02 0.  0.
         11    1    3    3    0    0  0.60191903787E+02  0.33219507955E+02 -0.32685451300E+03  0.33400669702E+03  0.00000000000E+00 0.  1.
        -11    1    3    3    0    0  0.10423946391E+03 -0.15933355579E+02 -0.21100258847E+03  0.23588520513E+03  0.00000000000E+00 0. -1.
          2    1    6    6  502    0 -0.15230237522E+02 -0.10964773750E+02  0.65917539864E+02  0.68536913121E+02  0.00000000000E+00 0. -1.
          1    1    5    5  503    0  0.57447977605E+02  0.25794098176E+02  0.11618926757E+03  0.13215729844E+03  0.00000000000E+00 0. -1.
         -2    1    5    5    0  503  0.20911049255E+03  0.16802750538E+03  0.89877001648E+03  0.93794881693E+03  0.00000000000E+00 0.  1.
         -1    1    6    6    0  502 -0.41575960033E+03 -0.20014298218E+03  0.38263641056E+04  0.38540855631E+04  0.00000000000E+00 0.  1.
<mgrwt>
<rscale>  0 0.34425618E+04</rscale>
<asrwt>0</asrwt>
<pdfrwt beam="1">  1        1 0.91787439E-01 0.34425618E+04</pdfrwt>
<pdfrwt beam="2">  1       -1 0.76400031E+00 0.34425618E+04</pdfrwt>
<totfact> 0.31032890E-03</totfact>
</mgrwt>
</event>
<event>
12    1  0.1336174E-007  0.2157419E+04  0.7818608E-02  0.8536363E-01
          2   -1    0    0  501    0  0.00000000000E+00  0.00000000000E+00  0.15409635955E+04  0.15409635955E+04  0.00000000000E+00 0. -1.
         -2   -1    0    0    0  501 -0.00000000000E+00 -0.00000000000E+00 -0.75512123416E+03  0.75512123416E+03  0.00000000000E+00 0.  1.
         23    2    1    2    0    0 -0.61333625368E+02  0.13641535325E+03  0.12566441526E+04  0.12686382763E+04  0.88980827301E+02 0.  0.
        254    2    1    2    0    0  0.61333625368E+02 -0.13641535325E+03 -0.47080179130E+03  0.10274465533E+04  0.90090017817E+03 0.  0.
        -24    2    4    4    0    0 -0.27758449338E+03  0.18293454582E+03 -0.43393903397E+03  0.55358681994E+03  0.87390405581E+02 0.  0.
         24    2    4    4    0    0  0.33891811875E+03 -0.31934989907E+03 -0.36862757332E+02  0.47385973338E+03  0.79588534296E+02 0.  0.
         13    1    3    3    0    0 -0.18896152787E+02 -0.36899605456E+01  0.58563196686E+02  0.61646803688E+02  0.00000000000E+00 0.  1.
        -13    1    3    3    0    0 -0.42437472581E+02  0.14010531380E+03  0.11980809559E+04  0.12069914726E+04  0.00000000000E+00 0. -1.
          4    1    6    6  502    0 -0.38766682122E+01 -0.55268039453E+00 -0.21087759739E+01  0.44475777850E+01  0.00000000000E+00 0. -1.
          3    1    5    5  503    0  0.41728792131E+01 -0.26043829431E+01 -0.14495435512E+02  0.15307298329E+02  0.00000000000E+00 0. -1.
         -4    1    5    5    0  503 -0.28175737259E+03  0.18553892876E+03 -0.41944359846E+03  0.53827952161E+03  0.00000000000E+00 0.  1.
         -3    1    6    6    0  502  0.34279478696E+03 -0.31879721867E+03 -0.34753981358E+02  0.46941215560E+03  0.00000000000E+00 0.  1.
<mgrwt>
<rscale>  0 0.21574191E+04</rscale>
<asrwt>0</asrwt>
<pdfrwt beam="1">  1        2 0.23707132E+00 0.21574191E+04</pdfrwt>
<pdfrwt beam="2">  1       -2 0.11617250E+00 0.21574191E+04</pdfrwt>
<totfact> 0.63511374E+00</totfact>
</mgrwt>
</event>
<event>
12    1  0.1097093E-007  0.1788981E+04  0.7818608E-02  0.8712181E-01
          2   -1    0    0  501    0  0.00000000000E+00  0.00000000000E+00  0.70693464443E+03  0.70693464443E+03  0.00000000000E+00 0. -1.
         -2   -1    0    0    0  501 -0.00000000000E+00 -0.00000000000E+00 -0.11318068581E+04  0.11318068581E+04  0.00000000000E+00 0.  1.
         23    2    1    2    0    0  0.14511177015E+02  0.66030876164E+03 -0.25196815409E+03  0.71255741579E+03  0.89620785330E+02 0.  0.
        254    2    1    2    0    0 -0.14511177015E+02 -0.66030876164E+03 -0.17290405957E+03  0.11261840867E+04  0.89564309211E+03 0.  0.
        -24    2    4    4    0    0 -0.38636235918E+03 -0.30672069284E+03  0.14022122161E+03  0.51908498930E+03  0.80210841687E+02 0.  0.
         24    2    4    4    0    0  0.37185118216E+03 -0.35358806880E+03 -0.31312528117E+03  0.60709909743E+03  0.84994401686E+02 0.  0.
         13    1    3    3    0    0  0.10873886567E+02  0.16072724415E+03 -0.22051625327E+02  0.16259693294E+03  0.00000000000E+00 0.  1.
        -13    1    3    3    0    0  0.36372904480E+01  0.49958151749E+03 -0.22991652877E+03  0.54996048286E+03  0.00000000000E+00 0. -1.
          2    1    6    6  502    0  0.22212415650E+03 -0.15270362855E+03 -0.15951498924E+03  0.31321329932E+03  0.00000000000E+00 0. -1.
          3    1    5    5  503    0 -0.19222185831E+03 -0.17902746357E+03  0.38734747053E+02  0.26551921994E+03  0.00000000000E+00 0. -1.
         -4    1    5    5    0  503 -0.19414050086E+03 -0.12769322927E+03  0.10148647455E+03  0.25356576937E+03  0.00000000000E+00 0.  1.
         -1    1    6    6    0  502  0.14972702566E+03 -0.20088444025E+03 -0.15361029193E+03  0.29388579812E+03  0.00000000000E+00 0.  1.
<mgrwt>
<rscale>  0 0.17889813E+04</rscale>
<asrwt>0</asrwt>
<pdfrwt beam="1">  1        2 0.10875918E+00 0.17889813E+04</pdfrwt>
<pdfrwt beam="2">  1       -2 0.17412413E+00 0.17889813E+04</pdfrwt>
<totfact> 0.76140904E+00</totfact>
</mgrwt>
</event>
<event>
12    1  0.1097093E-007  0.2190071E+04  0.7818608E-02  0.8522572E-01
          2   -1    0    0  501    0  0.00000000000E+00  0.00000000000E+00  0.34899610380E+04  0.34899610380E+04  0.00000000000E+00 0. -1.
         -2   -1    0    0    0  501 -0.00000000000E+00 -0.00000000000E+00 -0.34358623128E+03  0.34358623128E+03  0.00000000000E+00 0.  1.
         23    2    1    2    0    0  0.57303671366E+03  0.16942927423E+03  0.22527045760E+04  0.23323793967E+04  0.90765573228E+02 0.  0.
        254    2    1    2    0    0 -0.57303671366E+03 -0.16942927423E+03  0.89367023066E+03  0.15011678725E+04  0.10477505171E+04 0.  0.
        -24    2    4    4    0    0 -0.67197197842E+03 -0.70746663969E+02  0.95699124583E+02  0.68711078473E+03  0.80071704176E+02 0.  0.
         24    2    4    4    0    0  0.98935264756E+02 -0.98682610265E+02  0.79797110607E+03  0.81405708778E+03  0.80028818852E+02 0.  0.
         11    1    3    3    0    0  0.50516326341E+03  0.16087054132E+03  0.18741435976E+04  0.19476866992E+04  0.00000000000E+00 0. -1.
        -11    1    3    3    0    0  0.67873450252E+02  0.85587329135E+01  0.37856097844E+03  0.38469269756E+03  0.00000000000E+00 0.  1.
          2    1    6    6  502    0  0.30956578263E+01 -0.39780005694E+02  0.34616466696E+03  0.34845660936E+03  0.00000000000E+00 0. -1.
          3    1    5    5  503    0 -0.64994061313E+02  0.16612496374E+02  0.59708210833E+01  0.67348747176E+02  0.00000000000E+00 0. -1.
         -4    1    5    5    0  503 -0.60697791710E+03 -0.87359160343E+02  0.89728303499E+02  0.61976203756E+03  0.00000000000E+00 0.  1.
         -1    1    6    6    0  502  0.95839606930E+02 -0.58902604571E+02  0.45180643911E+03  0.46560047842E+03  0.00000000000E+00 0.  1.
<mgrwt>
<rscale>  0 0.21900708E+04</rscale>
<asrwt>0</asrwt>
<pdfrwt beam="1">  1        2 0.53691706E+00 0.21900708E+04</pdfrwt>
<pdfrwt beam="2">  1       -2 0.52859423E-01 0.21900708E+04</pdfrwt>
<totfact> 0.25605495E+00</totfact>
</mgrwt>
</event>
<event>
12    1  0.1097093E-007  0.1387582E+04  0.7818608E-02  0.8962856E-01
         -1   -1    0    0    0  501 -0.00000000000E+00  0.00000000000E+00  0.60448463361E+03  0.60448463361E+03  0.00000000000E+00 0.  1.
          1   -1    0    0  501    0  0.00000000000E+00 -0.00000000000E+00 -0.79629202556E+03  0.79629202556E+03  0.00000000000E+00 0. -1.
         23    2    1    2    0    0 -0.15638237144E+03  0.24527695988E+03 -0.32919220597E+03  0.44920441945E+03  0.93812946015E+02 0.  0.
        254    2    1    2    0    0  0.15638237144E+03 -0.24527695988E+03  0.13738481402E+03  0.95157223971E+03  0.89554391692E+03 0.  0.
        -24    2    4    4    0    0  0.61710209426E+02 -0.54023445037E+03  0.26153188451E+03  0.60852545977E+03  0.79012007021E+02 0.  0.
         24    2    4    4    0    0  0.94672162019E+02  0.29495749049E+03 -0.12414707049E+03  0.34304677995E+03  0.79409436864E+02 0.  0.
         13    1    3    3    0    0 -0.15685530962E+03  0.25088909125E+03 -0.30727729970E+03  0.42657738240E+03  0.00000000000E+00 0. -1.
        -13    1    3    3    0    0  0.47293817493E+00 -0.56121313724E+01 -0.21914906267E+02  0.22627037052E+02  0.00000000000E+00 0.  1.
          4    1    6    6  502    0  0.98681877927E+02  0.27993695699E+03 -0.13288880421E+03  0.32521108100E+03  0.00000000000E+00 0. -1.
          3    1    5    5  503    0  0.25577200842E+01 -0.23793150837E+03  0.14808699271E+03  0.28026362950E+03  0.00000000000E+00 0. -1.
         -4    1    5    5    0  503  0.59152489342E+02 -0.30230294200E+03  0.11344489179E+03  0.32826183027E+03  0.00000000000E+00 0.  1.
         -3    1    6    6    0  502 -0.40097159082E+01  0.15020533506E+02  0.87417337277E+01  0.17835698950E+02  0.00000000000E+00 0.  1.
<mgrwt>
<rscale>  0 0.13875825E+04</rscale>
<asrwt>0</asrwt>
<pdfrwt beam="1">  1        1 0.12250647E+00 0.13875825E+04</pdfrwt>
<pdfrwt beam="2">  1       -1 0.92997636E-01 0.13875825E+04</pdfrwt>
<totfact> 0.24427720E+01</totfact>
</mgrwt>
</event>
<event>
12    1  0.1097093E-007  0.2724903E+04  0.7818608E-02  0.8326970E-01
          1   -1    0    0  501    0  0.00000000000E+00  0.00000000000E+00  0.16587086121E+04  0.16587086121E+04  0.00000000000E+00 0. -1.
         -1   -1    0    0    0  501 -0.00000000000E+00 -0.00000000000E+00 -0.11191082049E+04  0.11191082049E+04  0.00000000000E+00 0.  1.
         23    2    1    2    0    0 -0.54994712312E+03 -0.41336319069E+03  0.12808370742E+04  0.14568602691E+04  0.92667509784E+02 0.  0.
        254    2    1    2    0    0  0.54994712312E+03  0.41336319069E+03 -0.74123666696E+03  0.13209565480E+04  0.84981376755E+03 0.  0.
        -24    2    4    4    0    0  0.14166747880E+03 -0.12542387193E+03 -0.58889496506E+03  0.62351567727E+03  0.78572881629E+02 0.  0.
         24    2    4    4    0    0  0.40827964432E+03  0.53878706261E+03 -0.15234170190E+03  0.69744087069E+03  0.78943062836E+02 0.  0.
         11    1    3    3    0    0 -0.31593339882E+03 -0.18122014122E+03  0.69527532333E+03  0.78489644368E+03  0.00000000000E+00 0.  1.
        -11    1    3    3    0    0 -0.23401372430E+03 -0.23214304946E+03  0.58556175086E+03  0.67196382540E+03  0.00000000000E+00 0. -1.
          2    1    6    6  502    0  0.40444791459E+03  0.51540204610E+03 -0.13731850610E+03  0.66938311665E+03  0.00000000000E+00 0. -1.
          1    1    5    5  503    0  0.31774446159E+02 -0.28060721974E+02 -0.25870484907E+03  0.26215495128E+03  0.00000000000E+00 0. -1.
         -2    1    5    5    0  503  0.10989303264E+03 -0.97363149952E+02 -0.33019011599E+03  0.36136072599E+03  0.00000000000E+00 0.  1.
         -1    1    6    6    0  502  0.38317297341E+01  0.23385016514E+02 -0.15023195793E+02  0.28057754044E+02  0.00000000000E+00 0.  1.
<mgrwt>
<rscale>  0 0.27249032E+04</rscale>
<asrwt>0</asrwt>
<pdfrwt beam="1">  1        1 0.25518594E+00 0.27249032E+04</pdfrwt>
<pdfrwt beam="2">  1       -1 0.17217049E+00 0.27249032E+04</pdfrwt>
<totfact> 0.10511982E+00</totfact>
</mgrwt>
</event>
<event>
12    1  0.1097093E-007  0.1375906E+04  0.7818608E-02  0.8971446E-01
          1   -1    0    0  501    0  0.00000000000E+00  0.00000000000E+00  0.15986793681E+04  0.15986793681E+04  0.00000000000E+00 0. -1.
         -1   -1    0    0    0  501 -0.00000000000E+00 -0.00000000000E+00 -0.29604394316E+03  0.29604394316E+03  0.00000000000E+00 0.  1.
         23    2    1    2    0    0  0.11822113698E+03  0.33410196066E+03  0.16205974531E+03  0.40049423192E+03  0.92368346364E+02 0.  0.
        254    2    1    2    0    0 -0.11822113698E+03 -0.33410196066E+03  0.11405756797E+04  0.14942290794E+04  0.89789047398E+03 0.  0.
        -24    2    4    4    0    0  0.21441673659E+03  0.21660151761E+03  0.32127882826E+03  0.44964643271E+03  0.77917100819E+02 0.  0.
         24    2    4    4    0    0 -0.33263787357E+03 -0.55070347827E+03  0.81929685142E+03  0.10445826467E+04  0.77351787854E+02 0.  0.
         11    1    3    3    0    0 -0.45615125887E+01  0.98275510180E+00 -0.60805150084E+01  0.76645852761E+01  0.00000000000E+00 0.  1.
        -11    1    3    3    0    0  0.12278264957E+03  0.33311920556E+03  0.16814026032E+03  0.39282964665E+03  0.00000000000E+00 0. -1.
          2    1    6    6  502    0 -0.43175134237E+02 -0.10799573649E+03  0.18698654093E+03  0.22020703395E+03  0.00000000000E+00 0. -1.
          1    1    5    5  503    0  0.41644057484E+01  0.39375470866E+02  0.41273988314E+02  0.57195385238E+02  0.00000000000E+00 0. -1.
         -2    1    5    5    0  503  0.21025233084E+03  0.17722604674E+03  0.28000483994E+03  0.39245104747E+03  0.00000000000E+00 0.  1.
         -1    1    6    6    0  502 -0.28946273934E+03 -0.44270774178E+03  0.63231031049E+03  0.82437561272E+03  0.00000000000E+00 0.  1.
<mgrwt>
<rscale>  0 0.13759060E+04</rscale>
<asrwt>0</asrwt>
<pdfrwt beam="1">  1        1 0.24595067E+00 0.13759060E+04</pdfrwt>
<pdfrwt beam="2">  1       -1 0.45545223E-01 0.13759060E+04</pdfrwt>
<totfact> 0.26155803E+01</totfact>
</mgrwt>
</event>
<event>
12    1  0.1097093E-007  0.2682970E+04  0.7818608E-02  0.8340552E-01
         -2   -1    0    0    0  501 -0.00000000000E+00  0.00000000000E+00  0.61478093605E+03  0.61478093605E+03  0.00000000000E+00 0.  1.
          2   -1    0    0  501    0  0.00000000000E+00 -0.00000000000E+00 -0.29271933435E+04  0.29271933435E+04  0.00000000000E+00 0. -1.
         23    2    1    2    0    0  0.32448417130E+03  0.35177440302E+03  0.40947274766E+03  0.63639540270E+03  0.91082212622E+02 0.  0.
        254    2    1    2    0    0 -0.32448417130E+03 -0.35177440302E+03 -0.27218851551E+04  0.29055788768E+04  0.89704771556E+03 0.  0.
        -24    2    4    4    0    0  0.59815979504E+02 -0.37200981163E+03 -0.22884537585E+04  0.23205655371E+04  0.77682401795E+02 0.  0.
         24    2    4    4    0    0 -0.38430015080E+03  0.20235408614E+02 -0.43343139658E+03  0.58501333979E+03  0.79257520290E+02 0.  0.
         11    1    3    3    0    0  0.19245816705E+02  0.30757278551E+01  0.37076330709E+02  0.41886941417E+02  0.00000000000E+00 0. -1.
        -11    1    3    3    0    0  0.30523835459E+03  0.34869867516E+03  0.37239641695E+03  0.59450846128E+03  0.00000000000E+00 0.  1.
          4    1    6    6  502    0 -0.31552030791E+03  0.47525295987E+01 -0.30700723271E+03  0.44026025505E+03  0.00000000000E+00 0. -1.
          3    1    5    5  503    0 -0.19552614278E+01 -0.72081193050E+02 -0.62646044488E+03  0.63059670982E+03  0.00000000000E+00 0. -1.
         -4    1    5    5    0  503  0.61771240932E+02 -0.29992861858E+03 -0.16619933136E+04  0.16899688272E+04  0.00000000000E+00 0.  1.
         -3    1    6    6    0  502 -0.68779842890E+02  0.15482879015E+02 -0.12642416387E+03  0.14475308474E+03  0.00000000000E+00 0.  1.
<mgrwt>
<rscale>  0 0.26829705E+04</rscale>
<asrwt>0</asrwt>
<pdfrwt beam="1">  1        2 0.45033743E+00 0.26829705E+04</pdfrwt>
<pdfrwt beam="2">  1       -2 0.94581683E-01 0.26829705E+04</pdfrwt>
<totfact> 0.15985623E+00</totfact>
</mgrwt>
</event>
<event>
12    1  0.1097093E-007  0.2527123E+04  0.7818608E-02  0.8393386E-01
         -1   -1    0    0    0  501 -0.00000000000E+00  0.00000000000E+00  0.13399416400E+04  0.13399416400E+04  0.00000000000E+00 0.  1.
          1   -1    0    0  501    0  0.00000000000E+00 -0.00000000000E+00 -0.11915348092E+04  0.11915348092E+04  0.00000000000E+00 0. -1.
         23    2    1    2    0    0 -0.62427697820E+02  0.10307856896E+04 -0.31686081269E+03  0.10839301224E+04  0.89929862891E+02 0.  0.
        254    2    1    2    0    0  0.62427697820E+02 -0.10307856896E+04  0.46526764350E+03  0.14475463268E+04  0.90138783699E+03 0.  0.
        -24    2    4    4    0    0 -0.20621121707E+03 -0.84020383279E+03  0.62797117853E+03  0.10720243379E+04  0.80142580837E+02 0.  0.
         24    2    4    4    0    0  0.26863891489E+03 -0.19058185682E+03 -0.16270353503E+03  0.37552198888E+03  0.77820389886E+02 0.  0.
         11    1    3    3    0    0 -0.78801025249E+01  0.76817232325E+03 -0.22672478629E+03  0.80097124976E+03  0.00000000000E+00 0. -1.
        -11    1    3    3    0    0 -0.54547595295E+02  0.26261336636E+03 -0.90136026401E+02  0.28295887263E+03  0.00000000000E+00 0.  1.
          2    1    6    6  502    0  0.90418928617E+02 -0.11043059353E+03 -0.76568490926E+02  0.16196676339E+03  0.00000000000E+00 0. -1.
          1    1    5    5  503    0 -0.84975020944E+02 -0.27857729131E+03  0.25424649709E+03  0.38661006544E+03  0.00000000000E+00 0. -1.
         -2    1    5    5    0  503 -0.12123619613E+03 -0.56162654148E+03  0.37372468144E+03  0.68541427244E+03  0.00000000000E+00 0.  1.
         -1    1    6    6    0  502  0.17821998627E+03 -0.80151263290E+02 -0.86135044104E+02  0.21355522550E+03  0.00000000000E+00 0.  1.
<mgrwt>
<rscale>  0 0.25271226E+04</rscale>
<asrwt>0</asrwt>
<pdfrwt beam="1">  1        1 0.18331305E+00 0.25271226E+04</pdfrwt>
<pdfrwt beam="2">  1       -1 0.20614487E+00 0.25271226E+04</pdfrwt>
<totfact> 0.13120728E+00</totfact>
</mgrwt>
</event>
<event>
12    1  0.1097093E-007  0.3117140E+04  0.7818608E-02  0.8211050E-01
         -2   -1    0    0    0  501 -0.00000000000E+00  0.00000000000E+00  0.87223463135E+03  0.87223463135E+03  0.00000000000E+00 0.  1.
          2   -1    0    0  501    0  0.00000000000E+00 -0.00000000000E+00 -0.27849613335E+04  0.27849613335E+04  0.00000000000E+00 0. -1.
         23    2    1    2    0    0 -0.22047087694E+03 -0.83447208206E+03 -0.22082929830E+04  0.23727635710E+04  0.92184608179E+02 0.  0.
        254    2    1    2    0    0  0.22047087694E+03  0.83447208206E+03  0.29556628080E+03  0.12844323938E+04  0.90413278046E+03 0.  0.
        -24    2    4    4    0    0  0.10523132621E+03  0.66269742537E+03 -0.22996634672E+03  0.71425311427E+03  0.83853926621E+02 0.  0.
         24    2    4    4    0    0  0.11523955072E+03  0.17177465669E+03  0.52553262752E+03  0.57017927958E+03  0.78314631728E+02 0.  0.
         11    1    3    3    0    0 -0.21514093434E+03 -0.83336033338E+03 -0.21763116396E+04  0.23403220760E+04  0.00000000000E+00 0. -1.
        -11    1    3    3    0    0 -0.53299425930E+01 -0.11117486816E+01 -0.31981343408E+02  0.32441495024E+02  0.00000000000E+00 0.  1.
          2    1    6    6  502    0  0.98245817083E+02  0.81768594115E+02  0.27004604043E+03  0.29876948892E+03  0.00000000000E+00 0. -1.
          3    1    5    5  503    0  0.10793678212E+03  0.60647657720E+03 -0.18803842276E+03  0.64406726051E+03  0.00000000000E+00 0. -1.
         -4    1    5    5    0  503 -0.27054559094E+01  0.56220848179E+02 -0.41927923952E+02  0.70185853764E+02  0.00000000000E+00 0.  1.
         -1    1    6    6    0  502  0.16993733641E+02  0.90006062571E+02  0.25548658709E+03  0.27140979065E+03  0.00000000000E+00 0.  1.
<mgrwt>
<rscale>  0 0.31171395E+04</rscale>
<asrwt>0</asrwt>
<pdfrwt beam="1">  1        2 0.42845559E+00 0.31171395E+04</pdfrwt>
<pdfrwt beam="2">  1       -2 0.13418994E+00 0.31171395E+04</pdfrwt>
<totfact> 0.80169665E-01</totfact>
</mgrwt>
</event>
<event>
12    1  0.1244208E-007  0.2433285E+04  0.7818608E-02  0.8427146E-01
         -1   -1    0    0    0  501 -0.00000000000E+00  0.00000000000E+00  0.62063402956E+03  0.62063402956E+03  0.00000000000E+00 0.  1.
          1   -1    0    0  501    0  0.00000000000E+00 -0.00000000000E+00 -0.23850115045E+04  0.23850115045E+04  0.00000000000E+00 0. -1.
         23    2    1    2    0    0 -0.17962551155E+03 -0.54645133334E+03 -0.18397042542E+04  0.19295665946E+04  0.88550077192E+02 0.  0.
        254    2    1    2    0    0  0.17962551155E+03  0.54645133334E+03  0.75326779230E+02  0.10760789394E+04  0.90630975727E+03 0.  0.
        -24    2    4    4    0    0  0.41282571922E+03  0.43595353877E+03  0.34308819471E+03  0.69591542857E+03  0.78155050714E+02 0.  0.
         24    2    4    4    0    0 -0.23320020767E+03  0.11049779456E+03 -0.26776141548E+03  0.38016351087E+03  0.78968474184E+02 0.  0.
         11    1    3    3    0    0 -0.91457041638E+00 -0.51338703624E+01 -0.21847205714E+01  0.56538542534E+01  0.00000000000E+00 0.  1.
        -11    1    3    3    0    0 -0.17871094114E+03 -0.54131746297E+03 -0.18375195336E+04  0.19239127404E+04  0.00000000000E+00 0. -1.
          2    1    6    6  502    0 -0.23679120220E+03  0.99523198377E+02 -0.24667740683E+03  0.35612453369E+03  0.00000000000E+00 0. -1.
          1    1    5    5  503    0  0.41594889122E+03  0.42755898358E+03  0.33824807902E+03  0.68573458970E+03  0.00000000000E+00 0. -1.
         -2    1    5    5    0  503 -0.31231719994E+01  0.83945551940E+01  0.48401156933E+01  0.10180838873E+02  0.00000000000E+00 0.  1.
         -1    1    6    6    0  502  0.35909945285E+01  0.10974596186E+02 -0.21084008648E+02  0.24038977179E+02  0.00000000000E+00 0.  1.
<mgrwt>
<rscale>  0 0.24332853E+04</rscale>
<asrwt>0</asrwt>
<pdfrwt beam="1">  1        1 0.36692485E+00 0.24332853E+04</pdfrwt>
<pdfrwt beam="2">  1       -1 0.95482157E-01 0.24332853E+04</pdfrwt>
<totfact> 0.15385496E+00</totfact>
</mgrwt>
</event>
<event>
12    1  0.1097093E-007  0.1897279E+04  0.7818608E-02  0.8656212E-01
          2   -1    0    0  501    0  0.00000000000E+00  0.00000000000E+00  0.21850941830E+04  0.21850941830E+04  0.00000000000E+00 0.  1.
         -2   -1    0    0    0  501 -0.00000000000E+00 -0.00000000000E+00 -0.41184347385E+03  0.41184347385E+03  0.00000000000E+00 0. -1.
         23    2    1    2    0    0 -0.53228160927E+03 -0.32719021155E+03  0.16932761454E+03  0.65355164072E+03  0.89893047271E+02 0.  0.
        254    2    1    2    0    0  0.53228160927E+03  0.32719021155E+03  0.16039230946E+04  0.19433860161E+04  0.90211017517E+03 0.  0.
        -24    2    4    4    0    0  0.73413249315E+03  0.80306780507E+02  0.90103807299E+03  0.11676822321E+04  0.78819348774E+02 0.  0.
         24    2    4    4    0    0 -0.20185088388E+03  0.24688343104E+03  0.70288502163E+03  0.77570378401E+03  0.77290355522E+02 0.  0.
         11    1    3    3    0    0 -0.34231244544E+02 -0.27805953397E+02  0.37004190817E+02  0.57569603832E+02  0.00000000000E+00 0.  1.
        -11    1    3    3    0    0 -0.49805036472E+03 -0.29938425815E+03  0.13232342372E+03  0.59598203689E+03  0.00000000000E+00 0. -1.
          4    1    6    6  502    0 -0.53821073521E+02  0.68927016390E+02  0.28346448135E+03  0.29664752440E+03  0.00000000000E+00 0. -1.
          1    1    5    5  503    0  0.76203727736E+02  0.21010306023E+02  0.66261992415E+02  0.10314597772E+03  0.00000000000E+00 0. -1.
         -2    1    5    5    0  503  0.65792876541E+03  0.59296474483E+02  0.83477608057E+03  0.10645362544E+04  0.00000000000E+00 0.  1.
         -3    1    6    6    0  502 -0.14802981036E+03  0.17795641465E+03  0.41942054028E+03  0.47905625961E+03  0.00000000000E+00 0.  1.
<mgrwt>
<rscale>  0 0.18972789E+04</rscale>
<asrwt>0</asrwt>
<pdfrwt beam="1">  1        2 0.33616833E+00 0.18972789E+04</pdfrwt>
<pdfrwt beam="2">  1       -2 0.63360536E-01 0.18972789E+04</pdfrwt>
<totfact> 0.11374737E+01</totfact>
</mgrwt>
</event>
<event>
12    1  0.1097093E-007  0.1788345E+04  0.7818608E-02  0.8712522E-01
          1   -1    0    0  501    0  0.00000000000E+00  0.00000000000E+00  0.20614922405E+04  0.20614922405E+04  0.00000000000E+00 0. -1.
         -1   -1    0    0    0  501 -0.00000000000E+00 -0.00000000000E+00 -0.38784750157E+03  0.38784750157E+03  0.00000000000E+00 0.  1.
         23    2    1    2    0    0  0.44168201808E+02  0.58180533237E+03  0.19649258235E+03  0.62235788842E+03  0.90949060155E+02 0.  0.
        254    2    1    2    0    0 -0.44168201808E+02 -0.58180533237E+03  0.14771521566E+04  0.18269818537E+04  0.90301490856E+03 0.  0.
        -24    2    4    4    0    0  0.27823064519E+03  0.10653312049E+03  0.37029307268E+03  0.48193835113E+03  0.79912558048E+02 0.  0.
         24    2    4    4    0    0 -0.32239884700E+03 -0.68833845286E+03  0.11068590839E+04  0.13450435025E+04  0.79083183062E+02 0.  0.
         13    1    3    3    0    0  0.21698315377E+02  0.21332897498E+03  0.26918042072E+02  0.21611258512E+03  0.00000000000E+00 0. -1.
        -13    1    3    3    0    0  0.22469886431E+02  0.36847635739E+03  0.16957454028E+03  0.40624530331E+03  0.00000000000E+00 0.  1.
          2    1    6    6  502    0 -0.26924793289E+03 -0.52526900282E+03  0.81085475926E+03  0.10029393877E+04  0.00000000000E+00 0. -1.
          1    1    5    5  503    0  0.22831404374E+03  0.51404732717E+02  0.28507029735E+03  0.36882898956E+03  0.00000000000E+00 0. -1.
         -2    1    5    5    0  503  0.49916601451E+02  0.55128387773E+02  0.85222775332E+02  0.11310936157E+03  0.00000000000E+00 0.  1.
         -1    1    6    6    0  502 -0.53150914102E+02 -0.16306945004E+03  0.29600432466E+03  0.34210411489E+03  0.00000000000E+00 0.  1.
<mgrwt>
<rscale>  0 0.17883452E+04</rscale>
<asrwt>0</asrwt>
<pdfrwt beam="1">  1        1 0.31715265E+00 0.17883452E+04</pdfrwt>
<pdfrwt beam="2">  1       -1 0.59668847E-01 0.17883452E+04</pdfrwt>
<totfact> 0.72818569E+00</totfact>
</mgrwt>
</event>
<event>
12    1  0.1097093E-007  0.1325292E+04  0.7818608E-02  0.9009745E-01
          2   -1    0    0  501    0  0.00000000000E+00  0.00000000000E+00  0.20365484070E+04  0.20365484070E+04  0.00000000000E+00 0. -1.
         -2   -1    0    0    0  501 -0.00000000000E+00 -0.00000000000E+00 -0.21560991610E+03  0.21560991610E+03  0.00000000000E+00 0.  1.
         23    2    1    2    0    0  0.24830672027E+03 -0.17988381019E+03  0.76272775755E+03  0.82685826708E+03  0.89031169888E+02 0.  0.
        254    2    1    2    0    0 -0.24830672027E+03  0.17988381019E+03  0.10582107334E+04  0.14253000560E+04  0.90424326428E+03 0.  0.
        -24    2    4    4    0    0 -0.52150742039E+03  0.49083670841E+02  0.30923158264E+03  0.61339454099E+03  0.79053747198E+02 0.  0.
         24    2    4    4    0    0  0.27320070012E+03  0.13080013935E+03  0.74897915074E+03  0.81190551505E+03  0.80458051920E+02 0.  0.
         13    1    3    3    0    0 -0.69136773981E+01 -0.28536773240E+01  0.94275648268E+01  0.12034175834E+02  0.00000000000E+00 0.  1.
        -13    1    3    3    0    0  0.25522039767E+03 -0.17703013287E+03  0.75330019272E+03  0.81482409125E+03  0.00000000000E+00 0. -1.
          2    1    6    6  502    0  0.20612368451E+02  0.39869750245E+02  0.10172721534E+03  0.11118854734E+03  0.00000000000E+00 0. -1.
          1    1    5    5  503    0 -0.23307857465E+03 -0.16463405935E+02  0.14677102560E+03  0.27593187502E+03  0.00000000000E+00 0. -1.
         -2    1    5    5    0  503 -0.28842884574E+03  0.65547076776E+02  0.16246055704E+03  0.33746266597E+03  0.00000000000E+00 0.  1.
         -1    1    6    6    0  502  0.25258833167E+03  0.90930389106E+02  0.64725193540E+03  0.70071696771E+03  0.00000000000E+00 0.  1.
<mgrwt>
<rscale>  0 0.13252925E+04</rscale>
<asrwt>0</asrwt>
<pdfrwt beam="1">  1        2 0.31331513E+00 0.13252925E+04</pdfrwt>
<pdfrwt beam="2">  1       -2 0.33170758E-01 0.13252925E+04</pdfrwt>
<totfact> 0.52991838E+01</totfact>
</mgrwt>
</event>
<event>
12    1  0.1097093E-007  0.1304161E+04  0.7818608E-02  0.9026272E-01
          2   -1    0    0  501    0  0.00000000000E+00  0.00000000000E+00  0.61706835471E+03  0.61706835471E+03  0.00000000000E+00 0. -1.
         -2   -1    0    0    0  501 -0.00000000000E+00 -0.00000000000E+00 -0.68907943822E+03  0.68907943822E+03  0.00000000000E+00 0.  1.
         23    2    1    2    0    0  0.18764571550E+03 -0.23257094818E+03 -0.15678439214E+03  0.35144044542E+03  0.98126859589E+02 0.  0.
        254    2    1    2    0    0 -0.18764571550E+03  0.23257094818E+03  0.84773308637E+02  0.95470734751E+03  0.90276211986E+03 0.  0.
        -24    2    4    4    0    0 -0.20923138879E+02  0.40003684417E+03  0.38721678222E+03  0.56264064268E+03  0.78488227957E+02 0.  0.
         24    2    4    4    0    0 -0.16672257662E+03 -0.16746589599E+03 -0.30244347358E+03  0.39206670483E+03  0.80018763125E+02 0.  0.
         13    1    3    3    0    0  0.86055757018E+02 -0.13222432752E+03 -0.30220126396E+02  0.16063038985E+03  0.00000000000E+00 0.  1.
        -13    1    3    3    0    0  0.10158995848E+03 -0.10034662066E+03 -0.12656426574E+03  0.19081005557E+03  0.00000000000E+00 0. -1.
          2    1    6    6  502    0 -0.71303006871E+02 -0.38826630076E+02 -0.57818199338E+02  0.99672313942E+02  0.00000000000E+00 0. -1.
          3    1    5    5  503    0  0.56869284366E+01  0.10040607716E+03  0.55585512290E+02  0.11490635606E+03  0.00000000000E+00 0. -1.
         -4    1    5    5    0  503 -0.26610067316E+02  0.29963076701E+03  0.33163126993E+03  0.44773428662E+03  0.00000000000E+00 0.  1.
         -1    1    6    6    0  502 -0.95419569753E+02 -0.12863926592E+03 -0.24462527424E+03  0.29239439089E+03  0.00000000000E+00 0.  1.
<mgrwt>
<rscale>  0 0.13041612E+04</rscale>
<asrwt>0</asrwt>
<pdfrwt beam="1">  1        2 0.94933593E-01 0.13041612E+04</pdfrwt>
<pdfrwt beam="2">  1       -2 0.10601222E+00 0.13041612E+04</pdfrwt>
<totfact> 0.33742467E+01</totfact>
</mgrwt>
</event>
<event>
12    1  0.1097093E-007  0.1678275E+04  0.7818608E-02  0.8773853E-01
         -2   -1    0    0    0  501 -0.00000000000E+00  0.00000000000E+00  0.76036088629E+03  0.76036088629E+03  0.00000000000E+00 0.  1.
          2   -1    0    0  501    0  0.00000000000E+00 -0.00000000000E+00 -0.92607600193E+03  0.92607600193E+03  0.00000000000E+00 0. -1.
         23    2    1    2    0    0  0.59141545828E+03 -0.44136755368E+02  0.19264648262E+02  0.60062318784E+03  0.93041870301E+02 0.  0.
        254    2    1    2    0    0 -0.59141545828E+03  0.44136755368E+02 -0.18497976390E+03  0.10858137004E+04  0.89053555875E+03 0.  0.
        -24    2    4    4    0    0 -0.66840277483E+03  0.33160946799E+03 -0.20313311575E+03  0.77738906769E+03  0.79646664673E+02 0.  0.
         24    2    4    4    0    0  0.76987316545E+02 -0.28747271262E+03  0.18153351851E+02  0.30842463268E+03  0.78921495515E+02 0.  0.
         13    1    3    3    0    0  0.14211349923E+03  0.21372642953E+02  0.28342868027E+02  0.14647987813E+03  0.00000000000E+00 0. -1.
        -13    1    3    3    0    0  0.44930195906E+03 -0.65509398321E+02 -0.90782197651E+01  0.45414330971E+03  0.00000000000E+00 0.  1.
          2    1    6    6  502    0  0.59971682267E+02 -0.25157442253E+03  0.42115619491E+02  0.26203056721E+03  0.00000000000E+00 0. -1.
          3    1    5    5  503    0 -0.44152393490E+03  0.17643349029E+03 -0.13257320723E+03  0.49360694572E+03  0.00000000000E+00 0. -1.
         -4    1    5    5    0  503 -0.22687883993E+03  0.15517597769E+03 -0.70559908526E+02  0.28378212198E+03  0.00000000000E+00 0.  1.
         -1    1    6    6    0  502  0.17015634279E+02 -0.35898290088E+02 -0.23962267640E+02  0.46394065478E+02  0.00000000000E+00 0.  1.
<mgrwt>
<rscale>  0 0.16782753E+04</rscale>
<asrwt>0</asrwt>
<pdfrwt beam="1">  1        2 0.14247323E+00 0.16782753E+04</pdfrwt>
<pdfrwt beam="2">  1       -2 0.11697860E+00 0.16782753E+04</pdfrwt>
<totfact> 0.15180624E+01</totfact>
</mgrwt>
</event>
<event>
12    1  0.1097093E-007  0.2236147E+04  0.7818608E-02  0.8503532E-01
         -2   -1    0    0    0  501 -0.00000000000E+00  0.00000000000E+00  0.30404568536E+03  0.30404568536E+03  0.00000000000E+00 0.  1.
          2   -1    0    0  501    0  0.00000000000E+00 -0.00000000000E+00 -0.41115138511E+04  0.41115138511E+04  0.00000000000E+00 0. -1.
         23    2    1    2    0    0 -0.70465142226E+03 -0.22230226354E+03 -0.27203384222E+04  0.28203277406E+04  0.89752489797E+02 0.  0.
        254    2    1    2    0    0  0.70465142226E+03  0.22230226354E+03 -0.10871297435E+04  0.15952317959E+04  0.90385921478E+03 0.  0.
        -24    2    4    4    0    0  0.44325530652E+03  0.56002066500E+03 -0.79422542223E+03  0.10710385467E+04  0.78937540025E+02 0.  0.
         24    2    4    4    0    0  0.26139611574E+03 -0.33771840146E+03 -0.29290432125E+03  0.52419324917E+03  0.81264832870E+02 0.  0.
         11    1    3    3    0    0 -0.14140923175E+03 -0.55002528088E+02 -0.70168773214E+03  0.71790495357E+03  0.00000000000E+00 0.  1.
        -11    1    3    3    0    0 -0.56324219051E+03 -0.16729973545E+03 -0.20186506901E+04  0.21024227870E+04  0.00000000000E+00 0. -1.
          4    1    6    6  502    0  0.15559166530E+03 -0.24604781039E+03 -0.16530855184E+03  0.33477635612E+03  0.00000000000E+00 0. -1.
          1    1    5    5  503    0  0.37583412298E+03  0.43043822443E+03 -0.65528908876E+03  0.86944358235E+03  0.00000000000E+00 0. -1.
         -2    1    5    5    0  503  0.67421183538E+02  0.12958244057E+03 -0.13893633347E+03  0.20159496435E+03  0.00000000000E+00 0.  1.
         -3    1    6    6    0  502  0.10580445044E+03 -0.91670591069E+02 -0.12759576941E+03  0.18941689305E+03  0.00000000000E+00 0.  1.
<mgrwt>
<rscale>  0 0.22361467E+04</rscale>
<asrwt>0</asrwt>
<pdfrwt beam="1">  1        2 0.63254054E+00 0.22361467E+04</pdfrwt>
<pdfrwt beam="2">  1       -2 0.46776263E-01 0.22361467E+04</pdfrwt>
<totfact> 0.11010501E+00</totfact>
</mgrwt>
</event>
<event>
12    1  0.1097093E-007  0.1278110E+04  0.7818608E-02  0.9047107E-01
         -2   -1    0    0    0  501 -0.00000000000E+00  0.00000000000E+00  0.25062177931E+03  0.25062177931E+03  0.00000000000E+00 0.  1.
          2   -1    0    0  501    0  0.00000000000E+00 -0.00000000000E+00 -0.16295114297E+04  0.16295114297E+04  0.00000000000E+00 0. -1.
         23    2    1    2    0    0  0.25015875653E+03 -0.13877626423E+03 -0.57977204664E+03  0.65271704214E+03  0.89808997648E+02 0.  0.
        254    2    1    2    0    0 -0.25015875653E+03  0.13877626423E+03 -0.79911760376E+03  0.12274161669E+04  0.88663591576E+03 0.  0.
        -24    2    4    4    0    0 -0.29693212703E+03  0.41914323920E+03 -0.19531039578E+03  0.55541714834E+03  0.80574902703E+02 0.  0.
         24    2    4    4    0    0  0.46773370498E+02 -0.28036697497E+03 -0.60380720798E+03  0.67199901854E+03  0.78779106778E+02 0.  0.
         13    1    3    3    0    0  0.22282704111E+03 -0.13936226449E+03 -0.45926933140E+03  0.52915219907E+03  0.00000000000E+00 0. -1.
        -13    1    3    3    0    0  0.27331715420E+02  0.58600026449E+00 -0.12050271524E+03  0.12356484308E+03  0.00000000000E+00 0.  1.
          4    1    6    6  502    0  0.50694107885E+02 -0.25444398035E+03 -0.58433006940E+03  0.63933814349E+03  0.00000000000E+00 0. -1.
          1    1    5    5  503    0 -0.25873575984E+03  0.39642595426E+03 -0.19202813973E+03  0.51085471230E+03  0.00000000000E+00 0. -1.
         -2    1    5    5    0  503 -0.38196367184E+02  0.22717284945E+02 -0.32822560431E+01  0.44562436043E+02  0.00000000000E+00 0.  1.
         -3    1    6    6    0  502 -0.39207373871E+01 -0.25922994626E+02 -0.19477138580E+02  0.32660875054E+02  0.00000000000E+00 0.  1.
<mgrwt>
<rscale>  0 0.12781096E+04</rscale>
<asrwt>0</asrwt>
<pdfrwt beam="1">  1        2 0.25069407E+00 0.12781096E+04</pdfrwt>
<pdfrwt beam="2">  1       -2 0.38557196E-01 0.12781096E+04</pdfrwt>
<totfact> 0.66948526E+01</totfact>
</mgrwt>
</event>
<event>
12    1  0.1097093E-007  0.1885582E+04  0.7818608E-02  0.8662067E-01
         -1   -1    0    0    0  501 -0.00000000000E+00  0.00000000000E+00  0.32551155517E+03  0.32551155517E+03  0.00000000000E+00 0.  1.
          1   -1    0    0  501    0  0.00000000000E+00 -0.00000000000E+00 -0.27306401055E+04  0.27306401055E+04  0.00000000000E+00 0. -1.
         23    2    1    2    0    0 -0.17227800893E+03  0.55792261185E+03 -0.16068576161E+04  0.17119092711E+04  0.87661855788E+02 0.  0.
        254    2    1    2    0    0  0.17227800893E+03 -0.55792261185E+03 -0.79827093422E+03  0.13442423895E+04  0.91038110934E+03 0.  0.
        -24    2    4    4    0    0  0.35583443050E+03 -0.25022997334E+02 -0.66635096572E+03  0.75987928824E+03  0.78413205888E+02 0.  0.
         24    2    4    4    0    0 -0.18355642157E+03 -0.53289961451E+03 -0.13191996851E+03  0.58436310131E+03  0.80014980022E+02 0.  0.
         13    1    3    3    0    0 -0.15810608747E+03  0.49402528211E+03 -0.14935137773E+04  0.15810255903E+04  0.00000000000E+00 0. -1.
        -13    1    3    3    0    0 -0.14171921456E+02  0.63897329738E+02 -0.11334383875E+03  0.13088368076E+03  0.00000000000E+00 0.  1.
          2    1    6    6  502    0 -0.10024299147E+02 -0.18423769007E+02 -0.21997019412E+02  0.30393925393E+02  0.00000000000E+00 0. -1.
          3    1    5    5  503    0  0.12291803413E+03 -0.95883703562E+01 -0.15729779628E+03  0.19985839156E+03  0.00000000000E+00 0. -1.
         -4    1    5    5    0  503  0.23291639636E+03 -0.15434626977E+02 -0.50905316943E+03  0.56002089668E+03  0.00000000000E+00 0.  1.
         -1    1    6    6    0  502 -0.17353212243E+03 -0.51447584551E+03 -0.10992294909E+03  0.55396917591E+03  0.00000000000E+00 0.  1.
<mgrwt>
<rscale>  0 0.18855820E+04</rscale>
<asrwt>0</asrwt>
<pdfrwt beam="1">  1        1 0.42009848E+00 0.18855820E+04</pdfrwt>
<pdfrwt beam="2">  1       -1 0.50078701E-01 0.18855820E+04</pdfrwt>
<totfact> 0.35050473E+00</totfact>
</mgrwt>
</event>
<event>
12    1  0.1097093E-007  0.1402689E+04  0.7818608E-02  0.8951874E-01
          2   -1    0    0  501    0  0.00000000000E+00  0.00000000000E+00  0.10660077131E+04  0.10660077131E+04  0.00000000000E+00 0. -1.
         -2   -1    0    0    0  501 -0.00000000000E+00 -0.00000000000E+00 -0.46142639839E+03  0.46142639839E+03  0.00000000000E+00 0.  1.
         23    2    1    2    0    0  0.10963756446E+03  0.38750825145E+03  0.23747356658E+03  0.47630206820E+03  0.91032548354E+02 0.  0.
        254    2    1    2    0    0 -0.10963756446E+03 -0.38750825145E+03  0.36710774810E+03  0.10511320433E+04  0.89884783651E+03 0.  0.
        -24    2    4    4    0    0 -0.28787972750E+03  0.20236162544E+03  0.10187550880E+03  0.37527242448E+03  0.81399068334E+02 0.  0.
         24    2    4    4    0    0  0.17824216303E+03 -0.58986987689E+03  0.26523223930E+03  0.67585961879E+03  0.81983798414E+02 0.  0.
         13    1    3    3    0    0  0.10707301573E+03  0.34231626082E+03  0.23900982008E+03  0.43101130753E+03  0.00000000000E+00 0. -1.
        -13    1    3    3    0    0  0.25645487370E+01  0.45191990633E+02 -0.15362535004E+01  0.45290760674E+02  0.00000000000E+00 0.  1.
          2    1    6    6  502    0  0.79661693748E+02 -0.14048472423E+03  0.64429656965E+02  0.17387674913E+03  0.00000000000E+00 0. -1.
          3    1    5    5  503    0 -0.24697165696E+02 -0.42430933765E+01  0.16361171286E+02  0.29927274528E+02  0.00000000000E+00 0. -1.
         -4    1    5    5    0  503 -0.26318256180E+03  0.20660471882E+03  0.85514337518E+02  0.34534514995E+03  0.00000000000E+00 0.  1.
         -1    1    6    6    0  502  0.98580469286E+02 -0.44938515267E+03  0.20080258233E+03  0.50198286966E+03  0.00000000000E+00 0.  1.
<mgrwt>
<rscale>  0 0.14026890E+04</rscale>
<asrwt>0</asrwt>
<pdfrwt beam="1">  1        2 0.16400119E+00 0.14026890E+04</pdfrwt>
<pdfrwt beam="2">  1       -2 0.70988677E-01 0.14026890E+04</pdfrwt>
<totfact> 0.40131919E+01</totfact>
</mgrwt>
</event>
<event>
12    1  0.1097093E-007  0.2050030E+04  0.7818608E-02  0.8583581E-01
          2   -1    0    0  501    0  0.00000000000E+00  0.00000000000E+00  0.37230875594E+04  0.37230875594E+04  0.00000000000E+00 0. -1.
         -2   -1    0    0    0  501 -0.00000000000E+00 -0.00000000000E+00 -0.28220013430E+03  0.28220013430E+03  0.00000000000E+00 0.  1.
         23    2    1    2    0    0  0.33025969857E+03  0.70135116084E+03  0.83193126496E+03  0.11401556267E+04  0.82947598948E+02 0.  0.
        254    2    1    2    0    0 -0.33025969857E+03 -0.70135116084E+03  0.26089561602E+04  0.28651320670E+04  0.89518969859E+03 0.  0.
        -24    2    4    4    0    0  0.13024406532E+03  0.14701048752E+03  0.38658525137E+03  0.44091147222E+03  0.79869704916E+02 0.  0.
         24    2    4    4    0    0 -0.46050376390E+03 -0.84836164836E+03  0.22223709088E+04  0.24242205948E+04  0.78306021501E+02 0.  0.
         11    1    3    3    0    0  0.13371915182E+02  0.23213462416E+02  0.55728556727E+02  0.61833202956E+02  0.00000000000E+00 0. -1.
        -11    1    3    3    0    0  0.31688778339E+03  0.67813769843E+03  0.77620270824E+03  0.10783224238E+04  0.00000000000E+00 0.  1.
          2    1    6    6  502    0 -0.31613076314E+03 -0.52955522045E+03  0.13467615077E+04  0.14812609322E+04  0.00000000000E+00 0. -1.
          1    1    5    5  503    0  0.51528782855E+02  0.17821860731E+02  0.60502910999E+02  0.81445911020E+02  0.00000000000E+00 0. -1.
         -2    1    5    5    0  503  0.78715282470E+02  0.12918862679E+03  0.32608234037E+03  0.35946556120E+03  0.00000000000E+00 0.  1.
         -1    1    6    6    0  502 -0.14437300076E+03 -0.31880642792E+03  0.87560940114E+03  0.94295966255E+03  0.00000000000E+00 0.  1.
<mgrwt>
<rscale>  0 0.20500301E+04</rscale>
<asrwt>0</asrwt>
<pdfrwt beam="1">  1        2 0.57278267E+00 0.20500301E+04</pdfrwt>
<pdfrwt beam="2">  1       -2 0.43415408E-01 0.20500301E+04</pdfrwt>
<totfact> 0.26301187E+00</totfact>
</mgrwt>
</event>
<event>
12    1  0.1097093E-007  0.1232879E+04  0.7818608E-02  0.9084554E-01
          2   -1    0    0  501    0  0.00000000000E+00  0.00000000000E+00  0.13478015649E+04  0.13478015649E+04  0.00000000000E+00 0. -1.
         -2   -1    0    0    0  501 -0.00000000000E+00 -0.00000000000E+00 -0.28193894851E+03  0.28193894851E+03  0.00000000000E+00 0.  1.
         23    2    1    2    0    0  0.63613800689E+02 -0.14117178068E+03  0.53120290152E+03  0.56080943128E+03  0.91402999589E+02 0.  0.
        254    2    1    2    0    0 -0.63613800689E+02  0.14117178068E+03  0.53465971491E+03  0.10689310822E+04  0.91256586632E+03 0.  0.
        -24    2    4    4    0    0  0.11327929500E+03  0.86349814562E+01  0.74260684070E+03  0.75530692325E+03  0.78210401327E+02 0.  0.
         24    2    4    4    0    0 -0.17689309569E+03  0.13253679923E+03 -0.20794712580E+03  0.31362415891E+03  0.79126073290E+02 0.  0.
         11    1    3    3    0    0  0.77703290555E+02 -0.12723591774E+03  0.37813209242E+03  0.40646114137E+03  0.00000000000E+00 0. -1.
        -11    1    3    3    0    0 -0.14089489866E+02 -0.13935862944E+02  0.15307080910E+03  0.15434828991E+03  0.00000000000E+00 0.  1.
          4    1    6    6  502    0 -0.81124053369E+00 -0.30758128864E+01  0.49322224694E+01  0.58690335323E+01  0.00000000000E+00 0. -1.
          1    1    5    5  503    0  0.56230129515E+02 -0.31316651029E+02  0.26819312262E+03  0.27580810560E+03  0.00000000000E+00 0. -1.
         -2    1    5    5    0  503  0.57049165485E+02  0.39951632486E+02  0.47441371809E+03  0.47949881765E+03  0.00000000000E+00 0.  1.
         -3    1    6    6    0  502 -0.17608185516E+03  0.13561261211E+03 -0.21287934827E+03  0.30775512538E+03  0.00000000000E+00 0.  1.
<mgrwt>
<rscale>  0 0.12328792E+04</rscale>
<asrwt>0</asrwt>
<pdfrwt beam="1">  1        2 0.20735408E+00 0.12328792E+04</pdfrwt>
<pdfrwt beam="2">  1       -2 0.43375224E-01 0.12328792E+04</pdfrwt>
<totfact> 0.76914894E+01</totfact>
</mgrwt>
</event>
<event>
12    1  0.1097093E-007  0.4973304E+04  0.7818608E-02  0.7832639E-01
          1   -1    0    0  501    0  0.00000000000E+00  0.00000000000E+00  0.25897600629E+04  0.25897600629E+04  0.00000000000E+00 0. -1.
         -1   -1    0    0    0  501 -0.00000000000E+00 -0.00000000000E+00 -0.23876490144E+04  0.23876490144E+04  0.00000000000E+00 0.  1.
         23    2    1    2    0    0  0.29874425612E+03 -0.17756467811E+04 -0.14960101837E+04  0.23428248469E+04  0.92801786317E+02 0.  0.
        254    2    1    2    0    0 -0.29874425612E+03  0.17756467811E+04  0.16981212322E+04  0.26345842304E+04  0.90291125031E+03 0.  0.
        -24    2    4    4    0    0  0.25485291868E+03  0.28456891225E+03  0.53663091436E+03  0.66347447457E+03  0.79348372256E+02 0.  0.
         24    2    4    4    0    0 -0.55359717479E+03  0.14910778689E+04  0.11614903179E+04  0.19711097558E+04  0.80192693708E+02 0.  0.
         13    1    3    3    0    0  0.16392957178E+03 -0.95895631357E+03 -0.74812652602E+03  0.12272584955E+04  0.00000000000E+00 0.  1.
        -13    1    3    3    0    0  0.13481468433E+03 -0.81669046754E+03 -0.74788365768E+03  0.11155663514E+04  0.00000000000E+00 0. -1.
          2    1    6    6  502    0 -0.53717073606E+03  0.14689056022E+04  0.11319461458E+04  0.19306833362E+04  0.00000000000E+00 0. -1.
          3    1    5    5  503    0  0.18090868123E+03  0.22920037027E+03  0.35463385963E+03  0.45937559259E+03  0.00000000000E+00 0. -1.
         -4    1    5    5    0  503  0.73944237446E+02  0.55368541987E+02  0.18199705473E+03  0.20409888198E+03  0.00000000000E+00 0.  1.
         -1    1    6    6    0  502 -0.16426438733E+02  0.22172266676E+02  0.29544172092E+02  0.40426419624E+02  0.00000000000E+00 0.  1.
<mgrwt>
<rscale>  0 0.49733040E+04</rscale>
<asrwt>0</asrwt>
<pdfrwt beam="1">  1        1 0.39842463E+00 0.49733040E+04</pdfrwt>
<pdfrwt beam="2">  1       -1 0.36733062E+00 0.49733040E+04</pdfrwt>
<totfact> 0.10107088E-02</totfact>
</mgrwt>
</event>
<event>
12    1  0.1097093E-007  0.2404572E+04  0.7818608E-02  0.8437794E-01
         -2   -1    0    0    0  501 -0.00000000000E+00  0.00000000000E+00  0.40680553233E+03  0.40680553233E+03  0.00000000000E+00 0.  1.
          2   -1    0    0  501    0  0.00000000000E+00 -0.00000000000E+00 -0.35532740202E+04  0.35532740202E+04  0.00000000000E+00 0. -1.
         23    2    1    2    0    0  0.91106405847E+03 -0.24025557089E+03 -0.66801740400E+03  0.11585312113E+04  0.90481254917E+02 0.  0.
        254    2    1    2    0    0 -0.91106405847E+03  0.24025557089E+03 -0.24784510839E+04  0.28015483413E+04  0.90454014570E+03 0.  0.
        -24    2    4    4    0    0 -0.30053964823E+03  0.18567023769E+03 -0.19650383434E+04  0.19981207359E+04  0.79456069771E+02 0.  0.
         24    2    4    4    0    0 -0.61052441024E+03  0.54585333201E+02 -0.51341274050E+03  0.80342760533E+03  0.78636256244E+02 0.  0.
         11    1    3    3    0    0  0.74000564914E+03 -0.18037376797E+03 -0.57811301678E+03  0.95622053790E+03  0.00000000000E+00 0.  1.
        -11    1    3    3    0    0  0.17105840933E+03 -0.59881802928E+02 -0.89904387225E+02  0.20231067339E+03  0.00000000000E+00 0. -1.
          2    1    6    6  502    0 -0.34364822519E+03 -0.60391937414E+01 -0.26808713214E+03  0.43589136830E+03  0.00000000000E+00 0. -1.
          3    1    5    5  503    0 -0.30151263468E+03  0.16992418342E+03 -0.18641031165E+04  0.18959600539E+04  0.00000000000E+00 0. -1.
         -4    1    5    5    0  503  0.97298645117E+00  0.15746054277E+02 -0.10093522685E+03  0.10216068200E+03  0.00000000000E+00 0.  1.
         -1    1    6    6    0  502 -0.26687618506E+03  0.60624526942E+02 -0.24532560835E+03  0.36753623703E+03  0.00000000000E+00 0.  1.
<mgrwt>
<rscale>  0 0.24045719E+04</rscale>
<asrwt>0</asrwt>
<pdfrwt beam="1">  1        2 0.54665754E+00 0.24045719E+04</pdfrwt>
<pdfrwt beam="2">  1       -2 0.62585467E-01 0.24045719E+04</pdfrwt>
<totfact> 0.15902661E+00</totfact>
</mgrwt>
</event>
<event>
12    1  0.1097093E-007  0.1787224E+04  0.7818608E-02  0.8713123E-01
         -4   -1    0    0    0  501 -0.00000000000E+00  0.00000000000E+00  0.46351422396E+03  0.46351422396E+03  0.00000000000E+00 0.  1.
          4   -1    0    0  501    0  0.00000000000E+00 -0.00000000000E+00 -0.17228003650E+04  0.17228003650E+04  0.00000000000E+00 0. -1.
         23    2    1    2    0    0  0.11681531699E+03 -0.39096562817E+03  0.16607763082E+03  0.44975755393E+03  0.90554608768E+02 0.  0.
        254    2    1    2    0    0 -0.11681531699E+03  0.39096562817E+03 -0.14253637719E+04  0.17365570350E+04  0.90413965353E+03 0.  0.
        -24    2    4    4    0    0 -0.23001590299E+03 -0.43394516293E+02 -0.72585078600E+01  0.24650437413E+03  0.76950119267E+02 0.  0.
         24    2    4    4    0    0  0.11320058599E+03  0.43436014446E+03 -0.14181052640E+04  0.14900526609E+04  0.88041380733E+02 0.  0.
         13    1    3    3    0    0  0.10154597404E+03 -0.18413531573E+03  0.75109395724E+02  0.22329088801E+03  0.00000000000E+00 0.  1.
        -13    1    3    3    0    0  0.15269342950E+02 -0.20683031244E+03  0.90968235093E+02  0.22646666592E+03  0.00000000000E+00 0. -1.
          2    1    6    6  502    0  0.15828557766E+02  0.58785867398E+01 -0.35663832874E+02  0.39458966006E+02  0.00000000000E+00 0. -1.
          1    1    5    5  503    0 -0.34870879444E+02 -0.34530723983E+02 -0.14029224517E+02  0.51040849058E+02  0.00000000000E+00 0. -1.
         -2    1    5    5    0  503 -0.19514502354E+03 -0.88637923103E+01  0.67707166566E+01  0.19546352507E+03  0.00000000000E+00 0.  1.
         -1    1    6    6    0  502  0.97372028229E+02  0.42848155772E+03 -0.13824414311E+04  0.14505936949E+04  0.00000000000E+00 0.  1.
<mgrwt>
<rscale>  0 0.17872241E+04</rscale>
<asrwt>0</asrwt>
<pdfrwt beam="1">  1        4 0.26504621E+00 0.17872241E+04</pdfrwt>
<pdfrwt beam="2">  1       -4 0.71309881E-01 0.17872241E+04</pdfrwt>
<totfact> 0.17329519E-01</totfact>
</mgrwt>
</event>
<event>
12    1  0.1097093E-007  0.3293446E+04  0.7818608E-02  0.8164565E-01
         -2   -1    0    0    0  501 -0.00000000000E+00  0.00000000000E+00  0.12732242325E+04  0.12732242325E+04  0.00000000000E+00 0.  1.
          2   -1    0    0  501    0  0.00000000000E+00 -0.00000000000E+00 -0.21297869558E+04  0.21297869558E+04  0.00000000000E+00 0. -1.
         23    2    1    2    0    0 -0.10679634763E+04  0.80123854682E+03 -0.11512002797E+04  0.17651992153E+04  0.90205268023E+02 0.  0.
        254    2    1    2    0    0  0.10679634763E+04 -0.80123854682E+03  0.29463755628E+03  0.16378119730E+04  0.90171368718E+03 0.  0.
        -24    2    4    4    0    0  0.97403220074E+03 -0.98648817630E+03  0.25347243112E+03  0.14117061900E+04  0.82270550119E+02 0.  0.
         24    2    4    4    0    0  0.93931275533E+02  0.18524962948E+03  0.41165125160E+02  0.22610578299E+03  0.79301625610E+02 0.  0.
         11    1    3    3    0    0 -0.86932984585E+03  0.69410695245E+03 -0.95209191419E+03  0.14642396851E+04  0.00000000000E+00 0.  1.
        -11    1    3    3    0    0 -0.19863363043E+03  0.10713159437E+03 -0.19910836546E+03  0.30095953024E+03  0.00000000000E+00 0. -1.
          4    1    6    6  502    0  0.38624762295E+01 -0.81238643915E+01  0.21097000590E+01  0.92394117570E+01  0.00000000000E+00 0. -1.
          3    1    5    5  503    0  0.51904333416E+03 -0.48496425303E+03  0.15979301088E+03  0.72810034733E+03  0.00000000000E+00 0. -1.
         -4    1    5    5    0  503  0.45498886658E+03 -0.50152392327E+03  0.93679420240E+02  0.68360584265E+03  0.00000000000E+00 0.  1.
         -3    1    6    6    0  502  0.90068799303E+02  0.19337349387E+03  0.39055425101E+02  0.21686637123E+03  0.00000000000E+00 0.  1.
<mgrwt>
<rscale>  0 0.32934458E+04</rscale>
<asrwt>0</asrwt>
<pdfrwt beam="1">  1        2 0.32765953E+00 0.32934458E+04</pdfrwt>
<pdfrwt beam="2">  1       -2 0.19588065E+00 0.32934458E+04</pdfrwt>
<totfact> 0.66911290E-01</totfact>
</mgrwt>
</event>
<event>
12    1  0.1097093E-007  0.1034771E+04  0.7818608E-02  0.9271210E-01
         -1   -1    0    0    0  501 -0.00000000000E+00  0.00000000000E+00  0.31470356635E+03  0.31470356635E+03  0.00000000000E+00 0.  1.
          1   -1    0    0  501    0  0.00000000000E+00 -0.00000000000E+00 -0.85060260426E+03  0.85060260426E+03  0.00000000000E+00 0. -1.
         23    2    1    2    0    0 -0.63107422238E+02  0.25694380084E+02 -0.13872521875E+03  0.17919072788E+03  0.90674598050E+02 0.  0.
        254    2    1    2    0    0  0.63107422238E+02 -0.25694380084E+02 -0.39717381915E+03  0.98611544273E+03  0.90001881973E+03 0.  0.
        -24    2    4    4    0    0 -0.11755640591E+03  0.32077408063E+03  0.85509388716E+02  0.36106096380E+03  0.79609325105E+02 0.  0.
         24    2    4    4    0    0  0.18066382814E+03 -0.34646846072E+03 -0.48268320787E+03  0.62505447893E+03  0.70923969184E+02 0.  0.
         13    1    3    3    0    0 -0.72348155400E+02  0.49240024153E+02 -0.11498855885E+03  0.14450330181E+03  0.00000000000E+00 0.  1.
        -13    1    3    3    0    0  0.92407331614E+01 -0.23545644070E+02 -0.23736659904E+02  0.34687426071E+02  0.00000000000E+00 0. -1.
          2    1    6    6  502    0  0.81481231117E+02 -0.88592908547E+02 -0.13271413989E+03  0.17916734467E+03  0.00000000000E+00 0. -1.
          1    1    5    5  503    0  0.81252780695E+01  0.61996750201E+02  0.74052489011E+01  0.62963917369E+02  0.00000000000E+00 0. -1.
         -2    1    5    5    0  503 -0.12568168398E+03  0.25877733043E+03  0.78104139815E+02  0.29809704643E+03  0.00000000000E+00 0.  1.
         -1    1    6    6    0  502  0.99182597028E+02 -0.25787555217E+03 -0.34996906798E+03  0.44588713427E+03  0.00000000000E+00 0.  1.
<mgrwt>
<rscale>  0 0.10347708E+04</rscale>
<asrwt>0</asrwt>
<pdfrwt beam="1">  1        1 0.13086194E+00 0.10347708E+04</pdfrwt>
<pdfrwt beam="2">  1       -1 0.48415933E-01 0.10347708E+04</pdfrwt>
<totfact> 0.85373428E+01</totfact>
</mgrwt>
</event>
<event>
12    1  0.1097093E-007  0.1381406E+04  0.7818608E-02  0.8967389E-01
          2   -1    0    0  501    0  0.00000000000E+00  0.00000000000E+00  0.95056674079E+03  0.95056674079E+03  0.00000000000E+00 0. -1.
         -2   -1    0    0    0  501 -0.00000000000E+00 -0.00000000000E+00 -0.50188014702E+03  0.50188014702E+03  0.00000000000E+00 0.  1.
         23    2    1    2    0    0 -0.43239445346E+02  0.36546390127E+03  0.24104826506E+03  0.45632931897E+03  0.12123806539E+03 0.  0.
        254    2    1    2    0    0  0.43239445346E+02 -0.36546390127E+03  0.20763832871E+03  0.99611756884E+03  0.90205488892E+03 0.  0.
        -24    2    4    4    0    0  0.18019336838E+03  0.11054563886E+03  0.39952131608E+03  0.45884393853E+03  0.78933450742E+02 0.  0.
         24    2    4    4    0    0 -0.13695392303E+03 -0.47600954013E+03 -0.19188298737E+03  0.53727363030E+03  0.80637544883E+02 0.  0.
         13    1    3    3    0    0 -0.23216735164E+02  0.25745927788E+03  0.99111987164E+02  0.27685281750E+03  0.00000000000E+00 0. -1.
        -13    1    3    3    0    0 -0.20022710182E+02  0.10800462339E+03  0.14193627790E+03  0.17947650147E+03  0.00000000000E+00 0.  1.
          2    1    6    6  502    0 -0.12304707674E+03 -0.44975553053E+03 -0.15826948204E+03  0.49241227572E+03  0.00000000000E+00 0. -1.
          1    1    5    5  503    0  0.12684846569E+03  0.11470535309E+03  0.28370259108E+03  0.33126275290E+03  0.00000000000E+00 0. -1.
         -2    1    5    5    0  503  0.53344902688E+02 -0.41597142324E+01  0.11581872501E+03  0.12758118563E+03  0.00000000000E+00 0.  1.
         -1    1    6    6    0  502 -0.13906846288E+02 -0.26254009603E+02 -0.33613505336E+02  0.44861354581E+02  0.00000000000E+00 0.  1.
<mgrwt>
<rscale>  0 0.13814059E+04</rscale>
<asrwt>0</asrwt>
<pdfrwt beam="1">  1        2 0.14624104E+00 0.13814059E+04</pdfrwt>
<pdfrwt beam="2">  1       -2 0.77212330E-01 0.13814059E+04</pdfrwt>
<totfact> 0.39581650E+01</totfact>
</mgrwt>
</event>
<event>
12    1  0.1097093E-007  0.1405109E+04  0.7818608E-02  0.8950129E-01
         -2   -1    0    0    0  501 -0.00000000000E+00  0.00000000000E+00  0.93405167167E+03  0.93405167167E+03  0.00000000000E+00 0.  1.
          2   -1    0    0  501    0  0.00000000000E+00 -0.00000000000E+00 -0.52843191737E+03  0.52843191737E+03  0.00000000000E+00 0. -1.
         23    2    1    2    0    0  0.34239805294E+03  0.63143926269E+01  0.33566725895E+03  0.48850706685E+03  0.93222032920E+02 0.  0.
        254    2    1    2    0    0 -0.34239805294E+03 -0.63143926269E+01  0.69952495347E+02  0.97397652219E+03  0.90909879329E+03 0.  0.
        -24    2    4    4    0    0  0.29376211347E+03 -0.83594650327E+02  0.91492802255E+02  0.32852049123E+03  0.79186712432E+02 0.  0.
         24    2    4    4    0    0 -0.63616016640E+03  0.77280257700E+02 -0.21540306908E+02  0.64545603096E+03  0.74010185278E+02 0.  0.
         13    1    3    3    0    0 -0.53691739207E+01 -0.33704241592E+01  0.10718856122E+02  0.12453178878E+02  0.00000000000E+00 0. -1.
        -13    1    3    3    0    0  0.34776722686E+03  0.96848167862E+01  0.32494840283E+03  0.47605388797E+03  0.00000000000E+00 0.  1.
          4    1    6    6  502    0 -0.61856920271E+03  0.80129593787E+02 -0.92457024162E+01  0.62380613443E+03  0.00000000000E+00 0. -1.
          1    1    5    5  503    0  0.27161199706E+03 -0.60084555190E+02  0.62493155956E+02  0.28511160141E+03  0.00000000000E+00 0. -1.
         -2    1    5    5    0  503  0.22150116408E+02 -0.23510095137E+02  0.28999646299E+02  0.43408889824E+02  0.00000000000E+00 0.  1.
         -3    1    6    6    0  502 -0.17590963692E+02 -0.28493360873E+01 -0.12294604492E+02  0.21649896521E+02  0.00000000000E+00 0.  1.
<mgrwt>
<rscale>  0 0.14051088E+04</rscale>
<asrwt>0</asrwt>
<pdfrwt beam="1">  1        2 0.81297218E-01 0.14051088E+04</pdfrwt>
<pdfrwt beam="2">  1       -2 0.14370026E+00 0.14051088E+04</pdfrwt>
<totfact> 0.18826974E+01</totfact>
</mgrwt>
</event>
<event>
12    1  0.1097093E-007  0.1256021E+04  0.7818608E-02  0.9065187E-01
         -2   -1    0    0    0  501 -0.00000000000E+00  0.00000000000E+00  0.11631148705E+03  0.11631148705E+03  0.00000000000E+00 0.  1.
          2   -1    0    0  501    0  0.00000000000E+00 -0.00000000000E+00 -0.33908679383E+04  0.33908679383E+04  0.00000000000E+00 0. -1.
         23    2    1    2    0    0  0.20225599760E+03  0.76754400011E+02 -0.24496522164E+03  0.33910342927E+03  0.90467947058E+02 0.  0.
        254    2    1    2    0    0 -0.20225599760E+03 -0.76754400011E+02 -0.30295912297E+04  0.31680759961E+04  0.90082394055E+03 0.  0.
        -24    2    4    4    0    0  0.18060266663E+03  0.27354681002E+03 -0.17975099547E+04  0.18288877637E+04  0.79644425745E+02 0.  0.
         24    2    4    4    0    0 -0.38285866424E+03 -0.35030121003E+03 -0.12320812750E+04  0.13391882324E+04  0.78161110384E+02 0.  0.
         13    1    3    3    0    0  0.16765997319E+02  0.18732079491E+02 -0.81042231824E+02  0.84851828543E+02  0.00000000000E+00 0. -1.
        -13    1    3    3    0    0  0.18549000028E+03  0.58022320521E+02 -0.16392298982E+03  0.25425160073E+03  0.00000000000E+00 0.  1.
          2    1    6    6  502    0 -0.28082583336E+03 -0.29413425264E+03 -0.91143971587E+03  0.99804832695E+03  0.00000000000E+00 0. -1.
          3    1    5    5  503    0  0.85691573676E+02  0.19272189930E+03 -0.12172649856E+04  0.12354022913E+04  0.00000000000E+00 0. -1.
         -4    1    5    5    0  503  0.94911092959E+02  0.80824910724E+02 -0.58024496907E+03  0.59348547235E+03  0.00000000000E+00 0.  1.
         -1    1    6    6    0  502 -0.10203283088E+03 -0.56166957390E+02 -0.32064155913E+03  0.34113990550E+03  0.00000000000E+00 0.  1.
<mgrwt>
<rscale>  0 0.12560205E+04</rscale>
<asrwt>0</asrwt>
<pdfrwt beam="1">  1        2 0.52167207E+00 0.12560205E+04</pdfrwt>
<pdfrwt beam="2">  1       -2 0.17894072E-01 0.12560205E+04</pdfrwt>
<totfact> 0.25188398E+01</totfact>
</mgrwt>
</event>
<event>
12    1  0.1097093E-007  0.3207778E+04  0.7818608E-02  0.8186766E-01
          1   -1    0    0  501    0  0.00000000000E+00  0.00000000000E+00  0.19443132077E+04  0.19443132077E+04  0.00000000000E+00 0.  1.
         -1   -1    0    0    0  501 -0.00000000000E+00 -0.00000000000E+00 -0.13230688095E+04  0.13230688095E+04  0.00000000000E+00 0. -1.
         23    2    1    2    0    0  0.10378051919E+04 -0.10567983475E+04  0.31687405998E+03  0.15179298760E+04  0.99194632079E+02 0.  0.
        254    2    1    2    0    0 -0.10378051919E+04  0.10567983475E+04  0.30437033826E+03  0.17494521412E+04  0.87981766760E+03 0.  0.
        -24    2    4    4    0    0 -0.93653062833E+03  0.10420630709E+04 -0.16779228498E+02  0.14034479069E+04  0.79996394914E+02 0.  0.
         24    2    4    4    0    0 -0.10127456354E+03  0.14735276539E+02  0.32114956676E+03  0.34600423438E+03  0.78155104653E+02 0.  0.
         13    1    3    3    0    0  0.78594158368E+03 -0.81588217921E+03  0.28356027392E+03  0.11678074894E+04  0.00000000000E+00 0. -1.
        -13    1    3    3    0    0  0.25186360819E+03 -0.24091616825E+03  0.33313786059E+02  0.35012238660E+03  0.00000000000E+00 0.  1.
          4    1    6    6  502    0 -0.10595622498E+03  0.26385526012E+02  0.31175114649E+03  0.33032059417E+03  0.00000000000E+00 0. -1.
          3    1    5    5  503    0 -0.79564078633E+03  0.92429821961E+03 -0.78197933635E+01  0.12196034638E+04  0.00000000000E+00 0. -1.
         -4    1    5    5    0  503 -0.14088984199E+03  0.11776485130E+03 -0.89594351340E+01  0.18384444310E+03  0.00000000000E+00 0.  1.
         -3    1    6    6    0  502  0.46816614414E+01 -0.11650249473E+02  0.93984202710E+01  0.15683640210E+02  0.00000000000E+00 0.  1.
<mgrwt>
<rscale>  0 0.32077781E+04</rscale>
<asrwt>0</asrwt>
<pdfrwt beam="1">  1        1 0.29912511E+00 0.32077781E+04</pdfrwt>
<pdfrwt beam="2">  1       -1 0.20354905E+00 0.32077781E+04</pdfrwt>
<totfact> 0.38673761E-01</totfact>
</mgrwt>
</event>
<event>
12    1  0.1097093E-007  0.2282609E+04  0.7818608E-02  0.8484810E-01
          2   -1    0    0  501    0  0.00000000000E+00  0.00000000000E+00  0.96082476526E+03  0.96082476526E+03  0.00000000000E+00 0. -1.
         -2   -1    0    0    0  501 -0.00000000000E+00 -0.00000000000E+00 -0.13556852585E+04  0.13556852585E+04  0.00000000000E+00 0.  1.
         23    2    1    2    0    0  0.63753874479E+03  0.69929665981E+03 -0.33645345888E+03  0.10083959910E+04  0.90499034407E+02 0.  0.
        254    2    1    2    0    0 -0.63753874479E+03 -0.69929665981E+03 -0.58407034314E+02  0.13081140327E+04  0.90126548325E+03 0.  0.
        -24    2    4    4    0    0 -0.81412008680E+03 -0.64973005777E+03 -0.19933804402E+03  0.10634188942E+04  0.78634756633E+02 0.  0.
         24    2    4    4    0    0  0.17658134201E+03 -0.49566602039E+02  0.14093100971E+03  0.24469513852E+03  0.79852006447E+02 0.  0.
         11    1    3    3    0    0  0.32904578915E+03  0.38988233355E+03 -0.22429100507E+03  0.55730227016E+03  0.00000000000E+00 0. -1.
        -11    1    3    3    0    0  0.30849295564E+03  0.30941432626E+03 -0.11216245381E+03  0.45109372088E+03  0.00000000000E+00 0.  1.
          4    1    6    6  502    0  0.25150498946E+02  0.15107790842E+02  0.46193890726E+02  0.54723564228E+02  0.00000000000E+00 0. -1.
          3    1    5    5  503    0 -0.40735841335E+03 -0.27495285849E+03 -0.91753545935E+02  0.49995866280E+03  0.00000000000E+00 0. -1.
         -4    1    5    5    0  503 -0.40676167345E+03 -0.37477719928E+03 -0.10758449809E+03  0.56346023136E+03  0.00000000000E+00 0.  1.
         -3    1    6    6    0  502  0.15143084306E+03 -0.64674392881E+02  0.94737118981E+02  0.18997157429E+03  0.00000000000E+00 0.  1.
<mgrwt>
<rscale>  0 0.22826090E+04</rscale>
<asrwt>0</asrwt>
<pdfrwt beam="1">  1        2 0.14781919E+00 0.22826090E+04</pdfrwt>
<pdfrwt beam="2">  1       -2 0.20856696E+00 0.22826090E+04</pdfrwt>
<totfact> 0.28356198E+00</totfact>
</mgrwt>
</event>
<event>
12    1  0.1097093E-007  0.3198119E+04  0.7818608E-02  0.8189314E-01
          2   -1    0    0  501    0  0.00000000000E+00  0.00000000000E+00  0.17455625011E+04  0.17455625011E+04  0.00000000000E+00 0. -1.
         -2   -1    0    0    0  501 -0.00000000000E+00 -0.00000000000E+00 -0.14648524898E+04  0.14648524898E+04  0.00000000000E+00 0.  1.
         23    2    1    2    0    0  0.13721766906E+04  0.51454271002E+03  0.17076478540E+01  0.14684271578E+04  0.93017906742E+02 0.  0.
        254    2    1    2    0    0 -0.13721766906E+04 -0.51454271002E+03  0.27900236343E+03  0.17419878331E+04  0.89947552564E+03 0.  0.
        -24    2    4    4    0    0 -0.27068809674E+03 -0.53412091960E+03  0.19253096825E+03  0.63397379772E+03  0.79356159095E+02 0.  0.
         24    2    4    4    0    0 -0.11014885939E+04  0.19578209578E+02  0.86471395181E+02  0.11080140354E+04  0.80977600097E+02 0.  0.
         13    1    3    3    0    0  0.15826572622E+03  0.62477431561E+02  0.29939122849E+02  0.17276521823E+03  0.00000000000E+00 0. -1.
        -13    1    3    3    0    0  0.12139109644E+04  0.45206527846E+03 -0.28231474995E+02  0.12956619396E+04  0.00000000000E+00 0.  1.
          4    1    6    6  502    0 -0.34813695681E+03 -0.26562462572E+02  0.46005483327E+02  0.35216673553E+03  0.00000000000E+00 0. -1.
          3    1    5    5  503    0 -0.85371278609E+01  0.53455460982E+00  0.32072454036E+01  0.91353557032E+01  0.00000000000E+00 0. -1.
         -4    1    5    5    0  503 -0.26215096888E+03 -0.53465547421E+03  0.18932372285E+03  0.62483844201E+03  0.00000000000E+00 0.  1.
         -3    1    6    6    0  502 -0.75335163708E+03  0.46140672149E+02  0.40465911853E+02  0.75584729988E+03  0.00000000000E+00 0.  1.
<mgrwt>
<rscale>  0 0.31981192E+04</rscale>
<asrwt>0</asrwt>
<pdfrwt beam="1">  1        2 0.26854808E+00 0.31981192E+04</pdfrwt>
<pdfrwt beam="2">  1       -2 0.22536192E+00 0.31981192E+04</pdfrwt>
<totfact> 0.71234622E-01</totfact>
</mgrwt>
</event>
<event>
12    1  0.1097093E-007  0.1735289E+04  0.7818608E-02  0.8741490E-01
          2   -1    0    0  501    0  0.00000000000E+00  0.00000000000E+00  0.13751071790E+04  0.13751071790E+04  0.00000000000E+00 0.  1.
         -2   -1    0    0    0  501 -0.00000000000E+00 -0.00000000000E+00 -0.54745306085E+03  0.54745306085E+03  0.00000000000E+00 0. -1.
         23    2    1    2    0    0  0.32883076652E+03 -0.38145509882E+03  0.70675825108E+03  0.87269387244E+03  0.91922272045E+02 0.  0.
        254    2    1    2    0    0 -0.32883076652E+03  0.38145509882E+03  0.12089586709E+03  0.10498663674E+04  0.91321734180E+03 0.  0.
        -24    2    4    4    0    0 -0.18066966554E+03  0.64149345830E+03  0.24722195395E+03  0.71545371483E+03  0.81240005311E+02 0.  0.
         24    2    4    4    0    0 -0.14816110098E+03 -0.26003835948E+03 -0.12632608686E+03  0.33441265261E+03  0.79384392401E+02 0.  0.
         13    1    3    3    0    0  0.30298775108E+03 -0.36927795023E+03  0.69111341042E+03  0.84012232912E+03  0.00000000000E+00 0.  1.
        -13    1    3    3    0    0  0.25843015441E+02 -0.12177148591E+02  0.15644840668E+02  0.32571543323E+02  0.00000000000E+00 0. -1.
          4    1    6    6  502    0 -0.10832779566E+03 -0.18659877316E+03 -0.12795207359E+03  0.25085004802E+03  0.00000000000E+00 0. -1.
          3    1    5    5  503    0 -0.34131840814E+02  0.11652026465E+03  0.79742258994E+02  0.14526108392E+03  0.00000000000E+00 0. -1.
         -4    1    5    5    0  503 -0.14653782472E+03  0.52497319364E+03  0.16747969496E+03  0.57019263091E+03  0.00000000000E+00 0.  1.
         -3    1    6    6    0  502 -0.39833305321E+02 -0.73439586319E+02  0.16259867311E+01  0.83562604581E+02  0.00000000000E+00 0.  1.
<mgrwt>
<rscale>  0 0.17352886E+04</rscale>
<asrwt>0</asrwt>
<pdfrwt beam="1">  1        2 0.21155495E+00 0.17352886E+04</pdfrwt>
<pdfrwt beam="2">  1       -2 0.84223548E-01 0.17352886E+04</pdfrwt>
<totfact> 0.17461006E+01</totfact>
</mgrwt>
</event>
<event>
12    1  0.1097093E-007  0.1707950E+04  0.7818608E-02  0.8756843E-01
         -2   -1    0    0    0  501 -0.00000000000E+00  0.00000000000E+00  0.57645213108E+03  0.57645213108E+03  0.00000000000E+00 0.  1.
          2   -1    0    0  501    0  0.00000000000E+00 -0.00000000000E+00 -0.12651071581E+04  0.12651071581E+04  0.00000000000E+00 0. -1.
         23    2    1    2    0    0  0.31754608458E+03 -0.21618673489E+03  0.26064113327E+03  0.47734602896E+03  0.11114499913E+03 0.  0.
        254    2    1    2    0    0 -0.31754608458E+03  0.21618673489E+03 -0.94929616033E+03  0.13642132603E+04  0.90130039347E+03 0.  0.
        -24    2    4    4    0    0 -0.17968157102E+03  0.56354569963E+03 -0.59174799244E+03  0.84094707562E+03  0.84599497061E+02 0.  0.
         24    2    4    4    0    0 -0.13786451356E+03 -0.34735896474E+03 -0.35754816788E+03  0.52326618463E+03  0.79384716047E+02 0.  0.
         11    1    3    3    0    0  0.28409056063E+03 -0.16422899178E+03  0.25445119545E+03  0.41523971300E+03  0.00000000000E+00 0.  1.
        -11    1    3    3    0    0  0.33455523954E+02 -0.51957743109E+02  0.61899378140E+01  0.62106315961E+02  0.00000000000E+00 0. -1.
          2    1    6    6  502    0 -0.14677341629E+02 -0.13406293393E+03 -0.14370664564E+03  0.19707839712E+03  0.00000000000E+00 0. -1.
          3    1    5    5  503    0  0.31082642329E+01  0.60702110870E+02 -0.42429982484E+02  0.74126317757E+02  0.00000000000E+00 0. -1.
         -4    1    5    5    0  503 -0.18278983526E+03  0.50284358876E+03 -0.54931800996E+03  0.76682075787E+03  0.00000000000E+00 0.  1.
         -1    1    6    6    0  502 -0.12318717193E+03 -0.21329603081E+03 -0.21384152225E+03  0.32618778751E+03  0.00000000000E+00 0.  1.
<mgrwt>
<rscale>  0 0.17079505E+04</rscale>
<asrwt>0</asrwt>
<pdfrwt beam="1">  1        2 0.19463187E+00 0.17079505E+04</pdfrwt>
<pdfrwt beam="2">  1       -2 0.88684945E-01 0.17079505E+04</pdfrwt>
<totfact> 0.18018503E+01</totfact>
</mgrwt>
</event>
<event>
12    1  0.1097093E-007  0.1461286E+04  0.7818608E-02  0.8910613E-01
          2   -1    0    0  501    0  0.00000000000E+00  0.00000000000E+00  0.94372257861E+03  0.94372257861E+03  0.00000000000E+00 0. -1.
         -2   -1    0    0    0  501 -0.00000000000E+00 -0.00000000000E+00 -0.56567414578E+03  0.56567414578E+03  0.00000000000E+00 0.  1.
         23    2    1    2    0    0  0.21386330339E+03 -0.10535188741E+02  0.51435032509E+03  0.56386471353E+03  0.86825431182E+02 0.  0.
        254    2    1    2    0    0 -0.21386330339E+03  0.10535188741E+02 -0.13630189226E+03  0.94553201086E+03  0.91082603992E+03 0.  0.
        -24    2    4    4    0    0 -0.38790452661E+01 -0.35739106301E+03 -0.31064861534E+03  0.48029412806E+03  0.80227603242E+02 0.  0.
         24    2    4    4    0    0 -0.20998425813E+03  0.36792625175E+03  0.17434672308E+03  0.46523788280E+03  0.81156591589E+02 0.  0.
         13    1    3    3    0    0  0.17168852877E+03 -0.41956682657E+02  0.36534372245E+03  0.40584892468E+03  0.00000000000E+00 0. -1.
        -13    1    3    3    0    0  0.42174774628E+02  0.31421493916E+02  0.14900660264E+03  0.15801578885E+03  0.00000000000E+00 0.  1.
          2    1    6    6  502    0 -0.17819243316E+03  0.32117835753E+03  0.11893053870E+03  0.38607324903E+03  0.00000000000E+00 0. -1.
          3    1    5    5  503    0  0.18520372771E+02 -0.85529947574E+02 -0.40676543243E+02  0.96503664748E+02  0.00000000000E+00 0. -1.
         -4    1    5    5    0  503 -0.22399418037E+02 -0.27186111543E+03 -0.26997207210E+03  0.38379046331E+03  0.00000000000E+00 0.  1.
         -1    1    6    6    0  502 -0.31791824973E+02  0.46747894216E+02  0.55416184387E+02  0.79164633775E+02  0.00000000000E+00 0.  1.
<mgrwt>
<rscale>  0 0.14612864E+04</rscale>
<asrwt>0</asrwt>
<pdfrwt beam="1">  1        2 0.14518809E+00 0.14612864E+04</pdfrwt>
<pdfrwt beam="2">  1       -2 0.87026792E-01 0.14612864E+04</pdfrwt>
<totfact> 0.30332557E+01</totfact>
</mgrwt>
</event>
<event>
12    1  0.1097093E-007  0.2495222E+04  0.7818608E-02  0.8404690E-01
         -2   -1    0    0    0  501 -0.00000000000E+00  0.00000000000E+00  0.12690175622E+04  0.12690175622E+04  0.00000000000E+00 0.  1.
          2   -1    0    0  501    0  0.00000000000E+00 -0.00000000000E+00 -0.12265655983E+04  0.12265655983E+04  0.00000000000E+00 0. -1.
         23    2    1    2    0    0 -0.31701938235E+03  0.87039786808E+03 -0.54444360269E+03  0.10784551920E+04  0.92482576772E+02 0.  0.
        254    2    1    2    0    0  0.31701938235E+03 -0.87039786808E+03  0.58689556666E+03  0.14171279685E+04  0.89761435788E+03 0.  0.
        -24    2    4    4    0    0  0.51606781621E+03 -0.51012124958E+03  0.66918244346E+03  0.99025379344E+03  0.79042726310E+02 0.  0.
         24    2    4    4    0    0 -0.19904843386E+03 -0.36027661849E+03 -0.82286876797E+02  0.42687417509E+03  0.77658936423E+02 0.  0.
         11    1    3    3    0    0 -0.29114056551E+03  0.69401602837E+03 -0.44493232768E+03  0.87429162911E+03  0.00000000000E+00 0. -1.
        -11    1    3    3    0    0 -0.25878816848E+02  0.17638183971E+03 -0.99511275017E+02  0.20416356285E+03  0.00000000000E+00 0.  1.
          4    1    6    6  502    0 -0.12381453355E+02 -0.39371030804E+02  0.13579147186E+02  0.43448494705E+02  0.00000000000E+00 0. -1.
          3    1    5    5  503    0  0.17330943377E+03 -0.16559790559E+03  0.17218653233E+03  0.29513899791E+03  0.00000000000E+00 0. -1.
         -4    1    5    5    0  503  0.34275838244E+03 -0.34452334399E+03  0.49699591112E+03  0.69511479553E+03  0.00000000000E+00 0.  1.
         -3    1    6    6    0  502 -0.18666698051E+03 -0.32090558769E+03 -0.95866023984E+02  0.38342568038E+03  0.00000000000E+00 0.  1.
<mgrwt>
<rscale>  0 0.24952221E+04</rscale>
<asrwt>0</asrwt>
<pdfrwt beam="1">  1        2 0.18870240E+00 0.24952221E+04</pdfrwt>
<pdfrwt beam="2">  1       -2 0.19523347E+00 0.24952221E+04</pdfrwt>
<totfact> 0.23301553E+00</totfact>
</mgrwt>
</event>
<event>
12    1  0.1097093E-007  0.2151763E+04  0.7818608E-02  0.8538778E-01
          1   -1    0    0  501    0  0.00000000000E+00  0.00000000000E+00  0.12440250264E+04  0.12440250264E+04  0.00000000000E+00 0. -1.
         -1   -1    0    0    0  501 -0.00000000000E+00 -0.00000000000E+00 -0.93046453112E+03  0.93046453112E+03  0.00000000000E+00 0.  1.
         23    2    1    2    0    0  0.23172249831E+03 -0.85532203620E+03  0.12217032573E+03  0.89926489236E+03  0.92090479005E+02 0.  0.
        254    2    1    2    0    0 -0.23172249831E+03  0.85532203620E+03  0.19139016954E+03  0.12752246651E+04  0.89682587372E+03 0.  0.
        -24    2    4    4    0    0 -0.51242173209E+03  0.62621333825E+03 -0.78470996407E+02  0.81691673148E+03  0.80474047850E+02 0.  0.
         24    2    4    4    0    0  0.28069923378E+03  0.22910869795E+03  0.26986116595E+03  0.45830793366E+03  0.77060092456E+02 0.  0.
         13    1    3    3    0    0 -0.41667481439E+01 -0.15205151664E+02  0.11830800395E+02  0.19711069611E+02  0.00000000000E+00 0.  1.
        -13    1    3    3    0    0  0.23588924645E+03 -0.84011688453E+03  0.11033952534E+03  0.87955382275E+03  0.00000000000E+00 0. -1.
          2    1    6    6  502    0  0.14729242145E+03  0.16872535169E+03  0.16051883824E+03  0.27555326010E+03  0.00000000000E+00 0. -1.
          1    1    5    5  503    0 -0.68383753829E+01  0.18277601713E+02  0.88224033684E+01  0.21416556760E+02  0.00000000000E+00 0. -1.
         -2    1    5    5    0  503 -0.50558335671E+03  0.60793573653E+03 -0.87293399776E+02  0.79550017472E+03  0.00000000000E+00 0.  1.
         -1    1    6    6    0  502  0.13340681233E+03  0.60383346261E+02  0.10934232770E+03  0.18275467357E+03  0.00000000000E+00 0.  1.
<mgrwt>
<rscale>  0 0.21517631E+04</rscale>
<asrwt>0</asrwt>
<pdfrwt beam="1">  1        1 0.19138846E+00 0.21517631E+04</pdfrwt>
<pdfrwt beam="2">  1       -1 0.14314839E+00 0.21517631E+04</pdfrwt>
<totfact> 0.35926775E+00</totfact>
</mgrwt>
</event>
<event>
12    1  0.1097093E-007  0.1689367E+04  0.7818608E-02  0.8767452E-01
          2   -1    0    0  501    0  0.00000000000E+00  0.00000000000E+00  0.35042083324E+04  0.35042083324E+04  0.00000000000E+00 0. -1.
         -2   -1    0    0    0  501 -0.00000000000E+00 -0.00000000000E+00 -0.20360955893E+03  0.20360955893E+03  0.00000000000E+00 0.  1.
         23    2    1    2    0    0 -0.19010028488E+03  0.12987354882E+03  0.24168775269E+04  0.24295780982E+04  0.92452679812E+02 0.  0.
        254    2    1    2    0    0  0.19010028488E+03 -0.12987354882E+03  0.88372124651E+03  0.12782397931E+04  0.89438720372E+03 0.  0.
        -24    2    4    4    0    0  0.27329820882E+03  0.33569480808E+03  0.36747732392E+03  0.57355118453E+03  0.80860760299E+02 0.  0.
         24    2    4    4    0    0 -0.83197923941E+02 -0.46556835690E+03  0.51624392259E+03  0.70468860859E+03  0.80015360869E+02 0.  0.
         13    1    3    3    0    0 -0.14761834138E+03  0.62310546036E+02  0.18779541977E+04  0.18847773735E+04  0.00000000000E+00 0. -1.
        -13    1    3    3    0    0 -0.42481943503E+02  0.67563002784E+02  0.53892332921E+03  0.54480072471E+03  0.00000000000E+00 0.  1.
          2    1    6    6  502    0 -0.54471153607E+02 -0.34275330447E+03  0.42663611861E+03  0.54996846455E+03  0.00000000000E+00 0. -1.
          3    1    5    5  503    0  0.20108933880E+03  0.29630979734E+03  0.29714856554E+03  0.46533180439E+03  0.00000000000E+00 0. -1.
         -4    1    5    5    0  503  0.72208870016E+02  0.39385010745E+02  0.70328758382E+02  0.10821938013E+03  0.00000000000E+00 0.  1.
         -1    1    6    6    0  502 -0.28726770333E+02 -0.12281505244E+03  0.89607803977E+02  0.15472014404E+03  0.00000000000E+00 0.  1.
<mgrwt>
<rscale>  0 0.16893671E+04</rscale>
<asrwt>0</asrwt>
<pdfrwt beam="1">  1        2 0.53910893E+00 0.16893671E+04</pdfrwt>
<pdfrwt beam="2">  1       -2 0.31324550E-01 0.16893671E+04</pdfrwt>
<totfact> 0.73466375E+00</totfact>
</mgrwt>
</event>
<event>
12    1  0.1097093E-007  0.2083320E+04  0.7818608E-02  0.8568627E-01
         -2   -1    0    0    0  501 -0.00000000000E+00  0.00000000000E+00  0.34973447876E+03  0.34973447876E+03  0.00000000000E+00 0.  1.
          2   -1    0    0  501    0  0.00000000000E+00 -0.00000000000E+00 -0.31025136355E+04  0.31025136355E+04  0.00000000000E+00 0. -1.
         23    2    1    2    0    0  0.65704462137E+03  0.42696427888E+03 -0.16568756907E+04  0.18353443555E+04  0.96154660713E+02 0.  0.
        254    2    1    2    0    0 -0.65704462137E+03 -0.42696427888E+03 -0.10959034660E+04  0.16169037588E+04  0.89407339097E+03 0.  0.
        -24    2    4    4    0    0 -0.41890050680E+03  0.19963682037E+03 -0.67016919993E+03  0.81899034034E+03  0.79283834322E+02 0.  0.
         24    2    4    4    0    0 -0.23814411456E+03 -0.62660109926E+03 -0.42573426611E+03  0.79791341846E+03  0.77939727546E+02 0.  0.
         11    1    3    3    0    0  0.64400192810E+03  0.40060631559E+03 -0.16144298936E+04  0.17837061935E+04  0.00000000000E+00 0. -1.
        -11    1    3    3    0    0  0.13042693263E+02  0.26357963290E+02 -0.42445797159E+02  0.51638161981E+02  0.00000000000E+00 0.  1.
          4    1    6    6  502    0 -0.19943302954E+03 -0.46425318002E+03 -0.28850913921E+03  0.58184368333E+03  0.00000000000E+00 0. -1.
          3    1    5    5  503    0 -0.37721532880E+03  0.18253166529E+03 -0.63918161850E+03  0.76430514492E+03  0.00000000000E+00 0. -1.
         -4    1    5    5    0  503 -0.41685178001E+02  0.17105155087E+02 -0.30987581426E+02  0.54685195420E+02  0.00000000000E+00 0.  1.
         -3    1    6    6    0  502 -0.38711085020E+02 -0.16234791924E+03 -0.13722512691E+03  0.21606973513E+03  0.00000000000E+00 0.  1.
<mgrwt>
<rscale>  0 0.20833204E+04</rscale>
<asrwt>0</asrwt>
<pdfrwt beam="1">  1        2 0.47730980E+00 0.20833204E+04</pdfrwt>
<pdfrwt beam="2">  1       -2 0.53805304E-01 0.20833204E+04</pdfrwt>
<totfact> 0.45127813E+00</totfact>
</mgrwt>
</event>
<event>
12    1  0.1097093E-007  0.2937739E+04  0.7818608E-02  0.8261737E-01
         -2   -1    0    0    0  501 -0.00000000000E+00  0.00000000000E+00  0.11810082655E+04  0.11810082655E+04  0.00000000000E+00 0.  1.
          2   -1    0    0  501    0  0.00000000000E+00 -0.00000000000E+00 -0.18268951556E+04  0.18268951556E+04  0.00000000000E+00 0. -1.
         23    2    1    2    0    0 -0.60791397141E+03  0.94117676389E+03  0.42945273106E+03  0.12033552798E+04  0.90891053330E+02 0.  0.
        254    2    1    2    0    0  0.60791397141E+03 -0.94117676389E+03 -0.10753396212E+04  0.18045481414E+04  0.91905690596E+03 0.  0.
        -24    2    4    4    0    0  0.84107120384E+03 -0.67343905078E+03 -0.73870406820E+03  0.13088547646E+04  0.80598817874E+02 0.  0.
         24    2    4    4    0    0 -0.23315723243E+03 -0.26773771311E+03 -0.33663555295E+03  0.49569337681E+03  0.79640757425E+02 0.  0.
         11    1    3    3    0    0 -0.54473783234E+03  0.87472622194E+03  0.37426862974E+03  0.10963404018E+04  0.00000000000E+00 0.  1.
        -11    1    3    3    0    0 -0.63176139071E+02  0.66450541956E+02  0.55184101313E+02  0.10701487799E+03  0.00000000000E+00 0. -1.
          2    1    6    6  502    0 -0.55423411444E+02 -0.85128171267E+02 -0.14412619851E+03  0.17632617836E+03  0.00000000000E+00 0. -1.
          3    1    5    5  503    0  0.56433306791E+03 -0.44257056492E+03 -0.44575347851E+03  0.84441499280E+03  0.00000000000E+00 0. -1.
         -4    1    5    5    0  503  0.27673813594E+03 -0.23086848586E+03 -0.29295058970E+03  0.46443977182E+03  0.00000000000E+00 0.  1.
         -1    1    6    6    0  502 -0.17773382099E+03 -0.18260954184E+03 -0.19250935445E+03  0.31936719845E+03  0.00000000000E+00 0.  1.
<mgrwt>
<rscale>  0 0.29377395E+04</rscale>
<asrwt>0</asrwt>
<pdfrwt beam="1">  1        2 0.28106079E+00 0.29377395E+04</pdfrwt>
<pdfrwt beam="2">  1       -2 0.18169358E+00 0.29377395E+04</pdfrwt>
<totfact> 0.12663588E+00</totfact>
</mgrwt>
</event>
<event>
12    1  0.1097093E-007  0.1254902E+04  0.7818608E-02  0.9066113E-01
          1   -1    0    0  501    0  0.00000000000E+00  0.00000000000E+00  0.83808912535E+03  0.83808912535E+03  0.00000000000E+00 0. -1.
         -1   -1    0    0    0  501 -0.00000000000E+00 -0.00000000000E+00 -0.46975319197E+03  0.46975319197E+03  0.00000000000E+00 0.  1.
         23    2    1    2    0    0 -0.28354538034E+03 -0.44163312882E+02  0.96365662196E+02  0.31586987378E+03  0.90216713514E+02 0.  0.
        254    2    1    2    0    0  0.28354538034E+03  0.44163312882E+02  0.27197027118E+03  0.99197244354E+03  0.90977641178E+03 0.  0.
        -24    2    4    4    0    0 -0.15716912153E+03 -0.12836493708E+03 -0.21642100825E+03  0.30710633142E+03  0.79350842172E+02 0.  0.
         24    2    4    4    0    0  0.44071450186E+03  0.17252824996E+03  0.48839127943E+03  0.68486611213E+03  0.80748254029E+02 0.  0.
         11    1    3    3    0    0 -0.22524744814E+03 -0.35567493724E+02  0.34854146499E+02  0.23068652113E+03  0.00000000000E+00 0. -1.
        -11    1    3    3    0    0 -0.58297932196E+02 -0.85958191573E+01  0.61511515697E+02  0.85183352650E+02  0.00000000000E+00 0.  1.
          4    1    6    6  502    0  0.22943651857E+03  0.77113837189E+02  0.30437851969E+03  0.38888808569E+03  0.00000000000E+00 0. -1.
          3    1    5    5  503    0 -0.33997470292E+02  0.18017109623E+00 -0.65148517242E+02  0.73485983335E+02  0.00000000000E+00 0. -1.
         -4    1    5    5    0  503 -0.12317165123E+03 -0.12854510817E+03 -0.15127249101E+03  0.23362034808E+03  0.00000000000E+00 0.  1.
         -3    1    6    6    0  502  0.21127798329E+03  0.95414412770E+02  0.18401275974E+03  0.29597802644E+03  0.00000000000E+00 0.  1.
<mgrwt>
<rscale>  0 0.12549025E+04</rscale>
<asrwt>0</asrwt>
<pdfrwt beam="1">  1        1 0.12893679E+00 0.12549025E+04</pdfrwt>
<pdfrwt beam="2">  1       -1 0.72269722E-01 0.12549025E+04</pdfrwt>
<totfact> 0.39046382E+01</totfact>
</mgrwt>
</event>
<event>
12    1  0.1097093E-007  0.1419377E+04  0.7818608E-02  0.8939911E-01
          1   -1    0    0  501    0  0.00000000000E+00  0.00000000000E+00  0.20537709229E+04  0.20537709229E+04  0.00000000000E+00 0. -1.
         -1   -1    0    0    0  501 -0.00000000000E+00 -0.00000000000E+00 -0.24523564170E+03  0.24523564170E+03  0.00000000000E+00 0.  1.
         23    2    1    2    0    0 -0.11420874447E+03 -0.20535263621E+03  0.11148162227E+04  0.11428235218E+04  0.89537975931E+02 0.  0.
        254    2    1    2    0    0  0.11420874447E+03  0.20535263621E+03  0.69371905857E+03  0.11561830428E+04  0.89459474278E+03 0.  0.
        -24    2    4    4    0    0 -0.28218790716E+03 -0.12533967984E+03  0.43951707094E+02  0.32248906202E+03  0.82020682007E+02 0.  0.
         24    2    4    4    0    0  0.39639665164E+03  0.33069231605E+03  0.64976735147E+03  0.83369398081E+03  0.79751672567E+02 0.  0.
         11    1    3    3    0    0 -0.98684686382E+02 -0.20049373717E+03  0.89757763917E+03  0.92497676960E+03  0.00000000000E+00 0. -1.
        -11    1    3    3    0    0 -0.15524058092E+02 -0.48588990333E+01  0.21723858349E+03  0.21784675219E+03  0.00000000000E+00 0.  1.
          2    1    6    6  502    0  0.48081655699E+02  0.51014430505E+02  0.13511022684E+03  0.15221396497E+03  0.00000000000E+00 0. -1.
          1    1    5    5  503    0 -0.80211488696E+02 -0.77525391975E+02  0.22760132710E+02  0.11385118779E+03  0.00000000000E+00 0. -1.
         -2    1    5    5    0  503 -0.20197641847E+03 -0.47814287866E+02  0.21191574384E+02  0.20863787424E+03  0.00000000000E+00 0.  1.
         -1    1    6    6    0  502  0.34831499594E+03  0.27967788554E+03  0.51465712463E+03  0.68148001584E+03  0.00000000000E+00 0.  1.
<mgrwt>
<rscale>  0 0.14193771E+04</rscale>
<asrwt>0</asrwt>
<pdfrwt beam="1">  1        1 0.31596475E+00 0.14193771E+04</pdfrwt>
<pdfrwt beam="2">  1       -1 0.37728562E-01 0.14193771E+04</pdfrwt>
<totfact> 0.18093550E+01</totfact>
</mgrwt>
</event>
<event>
12    1  0.1097093E-007  0.2317286E+04  0.7818608E-02  0.8471137E-01
          2   -1    0    0  501    0  0.00000000000E+00  0.00000000000E+00  0.20352999219E+04  0.20352999219E+04  0.00000000000E+00 0. -1.
         -2   -1    0    0    0  501 -0.00000000000E+00 -0.00000000000E+00 -0.65958510769E+03  0.65958510769E+03  0.00000000000E+00 0.  1.
         23    2    1    2    0    0  0.37458508732E+03 -0.90167943212E+03  0.42826668886E+03  0.10700343674E+04  0.90671961583E+02 0.  0.
        254    2    1    2    0    0 -0.37458508732E+03  0.90167943212E+03  0.94744812539E+03  0.16248506623E+04  0.88833661323E+03 0.  0.
        -24    2    4    4    0    0 -0.57075828971E+03  0.30880293537E+03  0.29114666452E+03  0.71544271875E+03  0.77250406991E+02 0.  0.
         24    2    4    4    0    0  0.19617320239E+03  0.59287649675E+03  0.65630146087E+03  0.90940794351E+03  0.79402358036E+02 0.  0.
         11    1    3    3    0    0  0.37540978868E+03 -0.88323194463E+03  0.42970600174E+03  0.10515124466E+04  0.00000000000E+00 0.  1.
        -11    1    3    3    0    0 -0.82470136117E+00 -0.18447487496E+02 -0.14393128747E+01  0.18521920764E+02  0.00000000000E+00 0. -1.
          2    1    6    6  502    0  0.16485229170E+03  0.55599442626E+03  0.61979462676E+03  0.84879412078E+03  0.00000000000E+00 0. -1.
          3    1    5    5  503    0 -0.55670091862E+03  0.29630750545E+03  0.26700640587E+03  0.68484047147E+03  0.00000000000E+00 0. -1.
         -4    1    5    5    0  503 -0.14057371086E+02  0.12495429920E+02  0.24140258657E+02  0.30602247283E+02  0.00000000000E+00 0.  1.
         -1    1    6    6    0  502  0.31320910693E+02  0.36882070488E+02  0.36506834104E+02  0.60613822734E+02  0.00000000000E+00 0.  1.
<mgrwt>
<rscale>  0 0.23172859E+04</rscale>
<asrwt>0</asrwt>
<pdfrwt beam="1">  1        2 0.31312306E+00 0.23172859E+04</pdfrwt>
<pdfrwt beam="2">  1       -2 0.10147463E+00 0.23172859E+04</pdfrwt>
<totfact> 0.46112574E+00</totfact>
</mgrwt>
</event>
<event>
12    1  0.1097093E-007  0.1590270E+04  0.7818608E-02  0.8826548E-01
         -2   -1    0    0    0  501 -0.00000000000E+00  0.00000000000E+00  0.94840953339E+03  0.94840953339E+03  0.00000000000E+00 0. -1.
          2   -1    0    0  501    0  0.00000000000E+00 -0.00000000000E+00 -0.66663126301E+03  0.66663126301E+03  0.00000000000E+00 0.  1.
         23    2    1    2    0    0  0.29737454093E+03 -0.10253486078E+03 -0.34270319222E+03  0.47453217973E+03  0.93756580439E+02 0.  0.
        254    2    1    2    0    0 -0.29737454093E+03  0.10253486078E+03  0.62448146261E+03  0.11405086167E+04  0.90102041725E+03 0.  0.
        -24    2    4    4    0    0  0.21082947672E+01  0.43592969065E+03  0.11655871420E+03  0.45856556680E+03  0.81592310295E+02 0.  0.
         24    2    4    4    0    0 -0.29948283569E+03 -0.33339482987E+03  0.50792274841E+03  0.68194304988E+03  0.78858883244E+02 0.  0.
         11    1    3    3    0    0  0.22745878822E+03 -0.66583946035E+02 -0.19381335130E+03  0.30616096640E+03  0.00000000000E+00 0.  1.
        -11    1    3    3    0    0  0.69915752710E+02 -0.35950914740E+02 -0.14888984092E+03  0.16837121333E+03  0.00000000000E+00 0. -1.
          4    1    6    6  502    0 -0.16334385193E+03 -0.17803416061E+03  0.21443380506E+03  0.32304679701E+03  0.00000000000E+00 0. -1.
          1    1    5    5  503    0  0.10038774328E+02  0.40449254642E+03  0.12768780547E+03  0.42428666343E+03  0.00000000000E+00 0. -1.
         -2    1    5    5    0  503 -0.79304795611E+01  0.31437144233E+02 -0.11129091273E+02  0.34278903369E+02  0.00000000000E+00 0.  1.
         -3    1    6    6    0  502 -0.13613898377E+03 -0.15536066926E+03  0.29348894335E+03  0.35889625286E+03  0.00000000000E+00 0.  1.
<mgrwt>
<rscale>  0 0.15902697E+04</rscale>
<asrwt>0</asrwt>
<pdfrwt beam="1">  1        2 0.10255866E+00 0.15902697E+04</pdfrwt>
<pdfrwt beam="2">  1       -2 0.14590916E+00 0.15902697E+04</pdfrwt>
<totfact> 0.13470035E+01</totfact>
</mgrwt>
</event>
<event>
12    1  0.1097093E-007  0.1528084E+04  0.7818608E-02  0.8865990E-01
         -2   -1    0    0    0  501 -0.00000000000E+00  0.00000000000E+00  0.68672151417E+03  0.68672151417E+03  0.00000000000E+00 0.  1.
          2   -1    0    0  501    0  0.00000000000E+00 -0.00000000000E+00 -0.85006774272E+03  0.85006774272E+03  0.00000000000E+00 0. -1.
         23    2    1    2    0    0  0.41645363115E+03  0.20809429929E+03 -0.14125612374E+03  0.49488642981E+03  0.90677569558E+02 0.  0.
        254    2    1    2    0    0 -0.41645363115E+03 -0.20809429929E+03 -0.22090104808E+02  0.10419028271E+04  0.93184583706E+03 0.  0.
        -24    2    4    4    0    0 -0.53796693063E+03 -0.39845108869E+03 -0.24126388315E+03  0.71611474155E+03  0.80251935928E+02 0.  0.
         24    2    4    4    0    0  0.12151329948E+03  0.19035678940E+03  0.21917377835E+03  0.32578808553E+03  0.84258781958E+02 0.  0.
         13    1    3    3    0    0  0.11624920700E+01  0.15694627431E+02 -0.10362334652E+02  0.18842789004E+02  0.00000000000E+00 0.  1.
        -13    1    3    3    0    0  0.41529113908E+03  0.19239967185E+03 -0.13089378909E+03  0.47604364081E+03  0.00000000000E+00 0. -1.
          2    1    6    6  502    0  0.48355002288E+02  0.12511682503E+03  0.82081424961E+02  0.15725707130E+03  0.00000000000E+00 0. -1.
          1    1    5    5  503    0 -0.39176063708E+03 -0.32996273289E+03 -0.17049961512E+03  0.53983508650E+03  0.00000000000E+00 0. -1.
         -2    1    5    5    0  503 -0.14620629355E+03 -0.68488355802E+02 -0.70764268029E+02  0.17627965505E+03  0.00000000000E+00 0.  1.
         -1    1    6    6    0  502  0.73158297191E+02  0.65239964374E+02  0.13709235338E+03  0.16853101423E+03  0.00000000000E+00 0.  1.
<mgrwt>
<rscale>  0 0.15280835E+04</rscale>
<asrwt>0</asrwt>
<pdfrwt beam="1">  1        2 0.13077965E+00 0.15280835E+04</pdfrwt>
<pdfrwt beam="2">  1       -2 0.10564946E+00 0.15280835E+04</pdfrwt>
<totfact> 0.22164479E+01</totfact>
</mgrwt>
</event>
<event>
12    1  0.1097093E-007  0.1612834E+04  0.7818608E-02  0.8812702E-01
          2   -1    0    0  501    0  0.00000000000E+00  0.00000000000E+00  0.58357577371E+03  0.58357577371E+03  0.00000000000E+00 0. -1.
         -2   -1    0    0    0  501 -0.00000000000E+00 -0.00000000000E+00 -0.11143515247E+04  0.11143515247E+04  0.00000000000E+00 0.  1.
         23    2    1    2    0    0 -0.28465648574E+03 -0.19504314918E+03  0.26999372456E+03  0.44731259002E+03  0.90115464681E+02 0.  0.
        254    2    1    2    0    0  0.28465648574E+03  0.19504314918E+03 -0.80076947551E+03  0.12506147083E+04  0.89651227035E+03 0.  0.
        -24    2    4    4    0    0  0.39932927836E+03  0.30784706255E+03 -0.91803374630E+02  0.51923674493E+03  0.83338173808E+02 0.  0.
         24    2    4    4    0    0 -0.11467279261E+03 -0.11280391338E+03 -0.70896610088E+03  0.73137796342E+03  0.80038871388E+02 0.  0.
         13    1    3    3    0    0 -0.26227850345E+03 -0.18566213422E+03  0.27451127009E+03  0.42263090145E+03  0.00000000000E+00 0. -1.
        -13    1    3    3    0    0 -0.22377982294E+02 -0.93810149553E+01 -0.45175455294E+01  0.24681688572E+02  0.00000000000E+00 0.  1.
          4    1    6    6  502    0 -0.20877258402E+02 -0.29934358414E+02 -0.58280383865E+02  0.68764299426E+02  0.00000000000E+00 0. -1.
          3    1    5    5  503    0 -0.12287506424E+01  0.10932845517E+02  0.36258876729E+01  0.11583781795E+02  0.00000000000E+00 0. -1.
         -4    1    5    5    0  503  0.40055802900E+03  0.29691421703E+03 -0.95429262302E+02  0.50765296313E+03  0.00000000000E+00 0.  1.
         -1    1    6    6    0  502 -0.93795534210E+02 -0.82869554961E+02 -0.65068571702E+03  0.66261366399E+03  0.00000000000E+00 0.  1.
<mgrwt>
<rscale>  0 0.16128342E+04</rscale>
<asrwt>0</asrwt>
<pdfrwt beam="1">  1        2 0.89780889E-01 0.16128342E+04</pdfrwt>
<pdfrwt beam="2">  1       -2 0.17143869E+00 0.16128342E+04</pdfrwt>
<totfact> 0.10218800E+01</totfact>
</mgrwt>
</event>
<event>
12    1  0.1097093E-007  0.3332891E+04  0.7818608E-02  0.8154576E-01
         -2   -1    0    0    0  501 -0.00000000000E+00  0.00000000000E+00  0.87127312178E+03  0.87127312178E+03  0.00000000000E+00 0.  1.
          2   -1    0    0  501    0  0.00000000000E+00 -0.00000000000E+00 -0.31873367348E+04  0.31873367348E+04  0.00000000000E+00 0. -1.
         23    2    1    2    0    0 -0.70080042435E+03 -0.13277446324E+04 -0.63258869671E+03  0.16317960225E+04  0.92535160748E+02 0.  0.
        254    2    1    2    0    0  0.70080042435E+03  0.13277446324E+04 -0.16834749163E+04  0.24268138341E+04  0.89515950972E+03 0.  0.
        -24    2    4    4    0    0 -0.18301972231E+03  0.15492225612E+03 -0.11985172386E+03  0.28014952143E+03  0.81376866806E+02 0.  0.
         24    2    4    4    0    0  0.88382014666E+03  0.11728223763E+04 -0.15636231924E+04  0.21466643126E+04  0.81239185865E+02 0.  0.
         13    1    3    3    0    0 -0.13268548855E+03 -0.31475946450E+03 -0.17123230172E+03  0.38209875754E+03  0.00000000000E+00 0.  1.
        -13    1    3    3    0    0 -0.56811493580E+03 -0.10129851679E+04 -0.46135639500E+03  0.12496972649E+04  0.00000000000E+00 0. -1.
          4    1    6    6  502    0  0.21341206135E+03  0.28116576845E+03 -0.32641053115E+03  0.48077305677E+03  0.00000000000E+00 0. -1.
          1    1    5    5  503    0 -0.75813103220E+02  0.16982888338E+02 -0.26608691105E+02  0.82122272000E+02  0.00000000000E+00 0. -1.
         -2    1    5    5    0  503 -0.10720661909E+03  0.13793936778E+03 -0.93243032751E+02  0.19802724943E+03  0.00000000000E+00 0.  1.
         -3    1    6    6    0  502  0.67040808532E+03  0.89165660787E+03 -0.12372126613E+04  0.16658912559E+04  0.00000000000E+00 0.  1.
<mgrwt>
<rscale>  0 0.33328911E+04</rscale>
<asrwt>0</asrwt>
<pdfrwt beam="1">  1        2 0.49035950E+00 0.33328911E+04</pdfrwt>
<pdfrwt beam="2">  1       -2 0.13404202E+00 0.33328911E+04</pdfrwt>
<totfact> 0.44186403E-01</totfact>
</mgrwt>
</event>
<event>
12    1  0.1097093E-007  0.1785874E+04  0.7818608E-02  0.8713848E-01
          1   -1    0    0  501    0  0.00000000000E+00  0.00000000000E+00  0.95295047416E+03  0.95295047416E+03  0.00000000000E+00 0.  1.
         -1   -1    0    0    0  501 -0.00000000000E+00 -0.00000000000E+00 -0.83670317618E+03  0.83670317618E+03  0.00000000000E+00 0. -1.
         23    2    1    2    0    0  0.42057806485E+03 -0.80258076096E+02  0.55561524491E+03  0.70752296323E+03  0.92483380714E+02 0.  0.
        254    2    1    2    0    0 -0.42057806485E+03  0.80258076096E+02 -0.43936794693E+03  0.10821306871E+04  0.89142322372E+03 0.  0.
        -24    2    4    4    0    0 -0.23549717787E+03 -0.18907904458E+03 -0.62433421578E+03  0.69833385101E+03  0.81652609238E+02 0.  0.
         24    2    4    4    0    0 -0.18508088697E+03  0.26933712067E+03  0.18496626885E+03  0.38379683610E+03  0.79309970952E+02 0.  0.
         11    1    3    3    0    0  0.40343607711E+03 -0.54898884103E+02  0.52290056596E+03  0.66272132731E+03  0.00000000000E+00 0.  1.
        -11    1    3    3    0    0  0.17141987737E+02 -0.25359191993E+02  0.32714678950E+02  0.44801635917E+02  0.00000000000E+00 0. -1.
          4    1    6    6  502    0 -0.91004100490E+01  0.48778835815E+02  0.51996500505E+02  0.71873697215E+02  0.00000000000E+00 0. -1.
          1    1    5    5  503    0 -0.76111579661E-01 -0.19252615588E+02 -0.19267912960E+02  0.27238235439E+02  0.00000000000E+00 0. -1.
         -2    1    5    5    0  503 -0.23542106629E+03 -0.16982642899E+03 -0.60506630282E+03  0.67109561558E+03  0.00000000000E+00 0.  1.
         -3    1    6    6    0  502 -0.17598047693E+03  0.22055828486E+03  0.13296976834E+03  0.31192313888E+03  0.00000000000E+00 0.  1.
<mgrwt>
<rscale>  0 0.17858742E+04</rscale>
<asrwt>0</asrwt>
<pdfrwt beam="1">  1        1 0.14660777E+00 0.17858742E+04</pdfrwt>
<pdfrwt beam="2">  1       -1 0.12872357E+00 0.17858742E+04</pdfrwt>
<totfact> 0.80988473E+00</totfact>
</mgrwt>
</event>
<event>
12    1  0.1097093E-007  0.1385921E+04  0.7818608E-02  0.8964073E-01
          1   -1    0    0  501    0  0.00000000000E+00  0.00000000000E+00  0.94281107775E+03  0.94281107775E+03  0.00000000000E+00 0. -1.
         -1   -1    0    0    0  501 -0.00000000000E+00 -0.00000000000E+00 -0.50932218374E+03  0.50932218374E+03  0.00000000000E+00 0.  1.
         23    2    1    2    0    0 -0.10307489577E+03  0.21083570613E+03  0.45625736811E+03  0.52088928032E+03  0.89881740547E+02 0.  0.
        254    2    1    2    0    0  0.10307489577E+03 -0.21083570613E+03 -0.22768474097E+02  0.93124398116E+03  0.90090000550E+03 0.  0.
        -24    2    4    4    0    0  0.26683761267E+03  0.20965927619E+03 -0.24070914663E+03  0.42386367555E+03  0.80995052652E+02 0.  0.
         24    2    4    4    0    0 -0.16376271690E+03 -0.42049498233E+03  0.21794067253E+03  0.50738030561E+03  0.79387531588E+02 0.  0.
         11    1    3    3    0    0  0.10599123774E+02  0.13310811874E+02  0.98174800046E+01  0.19644389814E+02  0.00000000000E+00 0.  1.
        -11    1    3    3    0    0 -0.11367401954E+03  0.19752489426E+03  0.44643988810E+03  0.50124489051E+03  0.00000000000E+00 0. -1.
          4    1    6    6  502    0 -0.86183333348E+01 -0.51295877318E+02  0.12222376492E+01  0.52029189539E+02  0.00000000000E+00 0. -1.
          3    1    5    5  503    0  0.12170459776E+03  0.14681400740E+03 -0.12889675045E+03  0.23017544214E+03  0.00000000000E+00 0. -1.
         -4    1    5    5    0  503  0.14513301490E+03  0.62845268790E+02 -0.11181239618E+03  0.19368823341E+03  0.00000000000E+00 0.  1.
         -1    1    6    6    0  502 -0.15514438356E+03 -0.36919910501E+03  0.21671843488E+03  0.45535111607E+03  0.00000000000E+00 0.  1.
<mgrwt>
<rscale>  0 0.13859215E+04</rscale>
<asrwt>0</asrwt>
<pdfrwt beam="1">  1        1 0.14504786E+00 0.13859215E+04</pdfrwt>
<pdfrwt beam="2">  1       -1 0.78357259E-01 0.13859215E+04</pdfrwt>
<totfact> 0.26736191E+01</totfact>
</mgrwt>
</event>
<event>
12    1  0.1097093E-007  0.2980804E+04  0.7818608E-02  0.8249234E-01
          1   -1    0    0  501    0  0.00000000000E+00  0.00000000000E+00  0.20667285574E+04  0.20667285574E+04  0.00000000000E+00 0. -1.
         -1   -1    0    0    0  501 -0.00000000000E+00 -0.00000000000E+00 -0.10747892503E+04  0.10747892503E+04  0.00000000000E+00 0.  1.
         23    2    1    2    0    0  0.11817775405E+04  0.11841616084E+03  0.11381582986E+04  0.16463306122E+04  0.66178771257E+02 0.  0.
        254    2    1    2    0    0 -0.11817775405E+04 -0.11841616084E+03 -0.14621899153E+03  0.14951871955E+04  0.89642858822E+03 0.  0.
        -24    2    4    4    0    0 -0.98407828863E+03 -0.17848234861E+03 -0.46615898929E+03  0.11056996380E+04  0.70720995312E+02 0.  0.
         24    2    4    4    0    0 -0.19769925183E+03  0.60066187770E+02  0.31993999776E+03  0.38948755752E+03  0.81523090032E+02 0.  0.
         11    1    3    3    0    0  0.44704232614E+03  0.68769977410E+02  0.46304214280E+03  0.64728987105E+03  0.00000000000E+00 0.  1.
        -11    1    3    3    0    0  0.73473521433E+03  0.49646183431E+02  0.67511615583E+03  0.99904074119E+03  0.00000000000E+00 0. -1.
          4    1    6    6  502    0 -0.19662614079E+03  0.58692526954E+02  0.32487538238E+03  0.38425338780E+03  0.00000000000E+00 0. -1.
          1    1    5    5  503    0 -0.84858512006E+03 -0.15095240338E+03 -0.37409202830E+03  0.93958936761E+03  0.00000000000E+00 0. -1.
         -2    1    5    5    0  503 -0.13549316857E+03 -0.27529945227E+02 -0.92066960991E+02  0.16611027036E+03  0.00000000000E+00 0.  1.
         -3    1    6    6    0  502 -0.10731110378E+01  0.13736608163E+01 -0.49353846154E+01  0.52341697183E+01  0.00000000000E+00 0.  1.
<mgrwt>
<rscale>  0 0.29808037E+04</rscale>
<asrwt>0</asrwt>
<pdfrwt beam="1">  1        1 0.31795824E+00 0.29808037E+04</pdfrwt>
<pdfrwt beam="2">  1       -1 0.16535219E+00 0.29808037E+04</pdfrwt>
<totfact> 0.60956617E-01</totfact>
</mgrwt>
</event>
<event>
12    1  0.1097093E-007  0.1664838E+04  0.7818608E-02  0.8781677E-01
         -1   -1    0    0    0  501 -0.00000000000E+00  0.00000000000E+00  0.53141180035E+03  0.53141180035E+03  0.00000000000E+00 0.  1.
          1   -1    0    0  501    0  0.00000000000E+00 -0.00000000000E+00 -0.13039247876E+04  0.13039247876E+04  0.00000000000E+00 0. -1.
         23    2    1    2    0    0 -0.32161777874E+03  0.47626622498E+03 -0.14695609864E+03  0.59975164010E+03  0.88534864417E+02 0.  0.
        254    2    1    2    0    0  0.32161777874E+03 -0.47626622498E+03 -0.62555688865E+03  0.12355849479E+04  0.89726318873E+03 0.  0.
        -24    2    4    4    0    0  0.50793754355E+03 -0.57663649859E+03 -0.64654335563E+03  0.10074181974E+04  0.79767876181E+02 0.  0.
         24    2    4    4    0    0 -0.18631976480E+03  0.10037027361E+03  0.20986466980E+02  0.22816675050E+03  0.82646159359E+02 0.  0.
         11    1    3    3    0    0  0.47109989455E+01  0.16223587143E+02 -0.83696660247E-02  0.16893737328E+02  0.00000000000E+00 0. -1.
        -11    1    3    3    0    0 -0.32632877769E+03  0.46004263784E+03 -0.14694772898E+03  0.58285790277E+03  0.00000000000E+00 0.  1.
          4    1    6    6  502    0 -0.15140402702E+03  0.85875604539E+02 -0.16605558847E+02  0.17485291944E+03  0.00000000000E+00 0. -1.
          1    1    5    5  503    0  0.11332710565E+03 -0.10767671115E+03 -0.17088956211E+03  0.23160429495E+03  0.00000000000E+00 0. -1.
         -2    1    5    5    0  503  0.39461043790E+03 -0.46895978744E+03 -0.47565379352E+03  0.77581390244E+03  0.00000000000E+00 0.  1.
         -3    1    6    6    0  502 -0.34915737788E+02  0.14494669070E+02  0.37592025827E+02  0.53313831062E+02  0.00000000000E+00 0.  1.
<mgrwt>
<rscale>  0 0.16648376E+04</rscale>
<asrwt>0</asrwt>
<pdfrwt beam="1">  1        1 0.20060381E+00 0.16648376E+04</pdfrwt>
<pdfrwt beam="2">  1       -1 0.81755663E-01 0.16648376E+04</pdfrwt>
<totfact> 0.12773365E+01</totfact>
</mgrwt>
</event>
<event>
12    1  0.1097093E-007  0.1715320E+04  0.7818608E-02  0.8752675E-01
         -2   -1    0    0    0  501 -0.00000000000E+00  0.00000000000E+00  0.45430013391E+03  0.45430013391E+03  0.00000000000E+00 0.  1.
          2   -1    0    0  501    0  0.00000000000E+00 -0.00000000000E+00 -0.16191513205E+04  0.16191513205E+04  0.00000000000E+00 0. -1.
         23    2    1    2    0    0  0.92332296182E+01  0.52510105610E+03 -0.30741411614E+02  0.53438072255E+03  0.93815513631E+02 0.  0.
        254    2    1    2    0    0 -0.92332296182E+01 -0.52510105610E+03 -0.11341097750E+04  0.15390707319E+04  0.89817446208E+03 0.  0.
        -24    2    4    4    0    0  0.42627885304E+03 -0.26109917781E+03 -0.41702305276E+03  0.65592954666E+03  0.80305058628E+02 0.  0.
         24    2    4    4    0    0 -0.43551208266E+03 -0.26400187829E+03 -0.71708672220E+03  0.88314118520E+03  0.79732176418E+02 0.  0.
         13    1    3    3    0    0 -0.25602187972E+02  0.74992300498E+02  0.14878552854E+02  0.80626847253E+02  0.00000000000E+00 0. -1.
        -13    1    3    3    0    0  0.34835417590E+02  0.45010875560E+03 -0.45619964468E+02  0.45375387530E+03  0.00000000000E+00 0.  1.
          2    1    6    6  502    0 -0.19104719343E+03 -0.15403601962E+03 -0.30387304071E+03  0.39059563532E+03  0.00000000000E+00 0. -1.
          3    1    5    5  503    0  0.23231978040E+03 -0.10191445624E+03 -0.23639813110E+03  0.34676088757E+03  0.00000000000E+00 0. -1.
         -4    1    5    5    0  503  0.19395907263E+03 -0.15918472157E+03 -0.18062492166E+03  0.30916865909E+03  0.00000000000E+00 0.  1.
         -1    1    6    6    0  502 -0.24446488923E+03 -0.10996585867E+03 -0.41321368149E+03  0.49254554988E+03  0.00000000000E+00 0.  1.
<mgrwt>
<rscale>  0 0.17153200E+04</rscale>
<asrwt>0</asrwt>
<pdfrwt beam="1">  1        2 0.24910021E+00 0.17153200E+04</pdfrwt>
<pdfrwt beam="2">  1       -2 0.69892328E-01 0.17153200E+04</pdfrwt>
<totfact> 0.19285232E+01</totfact>
</mgrwt>
</event>
<event>
12    1  0.1097093E-007  0.2841825E+04  0.7818608E-02  0.8290400E-01
          2   -1    0    0  501    0  0.00000000000E+00  0.00000000000E+00  0.22160682176E+04  0.22160682176E+04  0.00000000000E+00 0. -1.
         -2   -1    0    0    0  501 -0.00000000000E+00 -0.00000000000E+00 -0.91106926384E+03  0.91106926384E+03  0.00000000000E+00 0.  1.
         23    2    1    2    0    0  0.70777946022E+03  0.93696748366E+03  0.11371947311E+04  0.16370893819E+04  0.89386564280E+02 0.  0.
        254    2    1    2    0    0 -0.70777946022E+03 -0.93696748366E+03  0.16780422263E+03  0.14900480996E+04  0.90179002670E+03 0.  0.
        -24    2    4    4    0    0  0.30981283583E+02 -0.35399762759E+03 -0.26485891305E+03  0.45094406391E+03  0.83223462344E+02 0.  0.
         24    2    4    4    0    0 -0.73876074381E+03 -0.58296985607E+03  0.43266313568E+03  0.10391040357E+04  0.83177631315E+02 0.  0.
         11    1    3    3    0    0  0.26101623301E+02  0.31724210052E+02  0.19679208928E+02  0.45552074667E+02  0.00000000000E+00 0.  1.
        -11    1    3    3    0    0  0.68167783692E+03  0.90524327361E+03  0.11175155222E+04  0.15915373072E+04  0.00000000000E+00 0. -1.
          2    1    6    6  502    0 -0.65303561594E+03 -0.53782354385E+03  0.36767027251E+03  0.92243759100E+03  0.00000000000E+00 0. -1.
          1    1    5    5  503    0  0.17432954730E+02 -0.34540460975E+03 -0.26360502094E+03  0.43485153720E+03  0.00000000000E+00 0. -1.
         -2    1    5    5    0  503  0.13548328853E+02 -0.85930178441E+01 -0.12538921068E+01  0.16092526707E+02  0.00000000000E+00 0.  1.
         -1    1    6    6    0  502 -0.85725127861E+02 -0.45146312217E+02  0.64992863173E+02  0.11666644469E+03  0.00000000000E+00 0.  1.
<mgrwt>
<rscale>  0 0.28418245E+04</rscale>
<asrwt>0</asrwt>
<pdfrwt beam="1">  1        2 0.34093357E+00 0.28418245E+04</pdfrwt>
<pdfrwt beam="2">  1       -2 0.14016450E+00 0.28418245E+04</pdfrwt>
<totfact> 0.15702574E+00</totfact>
</mgrwt>
</event>
<event>
12    1  0.1097093E-007  0.2830205E+04  0.7818608E-02  0.8293952E-01
          2   -1    0    0  501    0  0.00000000000E+00  0.00000000000E+00  0.17131797765E+04  0.17131797765E+04  0.00000000000E+00 0. -1.
         -2   -1    0    0    0  501 -0.00000000000E+00 -0.00000000000E+00 -0.11688878500E+04  0.11688878500E+04  0.00000000000E+00 0.  1.
         23    2    1    2    0    0  0.53474943641E+03  0.10803500927E+04  0.64626873869E+03  0.13710180856E+04  0.94414118820E+02 0.  0.
        254    2    1    2    0    0 -0.53474943641E+03 -0.10803500927E+04 -0.10197681210E+03  0.15110495409E+04  0.90540497146E+03 0.  0.
        -24    2    4    4    0    0 -0.12757066204E+03  0.12466745111E+03  0.10245944848E+03  0.22051656605E+03  0.79456718643E+02 0.  0.
         24    2    4    4    0    0 -0.40717877437E+03 -0.12050175438E+04 -0.20443626059E+03  0.12905329749E+04  0.76284594694E+02 0.  0.
         13    1    3    3    0    0  0.22792905233E+03  0.48761001919E+03  0.23726607714E+03  0.58822646581E+03  0.00000000000E+00 0. -1.
        -13    1    3    3    0    0  0.30682038408E+03  0.59274007351E+03  0.40900266155E+03  0.78279161978E+03  0.00000000000E+00 0.  1.
          4    1    6    6  502    0 -0.19209422403E+03 -0.53165671162E+03 -0.12736519270E+03  0.57946608376E+03  0.00000000000E+00 0. -1.
          3    1    5    5  503    0 -0.11342803412E+03  0.13311343411E+03  0.79123068329E+02  0.19195198672E+03  0.00000000000E+00 0. -1.
         -4    1    5    5    0  503 -0.14142627918E+02 -0.84459829977E+01  0.23336380156E+02  0.28564579325E+02  0.00000000000E+00 0.  1.
         -3    1    6    6    0  502 -0.21508455034E+03 -0.67336083220E+03 -0.77071067888E+02  0.71106689112E+03  0.00000000000E+00 0.  1.
<mgrwt>
<rscale>  0 0.28302050E+04</rscale>
<asrwt>0</asrwt>
<pdfrwt beam="1">  1        2 0.26356612E+00 0.28302050E+04</pdfrwt>
<pdfrwt beam="2">  1       -2 0.17982890E+00 0.28302050E+04</pdfrwt>
<totfact> 0.15220604E+00</totfact>
</mgrwt>
</event>
<event>
12    1  0.1097093E-007  0.1319863E+04  0.7818608E-02  0.9013960E-01
          1   -1    0    0  501    0  0.00000000000E+00  0.00000000000E+00  0.32438670436E+03  0.32438670436E+03  0.00000000000E+00 0. -1.
         -1   -1    0    0    0  501 -0.00000000000E+00 -0.00000000000E+00 -0.13425625582E+04  0.13425625582E+04  0.00000000000E+00 0.  1.
         23    2    1    2    0    0 -0.13766869668E+02  0.33948235670E+03 -0.34244922215E+03  0.49058261837E+03  0.89230255415E+02 0.  0.
        254    2    1    2    0    0  0.13766869668E+02 -0.33948235670E+03 -0.67572663173E+03  0.11763666442E+04  0.90099622842E+03 0.  0.
        -24    2    4    4    0    0  0.37213233314E+03  0.94489948538E+02 -0.23608437241E+03  0.45767438642E+03  0.79493328945E+02 0.  0.
         24    2    4    4    0    0 -0.35836546347E+03 -0.43397230524E+03 -0.43964225932E+03  0.71869225781E+03  0.80470355621E+02 0.  0.
         11    1    3    3    0    0  0.20232000065E+02  0.22936067506E+03 -0.18448021975E+03  0.29504000504E+03  0.00000000000E+00 0.  1.
        -11    1    3    3    0    0 -0.33998869733E+02  0.11012168164E+03 -0.15796900240E+03  0.19554261333E+03  0.00000000000E+00 0. -1.
          4    1    6    6  502    0 -0.36259174842E+03 -0.42654538734E+03 -0.43084934084E+03  0.70643109924E+03  0.00000000000E+00 0. -1.
          3    1    5    5  503    0  0.22563871710E+03  0.41117118755E+02 -0.98035848423E+02  0.24942829768E+03  0.00000000000E+00 0. -1.
         -4    1    5    5    0  503  0.14649361604E+03  0.53372829783E+02 -0.13804852399E+03  0.20824608874E+03  0.00000000000E+00 0.  1.
         -3    1    6    6    0  502  0.42262849456E+01 -0.74269179032E+01 -0.87929184841E+01  0.12261158569E+02  0.00000000000E+00 0.  1.
<mgrwt>
<rscale>  0 0.13198628E+04</rscale>
<asrwt>0</asrwt>
<pdfrwt beam="1">  1        1 0.49905646E-01 0.13198628E+04</pdfrwt>
<pdfrwt beam="2">  1       -1 0.20654809E+00 0.13198628E+04</pdfrwt>
<totfact> 0.10538563E+01</totfact>
</mgrwt>
</event>
<event>
12    1  0.1097093E-007  0.2699688E+04  0.7818608E-02  0.8335106E-01
         -2   -1    0    0    0  501 -0.00000000000E+00  0.00000000000E+00  0.94487753945E+03  0.94487753945E+03  0.00000000000E+00 0.  1.
          2   -1    0    0  501    0  0.00000000000E+00 -0.00000000000E+00 -0.19283751413E+04  0.19283751413E+04  0.00000000000E+00 0. -1.
         23    2    1    2    0    0 -0.56367009700E+03  0.10046345103E+04 -0.82012923648E+02  0.11590539134E+04  0.98312649420E+02 0.  0.
        254    2    1    2    0    0  0.56367009700E+03 -0.10046345103E+04 -0.90148467822E+03  0.17141987673E+04  0.89374957971E+03 0.  0.
        -24    2    4    4    0    0  0.57417566165E+03 -0.18960284982E+03 -0.21979050723E+03  0.64862056937E+03  0.82303370829E+02 0.  0.
         24    2    4    4    0    0 -0.10505564645E+02 -0.81503166050E+03 -0.68169417099E+03  0.10655781980E+04  0.79768281160E+02 0.  0.
         11    1    3    3    0    0 -0.38945903544E+03  0.70189450212E+03 -0.11858785908E+02  0.80279191774E+03  0.00000000000E+00 0. -1.
        -11    1    3    3    0    0 -0.17421106156E+03  0.30274000820E+03 -0.70154137740E+02  0.35626199570E+03  0.00000000000E+00 0.  1.
          2    1    6    6  502    0 -0.18148281281E+01 -0.66605030143E+03 -0.59423614854E+03  0.89260455851E+03  0.00000000000E+00 0. -1.
          1    1    5    5  503    0  0.13143375690E+03 -0.41932944367E+02 -0.14411924233E+02  0.13871159950E+03  0.00000000000E+00 0. -1.
         -2    1    5    5    0  503  0.44274190475E+03 -0.14766990545E+03 -0.20537858300E+03  0.50990896986E+03  0.00000000000E+00 0.  1.
         -1    1    6    6    0  502 -0.86907365166E+01 -0.14898135907E+03 -0.87458022453E+02  0.17297363944E+03  0.00000000000E+00 0.  1.
<mgrwt>
<rscale>  0 0.26996877E+04</rscale>
<asrwt>0</asrwt>
<pdfrwt beam="1">  1        2 0.29667310E+00 0.26996877E+04</pdfrwt>
<pdfrwt beam="2">  1       -2 0.14536578E+00 0.26996877E+04</pdfrwt>
<totfact> 0.20914564E+00</totfact>
</mgrwt>
</event>
<event>
12    1  0.1127309E-007  0.2238070E+04  0.7818608E-02  0.8502748E-01
         -2   -1    0    0    0  501 -0.00000000000E+00  0.00000000000E+00  0.49577758050E+03  0.49577758050E+03  0.00000000000E+00 0.  1.
          2   -1    0    0  501    0  0.00000000000E+00 -0.00000000000E+00 -0.25258080336E+04  0.25258080336E+04  0.00000000000E+00 0. -1.
         23    2    1    2    0    0  0.20555125599E+03 -0.63465814198E+03 -0.17420842217E+04  0.18670835573E+04  0.78110808553E+02 0.  0.
        254    2    1    2    0    0 -0.20555125599E+03  0.63465814198E+03 -0.28794623144E+03  0.11545020568E+04  0.89717316670E+03 0.  0.
        -24    2    4    4    0    0 -0.57945396112E+02  0.36157934446E+03  0.30323989073E+03  0.48191171186E+03  0.78658600469E+02 0.  0.
         24    2    4    4    0    0 -0.14760585987E+03  0.27307879752E+03 -0.59118612217E+03  0.67259034499E+03  0.80729310633E+02 0.  0.
         11    1    3    3    0    0  0.19289805881E+03 -0.57446463999E+03 -0.15118743022E+04  0.16287980812E+04  0.00000000000E+00 0. -1.
        -11    1    3    3    0    0  0.12653197180E+02 -0.60193501992E+02 -0.23020991942E+03  0.23828547602E+03  0.00000000000E+00 0.  1.
          2    1    6    6  502    0 -0.36002588790E+02  0.28645829904E+02 -0.47508218620E+02  0.66134717108E+02  0.00000000000E+00 0. -1.
          3    1    5    5  503    0  0.35784166210E+01  0.19854969251E+03  0.13846380088E+03  0.24208884653E+03  0.00000000000E+00 0. -1.
         -4    1    5    5    0  503 -0.61523812733E+02  0.16302965195E+03  0.16477608985E+03  0.23982286533E+03  0.00000000000E+00 0.  1.
         -1    1    6    6    0  502 -0.11160327108E+03  0.24443296762E+03 -0.54367790355E+03  0.60645562788E+03  0.00000000000E+00 0.  1.
<mgrwt>
<rscale>  0 0.22380697E+04</rscale>
<asrwt>0</asrwt>
<pdfrwt beam="1">  1        2 0.38858585E+00 0.22380697E+04</pdfrwt>
<pdfrwt beam="2">  1       -2 0.76273473E-01 0.22380697E+04</pdfrwt>
<totfact> 0.47136740E+00</totfact>
</mgrwt>
</event>
<event>
12    1  0.1097093E-007  0.2094683E+04  0.7818608E-02  0.8563589E-01
         -1   -1    0    0    0  501 -0.00000000000E+00  0.00000000000E+00  0.13100406045E+04  0.13100406045E+04  0.00000000000E+00 0.  1.
          1   -1    0    0  501    0  0.00000000000E+00 -0.00000000000E+00 -0.83732080257E+03  0.83732080257E+03  0.00000000000E+00 0. -1.
         23    2    1    2    0    0  0.43609711329E+03 -0.14727041412E+03 -0.54214936987E+03  0.71850102173E+03  0.10221796262E+03 0.  0.
        254    2    1    2    0    0 -0.43609711329E+03  0.14727041412E+03  0.10148691718E+04  0.14288603854E+04  0.89432281526E+03 0.  0.
        -24    2    4    4    0    0 -0.61986161551E+02  0.42449230710E+03  0.18511959418E+03  0.47397226677E+03  0.79652008773E+02 0.  0.
         24    2    4    4    0    0 -0.37411095174E+03 -0.27722189298E+03  0.82974957763E+03  0.95488811860E+03  0.80721591397E+02 0.  0.
         11    1    3    3    0    0  0.84723369818E+02 -0.64558169606E+02 -0.86658260584E+02  0.13731518774E+03  0.00000000000E+00 0.  1.
        -11    1    3    3    0    0  0.35137374347E+03 -0.82712244516E+02 -0.45549110928E+03  0.58118583399E+03  0.00000000000E+00 0. -1.
          4    1    6    6  502    0 -0.12862290490E+03 -0.50771794051E+02  0.25896476255E+03  0.29357175440E+03  0.00000000000E+00 0. -1.
          1    1    5    5  503    0  0.80329282287E+00  0.89918964385E+02  0.72191690214E+02  0.11531567791E+03  0.00000000000E+00 0. -1.
         -2    1    5    5    0  503 -0.62789454374E+02  0.33457334272E+03  0.11292790397E+03  0.35865658886E+03  0.00000000000E+00 0.  1.
         -3    1    6    6    0  502 -0.24548804683E+03 -0.22645009893E+03  0.57078481508E+03  0.66131636421E+03  0.00000000000E+00 0.  1.
<mgrwt>
<rscale>  0 0.20946830E+04</rscale>
<asrwt>0</asrwt>
<pdfrwt beam="1">  1        1 0.12881859E+00 0.20946830E+04</pdfrwt>
<pdfrwt beam="2">  1       -1 0.20154471E+00 0.20946830E+04</pdfrwt>
<totfact> 0.27738698E+00</totfact>
</mgrwt>
</event>
<event>
12    1  0.1097093E-007  0.1935356E+04  0.7818608E-02  0.8637455E-01
         -2   -1    0    0    0  501 -0.00000000000E+00  0.00000000000E+00  0.19670626896E+04  0.19670626896E+04  0.00000000000E+00 0.  1.
          2   -1    0    0  501    0  0.00000000000E+00 -0.00000000000E+00 -0.47603987419E+03  0.47603987419E+03  0.00000000000E+00 0. -1.
         23    2    1    2    0    0  0.50210757569E+03 -0.50607404720E+03  0.28354485718E+03  0.77230382430E+03  0.88501707238E+02 0.  0.
        254    2    1    2    0    0 -0.50210757569E+03  0.50607404720E+03  0.12074779582E+04  0.16707987394E+04  0.90848359885E+03 0.  0.
        -24    2    4    4    0    0 -0.39439662974E+03 -0.13237856602E+03  0.19420501785E+03  0.46595051723E+03  0.79507919441E+02 0.  0.
         24    2    4    4    0    0 -0.10771094595E+03  0.63845261322E+03  0.10132729403E+04  0.12048482222E+04  0.75589680069E+02 0.  0.
         11    1    3    3    0    0  0.42427828917E+03 -0.39849272817E+03  0.25977798364E+03  0.63741126586E+03  0.00000000000E+00 0. -1.
        -11    1    3    3    0    0  0.77829286526E+02 -0.10758131903E+03  0.23766873543E+02  0.13489255845E+03  0.00000000000E+00 0.  1.
          4    1    6    6  502    0 -0.12640025934E+01  0.15550261048E+03  0.28232304537E+03  0.32231810610E+03  0.00000000000E+00 0. -1.
          1    1    5    5  503    0 -0.36317828276E+03 -0.13117173543E+03  0.15566059638E+03  0.41633485383E+03  0.00000000000E+00 0. -1.
         -2    1    5    5    0  503 -0.31218346981E+02 -0.12068305844E+01  0.38544421468E+02  0.49615663400E+02  0.00000000000E+00 0.  1.
         -3    1    6    6    0  502 -0.10644694336E+03  0.48295000274E+03  0.73094989497E+03  0.88253011612E+03  0.00000000000E+00 0.  1.
<mgrwt>
<rscale>  0 0.19353555E+04</rscale>
<asrwt>0</asrwt>
<pdfrwt beam="1">  1        2 0.73236905E-01 0.19353555E+04</pdfrwt>
<pdfrwt beam="2">  1       -2 0.30262502E+00 0.19353555E+04</pdfrwt>
<totfact> 0.18671326E+00</totfact>
</mgrwt>
</event>
<event>
12    1  0.1097093E-007  0.1587742E+04  0.7818608E-02  0.8828114E-01
         -2   -1    0    0    0  501 -0.00000000000E+00  0.00000000000E+00  0.68264179963E+03  0.68264179963E+03  0.00000000000E+00 0.  1.
          2   -1    0    0  501    0  0.00000000000E+00 -0.00000000000E+00 -0.92322360405E+03  0.92322360405E+03  0.00000000000E+00 0. -1.
         23    2    1    2    0    0 -0.47028264909E+03  0.16876433680E+02  0.18087809463E+03  0.51228943318E+03  0.90956001371E+02 0.  0.
        254    2    1    2    0    0  0.47028264909E+03 -0.16876433680E+02 -0.42145989905E+03  0.10935759705E+04  0.89265299681E+03 0.  0.
        -24    2    4    4    0    0  0.51823276736E+03 -0.17808537977E+03 -0.61236776098E+03  0.82605854864E+03  0.84254658237E+02 0.  0.
         24    2    4    4    0    0 -0.47950118270E+02  0.16120894609E+03  0.19090786193E+03  0.26751742187E+03  0.82657250827E+02 0.  0.
         11    1    3    3    0    0 -0.26688469252E+03  0.21063148139E+02  0.14894096581E+03  0.30635682889E+03  0.00000000000E+00 0. -1.
        -11    1    3    3    0    0 -0.20339795656E+03 -0.41867144585E+01  0.31937128827E+02  0.20593260429E+03  0.00000000000E+00 0.  1.
          2    1    6    6  502    0 -0.60561243585E+01 -0.91345217735E+01  0.54505689910E+01  0.12240295446E+02  0.00000000000E+00 0. -1.
          3    1    5    5  503    0  0.30080685850E+02 -0.32232800012E+02 -0.37116033764E+02  0.57631597411E+02  0.00000000000E+00 0. -1.
         -4    1    5    5    0  503  0.48815208151E+03 -0.14585257976E+03 -0.57525172722E+03  0.76842695122E+03  0.00000000000E+00 0.  1.
         -1    1    6    6    0  502 -0.41893993912E+02  0.17034346787E+03  0.18545729294E+03  0.25527712642E+03  0.00000000000E+00 0.  1.
<mgrwt>
<rscale>  0 0.15877418E+04</rscale>
<asrwt>0</asrwt>
<pdfrwt beam="1">  1        2 0.14203440E+00 0.15877418E+04</pdfrwt>
<pdfrwt beam="2">  1       -2 0.10502182E+00 0.15877418E+04</pdfrwt>
<totfact> 0.19949640E+01</totfact>
</mgrwt>
</event>
<event>
12    1  0.1361705E-007  0.1494240E+04  0.7818608E-02  0.8888293E-01
         -1   -1    0    0    0  501 -0.00000000000E+00  0.00000000000E+00  0.78717845321E+03  0.78717845321E+03  0.00000000000E+00 0.  1.
          1   -1    0    0  501    0  0.00000000000E+00 -0.00000000000E+00 -0.70909970269E+03  0.70909970269E+03  0.00000000000E+00 0. -1.
         23    2    1    2    0    0  0.16724133716E+03  0.20346499833E+02 -0.41643559720E+03  0.45845053090E+03  0.91513046907E+02 0.  0.
        254    2    1    2    0    0 -0.16724133716E+03 -0.20346499833E+02  0.49451434772E+03  0.10378276250E+04  0.89674862376E+03 0.  0.
        -24    2    4    4    0    0 -0.31020391523E+03  0.26415038929E+03 -0.32948788809E+02  0.41659600775E+03  0.80403443956E+02 0.  0.
         24    2    4    4    0    0  0.14296257807E+03 -0.28449688912E+03  0.52746313653E+03  0.62123161726E+03  0.79590095098E+02 0.  0.
         13    1    3    3    0    0  0.13609371585E+03  0.52878513580E+02 -0.30108446519E+03  0.33461842727E+03  0.00000000000E+00 0. -1.
        -13    1    3    3    0    0  0.31147621309E+02 -0.32532013748E+02 -0.11535113202E+03  0.12383210363E+03  0.00000000000E+00 0.  1.
          2    1    6    6  502    0  0.14464843623E+03 -0.28796907298E+03  0.52643311419E+03  0.61723672996E+03  0.00000000000E+00 0. -1.
          3    1    5    5  503    0 -0.28526716065E+03  0.20727446772E+03 -0.20189347664E+02  0.35319635852E+03  0.00000000000E+00 0. -1.
         -4    1    5    5    0  503 -0.24936754580E+02  0.56875921571E+02 -0.12759441145E+02  0.63399649225E+02  0.00000000000E+00 0.  1.
         -1    1    6    6    0  502 -0.16858581631E+01  0.34721838598E+01  0.10300223391E+01  0.39948872977E+01  0.00000000000E+00 0.  1.
<mgrwt>
<rscale>  0 0.14942396E+04</rscale>
<asrwt>0</asrwt>
<pdfrwt beam="1">  1        1 0.10909226E+00 0.14942396E+04</pdfrwt>
<pdfrwt beam="2">  1       -1 0.12110438E+00 0.14942396E+04</pdfrwt>
<totfact> 0.15652897E+01</totfact>
</mgrwt>
</event>
<event>
12    1  0.1097093E-007  0.1203821E+04  0.7818608E-02  0.9109518E-01
         -2   -1    0    0    0  501 -0.00000000000E+00  0.00000000000E+00  0.15888607435E+03  0.15888607435E+03  0.00000000000E+00 0.  1.
          2   -1    0    0  501    0  0.00000000000E+00 -0.00000000000E+00 -0.22802275954E+04  0.22802275954E+04  0.00000000000E+00 0. -1.
         23    2    1    2    0    0 -0.19803895985E+03 -0.14697463336E+03 -0.39367997628E+03  0.47313454880E+03  0.89729622084E+02 0.  0.
        254    2    1    2    0    0  0.19803895985E+03  0.14697463336E+03 -0.17276615448E+04  0.19659791210E+04  0.90522843429E+03 0.  0.
        -24    2    4    4    0    0 -0.19525178268E+03 -0.22183798961E+03 -0.10640588676E+04  0.11073107082E+04  0.81119532069E+02 0.  0.
         24    2    4    4    0    0  0.39329074253E+03  0.36881262297E+03 -0.66360267723E+03  0.85866841280E+03  0.79009941781E+02 0.  0.
         11    1    3    3    0    0 -0.80725102357E+02 -0.89666731678E+01 -0.11645501373E+03  0.14198138470E+03  0.00000000000E+00 0. -1.
        -11    1    3    3    0    0 -0.11731385749E+03 -0.13800796020E+03 -0.27722496255E+03  0.33115316410E+03  0.00000000000E+00 0.  1.
          2    1    6    6  502    0  0.33653181478E+03  0.33960681175E+03 -0.61182391649E+03  0.77647598400E+03  0.00000000000E+00 0. -1.
          3    1    5    5  503    0 -0.13503757230E+03 -0.15366748829E+03 -0.85834418858E+03  0.88238517041E+03  0.00000000000E+00 0. -1.
         -4    1    5    5    0  503 -0.60214210378E+02 -0.68170501318E+02 -0.20571467900E+03  0.22492553776E+03  0.00000000000E+00 0.  1.
         -1    1    6    6    0  502  0.56758927752E+02  0.29205811220E+02 -0.51778760742E+02  0.82192428803E+02  0.00000000000E+00 0.  1.
<mgrwt>
<rscale>  0 0.12038213E+04</rscale>
<asrwt>0</asrwt>
<pdfrwt beam="1">  1        2 0.35080426E+00 0.12038213E+04</pdfrwt>
<pdfrwt beam="2">  1       -2 0.24444010E-01 0.12038213E+04</pdfrwt>
<totfact> 0.68836977E+01</totfact>
</mgrwt>
</event>
<event>
12    1  0.1097093E-007  0.1425792E+04  0.7818608E-02  0.8935358E-01
          2   -1    0    0  501    0  0.00000000000E+00  0.00000000000E+00  0.15906378587E+04  0.15906378587E+04  0.00000000000E+00 0. -1.
         -2   -1    0    0    0  501 -0.00000000000E+00 -0.00000000000E+00 -0.31950739335E+03  0.31950739335E+03  0.00000000000E+00 0.  1.
         23    2    1    2    0    0 -0.32382128105E+03  0.93020568015E+02  0.73275782811E+03  0.81171055001E+03  0.91798334457E+02 0.  0.
        254    2    1    2    0    0  0.32382128105E+03 -0.93020568015E+02  0.53837263728E+03  0.10984347021E+04  0.89621462275E+03 0.  0.
        -24    2    4    4    0    0 -0.28949182433E+03  0.85695990553E+02  0.20746364216E+03  0.37462042866E+03  0.78421831139E+02 0.  0.
         24    2    4    4    0    0  0.61331310538E+03 -0.17871655857E+03  0.33090899512E+03  0.72381427342E+03  0.79459208527E+02 0.  0.
         13    1    3    3    0    0 -0.30412975118E+03  0.68649849163E+02  0.70044637118E+03  0.76670256700E+03  0.00000000000E+00 0. -1.
        -13    1    3    3    0    0 -0.19691529869E+02  0.24370718852E+02  0.32311456932E+02  0.45007983014E+02  0.00000000000E+00 0.  1.
          2    1    6    6  502    0  0.50350490408E+03 -0.17764251845E+03  0.27316251002E+03  0.59974311974E+03  0.00000000000E+00 0. -1.
          1    1    5    5  503    0 -0.22805874944E+03  0.82446104876E+02  0.19652140727E+03  0.31213589496E+03  0.00000000000E+00 0. -1.
         -2    1    5    5    0  503 -0.61433074892E+02  0.32498856762E+01  0.10942234890E+02  0.62484533702E+02  0.00000000000E+00 0.  1.
         -1    1    6    6    0  502  0.10980820129E+03 -0.10740401208E+01  0.57746485092E+02  0.12407115367E+03  0.00000000000E+00 0.  1.
<mgrwt>
<rscale>  0 0.14257918E+04</rscale>
<asrwt>0</asrwt>
<pdfrwt beam="1">  1        2 0.24471351E+00 0.14257918E+04</pdfrwt>
<pdfrwt beam="2">  1       -2 0.49154984E-01 0.14257918E+04</pdfrwt>
<totfact> 0.42956364E+01</totfact>
</mgrwt>
</event>
<event>
12    1  0.1097093E-007  0.3089097E+04  0.7818608E-02  0.8218737E-01
          1   -1    0    0  501    0  0.00000000000E+00  0.00000000000E+00  0.19283809894E+04  0.19283809894E+04  0.00000000000E+00 0. -1.
         -1   -1    0    0    0  501 -0.00000000000E+00 -0.00000000000E+00 -0.12371153734E+04  0.12371153734E+04  0.00000000000E+00 0.  1.
         23    2    1    2    0    0  0.94951266369E+03  0.36303659222E+03  0.13223699412E+04  0.16704401865E+04  0.91314235350E+02 0.  0.
        254    2    1    2    0    0 -0.94951266369E+03 -0.36303659222E+03 -0.63110432520E+03  0.14950561763E+04  0.89639859167E+03 0.  0.
        -24    2    4    4    0    0 -0.54425109258E+03  0.25796848970E+03 -0.32222362159E+03  0.68757280939E+03  0.78557701414E+02 0.  0.
         24    2    4    4    0    0 -0.40526157111E+03 -0.62100508193E+03 -0.30888070361E+03  0.80748336689E+03  0.82084383032E+02 0.  0.
         13    1    3    3    0    0  0.85684822895E+03  0.33237407068E+03  0.12349923048E+04  0.15394373658E+04  0.00000000000E+00 0. -1.
        -13    1    3    3    0    0  0.92664434740E+02  0.30662521543E+02  0.87377636340E+02  0.13100282068E+03  0.00000000000E+00 0.  1.
          4    1    6    6  502    0 -0.42432647507E+02 -0.78876830085E+02 -0.10626011538E+02  0.90194212785E+02  0.00000000000E+00 0. -1.
          3    1    5    5  503    0 -0.10368474956E+03  0.50701212859E+02 -0.98547896975E+02  0.15176570191E+03  0.00000000000E+00 0. -1.
         -4    1    5    5    0  503 -0.44056634302E+03  0.20726727684E+03 -0.22367572462E+03  0.53580710749E+03  0.00000000000E+00 0.  1.
         -1    1    6    6    0  502 -0.36282892360E+03 -0.54212825184E+03 -0.29825469207E+03  0.71728915410E+03  0.00000000000E+00 0.  1.
<mgrwt>
<rscale>  0 0.30890968E+04</rscale>
<asrwt>0</asrwt>
<pdfrwt beam="1">  1        1 0.29667400E+00 0.30890968E+04</pdfrwt>
<pdfrwt beam="2">  1       -1 0.19032544E+00 0.30890968E+04</pdfrwt>
<totfact> 0.49481893E-01</totfact>
</mgrwt>
</event>
<event>
12    1  0.1097093E-007  0.1785693E+04  0.7818608E-02  0.8713945E-01
          2   -1    0    0  501    0  0.00000000000E+00  0.00000000000E+00  0.38081248918E+04  0.38081248918E+04  0.00000000000E+00 0. -1.
         -2   -1    0    0    0  501 -0.00000000000E+00 -0.00000000000E+00 -0.20933532859E+03  0.20933532859E+03  0.00000000000E+00 0.  1.
         23    2    1    2    0    0 -0.10067625080E+03 -0.39156709864E+03  0.25051608451E+04  0.25392069811E+04  0.90998532455E+02 0.  0.
        254    2    1    2    0    0  0.10067625080E+03  0.39156709864E+03  0.10936287182E+04  0.14782532394E+04  0.90870697488E+03 0.  0.
        -24    2    4    4    0    0 -0.31921495097E+03  0.39001758918E+02  0.76522921701E+03  0.83403210011E+03  0.81329375516E+02 0.  0.
         24    2    4    4    0    0  0.41989120176E+03  0.35256533972E+03  0.32839950118E+03  0.64422113925E+03  0.81016688310E+02 0.  0.
         13    1    3    3    0    0 -0.11502267608E+03 -0.36226167633E+03  0.22357596300E+04  0.22678370447E+04  0.00000000000E+00 0. -1.
        -13    1    3    3    0    0  0.14346425289E+02 -0.29305422306E+02  0.26940121509E+03  0.27136993641E+03  0.00000000000E+00 0.  1.
          4    1    6    6  502    0  0.10166460865E+03  0.43860469789E+02  0.71720994347E+02  0.13192169834E+03  0.00000000000E+00 0. -1.
          3    1    5    5  503    0 -0.43525663506E+02  0.34956628243E+02  0.13908129036E+03  0.14986678942E+03  0.00000000000E+00 0. -1.
         -2    1    5    5    0  503 -0.27568928746E+03  0.40451306753E+01  0.62614792665E+03  0.68416531069E+03  0.00000000000E+00 0.  1.
         -1    1    6    6    0  502  0.31822659311E+03  0.30870486993E+03  0.25667850683E+03  0.51229944090E+03  0.00000000000E+00 0.  1.
<mgrwt>
<rscale>  0 0.17856932E+04</rscale>
<asrwt>0</asrwt>
<pdfrwt beam="1">  1        2 0.58586532E+00 0.17856932E+04</pdfrwt>
<pdfrwt beam="2">  1       -2 0.32205438E-01 0.17856932E+04</pdfrwt>
<totfact> 0.41576475E+00</totfact>
</mgrwt>
</event>
<event>
12    1  0.1097093E-007  0.1314203E+04  0.7818608E-02  0.9018378E-01
         -2   -1    0    0    0  501 -0.00000000000E+00  0.00000000000E+00  0.40437271318E+03  0.40437271318E+03  0.00000000000E+00 0. -1.
          2   -1    0    0  501    0  0.00000000000E+00 -0.00000000000E+00 -0.10677824427E+04  0.10677824427E+04  0.00000000000E+00 0.  1.
         23    2    1    2    0    0 -0.26446716881E+02  0.50898967291E+02 -0.55511520925E+03  0.56527269580E+03  0.89945491101E+02 0.  0.
        254    2    1    2    0    0  0.26446716881E+02 -0.50898967291E+02 -0.10829452032E+03  0.90688246012E+03  0.89856438814E+03 0.  0.
        -24    2    4    4    0    0 -0.26656845061E+03 -0.36442877153E+03 -0.48690798710E+01  0.45841001041E+03  0.79050372065E+02 0.  0.
         24    2    4    4    0    0  0.29301516749E+03  0.31352980424E+03 -0.10342544045E+03  0.44847244971E+03  0.79195264343E+02 0.  0.
         11    1    3    3    0    0 -0.16706333134E+02  0.66429208787E+02 -0.52870435655E+03  0.53312309834E+03  0.00000000000E+00 0.  1.
        -11    1    3    3    0    0 -0.97403837466E+01 -0.15530241496E+02 -0.26410852697E+02  0.32149597457E+02  0.00000000000E+00 0. -1.
          4    1    6    6  502    0  0.20028881990E+03  0.16548463890E+03 -0.82189864428E+02  0.27249945120E+03  0.00000000000E+00 0. -1.
          3    1    5    5  503    0 -0.23645322190E+03 -0.29605606118E+03  0.20666596285E+02  0.37945543310E+03  0.00000000000E+00 0. -1.
         -4    1    5    5    0  503 -0.30115228710E+02 -0.68372710347E+02 -0.25535676156E+02  0.78954577304E+02  0.00000000000E+00 0.  1.
         -3    1    6    6    0  502  0.92726347594E+02  0.14804516534E+03 -0.21235576020E+02  0.17597299852E+03  0.00000000000E+00 0.  1.
<mgrwt>
<rscale>  0 0.13142025E+04</rscale>
<asrwt>0</asrwt>
<pdfrwt beam="1">  1        2 0.16427422E+00 0.13142025E+04</pdfrwt>
<pdfrwt beam="2">  1       -2 0.62211187E-01 0.13142025E+04</pdfrwt>
<totfact> 0.53582736E+01</totfact>
</mgrwt>
</event>
<event>
12    1  0.1097093E-007  0.1072250E+04  0.7818608E-02  0.9232669E-01
         -1   -1    0    0    0  501 -0.00000000000E+00  0.00000000000E+00  0.19019959787E+03  0.19019959787E+03  0.00000000000E+00 0.  1.
          1   -1    0    0  501    0  0.00000000000E+00 -0.00000000000E+00 -0.15112024527E+04  0.15112024527E+04  0.00000000000E+00 0. -1.
         23    2    1    2    0    0 -0.72398570944E+01 -0.95558853411E+02 -0.36074354079E+03  0.38403673128E+03  0.90357062532E+02 0.  0.
        254    2    1    2    0    0  0.72398570944E+01  0.95558853411E+02 -0.96025931408E+03  0.13173653193E+04  0.89675499682E+03 0.  0.
        -24    2    4    4    0    0  0.29193399952E+03 -0.79630339203E+02 -0.16570962815E+02  0.31298363221E+03  0.78215767093E+02 0.  0.
         24    2    4    4    0    0 -0.28469414243E+03  0.17518919261E+03 -0.94368835126E+03  0.10043816871E+04  0.80578292274E+02 0.  0.
         13    1    3    3    0    0 -0.17487529508E+02 -0.25963433614E+02 -0.22487909941E+02  0.38543737064E+02  0.00000000000E+00 0.  1.
        -13    1    3    3    0    0  0.10247672414E+02 -0.69595419797E+02 -0.33825563085E+03  0.34549299421E+03  0.00000000000E+00 0. -1.
          2    1    6    6  502    0 -0.17279383875E+03  0.13340136120E+03 -0.51482458207E+03  0.55919404877E+03  0.00000000000E+00 0. -1.
          3    1    5    5  503    0  0.24489256411E+03 -0.93566882080E+02 -0.24435170012E+02  0.26329490484E+03  0.00000000000E+00 0. -1.
         -4    1    5    5    0  503  0.47041435413E+02  0.13936542876E+02  0.78642071972E+01  0.49688727372E+02  0.00000000000E+00 0.  1.
         -1    1    6    6    0  502 -0.11190030368E+03  0.41787831419E+02 -0.42886376919E+03  0.44518763836E+03  0.00000000000E+00 0.  1.
<mgrwt>
<rscale>  0 0.10722502E+04</rscale>
<asrwt>0</asrwt>
<pdfrwt beam="1">  1        1 0.23249269E+00 0.10722502E+04</pdfrwt>
<pdfrwt beam="2">  1       -1 0.29261476E-01 0.10722502E+04</pdfrwt>
<totfact> 0.68366692E+01</totfact>
</mgrwt>
</event>
<event>
12    1  0.1097093E-007  0.2869940E+04  0.7818608E-02  0.8281878E-01
         -2   -1    0    0    0  501 -0.00000000000E+00  0.00000000000E+00  0.75637494610E+03  0.75637494610E+03  0.00000000000E+00 0.  1.
          2   -1    0    0  501    0  0.00000000000E+00 -0.00000000000E+00 -0.27223783147E+04  0.27223783147E+04  0.00000000000E+00 0. -1.
         23    2    1    2    0    0 -0.92696129421E+03 -0.11429522822E+03  0.18675336392E+03  0.95691739934E+03  0.92159915777E+02 0.  0.
        254    2    1    2    0    0  0.92696129421E+03  0.11429522822E+03 -0.21527567325E+04  0.25218358614E+04  0.92356587342E+03 0.  0.
        -24    2    4    4    0    0  0.33161103088E+03 -0.39078499678E+03 -0.10145648454E+04  0.11394780296E+04  0.79934754341E+02 0.  0.
         24    2    4    4    0    0  0.59535026332E+03  0.50508022500E+03 -0.11381918871E+04  0.13823578318E+04  0.76710061883E+02 0.  0.
         11    1    3    3    0    0 -0.62814369586E+02 -0.37811178515E+01 -0.10192980369E+02  0.63748244897E+02  0.00000000000E+00 0. -1.
        -11    1    3    3    0    0 -0.86414692462E+03 -0.11051411037E+03  0.19694634429E+03  0.89316915444E+03  0.00000000000E+00 0.  1.
          2    1    6    6  502    0  0.29267486859E+03  0.22453035661E+03 -0.59687018034E+03  0.70165979785E+03  0.00000000000E+00 0. -1.
          3    1    5    5  503    0  0.39610327927E+02 -0.71758998686E+02 -0.11354230559E+03  0.14003637788E+03  0.00000000000E+00 0. -1.
         -4    1    5    5    0  503  0.29200070296E+03 -0.31902599810E+03 -0.90102253980E+03  0.99944165173E+03  0.00000000000E+00 0.  1.
         -1    1    6    6    0  502  0.30267539473E+03  0.28054986839E+03 -0.54132170678E+03  0.68069803398E+03  0.00000000000E+00 0.  1.
<mgrwt>
<rscale>  0 0.28699399E+04</rscale>
<asrwt>0</asrwt>
<pdfrwt beam="1">  1        2 0.41882744E+00 0.28699399E+04</pdfrwt>
<pdfrwt beam="2">  1       -2 0.11636537E+00 0.28699399E+04</pdfrwt>
<totfact> 0.12758226E+00</totfact>
</mgrwt>
</event>
<event>
12    1  0.1097093E-007  0.2258141E+04  0.7818608E-02  0.8494611E-01
         -1   -1    0    0    0  501 -0.00000000000E+00  0.00000000000E+00  0.25931936163E+04  0.25931936163E+04  0.00000000000E+00 0.  1.
          1   -1    0    0  501    0  0.00000000000E+00 -0.00000000000E+00 -0.49159476317E+03  0.49159476317E+03  0.00000000000E+00 0. -1.
         23    2    1    2    0    0  0.61870011818E+03 -0.18971193499E+03  0.18244176574E+04  0.19379483015E+04  0.91451496744E+02 0.  0.
        254    2    1    2    0    0 -0.61870011818E+03  0.18971193499E+03  0.27718119578E+03  0.11468400780E+04  0.90533545974E+03 0.  0.
        -24    2    4    4    0    0  0.20016254507E+03  0.96047412479E+02  0.21059907749E+03  0.31662162379E+03  0.81284262433E+02 0.  0.
         24    2    4    4    0    0 -0.81886266325E+03  0.93664522516E+02  0.66582118297E+02  0.83021845420E+03  0.74299388849E+02 0.  0.
         13    1    3    3    0    0  0.30460334777E+03 -0.73531589832E+02  0.10056374505E+04  0.10533265287E+04  0.00000000000E+00 0. -1.
        -13    1    3    3    0    0  0.31409677041E+03 -0.11618034516E+03  0.81878020682E+03  0.88462177278E+03  0.00000000000E+00 0.  1.
          4    1    6    6  502    0 -0.21997964027E+03  0.53530759763E+02  0.35715841088E+02  0.22919905252E+03  0.00000000000E+00 0. -1.
          3    1    5    5  503    0  0.10845080375E+03  0.24625509771E+02  0.59953978904E+02  0.12634267748E+03  0.00000000000E+00 0. -1.
         -4    1    5    5    0  503  0.91711741317E+02  0.71421902708E+02  0.15064509858E+03  0.19027894631E+03  0.00000000000E+00 0.  1.
         -3    1    6    6    0  502 -0.59888302298E+03  0.40133762753E+02  0.30866277208E+02  0.60101940168E+03  0.00000000000E+00 0.  1.
<mgrwt>
<rscale>  0 0.22581412E+04</rscale>
<asrwt>0</asrwt>
<pdfrwt beam="1">  1        1 0.75629965E-01 0.22581412E+04</pdfrwt>
<pdfrwt beam="2">  1       -1 0.39895286E+00 0.22581412E+04</pdfrwt>
<totfact> 0.29955186E-01</totfact>
</mgrwt>
</event>
<event>
12    1  0.1097093E-007  0.1197968E+04  0.7818608E-02  0.9114637E-01
         -2   -1    0    0    0  501 -0.00000000000E+00  0.00000000000E+00  0.24348358065E+03  0.24348358065E+03  0.00000000000E+00 0.  1.
          2   -1    0    0  501    0  0.00000000000E+00 -0.00000000000E+00 -0.14735357895E+04  0.14735357895E+04  0.00000000000E+00 0. -1.
         23    2    1    2    0    0 -0.79533840848E+02  0.91947169838E+02  0.44878874628E+02  0.15851898108E+03  0.91292059320E+02 0.  0.
        254    2    1    2    0    0  0.79533840848E+02 -0.91947169838E+02 -0.12749310835E+04  0.15585003890E+04  0.88808461376E+03 0.  0.
        -24    2    4    4    0    0 -0.18025438206E+03  0.21499346993E+03 -0.91283898079E+02  0.30586604217E+03  0.80668775503E+02 0.  0.
         24    2    4    4    0    0  0.25978822291E+03 -0.30694063976E+03 -0.11836471854E+04  0.12526343469E+04  0.79810215021E+02 0.  0.
         13    1    3    3    0    0 -0.27793912678E+02  0.91391653491E+02  0.47554541323E+02  0.10670693656E+03  0.00000000000E+00 0. -1.
        -13    1    3    3    0    0 -0.51739928169E+02  0.55551634672E+00 -0.26756666952E+01  0.51812044523E+02  0.00000000000E+00 0.  1.
          4    1    6    6  502    0  0.18605869986E+03 -0.26834160841E+03 -0.92679706431E+03  0.98263821267E+03  0.00000000000E+00 0. -1.
          1    1    5    5  503    0 -0.15220553157E+03  0.21393062048E+03 -0.90749941347E+02  0.27779198346E+03  0.00000000000E+00 0. -1.
         -2    1    5    5    0  503 -0.28048850490E+02  0.10628494474E+01 -0.53395673266E+00  0.28074058712E+02  0.00000000000E+00 0.  1.
         -3    1    6    6    0  502  0.73729523051E+02 -0.38599031352E+02 -0.25685012107E+03  0.26999613420E+03  0.00000000000E+00 0.  1.
<mgrwt>
<rscale>  0 0.11979679E+04</rscale>
<asrwt>0</asrwt>
<pdfrwt beam="1">  1        2 0.22669782E+00 0.11979679E+04</pdfrwt>
<pdfrwt beam="2">  1       -2 0.37459012E-01 0.11979679E+04</pdfrwt>
<totfact> 0.87103622E+01</totfact>
</mgrwt>
</event>
<event>
12    1  0.1097093E-007  0.4035247E+04  0.7818608E-02  0.7997474E-01
          2   -1    0    0  501    0  0.00000000000E+00  0.00000000000E+00  0.18948868178E+04  0.18948868178E+04  0.00000000000E+00 0. -1.
         -2   -1    0    0    0  501 -0.00000000000E+00 -0.00000000000E+00 -0.21483098940E+04  0.21483098940E+04  0.00000000000E+00 0.  1.
         23    2    1    2    0    0 -0.66551437695E+03 -0.10100985012E+04 -0.16089936986E+04  0.20154570675E+04  0.99990502788E+02 0.  0.
        254    2    1    2    0    0  0.66551437695E+03  0.10100985012E+04  0.13555706225E+04  0.20277396443E+04  0.90052650388E+03 0.  0.
        -24    2    4    4    0    0  0.33189232602E+03 -0.14066358427E+01  0.68812560625E+03  0.76823336743E+03  0.80691772526E+02 0.  0.
         24    2    4    4    0    0  0.33362205093E+03  0.10115051371E+04  0.66744501627E+03  0.12595062769E+04  0.80167926652E+02 0.  0.
         13    1    3    3    0    0 -0.42719433666E+03 -0.61517040135E+03 -0.91990057089E+03  0.11862321376E+04  0.00000000000E+00 0.  1.
        -13    1    3    3    0    0 -0.23832004029E+03 -0.39492809989E+03 -0.68909312775E+03  0.82922492992E+03  0.00000000000E+00 0. -1.
          2    1    6    6  502    0  0.22781873108E+03  0.78267433228E+03  0.48811761761E+03  0.95012593547E+03  0.00000000000E+00 0. -1.
          3    1    5    5  503    0  0.21994190044E+03 -0.32067637876E+02  0.39999017533E+03  0.45759688955E+03  0.00000000000E+00 0. -1.
         -4    1    5    5    0  503  0.11195042558E+03  0.30661002034E+02  0.28813543092E+03  0.31063647788E+03  0.00000000000E+00 0.  1.
         -1    1    6    6    0  502  0.10580331985E+03  0.22883080481E+03  0.17932739866E+03  0.30938034138E+03  0.00000000000E+00 0.  1.
<mgrwt>
<rscale>  0 0.40352468E+04</rscale>
<asrwt>0</asrwt>
<pdfrwt beam="1">  1        2 0.29152105E+00 0.40352468E+04</pdfrwt>
<pdfrwt beam="2">  1       -2 0.33050922E+00 0.40352468E+04</pdfrwt>
<totfact> 0.12389059E-01</totfact>
</mgrwt>
</event>
<event>
12    1  0.1097093E-007  0.1563237E+04  0.7818608E-02  0.8843457E-01
         -2   -1    0    0    0  501 -0.00000000000E+00  0.00000000000E+00  0.16123188098E+03  0.16123188098E+03  0.00000000000E+00 0.  1.
          2   -1    0    0  501    0  0.00000000000E+00 -0.00000000000E+00 -0.37891211065E+04  0.37891211065E+04  0.00000000000E+00 0. -1.
         23    2    1    2    0    0 -0.51723871010E+02  0.48729161696E+03 -0.14897589073E+04  0.15706216119E+04  0.85686446543E+02 0.  0.
        254    2    1    2    0    0  0.51723871010E+02 -0.48729161696E+03 -0.21381303182E+04  0.23797313755E+04  0.92270888333E+03 0.  0.
        -24    2    4    4    0    0  0.11135801206E+03  0.20354381711E+03 -0.19017850447E+03  0.31050906694E+03  0.80108206524E+02 0.  0.
         24    2    4    4    0    0 -0.59634141052E+02 -0.69083543408E+03 -0.19479518137E+04  0.20692223086E+04  0.79717414038E+02 0.  0.
         13    1    3    3    0    0 -0.42515421734E+02  0.91584204423E+02 -0.33701521568E+03  0.35181597915E+03  0.00000000000E+00 0. -1.
        -13    1    3    3    0    0 -0.92084492761E+01  0.39570741254E+03 -0.11527436917E+04  0.12188056328E+04  0.00000000000E+00 0.  1.
          4    1    6    6  502    0 -0.21584194514E+02 -0.34902157965E+03 -0.86653216712E+03  0.93443027411E+03  0.00000000000E+00 0. -1.
          1    1    5    5  503    0  0.66822853849E+02  0.95709097054E+02 -0.14317225938E+03  0.18472634060E+03  0.00000000000E+00 0. -1.
         -2    1    5    5    0  503  0.44535158213E+02  0.10783472006E+03 -0.47006245091E+02  0.12578272634E+03  0.00000000000E+00 0.  1.
         -3    1    6    6    0  502 -0.38049946538E+02 -0.34181385443E+03 -0.10814196466E+04  0.11347920345E+04  0.00000000000E+00 0.  1.
<mgrwt>
<rscale>  0 0.15632365E+04</rscale>
<asrwt>0</asrwt>
<pdfrwt beam="1">  1        2 0.58294163E+00 0.15632365E+04</pdfrwt>
<pdfrwt beam="2">  1       -2 0.24804908E-01 0.15632365E+04</pdfrwt>
<totfact> 0.71273102E+00</totfact>
</mgrwt>
</event>
<event>
12    1  0.1097093E-007  0.2073399E+04  0.7818608E-02  0.8573053E-01
         -1   -1    0    0    0  501 -0.00000000000E+00  0.00000000000E+00  0.10081555845E+04  0.10081555845E+04  0.00000000000E+00 0.  1.
          1   -1    0    0  501    0  0.00000000000E+00 -0.00000000000E+00 -0.10660517851E+04  0.10660517851E+04  0.00000000000E+00 0. -1.
         23    2    1    2    0    0 -0.69909068360E+03  0.44906486060E+03  0.11520116197E+03  0.84388040976E+03  0.92064137085E+02 0.  0.
        254    2    1    2    0    0  0.69909068360E+03 -0.44906486060E+03 -0.17309736254E+03  0.12303269599E+04  0.89070460785E+03 0.  0.
        -24    2    4    4    0    0  0.42133844877E+03  0.19504802329E+03  0.84742159330E+02  0.47853401603E+03  0.79017410302E+02 0.  0.
         24    2    4    4    0    0  0.27775223483E+03 -0.64411288389E+03 -0.25783952187E+03  0.75179294388E+03  0.81753900730E+02 0.  0.
         13    1    3    3    0    0 -0.18039226867E+03  0.13061402427E+03  0.70421030814E+02  0.23358192463E+03  0.00000000000E+00 0. -1.
        -13    1    3    3    0    0 -0.51869841492E+03  0.31845083633E+03  0.44780131160E+02  0.61029848513E+03  0.00000000000E+00 0.  1.
          2    1    6    6  502    0  0.25274692852E+03 -0.56794813514E+03 -0.25399853241E+03  0.67153655787E+03  0.00000000000E+00 0. -1.
          1    1    5    5  503    0  0.25123734562E+03  0.11387284449E+03  0.89502243777E+02  0.28999634513E+03  0.00000000000E+00 0. -1.
         -2    1    5    5    0  503  0.17010110315E+03  0.81175178801E+02 -0.47600844474E+01  0.18853767090E+03  0.00000000000E+00 0.  1.
         -1    1    6    6    0  502  0.25005306301E+02 -0.76164748741E+02 -0.38409894559E+01  0.80256386002E+02  0.00000000000E+00 0.  1.
<mgrwt>
<rscale>  0 0.20733992E+04</rscale>
<asrwt>0</asrwt>
<pdfrwt beam="1">  1        1 0.16400797E+00 0.20733992E+04</pdfrwt>
<pdfrwt beam="2">  1       -1 0.15510086E+00 0.20733992E+04</pdfrwt>
<totfact> 0.39507731E+00</totfact>
</mgrwt>
</event>
<event>
12    1  0.1097093E-007  0.1023928E+04  0.7818608E-02  0.9282683E-01
         -2   -1    0    0    0  501 -0.00000000000E+00  0.00000000000E+00  0.30279568066E+03  0.30279568066E+03  0.00000000000E+00 0. -1.
          2   -1    0    0  501    0  0.00000000000E+00 -0.00000000000E+00 -0.86562398896E+03  0.86562398896E+03  0.00000000000E+00 0.  1.
         23    2    1    2    0    0 -0.77222508693E+01 -0.61902819529E+01  0.24897567439E+02  0.94584853139E+02  0.90710819805E+02 0.  0.
        254    2    1    2    0    0  0.77222508693E+01  0.61902819529E+01 -0.58772587574E+03  0.10738348165E+04  0.89866654290E+03 0.  0.
        -24    2    4    4    0    0  0.33312631144E+02  0.31731132920E+03 -0.66605684966E+03  0.74250061939E+03  0.76676148699E+02 0.  0.
         24    2    4    4    0    0 -0.25590380275E+02 -0.31112104725E+03  0.78330973922E+02  0.33133419709E+03  0.78711086139E+02 0.  0.
         13    1    3    3    0    0  0.13444172807E+02  0.23117044425E+02 -0.22517687539E+02  0.34959830914E+02  0.00000000000E+00 0.  1.
        -13    1    3    3    0    0 -0.21166423676E+02 -0.29307326378E+02  0.47415254978E+02  0.59625022225E+02  0.00000000000E+00 0. -1.
          4    1    6    6  502    0  0.15725548781E+02 -0.12086136732E+02  0.18412438873E+01  0.19918779195E+02  0.00000000000E+00 0. -1.
          3    1    5    5  503    0  0.38608031650E+02  0.64813952638E+02 -0.14407059193E+03  0.16262768529E+03  0.00000000000E+00 0. -1.
         -4    1    5    5    0  503 -0.52954005058E+01  0.25249737656E+03 -0.52198625773E+03  0.57987293410E+03  0.00000000000E+00 0.  1.
         -3    1    6    6    0  502 -0.41315929055E+02 -0.29903491052E+03  0.76489730034E+02  0.31141541790E+03  0.00000000000E+00 0.  1.
<mgrwt>
<rscale>  0 0.10239281E+04</rscale>
<asrwt>0</asrwt>
<pdfrwt beam="1">  1        2 0.13317292E+00 0.10239281E+04</pdfrwt>
<pdfrwt beam="2">  1       -2 0.46583951E-01 0.10239281E+04</pdfrwt>
<totfact> 0.13480470E+02</totfact>
</mgrwt>
</event>
<event>
12    1  0.1097093E-007  0.1286770E+04  0.7818608E-02  0.9040123E-01
          2   -1    0    0  501    0  0.00000000000E+00  0.00000000000E+00  0.13228753474E+04  0.13228753474E+04  0.00000000000E+00 0. -1.
         -2   -1    0    0    0  501 -0.00000000000E+00 -0.00000000000E+00 -0.31291238497E+03  0.31291238497E+03  0.00000000000E+00 0.  1.
         23    2    1    2    0    0 -0.12556422328E+03  0.27161763221E+03  0.40344039462E+03  0.50966483330E+03  0.86322523139E+02 0.  0.
        254    2    1    2    0    0  0.12556422328E+03 -0.27161763221E+03  0.60652256776E+03  0.11261228990E+04  0.90041137610E+03 0.  0.
        -24    2    4    4    0    0 -0.15069922649E+03  0.22113603908E+03  0.45854809643E+03  0.53682960524E+03  0.79424578561E+02 0.  0.
         24    2    4    4    0    0  0.27626344977E+03 -0.49275367129E+03  0.14797447133E+03  0.58929329378E+03  0.79009288571E+02 0.  0.
         11    1    3    3    0    0 -0.70314418262E+02  0.97635059253E+02  0.10433682113E+03  0.15925732151E+03  0.00000000000E+00 0.  1.
        -11    1    3    3    0    0 -0.55249805015E+02  0.17398257296E+03  0.29910357349E+03  0.35040751180E+03  0.00000000000E+00 0. -1.
          4    1    6    6  502    0  0.17552436152E+03 -0.28517398276E+03  0.12494751407E+03  0.35741416201E+03  0.00000000000E+00 0. -1.
          1    1    5    5  503    0 -0.14852587809E+03  0.19531637765E+03  0.36538392589E+03  0.44012934138E+03  0.00000000000E+00 0. -1.
         -2    1    5    5    0  503 -0.21733484058E+01  0.25819661426E+02  0.93164170539E+02  0.96700263866E+02  0.00000000000E+00 0.  1.
         -1    1    6    6    0  502  0.10073908825E+03 -0.20757968853E+03  0.23026957258E+02  0.23187913177E+03  0.00000000000E+00 0.  1.
<mgrwt>
<rscale>  0 0.12867697E+04</rscale>
<asrwt>0</asrwt>
<pdfrwt beam="1">  1        2 0.20351928E+00 0.12867697E+04</pdfrwt>
<pdfrwt beam="2">  1       -2 0.48140368E-01 0.12867697E+04</pdfrwt>
<totfact> 0.64273141E+01</totfact>
</mgrwt>
</event>
<event>
12    1  0.1097093E-007  0.1682428E+04  0.7818608E-02  0.8771450E-01
         -1   -1    0    0    0  501 -0.00000000000E+00  0.00000000000E+00  0.10311470542E+04  0.10311470542E+04  0.00000000000E+00 0.  1.
          1   -1    0    0  501    0  0.00000000000E+00 -0.00000000000E+00 -0.68626612090E+03  0.68626612090E+03  0.00000000000E+00 0. -1.
         23    2    1    2    0    0  0.47666412791E+03 -0.15078118866E+02 -0.24573885752E+03  0.54411792577E+03  0.90778249308E+02 0.  0.
        254    2    1    2    0    0 -0.47666412791E+03  0.15078118866E+02  0.59061979080E+03  0.11732952493E+04  0.89462504118E+03 0.  0.
        -24    2    4    4    0    0  0.37034181577E+02 -0.30693690434E+03 -0.52360319363E+01  0.31953227109E+03  0.80570853219E+02 0.  0.
         24    2    4    4    0    0 -0.51369830949E+03  0.32201502320E+03  0.59585582274E+03  0.85376297824E+03  0.79293336292E+02 0.  0.
         11    1    3    3    0    0  0.19992792518E+03 -0.17318720234E+02 -0.15264581409E+03  0.25213460273E+03  0.00000000000E+00 0. -1.
        -11    1    3    3    0    0  0.27673620273E+03  0.22406013681E+01 -0.93093043424E+02  0.29198332304E+03  0.00000000000E+00 0.  1.
          2    1    6    6  502    0 -0.28670993283E+03  0.17162408908E+03  0.38205787070E+03  0.50756835017E+03  0.00000000000E+00 0. -1.
          3    1    5    5  503    0 -0.50751292771E+01 -0.10674955326E+03  0.32095535601E+02  0.11158560599E+03  0.00000000000E+00 0. -1.
         -2    1    5    5    0  503  0.42109310855E+02 -0.20018735107E+03 -0.37331567538E+02  0.20794666510E+03  0.00000000000E+00 0.  1.
         -1    1    6    6    0  502 -0.22698837666E+03  0.15039093412E+03  0.21379795204E+03  0.34619462807E+03  0.00000000000E+00 0.  1.
<mgrwt>
<rscale>  0 0.16824284E+04</rscale>
<asrwt>0</asrwt>
<pdfrwt beam="1">  1        1 0.10557940E+00 0.16824284E+04</pdfrwt>
<pdfrwt beam="2">  1       -1 0.15863801E+00 0.16824284E+04</pdfrwt>
<totfact> 0.80081540E+00</totfact>
</mgrwt>
</event>
<event>
12    1  0.1097093E-007  0.1947332E+04  0.7818608E-02  0.8631649E-01
          2   -1    0    0  501    0  0.00000000000E+00  0.00000000000E+00  0.58561174446E+03  0.58561174446E+03  0.00000000000E+00 0.  1.
         -2   -1    0    0    0  501 -0.00000000000E+00 -0.00000000000E+00 -0.16188630759E+04  0.16188630759E+04  0.00000000000E+00 0. -1.
         23    2    1    2    0    0 -0.92321923122E+02 -0.43549560530E+03  0.28963727131E+03  0.53877426074E+03  0.90599091491E+02 0.  0.
        254    2    1    2    0    0  0.92321923122E+02  0.43549560530E+03 -0.13228886028E+04  0.16657005597E+04  0.90903483944E+03 0.  0.
        -24    2    4    4    0    0 -0.23561350642E+03  0.36095303902E+03 -0.12334390647E+04  0.13087787042E+04  0.75689823907E+02 0.  0.
         24    2    4    4    0    0  0.32793542954E+03  0.74542566280E+02 -0.89449538042E+02  0.35692185542E+03  0.79333163817E+02 0.  0.
         13    1    3    3    0    0 -0.73671600555E+02 -0.14287803172E+03  0.11251592455E+03  0.19621791446E+03  0.00000000000E+00 0. -1.
        -13    1    3    3    0    0 -0.18650322567E+02 -0.29261757359E+03  0.17712134676E+03  0.34255634629E+03  0.00000000000E+00 0.  1.
          2    1    6    6  502    0  0.13468115900E+03  0.11548450959E+02 -0.71363921240E+02  0.15285676486E+03  0.00000000000E+00 0. -1.
          1    1    5    5  503    0 -0.77464720836E+02  0.64137448103E+02 -0.31737538336E+03  0.33292871488E+03  0.00000000000E+00 0. -1.
         -2    1    5    5    0  503 -0.15814878558E+03  0.29681559092E+03 -0.91606368138E+03  0.97584998936E+03  0.00000000000E+00 0.  1.
         -1    1    6    6    0  502  0.19325427055E+03  0.62994115321E+02 -0.18085616802E+02  0.20406509056E+03  0.00000000000E+00 0.  1.
<mgrwt>
<rscale>  0 0.19473317E+04</rscale>
<asrwt>0</asrwt>
<pdfrwt beam="1">  1        2 0.90094115E-01 0.19473317E+04</pdfrwt>
<pdfrwt beam="2">  1       -2 0.24905586E+00 0.19473317E+04</pdfrwt>
<totfact> 0.31028506E+00</totfact>
</mgrwt>
</event>
<event>
12    1  0.1097093E-007  0.1756178E+04  0.7818608E-02  0.8729957E-01
         -1   -1    0    0    0  501 -0.00000000000E+00  0.00000000000E+00  0.75779650091E+03  0.75779650091E+03  0.00000000000E+00 0.  1.
          1   -1    0    0  501    0  0.00000000000E+00 -0.00000000000E+00 -0.10174771994E+04  0.10174771994E+04  0.00000000000E+00 0. -1.
         23    2    1    2    0    0 -0.59788646425E+03 -0.21215391758E+03 -0.88077974343E+02  0.64700853083E+03  0.91568556417E+02 0.  0.
        254    2    1    2    0    0  0.59788646425E+03  0.21215391758E+03 -0.17160272411E+03  0.11282651694E+04  0.91709175591E+03 0.  0.
        -24    2    4    4    0    0  0.73258341400E+03  0.23172531405E+03  0.13420419345E+03  0.78408646306E+03  0.80035844361E+02 0.  0.
         24    2    4    4    0    0 -0.13469694975E+03 -0.19571396472E+02 -0.30580691756E+03  0.34417870638E+03  0.80092466973E+02 0.  0.
         11    1    3    3    0    0 -0.16729124316E+03 -0.29263999302E+02  0.54777114782E+01  0.16991982526E+03  0.00000000000E+00 0.  1.
        -11    1    3    3    0    0 -0.43059522109E+03 -0.18288991828E+03 -0.93555685822E+02  0.47708870557E+03  0.00000000000E+00 0. -1.
          2    1    6    6  502    0 -0.11375705367E+03 -0.25530512882E+02 -0.16697157002E+03  0.20364670275E+03  0.00000000000E+00 0. -1.
          1    1    5    5  503    0  0.50899807495E+03  0.19850143226E+03  0.88111189978E+02  0.55339447116E+03  0.00000000000E+00 0. -1.
         -2    1    5    5    0  503  0.22358533905E+03  0.33223881787E+02  0.46093003469E+02  0.23069199190E+03  0.00000000000E+00 0.  1.
         -1    1    6    6    0  502 -0.20939896078E+02  0.59591164108E+01 -0.13883534754E+03  0.14053200363E+03  0.00000000000E+00 0.  1.
<mgrwt>
<rscale>  0 0.17561784E+04</rscale>
<asrwt>0</asrwt>
<pdfrwt beam="1">  1        1 0.15653495E+00 0.17561784E+04</pdfrwt>
<pdfrwt beam="2">  1       -1 0.11658408E+00 0.17561784E+04</pdfrwt>
<totfact> 0.92254794E+00</totfact>
</mgrwt>
</event>
<event>
12    1  0.1097093E-007  0.1458248E+04  0.7818608E-02  0.8912702E-01
         -1   -1    0    0    0  501 -0.00000000000E+00  0.00000000000E+00  0.20508640469E+03  0.20508640469E+03  0.00000000000E+00 0.  1.
          1   -1    0    0  501    0  0.00000000000E+00 -0.00000000000E+00 -0.25921850489E+04  0.25921850489E+04  0.00000000000E+00 0. -1.
         23    2    1    2    0    0  0.10158870472E+03  0.39192460149E+03 -0.14914507033E+04  0.15481267460E+04  0.91356790775E+02 0.  0.
        254    2    1    2    0    0 -0.10158870472E+03 -0.39192460149E+03 -0.89564794090E+03  0.12491447075E+04  0.77087749233E+03 0.  0.
        -24    2    4    4    0    0 -0.24074419717E+03 -0.65788077585E+02 -0.84217585300E+03  0.88184913765E+03  0.78178606919E+02 0.  0.
         24    2    4    4    0    0  0.13915549244E+03 -0.32613652390E+03 -0.53472087899E+02  0.36729556989E+03  0.79482628157E+02 0.  0.
         11    1    3    3    0    0  0.13753281407E+02  0.14817748522E+03 -0.68893523858E+03  0.70482443405E+03  0.00000000000E+00 0. -1.
        -11    1    3    3    0    0  0.87835423314E+02  0.24374711626E+03 -0.80251546472E+03  0.84330231198E+03  0.00000000000E+00 0.  1.
          4    1    6    6  502    0  0.88801330715E+02 -0.15288105904E+03 -0.60137511940E+02  0.18674799836E+03  0.00000000000E+00 0. -1.
          3    1    5    5  503    0 -0.18480237952E+02 -0.51905267797E+01 -0.18863982689E+02  0.26913019265E+02  0.00000000000E+00 0. -1.
         -4    1    5    5    0  503 -0.22226395921E+03 -0.60597550805E+02 -0.82331187031E+03  0.85493611839E+03  0.00000000000E+00 0.  1.
         -1    1    6    6    0  502  0.50354161729E+02 -0.17325546486E+03  0.66654240415E+01  0.18054757153E+03  0.00000000000E+00 0.  1.
<mgrwt>
<rscale>  0 0.14582481E+04</rscale>
<asrwt>0</asrwt>
<pdfrwt beam="1">  1        1 0.39879769E+00 0.14582481E+04</pdfrwt>
<pdfrwt beam="2">  1       -1 0.31551755E-01 0.14582481E+04</pdfrwt>
<totfact> 0.10625274E+01</totfact>
</mgrwt>
</event>
<event>
12    1  0.1097093E-007  0.1941090E+04  0.7818608E-02  0.8634669E-01
          1   -1    0    0  501    0  0.00000000000E+00  0.00000000000E+00  0.74195098959E+03  0.74195098959E+03  0.00000000000E+00 0. -1.
         -1   -1    0    0    0  501 -0.00000000000E+00 -0.00000000000E+00 -0.12695687679E+04  0.12695687679E+04  0.00000000000E+00 0.  1.
         23    2    1    2    0    0  0.28978491272E+03  0.27602539986E+03  0.45901525696E+03  0.61489586210E+03  0.85068196698E+02 0.  0.
        254    2    1    2    0    0 -0.28978491272E+03 -0.27602539986E+03 -0.98663303533E+03  0.13966238954E+04  0.90385189157E+03 0.  0.
        -24    2    4    4    0    0 -0.12054462540E+03  0.29399177825E+03 -0.59798635146E+03  0.68191086520E+03  0.80327947514E+02 0.  0.
         24    2    4    4    0    0 -0.16924028731E+03 -0.57001717811E+03 -0.38864668387E+03  0.71471303024E+03  0.78782057125E+02 0.  0.
         13    1    3    3    0    0  0.13016436582E+03  0.76975236878E+02  0.20621288833E+03  0.25571801762E+03  0.00000000000E+00 0.  1.
        -13    1    3    3    0    0  0.15962054690E+03  0.19905016298E+03  0.25280236863E+03  0.35917784447E+03  0.00000000000E+00 0. -1.
          2    1    6    6  502    0 -0.12404641016E+01 -0.23304727437E+02 -0.21390608511E+00  0.23338698077E+02  0.00000000000E+00 0. -1.
          3    1    5    5  503    0 -0.70760771903E+02  0.11422444868E+03 -0.32081684033E+03  0.34781856845E+03  0.00000000000E+00 0. -1.
         -4    1    5    5    0  503 -0.49783853501E+02  0.17976732957E+03 -0.27716951113E+03  0.33409229675E+03  0.00000000000E+00 0.  1.
         -1    1    6    6    0  502 -0.16799982321E+03 -0.54671245067E+03 -0.38843277778E+03  0.69137433216E+03  0.00000000000E+00 0.  1.
<mgrwt>
<rscale>  0 0.19410902E+04</rscale>
<asrwt>0</asrwt>
<pdfrwt beam="1">  1        1 0.11414631E+00 0.19410902E+04</pdfrwt>
<pdfrwt beam="2">  1       -1 0.19531827E+00 0.19410902E+04</pdfrwt>
<totfact> 0.37660470E+00</totfact>
</mgrwt>
</event>
<event>
12    1  0.1097093E-007  0.1114635E+04  0.7818608E-02  0.9191044E-01
          2   -1    0    0  501    0  0.00000000000E+00  0.00000000000E+00  0.29943839369E+03  0.29943839369E+03  0.00000000000E+00 0.  1.
         -2   -1    0    0    0  501 -0.00000000000E+00 -0.00000000000E+00 -0.10372836657E+04  0.10372836657E+04  0.00000000000E+00 0. -1.
         23    2    1    2    0    0  0.37955806922E+02  0.47490303594E+02  0.59681849509E+02  0.12542335345E+03  0.92049563905E+02 0.  0.
        254    2    1    2    0    0 -0.37955806922E+02 -0.47490303594E+02 -0.79752712157E+03  0.12112987060E+04  0.90966976056E+03 0.  0.
        -24    2    4    4    0    0 -0.32368329918E+03 -0.33540046686E+03 -0.56544328685E+03  0.73739808661E+03  0.82252514598E+02 0.  0.
         24    2    4    4    0    0  0.28572749226E+03  0.28791016327E+03 -0.23208383472E+03  0.47390061938E+03  0.78653854133E+02 0.  0.
         13    1    3    3    0    0  0.14802452897E+02 -0.12653366941E+02  0.57753362728E+02  0.60948102621E+02  0.00000000000E+00 0. -1.
        -13    1    3    3    0    0  0.23153354025E+02  0.60143670535E+02  0.19284867812E+01  0.64475250828E+02  0.00000000000E+00 0.  1.
          2    1    6    6  502    0  0.50356118077E+02  0.22023885363E+02 -0.52362710087E+02  0.75912077839E+02  0.00000000000E+00 0. -1.
          1    1    5    5  503    0 -0.81050920746E+02 -0.96790923136E+02 -0.21211745450E+03  0.24684316693E+03  0.00000000000E+00 0. -1.
         -2    1    5    5    0  503 -0.24263237843E+03 -0.23860954372E+03 -0.35332583235E+03  0.49055491968E+03  0.00000000000E+00 0.  1.
         -1    1    6    6    0  502  0.23537137418E+03  0.26588627790E+03 -0.17972112463E+03  0.39798854154E+03  0.00000000000E+00 0.  1.
<mgrwt>
<rscale>  0 0.11146346E+04</rscale>
<asrwt>0</asrwt>
<pdfrwt beam="1">  1        2 0.46067445E-01 0.11146346E+04</pdfrwt>
<pdfrwt beam="2">  1       -2 0.15958210E+00 0.11146346E+04</pdfrwt>
<totfact> 0.27656772E+01</totfact>
</mgrwt>
</event>
<event>
12    1  0.1097093E-007  0.1295653E+04  0.7818608E-02  0.9033020E-01
         -2   -1    0    0    0  501 -0.00000000000E+00  0.00000000000E+00  0.25686941207E+03  0.25686941207E+03  0.00000000000E+00 0. -1.
          2   -1    0    0  501    0  0.00000000000E+00 -0.00000000000E+00 -0.16338227324E+04  0.16338227324E+04  0.00000000000E+00 0.  1.
         23    2    1    2    0    0 -0.27888317051E+02  0.24359869968E+03 -0.49834784784E+02  0.26623633820E+03  0.90995589382E+02 0.  0.
        254    2    1    2    0    0  0.27888317051E+02 -0.24359869968E+03 -0.13271185356E+04  0.16244558063E+04  0.90415428684E+03 0.  0.
        -24    2    4    4    0    0 -0.16318084614E+03  0.29823711396E+03 -0.59986106191E+03  0.69420496424E+03  0.80708575137E+02 0.  0.
         24    2    4    4    0    0  0.19106916319E+03 -0.54183581364E+03 -0.72725747365E+03  0.93025084203E+03  0.79810538515E+02 0.  0.
         13    1    3    3    0    0  0.48917051520E+01  0.21980495893E+03 -0.51067829770E+02  0.22571236560E+03  0.00000000000E+00 0. -1.
        -13    1    3    3    0    0 -0.32780022203E+02  0.23793740751E+02  0.12330449859E+01  0.40523972591E+02  0.00000000000E+00 0.  1.
          2    1    6    6  502    0  0.22132039243E+01 -0.58267098088E+02 -0.49290112761E+02  0.76350954200E+02  0.00000000000E+00 0. -1.
          3    1    5    5  503    0 -0.84090821298E+02  0.75519423131E+02 -0.18905653658E+03  0.22026534798E+03  0.00000000000E+00 0. -1.
         -4    1    5    5    0  503 -0.79090024839E+02  0.22271769083E+03 -0.41080452532E+03  0.47393961626E+03  0.00000000000E+00 0.  1.
         -1    1    6    6    0  502  0.18885595926E+03 -0.48356871555E+03 -0.67796736089E+03  0.85389988783E+03  0.00000000000E+00 0.  1.
<mgrwt>
<rscale>  0 0.12956529E+04</rscale>
<asrwt>0</asrwt>
<pdfrwt beam="1">  1        2 0.25135734E+00 0.12956529E+04</pdfrwt>
<pdfrwt beam="2">  1       -2 0.39518371E-01 0.12956529E+04</pdfrwt>
<totfact> 0.63379874E+01</totfact>
</mgrwt>
</event>
<event>
12    1  0.1097093E-007  0.1215180E+04  0.7818608E-02  0.9099673E-01
          2   -1    0    0  501    0  0.00000000000E+00  0.00000000000E+00  0.20131635927E+04  0.20131635927E+04  0.00000000000E+00 0.  1.
         -2   -1    0    0    0  501 -0.00000000000E+00 -0.00000000000E+00 -0.18337572127E+03  0.18337572127E+03  0.00000000000E+00 0. -1.
         23    2    1    2    0    0  0.20426283130E+03 -0.15552388062E+02  0.73332417094E+03  0.76677281784E+03  0.90614753009E+02 0.  0.
        254    2    1    2    0    0 -0.20426283130E+03  0.15552388062E+02  0.10964637005E+04  0.14297664962E+04  0.89444642432E+03 0.  0.
        -24    2    4    4    0    0  0.25882491346E+03 -0.24209011471E+03  0.30833580108E+03  0.47663214024E+03  0.80680055864E+02 0.  0.
         24    2    4    4    0    0 -0.46308774476E+03  0.25764250277E+03  0.78812789945E+03  0.95313435594E+03  0.80558028783E+02 0.  0.
         11    1    3    3    0    0  0.13686231839E+03 -0.26285402462E+02  0.61104655827E+03  0.62673767475E+03  0.00000000000E+00 0.  1.
        -11    1    3    3    0    0  0.67400512913E+02  0.10733014400E+02  0.12227761267E+03  0.14003514308E+03  0.00000000000E+00 0. -1.
          4    1    6    6  502    0 -0.22108540198E+03  0.14303620989E+03  0.45532612402E+03  0.52598478260E+03  0.00000000000E+00 0. -1.
          3    1    5    5  503    0  0.91143629471E+02 -0.14028173416E+03  0.14046101217E+03  0.21843860023E+03  0.00000000000E+00 0. -1.
         -4    1    5    5    0  503  0.16768128399E+03 -0.10180838056E+03  0.16787478891E+03  0.25819354001E+03  0.00000000000E+00 0.  1.
         -3    1    6    6    0  502 -0.24200234277E+03  0.11460629288E+03  0.33280177543E+03  0.42714957334E+03  0.00000000000E+00 0.  1.
<mgrwt>
<rscale>  0 0.12151795E+04</rscale>
<asrwt>0</asrwt>
<pdfrwt beam="1">  1        2 0.30971746E+00 0.12151795E+04</pdfrwt>
<pdfrwt beam="2">  1       -2 0.28211651E-01 0.12151795E+04</pdfrwt>
<totfact> 0.74547514E+01</totfact>
</mgrwt>
</event>
<event>
12    1  0.1097093E-007  0.1530835E+04  0.7818608E-02  0.8864203E-01
         -1   -1    0    0    0  501 -0.00000000000E+00  0.00000000000E+00  0.68734374059E+03  0.68734374059E+03  0.00000000000E+00 0.  1.
          1   -1    0    0  501    0  0.00000000000E+00 -0.00000000000E+00 -0.85235972095E+03  0.85235972095E+03  0.00000000000E+00 0. -1.
         23    2    1    2    0    0 -0.26178106532E+03 -0.10698979509E+03 -0.46653237327E+03  0.55282527352E+03  0.89371054183E+02 0.  0.
        254    2    1    2    0    0  0.26178106532E+03  0.10698979509E+03  0.30151639291E+03  0.98687818802E+03  0.89612514772E+03 0.  0.
        -24    2    4    4    0    0  0.42095048846E+03  0.33823050958E+03 -0.29082896624E+02  0.54662906718E+03  0.79739142666E+02 0.  0.
         24    2    4    4    0    0 -0.15916942314E+03 -0.23124071449E+03  0.33059928954E+03  0.44024912084E+03  0.75605719732E+02 0.  0.
         13    1    3    3    0    0 -0.30750895543E+02  0.15894570364E+02 -0.46966892038E+02  0.58345041705E+02  0.00000000000E+00 0.  1.
        -13    1    3    3    0    0 -0.23103016977E+03 -0.12288436546E+03 -0.41956548123E+03  0.49448023182E+03  0.00000000000E+00 0. -1.
          4    1    6    6  502    0 -0.72640234788E+02 -0.91923607925E+02  0.84270440649E+02  0.14431930076E+03  0.00000000000E+00 0. -1.
          3    1    5    5  503    0  0.30406203706E+03  0.21353970721E+03  0.84254497564E+01  0.37165026186E+03  0.00000000000E+00 0. -1.
         -4    1    5    5    0  503  0.11688845140E+03  0.12469080236E+03 -0.37508346380E+02  0.17497880533E+03  0.00000000000E+00 0.  1.
         -3    1    6    6    0  502 -0.86529188351E+02 -0.13931710656E+03  0.24632884889E+03  0.29592982008E+03  0.00000000000E+00 0.  1.
<mgrwt>
<rscale>  0 0.15308352E+04</rscale>
<asrwt>0</asrwt>
<pdfrwt beam="1">  1        1 0.13113226E+00 0.15308352E+04</pdfrwt>
<pdfrwt beam="2">  1       -1 0.10574519E+00 0.15308352E+04</pdfrwt>
<totfact> 0.16114715E+01</totfact>
</mgrwt>
</event>
<event>
12    1  0.1097093E-007  0.1203445E+04  0.7818608E-02  0.9109846E-01
          2   -1    0    0  501    0  0.00000000000E+00  0.00000000000E+00  0.18565444503E+04  0.18565444503E+04  0.00000000000E+00 0. -1.
         -2   -1    0    0    0  501 -0.00000000000E+00 -0.00000000000E+00 -0.19502363469E+03  0.19502363469E+03  0.00000000000E+00 0.  1.
         23    2    1    2    0    0  0.20895876012E+03  0.65711436064E+02  0.56581427767E+03  0.61364472546E+03  0.91827534028E+02 0.  0.
        254    2    1    2    0    0 -0.20895876012E+03 -0.65711436064E+02  0.10957065379E+04  0.14379233595E+04  0.90502431700E+03 0.  0.
        -24    2    4    4    0    0 -0.45003338694E+03 -0.32473688505E+03  0.75203258600E+03  0.93821873422E+03  0.81959068882E+02 0.  0.
         24    2    4    4    0    0  0.24107462682E+03  0.25902544899E+03  0.34367395191E+03  0.49970462529E+03  0.79885971200E+02 0.  0.
         11    1    3    3    0    0 -0.43961164481E+01  0.80281458088E+01  0.72598344393E+02  0.73173059069E+02  0.00000000000E+00 0.  1.
        -11    1    3    3    0    0  0.21335487656E+03  0.57683290255E+02  0.49321593328E+03  0.54047166639E+03  0.00000000000E+00 0. -1.
          4    1    6    6  502    0  0.12207939092E+03  0.16397971364E+03  0.24102123332E+03  0.31604423596E+03  0.00000000000E+00 0. -1.
          3    1    5    5  503    0 -0.26270100947E+03 -0.19943870580E+03  0.37931951648E+03  0.50266381741E+03  0.00000000000E+00 0. -1.
         -4    1    5    5    0  503 -0.18733237746E+03 -0.12529817925E+03  0.37271306952E+03  0.43555491682E+03  0.00000000000E+00 0.  1.
         -3    1    6    6    0  502  0.11899523590E+03  0.95045735347E+02  0.10265271860E+03  0.18366038933E+03  0.00000000000E+00 0.  1.
<mgrwt>
<rscale>  0 0.12034451E+04</rscale>
<asrwt>0</asrwt>
<pdfrwt beam="1">  1        2 0.28562221E+00 0.12034451E+04</pdfrwt>
<pdfrwt beam="2">  1       -2 0.30003637E-01 0.12034451E+04</pdfrwt>
<totfact> 0.81226432E+01</totfact>
</mgrwt>
</event>
<event>
12    1  0.1097093E-007  0.1880860E+04  0.7818608E-02  0.8664443E-01
          2   -1    0    0  501    0  0.00000000000E+00  0.00000000000E+00  0.61216306744E+03  0.61216306744E+03  0.00000000000E+00 0. -1.
         -2   -1    0    0    0  501 -0.00000000000E+00 -0.00000000000E+00 -0.14447263728E+04  0.14447263728E+04  0.00000000000E+00 0.  1.
         23    2    1    2    0    0 -0.63534893398E+03 -0.24674094979E+03 -0.74071859250E+02  0.69185939897E+03  0.92916217032E+02 0.  0.
        254    2    1    2    0    0  0.63534893398E+03  0.24674094979E+03 -0.75849144611E+03  0.13650300413E+04  0.90744056308E+03 0.  0.
        -24    2    4    4    0    0  0.29149167394E+03 -0.89475045522E+02  0.13853185400E+03  0.34415508489E+03  0.79236785241E+02 0.  0.
         24    2    4    4    0    0  0.34385726004E+03  0.33621599531E+03 -0.89702330011E+03  0.10208749564E+04  0.79094025240E+02 0.  0.
         11    1    3    3    0    0 -0.92623060300E+02 -0.39448547226E+02  0.21877290044E+02  0.10302346819E+03  0.00000000000E+00 0. -1.
        -11    1    3    3    0    0 -0.54272587368E+03 -0.20729240257E+03 -0.95949149294E+02  0.58883593078E+03  0.00000000000E+00 0.  1.
          4    1    6    6  502    0  0.61957859258E+02  0.78467910869E+02 -0.12995073221E+03  0.16396091657E+03  0.00000000000E+00 0. -1.
          3    1    5    5  503    0  0.72996848648E+02  0.60305734211E+00  0.61214995474E+01  0.73255555062E+02  0.00000000000E+00 0. -1.
         -4    1    5    5    0  503  0.21849482530E+03 -0.90078102864E+02  0.13241035445E+03  0.27089952983E+03  0.00000000000E+00 0.  1.
         -3    1    6    6    0  502  0.28189940078E+03  0.25774808445E+03 -0.76707256789E+03  0.85691403980E+03  0.00000000000E+00 0.  1.
<mgrwt>
<rscale>  0 0.18808595E+04</rscale>
<asrwt>0</asrwt>
<pdfrwt beam="1">  1        2 0.94178935E-01 0.18808595E+04</pdfrwt>
<pdfrwt beam="2">  1       -2 0.22226559E+00 0.18808595E+04</pdfrwt>
<totfact> 0.43387704E+00</totfact>
</mgrwt>
</event>
<event>
12    1  0.1097093E-007  0.1473081E+04  0.7818608E-02  0.8902554E-01
         -2   -1    0    0    0  501 -0.00000000000E+00  0.00000000000E+00  0.47536473904E+03  0.47536473904E+03  0.00000000000E+00 0. -1.
          2   -1    0    0  501    0  0.00000000000E+00 -0.00000000000E+00 -0.11412113000E+04  0.11412113000E+04  0.00000000000E+00 0.  1.
         23    2    1    2    0    0  0.57707584155E+02  0.25674567503E+02 -0.70443827603E+03  0.71286557099E+03  0.89189062537E+02 0.  0.
        254    2    1    2    0    0 -0.57707584155E+02 -0.25674567503E+02  0.38591715026E+02  0.90371046810E+03  0.90067415917E+03 0.  0.
        -24    2    4    4    0    0 -0.10674569470E+02 -0.45549492807E+03  0.51444998306E+02  0.46545105855E+03  0.80053258076E+02 0.  0.
         24    2    4    4    0    0 -0.47033014686E+02  0.42982036056E+03 -0.12853283280E+02  0.43825940954E+03  0.70345265213E+02 0.  0.
         11    1    3    3    0    0  0.61749458840E+02  0.23683645144E+02 -0.25600512683E+03  0.26440978741E+03  0.00000000000E+00 0. -1.
        -11    1    3    3    0    0 -0.40418746851E+01  0.19909223593E+01 -0.44843314920E+03  0.44845578358E+03  0.00000000000E+00 0.  1.
          4    1    6    6  502    0  0.57743925959E+01  0.25709497980E+03  0.34886597304E+00  0.25716005513E+03  0.00000000000E+00 0. -1.
          3    1    5    5  503    0 -0.12716350202E+02 -0.67875918260E+02 -0.18670606280E+02  0.71536266194E+02  0.00000000000E+00 0. -1.
         -4    1    5    5    0  503  0.20417807329E+01 -0.38761900981E+03  0.70115604586E+02  0.39391479236E+03  0.00000000000E+00 0.  1.
         -3    1    6    6    0  502 -0.52807407281E+02  0.17272538077E+03 -0.13202149253E+02  0.18109935442E+03  0.00000000000E+00 0.  1.
<mgrwt>
<rscale>  0 0.14730806E+04</rscale>
<asrwt>0</asrwt>
<pdfrwt beam="1">  1        2 0.17557097E+00 0.14730806E+04</pdfrwt>
<pdfrwt beam="2">  1       -2 0.73133036E-01 0.14730806E+04</pdfrwt>
<totfact> 0.33602775E+01</totfact>
</mgrwt>
</event>
<event>
12    1  0.1097093E-007  0.1566823E+04  0.7818608E-02  0.8841193E-01
         -2   -1    0    0    0  501 -0.00000000000E+00  0.00000000000E+00  0.23119988068E+03  0.23119988068E+03  0.00000000000E+00 0.  1.
          2   -1    0    0  501    0  0.00000000000E+00 -0.00000000000E+00 -0.26545577878E+04  0.26545577878E+04  0.00000000000E+00 0. -1.
         23    2    1    2    0    0  0.42257008143E+03 -0.31208738455E+02 -0.25472365195E+03  0.50255249867E+03  0.90196540833E+02 0.  0.
        254    2    1    2    0    0 -0.42257008143E+03  0.31208738455E+02 -0.21686342552E+04  0.23832051699E+04  0.89283418934E+03 0.  0.
        -24    2    4    4    0    0 -0.55708534397E+03 -0.20075804884E+03 -0.87246976783E+03  0.10574232578E+04  0.79325756695E+02 0.  0.
         24    2    4    4    0    0  0.13451526254E+03  0.23196678729E+03 -0.12961644874E+04  0.13257819121E+04  0.75844273107E+02 0.  0.
         13    1    3    3    0    0  0.35656986625E+03 -0.35250986526E+01 -0.23900413538E+03  0.42927552057E+03  0.00000000000E+00 0.  1.
        -13    1    3    3    0    0  0.66000215188E+02 -0.27683639802E+02 -0.15719516565E+02  0.73276978094E+02  0.00000000000E+00 0. -1.
          2    1    6    6  502    0  0.69698914230E+02  0.12559835819E+03 -0.87032219695E+03  0.88209614710E+03  0.00000000000E+00 0. -1.
          1    1    5    5  503    0 -0.38192242288E+03 -0.17548170016E+03 -0.60268492497E+03  0.73477049681E+03  0.00000000000E+00 0. -1.
         -2    1    5    5    0  503 -0.17516292109E+03 -0.25276348682E+02 -0.26978484286E+03  0.32265276097E+03  0.00000000000E+00 0.  1.
         -1    1    6    6    0  502  0.64816348309E+02  0.10636842911E+03 -0.42584229044E+03  0.44368576498E+03  0.00000000000E+00 0.  1.
<mgrwt>
<rscale>  0 0.15668228E+04</rscale>
<asrwt>0</asrwt>
<pdfrwt beam="1">  1        2 0.40839349E+00 0.15668228E+04</pdfrwt>
<pdfrwt beam="2">  1       -2 0.35569214E-01 0.15668228E+04</pdfrwt>
<totfact> 0.20245758E+01</totfact>
</mgrwt>
</event>
<event>
12    1  0.1097093E-007  0.2509900E+04  0.7818608E-02  0.8399467E-01
          2   -1    0    0  501    0  0.00000000000E+00  0.00000000000E+00  0.49795030369E+04  0.49795030369E+04  0.00000000000E+00 0.  1.
         -2   -1    0    0    0  501 -0.00000000000E+00 -0.00000000000E+00 -0.31627638122E+03  0.31627638122E+03  0.00000000000E+00 0. -1.
         23    2    1    2    0    0  0.93020849404E+03  0.40223554854E+03  0.28715096576E+04  0.30466878748E+04  0.98275194096E+02 0.  0.
        254    2    1    2    0    0 -0.93020849404E+03 -0.40223554854E+03  0.17917169981E+04  0.22490915433E+04  0.90613558047E+03 0.  0.
        -24    2    4    4    0    0 -0.81103639454E+03  0.10554508158E+03  0.95473149465E+03  0.12598164053E+04  0.81886206267E+02 0.  0.
         24    2    4    4    0    0 -0.11917209951E+03 -0.50778063013E+03  0.83698550340E+03  0.98927513797E+03  0.77957732609E+02 0.  0.
         13    1    3    3    0    0  0.83787301289E+03  0.35750895460E+03  0.26588146308E+04  0.28105407094E+04  0.00000000000E+00 0.  1.
        -13    1    3    3    0    0  0.92335481155E+02  0.44726593946E+02  0.21269502683E+03  0.23614716540E+03  0.00000000000E+00 0. -1.
          2    1    6    6  502    0 -0.11646805880E+03 -0.50937391627E+03  0.82239682485E+03  0.97435267374E+03  0.00000000000E+00 0. -1.
          3    1    5    5  503    0 -0.35874975446E+03  0.56131274209E+02  0.48495117595E+03  0.60582980227E+03  0.00000000000E+00 0. -1.
         -4    1    5    5    0  503 -0.45228664007E+03  0.49413807374E+02  0.46978031871E+03  0.65398660307E+03  0.00000000000E+00 0.  1.
         -1    1    6    6    0  502 -0.27040407092E+01  0.15932861464E+01  0.14588678555E+02  0.14922464236E+02  0.00000000000E+00 0.  1.
<mgrwt>
<rscale>  0 0.25098998E+04</rscale>
<asrwt>0</asrwt>
<pdfrwt beam="1">  1        2 0.76607733E+00 0.25098998E+04</pdfrwt>
<pdfrwt beam="2">  1       -2 0.48657908E-01 0.25098998E+04</pdfrwt>
<totfact> 0.13107365E-01</totfact>
</mgrwt>
</event>
<event>
12    1  0.1097093E-007  0.1683762E+04  0.7818608E-02  0.8770680E-01
          1   -1    0    0  501    0  0.00000000000E+00  0.00000000000E+00  0.10576529681E+04  0.10576529681E+04  0.00000000000E+00 0. -1.
         -1   -1    0    0    0  501 -0.00000000000E+00 -0.00000000000E+00 -0.67012863615E+03  0.67012863615E+03  0.00000000000E+00 0.  1.
         23    2    1    2    0    0  0.38904454730E+02 -0.13554838483E+02 -0.45504615450E+03  0.46581579649E+03  0.90664564685E+02 0.  0.
        254    2    1    2    0    0 -0.38904454730E+02  0.13554838483E+02  0.84257048650E+03  0.12619658078E+04  0.93858158147E+03 0.  0.
        -24    2    4    4    0    0  0.22676745070E+03  0.57238158754E+02  0.93546942682E+03  0.96751168203E+03  0.79221984515E+02 0.  0.
         24    2    4    4    0    0 -0.26567190544E+03 -0.43683320271E+02 -0.92898940322E+02  0.29445412577E+03  0.74720982728E+02 0.  0.
         13    1    3    3    0    0 -0.18337954715E+02 -0.15249972785E+02 -0.38059959985E+02  0.44915507423E+02  0.00000000000E+00 0. -1.
        -13    1    3    3    0    0  0.57242409445E+02  0.16951343014E+01 -0.41698619452E+03  0.42090028907E+03  0.00000000000E+00 0.  1.
          4    1    6    6  502    0 -0.78493025267E+00 -0.42098490876E+01  0.73397771764E+01  0.84977216853E+01  0.00000000000E+00 0. -1.
          1    1    5    5  503    0  0.75391141103E+02 -0.15768434287E+02  0.24166148607E+03  0.25363899844E+03  0.00000000000E+00 0. -1.
         -2    1    5    5    0  503  0.15137630960E+03  0.73006593041E+02  0.69380794075E+03  0.71387268359E+03  0.00000000000E+00 0.  1.
         -3    1    6    6    0  502 -0.26488697518E+03 -0.39473471183E+02 -0.10023871750E+03  0.28595640408E+03  0.00000000000E+00 0.  1.
<mgrwt>
<rscale>  0 0.16837619E+04</rscale>
<asrwt>0</asrwt>
<pdfrwt beam="1">  1        1 0.16271584E+00 0.16837619E+04</pdfrwt>
<pdfrwt beam="2">  1       -1 0.10309671E+00 0.16837619E+04</pdfrwt>
<totfact> 0.11560314E+01</totfact>
</mgrwt>
</event>
<event>
12    1  0.1097093E-007  0.2849354E+04  0.7818608E-02  0.8288108E-01
         -2   -1    0    0    0  501 -0.00000000000E+00  0.00000000000E+00  0.14850252607E+04  0.14850252607E+04  0.00000000000E+00 0.  1.
          2   -1    0    0  501    0  0.00000000000E+00 -0.00000000000E+00 -0.13667810210E+04  0.13667810210E+04  0.00000000000E+00 0. -1.
         23    2    1    2    0    0 -0.62438597709E+03 -0.70489771581E+03 -0.81417799854E+03  0.12482838556E+04  0.92672178685E+02 0.  0.
        254    2    1    2    0    0  0.62438597709E+03  0.70489771581E+03  0.93242223829E+03  0.16035224260E+04  0.90284788433E+03 0.  0.
        -24    2    4    4    0    0  0.12919350898E+03  0.72509403041E+03  0.30765356600E+03  0.80212887260E+03  0.79421004035E+02 0.  0.
         24    2    4    4    0    0  0.49519246811E+03 -0.20196314596E+02  0.62476867229E+03  0.80139355345E+03  0.79197613857E+02 0.  0.
         13    1    3    3    0    0 -0.53826161531E+03 -0.62946537214E+03 -0.67777253819E+03  0.10701999041E+04  0.00000000000E+00 0. -1.
        -13    1    3    3    0    0 -0.86124361784E+02 -0.75432343670E+02 -0.13640546035E+03  0.17808395149E+03  0.00000000000E+00 0.  1.
          2    1    6    6  502    0  0.24862592476E+02 -0.16342176460E+02  0.22923178445E+02  0.37559118016E+02  0.00000000000E+00 0. -1.
          3    1    5    5  503    0  0.34129309729E+02  0.36055187100E+03  0.12221208831E+03  0.38222801571E+03  0.00000000000E+00 0. -1.
         -4    1    5    5    0  503  0.95064199252E+02  0.36454215941E+03  0.18544147769E+03  0.41990085688E+03  0.00000000000E+00 0.  1.
         -1    1    6    6    0  502  0.47032987564E+03 -0.38541381366E+01  0.60184549385E+03  0.76383443544E+03  0.00000000000E+00 0.  1.
<mgrwt>
<rscale>  0 0.28493539E+04</rscale>
<asrwt>0</asrwt>
<pdfrwt beam="1">  1        2 0.21027400E+00 0.28493539E+04</pdfrwt>
<pdfrwt beam="2">  1       -2 0.22846542E+00 0.28493539E+04</pdfrwt>
<totfact> 0.11455544E+00</totfact>
</mgrwt>
</event>
<event>
12    1  0.1097093E-007  0.1722791E+04  0.7818608E-02  0.8748471E-01
          2   -1    0    0  501    0  0.00000000000E+00  0.00000000000E+00  0.22866434660E+04  0.22866434660E+04  0.00000000000E+00 0. -1.
         -2   -1    0    0    0  501 -0.00000000000E+00 -0.00000000000E+00 -0.32449413621E+03  0.32449413621E+03  0.00000000000E+00 0.  1.
         23    2    1    2    0    0 -0.86830757801E+02  0.51708100968E+03  0.20461958844E+03  0.56957395305E+03  0.87366818342E+02 0.  0.
        254    2    1    2    0    0  0.86830757801E+02 -0.51708100968E+03  0.17575297413E+04  0.20415636492E+04  0.89674912364E+03 0.  0.
        -24    2    4    4    0    0 -0.69649278721E+02 -0.23963369870E+03  0.16837166237E+04  0.17042451510E+04  0.85290880563E+02 0.  0.
         24    2    4    4    0    0  0.15648003652E+03 -0.27744731098E+03  0.73813117661E+02  0.33731849814E+03  0.82899822958E+02 0.  0.
         13    1    3    3    0    0 -0.72560002467E+02  0.45286476906E+03  0.14560393157E+03  0.48119845999E+03  0.00000000000E+00 0.  1.
        -13    1    3    3    0    0 -0.14270755334E+02  0.64216240627E+02  0.59015656867E+02  0.88375493060E+02  0.00000000000E+00 0. -1.
          4    1    6    6  502    0  0.12751360154E+03 -0.24154920490E+03  0.91288457189E+02  0.28799187381E+03  0.00000000000E+00 0. -1.
          1    1    5    5  503    0 -0.47268425685E+02 -0.23338074138E+03  0.14556303256E+04  0.14749781419E+04  0.00000000000E+00 0. -1.
         -2    1    5    5    0  503 -0.22380853036E+02 -0.62529573257E+01  0.22808629812E+03  0.22926700907E+03  0.00000000000E+00 0.  1.
         -3    1    6    6    0  502  0.28966434986E+02 -0.35898106080E+02 -0.17475339527E+02  0.49326624327E+02  0.00000000000E+00 0.  1.
<mgrwt>
<rscale>  0 0.17227912E+04</rscale>
<asrwt>0</asrwt>
<pdfrwt beam="1">  1        2 0.35179129E+00 0.17227912E+04</pdfrwt>
<pdfrwt beam="2">  1       -2 0.49922176E-01 0.17227912E+04</pdfrwt>
<totfact> 0.16647482E+01</totfact>
</mgrwt>
</event>
<event>
12    1  0.1097093E-007  0.2530717E+04  0.7818608E-02  0.8392123E-01
         -2   -1    0    0    0  501 -0.00000000000E+00  0.00000000000E+00  0.23775373895E+04  0.23775373895E+04  0.00000000000E+00 0.  1.
          2   -1    0    0  501    0  0.00000000000E+00 -0.00000000000E+00 -0.67344142778E+03  0.67344142778E+03  0.00000000000E+00 0. -1.
         23    2    1    2    0    0 -0.57662553740E+03 -0.65358608365E+03  0.15673594727E+04  0.17956519346E+04  0.89879778276E+02 0.  0.
        254    2    1    2    0    0  0.57662553740E+03  0.65358608365E+03  0.13673648906E+03  0.12553268827E+04  0.89301564143E+03 0.  0.
        -24    2    4    4    0    0  0.79141299451E+03  0.36435649278E+03  0.14136766438E+03  0.88647775902E+03  0.82266755138E+02 0.  0.
         24    2    4    4    0    0 -0.21478745711E+03  0.28922959086E+03 -0.46311753147E+01  0.36884912367E+03  0.78998862562E+02 0.  0.
         11    1    3    3    0    0 -0.57647759981E+03 -0.65004943569E+03  0.15674100072E+04  0.17921118332E+04  0.00000000000E+00 0.  1.
        -11    1    3    3    0    0 -0.14793759134E+00 -0.35366479600E+01 -0.50534540366E-01  0.35401014199E+01  0.00000000000E+00 0. -1.
          4    1    6    6  502    0 -0.23582409888E+01  0.54049947984E+01  0.12601611103E+02  0.13913154628E+02  0.00000000000E+00 0. -1.
          3    1    5    5  503    0  0.48393783603E+03  0.18218454325E+03  0.10034560672E+03  0.52674118666E+03  0.00000000000E+00 0. -1.
         -4    1    5    5    0  503  0.30747515848E+03  0.18217194954E+03  0.41022057660E+02  0.35973657236E+03  0.00000000000E+00 0.  1.
         -3    1    6    6    0  502 -0.21242921612E+03  0.28382459606E+03 -0.17232786417E+02  0.35493596904E+03  0.00000000000E+00 0.  1.
<mgrwt>
<rscale>  0 0.25307170E+04</rscale>
<asrwt>0</asrwt>
<pdfrwt beam="1">  1        2 0.10360637E+00 0.25307170E+04</pdfrwt>
<pdfrwt beam="2">  1       -2 0.36577498E+00 0.25307170E+04</pdfrwt>
<totfact> 0.47306571E-01</totfact>
</mgrwt>
</event>
<event>
12    1  0.1097093E-007  0.1875306E+04  0.7818608E-02  0.8667247E-01
         -1   -1    0    0    0  501 -0.00000000000E+00  0.00000000000E+00  0.43853933799E+03  0.43853933799E+03  0.00000000000E+00 0.  1.
          1   -1    0    0  501    0  0.00000000000E+00 -0.00000000000E+00 -0.20048209849E+04  0.20048209849E+04  0.00000000000E+00 0. -1.
         23    2    1    2    0    0 -0.47811804719E+03 -0.18978485233E+03 -0.12593939764E+04  0.13635282435E+04  0.92308860996E+02 0.  0.
        254    2    1    2    0    0  0.47811804719E+03  0.18978485233E+03 -0.30688767045E+03  0.10798320793E+04  0.89846653808E+03 0.  0.
        -24    2    4    4    0    0  0.40766928518E+03  0.29019794893E+03  0.20587812624E+03  0.54668902304E+03  0.77935803122E+02 0.  0.
         24    2    4    4    0    0  0.70448762012E+02 -0.10041309660E+03 -0.51276579669E+03  0.53314305629E+03  0.79163995461E+02 0.  0.
         13    1    3    3    0    0 -0.40916893200E+03 -0.14038349790E+03 -0.11162851701E+04  0.11971713838E+04  0.00000000000E+00 0. -1.
        -13    1    3    3    0    0 -0.68949115193E+02 -0.49401354432E+02 -0.14310880638E+03  0.16635685970E+03  0.00000000000E+00 0.  1.
          2    1    6    6  502    0  0.27803183712E+01  0.12745249544E+02 -0.30360955395E+02  0.33044805472E+02  0.00000000000E+00 0. -1.
          3    1    5    5  503    0  0.36571454373E+02  0.44910854182E+02  0.36221482419E+01  0.58030819882E+02  0.00000000000E+00 0. -1.
         -4    1    5    5    0  503  0.37109783080E+03  0.24528709475E+03  0.20225597800E+03  0.48865820316E+03  0.00000000000E+00 0.  1.
         -1    1    6    6    0  502  0.67668443641E+02 -0.11315834614E+03 -0.48240484130E+03  0.50009825082E+03  0.00000000000E+00 0.  1.
<mgrwt>
<rscale>  0 0.18753057E+04</rscale>
<asrwt>0</asrwt>
<pdfrwt beam="1">  1        1 0.30843400E+00 0.18753057E+04</pdfrwt>
<pdfrwt beam="2">  1       -1 0.67467591E-01 0.18753057E+04</pdfrwt>
<totfact> 0.61699889E+00</totfact>
</mgrwt>
</event>
<event>
12    1  0.1097093E-007  0.1994712E+04  0.7818608E-02  0.8609097E-01
          3   -1    0    0  501    0  0.00000000000E+00  0.00000000000E+00  0.14627825911E+04  0.14627825911E+04  0.00000000000E+00 0. -1.
         -3   -1    0    0    0  501 -0.00000000000E+00 -0.00000000000E+00 -0.68001859771E+03  0.68001859771E+03  0.00000000000E+00 0.  1.
         23    2    1    2    0    0  0.40831038160E+03 -0.10350107465E+03 -0.40883611641E+03  0.59003442189E+03  0.59697644453E+02 0.  0.
        254    2    1    2    0    0 -0.40831038160E+03  0.10350107465E+03  0.11916001098E+04  0.15527667669E+04  0.90207758568E+03 0.  0.
        -24    2    4    4    0    0 -0.21509816013E+03  0.65412485675E+02  0.12947468441E+04  0.13166036978E+04  0.80807766384E+02 0.  0.
         24    2    4    4    0    0 -0.19321222147E+03  0.38088588977E+02 -0.10314673429E+03  0.23616306907E+03  0.79699706795E+02 0.  0.
         11    1    3    3    0    0  0.34416293228E+03 -0.82643476616E+02 -0.31080867384E+03  0.47104150551E+03  0.00000000000E+00 0.  1.
        -11    1    3    3    0    0  0.64147449324E+02 -0.20857598035E+02 -0.98027442572E+02  0.11899291638E+03  0.00000000000E+00 0. -1.
          2    1    6    6  502    0 -0.13415695018E+03 -0.10862216834E+02 -0.77334598041E+02  0.15523116662E+03  0.00000000000E+00 0. -1.
          3    1    5    5  503    0 -0.84985001610E+02  0.66703565843E+02  0.53582606448E+03  0.54660898965E+03  0.00000000000E+00 0. -1.
         -4    1    5    5    0  503 -0.13011315852E+03 -0.12910801683E+01  0.75892077960E+03  0.76999470818E+03  0.00000000000E+00 0.  1.
         -1    1    6    6    0  502 -0.59055271289E+02  0.48950805811E+02 -0.25812136252E+02  0.80931902452E+02  0.00000000000E+00 0.  1.
<mgrwt>
<rscale>  0 0.19947124E+04</rscale>
<asrwt>0</asrwt>
<pdfrwt beam="1">  1        3 0.22504347E+00 0.19947124E+04</pdfrwt>
<pdfrwt beam="2">  1       -3 0.10461825E+00 0.19947124E+04</pdfrwt>
<totfact> 0.19739816E-01</totfact>
</mgrwt>
</event>
<event>
12    1  0.1097093E-007  0.1176038E+04  0.7818608E-02  0.9134093E-01
          2   -1    0    0  501    0  0.00000000000E+00  0.00000000000E+00  0.13366162817E+04  0.13366162817E+04  0.00000000000E+00 0. -1.
         -2   -1    0    0    0  501 -0.00000000000E+00 -0.00000000000E+00 -0.25868763164E+03  0.25868763164E+03  0.00000000000E+00 0.  1.
         23    2    1    2    0    0 -0.11486038747E+03  0.19608184389E+03  0.31049716386E+03  0.39570545274E+03  0.92375962520E+02 0.  0.
        254    2    1    2    0    0  0.11486038747E+03 -0.19608184389E+03  0.76743148625E+03  0.11995984606E+04  0.89355715127E+03 0.  0.
        -24    2    4    4    0    0 -0.29712951213E+03  0.13447230388E+03  0.50029827600E+03  0.60236367477E+03  0.78580431604E+02 0.  0.
         24    2    4    4    0    0  0.41198989960E+03 -0.33055414777E+03  0.26713321025E+03  0.59723478587E+03  0.79545681581E+02 0.  0.
         11    1    3    3    0    0 -0.71882489807E+02  0.18412541861E+03  0.22666494620E+03  0.30074284689E+03  0.00000000000E+00 0. -1.
        -11    1    3    3    0    0 -0.42977897661E+02  0.11956425283E+02  0.83832217652E+02  0.94962605848E+02  0.00000000000E+00 0.  1.
          2    1    6    6  502    0  0.16959037014E+03 -0.18244501292E+03  0.14309011958E+03  0.28726618093E+03  0.00000000000E+00 0. -1.
          3    1    5    5  503    0 -0.78976125570E+02  0.56290095552E+02  0.96631814958E+02  0.13690694259E+03  0.00000000000E+00 0. -1.
         -4    1    5    5    0  503 -0.21815338656E+03  0.78182208326E+02  0.40366646104E+03  0.46545673218E+03  0.00000000000E+00 0.  1.
         -1    1    6    6    0  502  0.24239952946E+03 -0.14810913484E+03  0.12404309068E+03  0.30996860495E+03  0.00000000000E+00 0.  1.
<mgrwt>
<rscale>  0 0.11760376E+04</rscale>
<asrwt>0</asrwt>
<pdfrwt beam="1">  1        2 0.20563327E+00 0.11760376E+04</pdfrwt>
<pdfrwt beam="2">  1       -2 0.39798098E-01 0.11760376E+04</pdfrwt>
<totfact> 0.92853421E+01</totfact>
</mgrwt>
</event>
<event>
12    1  0.1097093E-007  0.1695886E+04  0.7818608E-02  0.8763714E-01
          1   -1    0    0  501    0  0.00000000000E+00  0.00000000000E+00  0.13396329412E+04  0.13396329412E+04  0.00000000000E+00 0. -1.
         -1   -1    0    0    0  501 -0.00000000000E+00 -0.00000000000E+00 -0.53671967906E+03  0.53671967906E+03  0.00000000000E+00 0.  1.
         23    2    1    2    0    0  0.21597059322E+03  0.43213828108E+03 -0.10574639160E+03  0.50167654155E+03  0.84322368882E+02 0.  0.
        254    2    1    2    0    0 -0.21597059322E+03 -0.43213828108E+03  0.90865965376E+03  0.13746760787E+04  0.91141931293E+03 0.  0.
        -24    2    4    4    0    0  0.96904993302E+02  0.79276121827E+01  0.81124692406E+03  0.82037886346E+03  0.73800291664E+02 0.  0.
         24    2    4    4    0    0 -0.31287558652E+03 -0.44006589326E+03  0.97412729697E+02  0.55429721528E+03  0.78784769505E+02 0.  0.
         13    1    3    3    0    0  0.13040168259E+03  0.18346377687E+03 -0.73179295114E+02  0.23668283731E+03  0.00000000000E+00 0. -1.
        -13    1    3    3    0    0  0.85568910631E+02  0.24867450421E+03 -0.32567096482E+02  0.26499370423E+03  0.00000000000E+00 0.  1.
          2    1    6    6  502    0 -0.31319890041E+03 -0.44001095902E+03  0.10204686728E+03  0.54965148813E+03  0.00000000000E+00 0. -1.
          1    1    5    5  503    0  0.10455231405E+03 -0.48028527463E+01  0.64132495093E+03  0.64980916157E+03  0.00000000000E+00 0. -1.
         -2    1    5    5    0  503 -0.76473207433E+01  0.12730464929E+02  0.16992197313E+03  0.17056970189E+03  0.00000000000E+00 0.  1.
         -1    1    6    6    0  502  0.32331388863E+00 -0.54934235302E-01 -0.46341375802E+01  0.46457271501E+01  0.00000000000E+00 0.  1.
<mgrwt>
<rscale>  0 0.16958860E+04</rscale>
<asrwt>0</asrwt>
<pdfrwt beam="1">  1        1 0.20609737E+00 0.16958860E+04</pdfrwt>
<pdfrwt beam="2">  1       -1 0.82572259E-01 0.16958860E+04</pdfrwt>
<totfact> 0.11761054E+01</totfact>
</mgrwt>
</event>
<event>
12    1  0.1097093E-007  0.1885139E+04  0.7818608E-02  0.8662289E-01
         -1   -1    0    0    0  501 -0.00000000000E+00  0.00000000000E+00  0.69388107195E+03  0.69388107195E+03  0.00000000000E+00 0.  1.
          1   -1    0    0  501    0  0.00000000000E+00 -0.00000000000E+00 -0.12803882046E+04  0.12803882046E+04  0.00000000000E+00 0. -1.
         23    2    1    2    0    0 -0.29550194552E+03  0.51360815563E+03  0.21268428775E+03  0.63570837048E+03  0.88180432724E+02 0.  0.
        254    2    1    2    0    0  0.29550194552E+03 -0.51360815563E+03 -0.79919142036E+03  0.13385609060E+04  0.89550189026E+03 0.  0.
        -24    2    4    4    0    0 -0.83625419015E+02  0.21651530023E+03 -0.21118619959E+03  0.32412820764E+03  0.81162788010E+02 0.  0.
         24    2    4    4    0    0  0.37912736454E+03 -0.73012345585E+03 -0.58800522077E+03  0.10144326984E+04  0.80658171170E+02 0.  0.
         11    1    3    3    0    0 -0.19923186470E+03  0.39166033985E+03  0.12299058665E+03  0.45630893278E+03  0.00000000000E+00 0. -1.
        -11    1    3    3    0    0 -0.96270080823E+02  0.12194781577E+03  0.89693701101E+02  0.17939943771E+03  0.00000000000E+00 0.  1.
          2    1    6    6  502    0  0.20958931614E+03 -0.42807160936E+03 -0.38700009779E+03  0.61395607324E+03  0.00000000000E+00 0. -1.
          3    1    5    5  503    0  0.31785660480E+01 -0.22229928910E+01  0.37635441432E+01  0.54045577092E+01  0.00000000000E+00 0. -1.
         -4    1    5    5    0  503 -0.86803985063E+02  0.21873829312E+03 -0.21494974373E+03  0.31872364994E+03  0.00000000000E+00 0.  1.
         -1    1    6    6    0  502  0.16953804840E+03 -0.30205184649E+03 -0.20100512298E+03  0.40047662515E+03  0.00000000000E+00 0.  1.
<mgrwt>
<rscale>  0 0.18851389E+04</rscale>
<asrwt>0</asrwt>
<pdfrwt beam="1">  1        1 0.19698280E+00 0.18851389E+04</pdfrwt>
<pdfrwt beam="2">  1       -1 0.10675093E+00 0.18851389E+04</pdfrwt>
<totfact> 0.71695452E+00</totfact>
</mgrwt>
</event>
<event>
12    1  0.1097093E-007  0.3140372E+04  0.7818608E-02  0.8204745E-01
         -2   -1    0    0    0  501 -0.00000000000E+00  0.00000000000E+00  0.17895961600E+04  0.17895961600E+04  0.00000000000E+00 0.  1.
          2   -1    0    0  501    0  0.00000000000E+00 -0.00000000000E+00 -0.13776762067E+04  0.13776762067E+04  0.00000000000E+00 0. -1.
         23    2    1    2    0    0 -0.47184129405E+03  0.90357866263E+03  0.12167027263E+04  0.15897631296E+04  0.88840742465E+02 0.  0.
        254    2    1    2    0    0  0.47184129405E+03 -0.90357866263E+03 -0.80478277304E+03  0.15775092371E+04  0.89541692800E+03 0.  0.
        -24    2    4    4    0    0  0.60819852342E+02 -0.25535633766E+03  0.17995072338E+03  0.32645016707E+03  0.72674170915E+02 0.  0.
         24    2    4    4    0    0  0.41102144171E+03 -0.64822232497E+03 -0.98473349642E+03  0.12510590700E+04  0.79485404471E+02 0.  0.
         13    1    3    3    0    0 -0.27079572718E+03  0.47444020752E+03  0.59017090655E+03  0.80419247404E+03  0.00000000000E+00 0.  1.
        -13    1    3    3    0    0 -0.20104556686E+03  0.42913845511E+03  0.62653181978E+03  0.78557065552E+03  0.00000000000E+00 0. -1.
          4    1    6    6  502    0  0.21778590940E+03 -0.39774904507E+03 -0.62206737502E+03  0.76980700455E+03  0.00000000000E+00 0. -1.
          3    1    5    5  503    0  0.31763290574E+02 -0.21264704988E+03  0.11619744728E+03  0.24439623811E+03  0.00000000000E+00 0. -1.
         -4    1    5    5    0  503  0.29056561768E+02 -0.42709287777E+02  0.63753276101E+02  0.82053928960E+02  0.00000000000E+00 0.  1.
         -3    1    6    6    0  502  0.19323553230E+03 -0.25047327990E+03 -0.36266612140E+03  0.48125206545E+03  0.00000000000E+00 0.  1.
<mgrwt>
<rscale>  0 0.31403720E+04</rscale>
<asrwt>0</asrwt>
<pdfrwt beam="1">  1        2 0.21195018E+00 0.31403720E+04</pdfrwt>
<pdfrwt beam="2">  1       -2 0.27532249E+00 0.31403720E+04</pdfrwt>
<totfact> 0.56717153E-01</totfact>
</mgrwt>
</event>
<event>
12    1  0.1097093E-007  0.1514262E+04  0.7818608E-02  0.8875024E-01
          1   -1    0    0  501    0  0.00000000000E+00  0.00000000000E+00  0.84267051860E+03  0.84267051860E+03  0.00000000000E+00 0. -1.
         -1   -1    0    0    0  501 -0.00000000000E+00 -0.00000000000E+00 -0.68027476769E+03  0.68027476769E+03  0.00000000000E+00 0.  1.
         23    2    1    2    0    0 -0.32826438967E+03 -0.27290710884E+03  0.30312765617E+03  0.53159973429E+03  0.92065748146E+02 0.  0.
        254    2    1    2    0    0  0.32826438967E+03  0.27290710884E+03 -0.14073190527E+03  0.99134555200E+03  0.88358629162E+03 0.  0.
        -24    2    4    4    0    0  0.66550927752E+02  0.38362155825E+03 -0.42475294223E+03  0.58177072980E+03  0.80296912635E+02 0.  0.
         24    2    4    4    0    0  0.26171346192E+03 -0.11071444940E+03  0.28402103697E+03  0.40957482220E+03  0.79573614266E+02 0.  0.
         13    1    3    3    0    0 -0.14486735755E+03 -0.17707962268E+03  0.14122850893E+03  0.26886657619E+03  0.00000000000E+00 0. -1.
        -13    1    3    3    0    0 -0.18339703211E+03 -0.95827486160E+02  0.16189914724E+03  0.26273315811E+03  0.00000000000E+00 0.  1.
          4    1    6    6  502    0  0.38002108635E+02  0.11522898851E+02  0.30784667300E+02  0.50245728171E+02  0.00000000000E+00 0. -1.
          3    1    5    5  503    0 -0.39291926224E+01  0.20538086632E+02 -0.54753184453E+02  0.58610261601E+02  0.00000000000E+00 0. -1.
         -4    1    5    5    0  503  0.70480120375E+02  0.36308347161E+03 -0.36999975778E+03  0.52316046820E+03  0.00000000000E+00 0.  1.
         -3    1    6    6    0  502  0.22371135328E+03 -0.12223734826E+03  0.25323636967E+03  0.35932909403E+03  0.00000000000E+00 0.  1.
<mgrwt>
<rscale>  0 0.15142622E+04</rscale>
<asrwt>0</asrwt>
<pdfrwt beam="1">  1        1 0.12964162E+00 0.15142622E+04</pdfrwt>
<pdfrwt beam="2">  1       -1 0.10465766E+00 0.15142622E+04</pdfrwt>
<totfact> 0.16845838E+01</totfact>
</mgrwt>
</event>
<event>
12    1  0.1097093E-007  0.1245369E+04  0.7818608E-02  0.9074046E-01
         -2   -1    0    0    0  501 -0.00000000000E+00  0.00000000000E+00  0.76437030592E+03  0.76437030592E+03  0.00000000000E+00 0.  1.
          2   -1    0    0  501    0  0.00000000000E+00 -0.00000000000E+00 -0.50726198751E+03  0.50726198751E+03  0.00000000000E+00 0. -1.
         23    2    1    2    0    0  0.14825674767E+03 -0.91420126524E+02  0.29466626782E+03  0.35417515372E+03  0.90962230355E+02 0.  0.
        254    2    1    2    0    0 -0.14825674767E+03  0.91420126524E+02 -0.37557949405E+02  0.91745713972E+03  0.89998850042E+03 0.  0.
        -24    2    4    4    0    0 -0.16006717301E+03 -0.31914306119E+03 -0.25479113128E+03  0.44593823020E+03  0.80427552477E+02 0.  0.
         24    2    4    4    0    0  0.11810425337E+02  0.41056318772E+03  0.21723318187E+03  0.47151890951E+03  0.80238453785E+02 0.  0.
         13    1    3    3    0    0  0.55082263140E+01  0.30890361214E+01 -0.56598379505E+01  0.84803577113E+01  0.00000000000E+00 0. -1.
        -13    1    3    3    0    0  0.14274852136E+03 -0.94509162645E+02  0.30032610577E+03  0.34569479600E+03  0.00000000000E+00 0.  1.
          4    1    6    6  502    0  0.29308486237E+02  0.13621014502E+03  0.10552538309E+03  0.17477928209E+03  0.00000000000E+00 0. -1.
          3    1    5    5  503    0 -0.18108793473E+01  0.49731474254E+01 -0.37167550916E+01  0.64672828712E+01  0.00000000000E+00 0. -1.
         -4    1    5    5    0  503 -0.15825629366E+03 -0.32411620862E+03 -0.25107437619E+03  0.43947094733E+03  0.00000000000E+00 0.  1.
         -3    1    6    6    0  502 -0.17498060899E+02  0.27435304270E+03  0.11170779878E+03  0.29673962742E+03  0.00000000000E+00 0.  1.
<mgrwt>
<rscale>  0 0.12453690E+04</rscale>
<asrwt>0</asrwt>
<pdfrwt beam="1">  1        2 0.78040306E-01 0.12453690E+04</pdfrwt>
<pdfrwt beam="2">  1       -2 0.11759543E+00 0.12453690E+04</pdfrwt>
<totfact> 0.33250235E+01</totfact>
</mgrwt>
</event>
<event>
12    1  0.1097093E-007  0.1135036E+04  0.7818608E-02  0.9171700E-01
         -1   -1    0    0    0  501 -0.00000000000E+00  0.00000000000E+00  0.23624401940E+03  0.23624401940E+03  0.00000000000E+00 0.  1.
          1   -1    0    0  501    0  0.00000000000E+00 -0.00000000000E+00 -0.13633227390E+04  0.13633227390E+04  0.00000000000E+00 0. -1.
         23    2    1    2    0    0 -0.12037253532E+03  0.17950258975E+03 -0.18863391601E+03  0.30109344902E+03  0.91453724849E+02 0.  0.
        254    2    1    2    0    0  0.12037253532E+03 -0.17950258975E+03 -0.93844480357E+03  0.12984733094E+04  0.87100146886E+03 0.  0.
        -24    2    4    4    0    0 -0.35293614235E+03 -0.21059635485E+00 -0.24719036336E+03  0.43785436782E+03  0.77777932302E+02 0.  0.
         24    2    4    4    0    0  0.47330867767E+03 -0.17929199340E+03 -0.69125444021E+03  0.86061894153E+03  0.81642747144E+02 0.  0.
         11    1    3    3    0    0 -0.55497323943E+02  0.80085677093E+02 -0.28046695546E+02  0.10139174410E+03  0.00000000000E+00 0. -1.
        -11    1    3    3    0    0 -0.64875211382E+02  0.99416912657E+02 -0.16058722046E+03  0.19970170493E+03  0.00000000000E+00 0.  1.
          4    1    6    6  502    0  0.19867873744E+03 -0.11815409817E+03 -0.32255058188E+03  0.39682806037E+03  0.00000000000E+00 0. -1.
          1    1    5    5  503    0 -0.13458770155E+03  0.35864076797E+02 -0.81321548242E+02  0.16128631567E+03  0.00000000000E+00 0. -1.
         -2    1    5    5    0  503 -0.21834844080E+03 -0.36074673152E+02 -0.16586881512E+03  0.27656805215E+03  0.00000000000E+00 0.  1.
         -3    1    6    6    0  502  0.27462994023E+03 -0.61137895228E+02 -0.36870385833E+03  0.46379088117E+03  0.00000000000E+00 0.  1.
<mgrwt>
<rscale>  0 0.11350363E+04</rscale>
<asrwt>0</asrwt>
<pdfrwt beam="1">  1        1 0.20974196E+00 0.11350363E+04</pdfrwt>
<pdfrwt beam="2">  1       -1 0.36345233E-01 0.11350363E+04</pdfrwt>
<totfact> 0.58747292E+01</totfact>
</mgrwt>
</event>
<event>
12    1  0.1097093E-007  0.1523316E+04  0.7818608E-02  0.8869095E-01
          2   -1    0    0  501    0  0.00000000000E+00  0.00000000000E+00  0.13214850650E+04  0.13214850650E+04  0.00000000000E+00 0. -1.
         -2   -1    0    0    0  501 -0.00000000000E+00 -0.00000000000E+00 -0.43899292364E+03  0.43899292364E+03  0.00000000000E+00 0.  1.
         23    2    1    2    0    0  0.44935974038E+03 -0.12132127578E+03  0.48349996048E+03  0.67776653259E+03  0.94616239027E+02 0.  0.
        254    2    1    2    0    0 -0.44935974038E+03  0.12132127578E+03  0.39899218092E+03  0.10827114561E+04  0.89242720066E+03 0.  0.
        -24    2    4    4    0    0 -0.78930526382E+02  0.72752994442E+02 -0.27621051181E+03  0.30689699513E+03  0.79815365622E+02 0.  0.
         24    2    4    4    0    0 -0.37042921399E+03  0.48568281339E+02  0.67520269272E+03  0.77581446095E+03  0.80079466984E+02 0.  0.
         11    1    3    3    0    0  0.29803595518E+03 -0.37363821884E+02  0.28002270475E+03  0.41065094781E+03  0.00000000000E+00 0. -1.
        -11    1    3    3    0    0  0.15132378520E+03 -0.83957453897E+02  0.20347725573E+03  0.26711558478E+03  0.00000000000E+00 0.  1.
          2    1    6    6  502    0 -0.24610435596E+03 -0.52619385972E+01  0.41733498978E+03  0.48452403008E+03  0.00000000000E+00 0. -1.
          1    1    5    5  503    0 -0.16826410072E+02  0.28396301092E+02 -0.17900511309E+02  0.37548718976E+02  0.00000000000E+00 0. -1.
         -2    1    5    5    0  503 -0.62104116310E+02  0.44356693351E+02 -0.25831000050E+03  0.26934827615E+03  0.00000000000E+00 0.  1.
         -1    1    6    6    0  502 -0.12432485803E+03  0.53830219936E+02  0.25786770294E+03  0.29129043088E+03  0.00000000000E+00 0.  1.
<mgrwt>
<rscale>  0 0.15233156E+04</rscale>
<asrwt>0</asrwt>
<pdfrwt beam="1">  1        2 0.20330539E+00 0.15233156E+04</pdfrwt>
<pdfrwt beam="2">  1       -2 0.67537374E-01 0.15233156E+04</pdfrwt>
<totfact> 0.31133995E+01</totfact>
</mgrwt>
</event>
<event>
12    1  0.1097093E-007  0.1993931E+04  0.7818608E-02  0.8609464E-01
          1   -1    0    0  501    0  0.00000000000E+00  0.00000000000E+00  0.34541692438E+04  0.34541692438E+04  0.00000000000E+00 0. -1.
         -1   -1    0    0    0  501 -0.00000000000E+00 -0.00000000000E+00 -0.28775076672E+03  0.28775076672E+03  0.00000000000E+00 0.  1.
         23    2    1    2    0    0 -0.46373645275E+03 -0.47272262504E+03  0.20750549838E+04  0.21801880227E+04  0.94066205930E+02 0.  0.
        254    2    1    2    0    0  0.46373645275E+03  0.47272262504E+03  0.10913634933E+04  0.15617319878E+04  0.89967457966E+03 0.  0.
        -24    2    4    4    0    0  0.40357100207E+03  0.53952781270E+03  0.12149625647E+04  0.13916996312E+04  0.82061048371E+02 0.  0.
         24    2    4    4    0    0  0.60165450676E+02 -0.66805187661E+02 -0.12359907132E+03  0.17003235656E+03  0.74508102188E+02 0.  0.
         11    1    3    3    0    0 -0.26738152007E+03 -0.24955039346E+03  0.99966716557E+03  0.10644729767E+04  0.00000000000E+00 0. -1.
        -11    1    3    3    0    0 -0.19635493267E+03 -0.22317223158E+03  0.10753878182E+04  0.11157150461E+04  0.00000000000E+00 0.  1.
          2    1    6    6  502    0  0.62900018649E+02 -0.79302181225E+02 -0.11948428055E+03  0.15659419399E+03  0.00000000000E+00 0. -1.
          3    1    5    5  503    0  0.34939674103E+03  0.41212005469E+03  0.96685654829E+03  0.11075796166E+04  0.00000000000E+00 0. -1.
         -4    1    5    5    0  503  0.54174261044E+02  0.12740775801E+03  0.24810601637E+03  0.28412001465E+03  0.00000000000E+00 0.  1.
         -1    1    6    6    0  502 -0.27345679730E+01  0.12496993564E+02 -0.41147907772E+01  0.13438162571E+02  0.00000000000E+00 0.  1.
<mgrwt>
<rscale>  0 0.19939306E+04</rscale>
<asrwt>0</asrwt>
<pdfrwt beam="1">  1        1 0.53141062E+00 0.19939306E+04</pdfrwt>
<pdfrwt beam="2">  1       -1 0.44269351E-01 0.19939306E+04</pdfrwt>
<totfact> 0.12777550E+00</totfact>
</mgrwt>
</event>
<event>
12    1  0.1097093E-007  0.2187124E+04  0.7818608E-02  0.8523806E-01
          1   -1    0    0  501    0  0.00000000000E+00  0.00000000000E+00  0.10892552785E+04  0.10892552785E+04  0.00000000000E+00 0. -1.
         -1   -1    0    0    0  501 -0.00000000000E+00 -0.00000000000E+00 -0.10978858786E+04  0.10978858786E+04  0.00000000000E+00 0.  1.
         23    2    1    2    0    0  0.49593303323E+03 -0.37967412042E+03  0.65253602992E+03  0.90884716231E+03  0.10048822283E+03 0.  0.
        254    2    1    2    0    0 -0.49593303323E+03  0.37967412042E+03 -0.66116663000E+03  0.12782939947E+04  0.89821612832E+03 0.  0.
        -24    2    4    4    0    0 -0.42258753250E+03  0.29760101529E+02 -0.78187092597E+03  0.89279931226E+03  0.79388795322E+02 0.  0.
         24    2    4    4    0    0 -0.73345500725E+02  0.34991401890E+03  0.12070429597E+03  0.38549468247E+03  0.78849477197E+02 0.  0.
         11    1    3    3    0    0  0.19272528028E+03 -0.17289304104E+03  0.33608264681E+03  0.42424825608E+03  0.00000000000E+00 0.  1.
        -11    1    3    3    0    0  0.30320775294E+03 -0.20678107939E+03  0.31645338311E+03  0.48459890623E+03  0.00000000000E+00 0. -1.
          4    1    6    6  502    0 -0.41628510675E+02  0.31891530524E+03  0.10256434959E+03  0.33757865842E+03  0.00000000000E+00 0. -1.
          1    1    5    5  503    0 -0.29013858796E+03  0.56164122269E+02 -0.55481821174E+03  0.62861598527E+03  0.00000000000E+00 0. -1.
         -2    1    5    5    0  503 -0.13244894454E+03 -0.26404020740E+02 -0.22705271423E+03  0.26418332699E+03  0.00000000000E+00 0.  1.
         -3    1    6    6    0  502 -0.31716990050E+02  0.30998713659E+02  0.18139946376E+02  0.47916024051E+02  0.00000000000E+00 0.  1.
<mgrwt>
<rscale>  0 0.21871241E+04</rscale>
<asrwt>0</asrwt>
<pdfrwt beam="1">  1        1 0.16757774E+00 0.21871241E+04</pdfrwt>
<pdfrwt beam="2">  1       -1 0.16890552E+00 0.21871241E+04</pdfrwt>
<totfact> 0.29558396E+00</totfact>
</mgrwt>
</event>
<event>
12    1  0.1097093E-007  0.1798018E+04  0.7818608E-02  0.8707354E-01
          2   -1    0    0  501    0  0.00000000000E+00  0.00000000000E+00  0.21567137584E+04  0.21567137584E+04  0.00000000000E+00 0.  1.
         -2   -1    0    0    0  501 -0.00000000000E+00 -0.00000000000E+00 -0.37474470262E+03  0.37474470262E+03  0.00000000000E+00 0. -1.
         23    2    1    2    0    0  0.10069591813E+03 -0.40610346925E+03 -0.63539027753E+02  0.43286011430E+03  0.90944899991E+02 0.  0.
        254    2    1    2    0    0 -0.10069591813E+03  0.40610346925E+03  0.18455080835E+04  0.20985983467E+04  0.90727903029E+03 0.  0.
        -24    2    4    4    0    0 -0.27339107284E+02  0.68079121646E+03  0.10953013883E+04  0.12924068246E+04  0.80038502297E+02 0.  0.
         24    2    4    4    0    0 -0.73356810846E+02 -0.27468774720E+03  0.75020669518E+03  0.80619152208E+03  0.79373198416E+02 0.  0.
         11    1    3    3    0    0  0.11020645701E+03 -0.28239256861E+03 -0.58183410102E+02  0.30866864950E+03  0.00000000000E+00 0. -1.
        -11    1    3    3    0    0 -0.95105388849E+01 -0.12371090064E+03 -0.53556176513E+01  0.12419146480E+03  0.00000000000E+00 0.  1.
          4    1    6    6  502    0 -0.76065011307E+02 -0.17704716218E+03  0.42524693245E+03  0.46686886503E+03  0.00000000000E+00 0. -1.
          3    1    5    5  503    0  0.24612377362E+02  0.18832806673E+03  0.33390427762E+03  0.38414228673E+03  0.00000000000E+00 0. -1.
         -4    1    5    5    0  503 -0.51951484645E+02  0.49246314973E+03  0.76139711072E+03  0.90826453791E+03  0.00000000000E+00 0.  1.
         -3    1    6    6    0  502  0.27082004619E+01 -0.97640585027E+02  0.32495976273E+03  0.33932265705E+03  0.00000000000E+00 0.  1.
<mgrwt>
<rscale>  0 0.17980179E+04</rscale>
<asrwt>0</asrwt>
<pdfrwt beam="1">  1        2 0.33180211E+00 0.17980179E+04</pdfrwt>
<pdfrwt beam="2">  1       -2 0.57653032E-01 0.17980179E+04</pdfrwt>
<totfact> 0.14531071E+01</totfact>
</mgrwt>
</event>
<event>
12    1  0.1097093E-007  0.3167087E+04  0.7818608E-02  0.8197564E-01
         -2   -1    0    0    0  501 -0.00000000000E+00  0.00000000000E+00  0.91741027015E+03  0.91741027015E+03  0.00000000000E+00 0.  1.
          2   -1    0    0  501    0  0.00000000000E+00 -0.00000000000E+00 -0.27333564323E+04  0.27333564323E+04  0.00000000000E+00 0. -1.
         23    2    1    2    0    0  0.58901314955E+03 -0.32187348093E+03 -0.23282467196E+04  0.24262869488E+04  0.12488611760E+03 0.  0.
        254    2    1    2    0    0 -0.58901314955E+03  0.32187348093E+03  0.51230055746E+03  0.12244797537E+04  0.88676929237E+03 0.  0.
        -24    2    4    4    0    0 -0.78522213076E+03  0.11116437674E+03  0.46374370075E+03  0.92219705816E+03  0.80360940756E+02 0.  0.
         24    2    4    4    0    0  0.19620898120E+03  0.21070910419E+03  0.48556856710E+02  0.30228269551E+03  0.78235342251E+02 0.  0.
         13    1    3    3    0    0  0.72314658448E+02 -0.58603400749E+02 -0.20262648921E+03  0.22298265075E+03  0.00000000000E+00 0.  1.
        -13    1    3    3    0    0  0.51669849110E+03 -0.26327008018E+03 -0.21256202304E+04  0.22033042981E+04  0.00000000000E+00 0. -1.
          2    1    6    6  502    0  0.49222498830E+01 -0.73240440882E+00  0.14254829322E+02  0.15098513805E+02  0.00000000000E+00 0. -1.
          1    1    5    5  503    0 -0.26199845828E+03  0.62064297362E+02  0.12410338252E+03  0.29647397643E+03  0.00000000000E+00 0. -1.
         -2    1    5    5    0  503 -0.52322367248E+03  0.49100079379E+02  0.33964031823E+03  0.62572308172E+03  0.00000000000E+00 0.  1.
         -1    1    6    6    0  502  0.19128673132E+03  0.21144150860E+03  0.34302027388E+02  0.28718418171E+03  0.00000000000E+00 0.  1.
<mgrwt>
<rscale>  0 0.31670865E+04</rscale>
<asrwt>0</asrwt>
<pdfrwt beam="1">  1        2 0.42051637E+00 0.31670865E+04</pdfrwt>
<pdfrwt beam="2">  1       -2 0.14114004E+00 0.31670865E+04</pdfrwt>
<totfact> 0.75278155E-01</totfact>
</mgrwt>
</event>
<event>
12    1  0.1097093E-007  0.1467574E+04  0.7818608E-02  0.8906307E-01
         -1   -1    0    0    0  501 -0.00000000000E+00  0.00000000000E+00  0.33732839327E+03  0.33732839327E+03  0.00000000000E+00 0.  1.
          1   -1    0    0  501    0  0.00000000000E+00 -0.00000000000E+00 -0.15961997408E+04  0.15961997408E+04  0.00000000000E+00 0. -1.
         23    2    1    2    0    0  0.26198614572E+03 -0.18808148816E+03  0.23267951601E+02  0.33600406743E+03  0.91356165731E+02 0.  0.
        254    2    1    2    0    0 -0.26198614572E+03  0.18808148816E+03 -0.12821392992E+04  0.15975240667E+04  0.89676673355E+03 0.  0.
        -24    2    4    4    0    0 -0.19201541225E+03 -0.86358159851E+02 -0.12840635220E+04  0.13033504430E+04  0.74669929254E+02 0.  0.
         24    2    4    4    0    0 -0.69970733468E+02  0.27443964802E+03  0.19242228397E+01  0.29417362371E+03  0.79507196564E+02 0.  0.
         13    1    3    3    0    0  0.48893639764E+02 -0.38055772806E+02 -0.31799729371E+02  0.69642319327E+02  0.00000000000E+00 0.  1.
        -13    1    3    3    0    0  0.21309250595E+03 -0.15002571536E+03  0.55067680972E+02  0.26636174810E+03  0.00000000000E+00 0. -1.
          2    1    6    6  502    0 -0.83105753628E+02  0.18157351265E+03  0.10689875921E+02  0.19997444894E+03  0.00000000000E+00 0. -1.
          1    1    5    5  503    0 -0.64266808283E+02 -0.31083216822E+02 -0.66555196254E+03  0.66936970640E+03  0.00000000000E+00 0. -1.
         -2    1    5    5    0  503 -0.12774860397E+03 -0.55274943030E+02 -0.61851155947E+03  0.63398073656E+03  0.00000000000E+00 0.  1.
         -1    1    6    6    0  502  0.13135020160E+02  0.92866135364E+02 -0.87656530808E+01  0.94199174763E+02  0.00000000000E+00 0.  1.
<mgrwt>
<rscale>  0 0.14675742E+04</rscale>
<asrwt>0</asrwt>
<pdfrwt beam="1">  1        1 0.24556919E+00 0.14675742E+04</pdfrwt>
<pdfrwt beam="2">  1       -1 0.51896675E-01 0.14675742E+04</pdfrwt>
<totfact> 0.20350939E+01</totfact>
</mgrwt>
</event>
<event>
12    1  0.1097093E-007  0.1803016E+04  0.7818608E-02  0.8704697E-01
         -1   -1    0    0    0  501 -0.00000000000E+00  0.00000000000E+00  0.91244769458E+03  0.91244769458E+03  0.00000000000E+00 0.  1.
          1   -1    0    0  501    0  0.00000000000E+00 -0.00000000000E+00 -0.89069972141E+03  0.89069972141E+03  0.00000000000E+00 0. -1.
         23    2    1    2    0    0  0.21320040499E+03  0.60987043345E+03 -0.24182195036E+03  0.70082932299E+03  0.12364273532E+03 0.  0.
        254    2    1    2    0    0 -0.21320040499E+03 -0.60987043345E+03  0.26356992353E+03  0.11023180930E+04  0.85336962407E+03 0.  0.
        -24    2    4    4    0    0 -0.48474453147E+03 -0.29909643570E+03  0.34674263577E+03  0.67176730352E+03  0.81270634152E+02 0.  0.
         24    2    4    4    0    0  0.27154412648E+03 -0.31077399775E+03 -0.83172712243E+02  0.43055078948E+03  0.90219687207E+02 0.  0.
         13    1    3    3    0    0  0.46941583545E+02  0.34660926148E+02 -0.12595547113E+02  0.59695392404E+02  0.00000000000E+00 0.  1.
        -13    1    3    3    0    0  0.16625882145E+03  0.57520950730E+03 -0.22922640325E+03  0.64113393058E+03  0.00000000000E+00 0. -1.
          2    1    6    6  502    0  0.21162043128E+03 -0.18040843228E+03 -0.41652430277E+02  0.28118558697E+03  0.00000000000E+00 0. -1.
          1    1    5    5  503    0 -0.44046964406E+03 -0.26195987393E+03  0.33649409363E+03  0.61307810101E+03  0.00000000000E+00 0. -1.
         -2    1    5    5    0  503 -0.44274887406E+02 -0.37136561766E+02  0.10248542140E+02  0.58689202504E+02  0.00000000000E+00 0.  1.
         -1    1    6    6    0  502  0.59923695199E+02 -0.13036556547E+03 -0.41520281966E+02  0.14936520251E+03  0.00000000000E+00 0.  1.
<mgrwt>
<rscale>  0 0.18030163E+04</rscale>
<asrwt>0</asrwt>
<pdfrwt beam="1">  1        1 0.13703073E+00 0.18030163E+04</pdfrwt>
<pdfrwt beam="2">  1       -1 0.14037657E+00 0.18030163E+04</pdfrwt>
<totfact> 0.72729073E+00</totfact>
</mgrwt>
</event>
<event>
12    1  0.1097093E-007  0.2875015E+04  0.7818608E-02  0.8280350E-01
          1   -1    0    0  501    0  0.00000000000E+00  0.00000000000E+00  0.13921297537E+04  0.13921297537E+04  0.00000000000E+00 0. -1.
         -1   -1    0    0    0  501 -0.00000000000E+00 -0.00000000000E+00 -0.14843639594E+04  0.14843639594E+04  0.00000000000E+00 0.  1.
         23    2    1    2    0    0  0.40198451352E+03 -0.43483582274E+03  0.11100791482E+04  0.12614960770E+04  0.91776331365E+02 0.  0.
        254    2    1    2    0    0 -0.40198451352E+03  0.43483582274E+03 -0.12023133539E+04  0.16149976362E+04  0.90110278108E+03 0.  0.
        -24    2    4    4    0    0  0.43528858728E+02  0.23126337039E+03  0.62416132511E+02  0.25637091487E+03  0.80329100363E+02 0.  0.
         24    2    4    4    0    0 -0.44551337225E+03  0.20357245235E+03 -0.12647294864E+04  0.13586267213E+04  0.80012410787E+02 0.  0.
         13    1    3    3    0    0  0.31391338037E+03 -0.27800410394E+03  0.78496835783E+03  0.88994562474E+03  0.00000000000E+00 0. -1.
        -13    1    3    3    0    0  0.88071133148E+02 -0.15683171880E+03  0.32511079039E+03  0.37155045222E+03  0.00000000000E+00 0.  1.
          2    1    6    6  502    0 -0.33107749715E+03  0.11299159742E+03 -0.92067907819E+03  0.98490069307E+03  0.00000000000E+00 0. -1.
          1    1    5    5  503    0  0.29070709061E+02  0.21143750626E+03  0.78078961644E+02  0.22726031204E+03  0.00000000000E+00 0. -1.
         -2    1    5    5    0  503  0.14458149667E+02  0.19825864137E+02 -0.15662829133E+02  0.29110602829E+02  0.00000000000E+00 0.  1.
         -1    1    6    6    0  502 -0.11443587510E+03  0.90580854928E+02 -0.34405040819E+03  0.37372602821E+03  0.00000000000E+00 0.  1.
<mgrwt>
<rscale>  0 0.28750146E+04</rscale>
<asrwt>0</asrwt>
<pdfrwt beam="1">  1        1 0.21417381E+00 0.28750146E+04</pdfrwt>
<pdfrwt beam="2">  1       -1 0.22836369E+00 0.28750146E+04</pdfrwt>
<totfact> 0.64784128E-01</totfact>
</mgrwt>
</event>
<event>
12    1  0.1097093E-007  0.1781662E+04  0.7818608E-02  0.8716113E-01
         -2   -1    0    0    0  501 -0.00000000000E+00  0.00000000000E+00  0.68245125434E+03  0.68245125434E+03  0.00000000000E+00 0.  1.
          2   -1    0    0  501    0  0.00000000000E+00 -0.00000000000E+00 -0.11628371554E+04  0.11628371554E+04  0.00000000000E+00 0. -1.
         23    2    1    2    0    0 -0.31640799890E+03  0.43578621094E+03 -0.57826553617E+03  0.79486145207E+03  0.85965424737E+02 0.  0.
        254    2    1    2    0    0  0.31640799890E+03 -0.43578621094E+03  0.97879635139E+02  0.10504269576E+04  0.89654488284E+03 0.  0.
        -24    2    4    4    0    0 -0.27781836042E+03  0.19327987898E+02 -0.11203039048E+02  0.28983352160E+03  0.79506915769E+02 0.  0.
         24    2    4    4    0    0  0.59422635932E+03 -0.45511419884E+03  0.10908267419E+03  0.76059343605E+03  0.79808803068E+02 0.  0.
         13    1    3    3    0    0 -0.13064545181E+02  0.34602328185E+01 -0.28357400456E+01  0.13809307497E+02  0.00000000000E+00 0.  1.
        -13    1    3    3    0    0 -0.30334345372E+03  0.43232597812E+03 -0.57542979612E+03  0.78105214457E+03  0.00000000000E+00 0. -1.
          2    1    6    6  502    0  0.27049311149E+03 -0.25573206821E+03  0.64355100706E+02  0.37776579128E+03  0.00000000000E+00 0. -1.
          3    1    5    5  503    0 -0.17433897498E+03 -0.25442957994E+02  0.28709427648E+01  0.17620915022E+03  0.00000000000E+00 0. -1.
         -4    1    5    5    0  503 -0.10347938544E+03  0.44770945892E+02 -0.14073981813E+02  0.11362437138E+03  0.00000000000E+00 0.  1.
         -1    1    6    6    0  502  0.32373324783E+03 -0.19938213063E+03  0.44727573481E+02  0.38282764477E+03  0.00000000000E+00 0.  1.
<mgrwt>
<rscale>  0 0.17816618E+04</rscale>
<asrwt>0</asrwt>
<pdfrwt beam="1">  1        2 0.17889802E+00 0.17816618E+04</pdfrwt>
<pdfrwt beam="2">  1       -2 0.10499250E+00 0.17816618E+04</pdfrwt>
<totfact> 0.13863999E+01</totfact>
</mgrwt>
</event>
<event>
12    1  0.1097093E-007  0.2483826E+04  0.7818608E-02  0.8408771E-01
         -2   -1    0    0    0  501 -0.00000000000E+00  0.00000000000E+00  0.10853931537E+04  0.10853931537E+04  0.00000000000E+00 0.  1.
          2   -1    0    0  501    0  0.00000000000E+00 -0.00000000000E+00 -0.14210033630E+04  0.14210033630E+04  0.00000000000E+00 0. -1.
         23    2    1    2    0    0  0.67565730199E+03  0.75294152401E+03  0.22621444665E+03  0.10406267463E+04  0.91089630772E+02 0.  0.
        254    2    1    2    0    0 -0.67565730199E+03 -0.75294152401E+03 -0.56182465600E+03  0.14657697705E+04  0.89966679812E+03 0.  0.
        -24    2    4    4    0    0 -0.90696314747E+02 -0.73969203853E+03 -0.41710629300E+03  0.85777171399E+03  0.80153105214E+02 0.  0.
         24    2    4    4    0    0 -0.58496098725E+03 -0.13249485476E+02 -0.14471836299E+03  0.60799805649E+03  0.79770462229E+02 0.  0.
         11    1    3    3    0    0  0.58344183775E+03  0.69076034353E+03  0.19305030390E+03  0.92456619561E+03  0.00000000000E+00 0.  1.
        -11    1    3    3    0    0  0.92215464244E+02  0.62181180478E+02  0.33164142747E+02  0.11606055064E+03  0.00000000000E+00 0. -1.
          4    1    6    6  502    0 -0.26609527521E+02 -0.66926827938E-01  0.10048977854E+02  0.28443863837E+02  0.00000000000E+00 0. -1.
          1    1    5    5  503    0 -0.29866896895E+02 -0.60570734290E+02 -0.32656200411E+02  0.75015150522E+02  0.00000000000E+00 0. -1.
         -2    1    5    5    0  503 -0.60829417851E+02 -0.67912130424E+03 -0.38445009259E+03  0.78275656346E+03  0.00000000000E+00 0.  1.
         -3    1    6    6    0  502 -0.55835145973E+03 -0.13182558648E+02 -0.15476734085E+03  0.57955419265E+03  0.00000000000E+00 0.  1.
<mgrwt>
<rscale>  0 0.24838255E+04</rscale>
<asrwt>0</asrwt>
<pdfrwt beam="1">  1        2 0.21861590E+00 0.24838255E+04</pdfrwt>
<pdfrwt beam="2">  1       -2 0.16698356E+00 0.24838255E+04</pdfrwt>
<totfact> 0.28161988E+00</totfact>
</mgrwt>
</event>
<event>
12    1  0.1097093E-007  0.1418470E+04  0.7818608E-02  0.8940556E-01
         -2   -1    0    0    0  501 -0.00000000000E+00  0.00000000000E+00  0.54939585037E+03  0.54939585037E+03  0.00000000000E+00 0.  1.
          2   -1    0    0  501    0  0.00000000000E+00 -0.00000000000E+00 -0.91557741037E+03  0.91557741037E+03  0.00000000000E+00 0. -1.
         23    2    1    2    0    0 -0.89054622517E+01  0.38789368153E+03 -0.23432903105E+03  0.46228561015E+03  0.90868449620E+02 0.  0.
        254    2    1    2    0    0  0.89054622517E+01 -0.38789368153E+03 -0.13185252896E+03  0.10026876506E+04  0.91512655945E+03 0.  0.
        -24    2    4    4    0    0  0.20106408367E+03 -0.63538029359E+03 -0.89983637430E+02  0.67655929709E+03  0.74165654109E+02 0.  0.
         24    2    4    4    0    0 -0.19215862142E+03  0.24748661206E+03 -0.41868891529E+02  0.32612835350E+03  0.80200623100E+02 0.  0.
         13    1    3    3    0    0 -0.17074594981E+02  0.21738628962E+03 -0.80325936155E+02  0.23238028473E+03  0.00000000000E+00 0. -1.
        -13    1    3    3    0    0  0.81691327297E+01  0.17050739190E+03 -0.15400309489E+03  0.22990532543E+03  0.00000000000E+00 0.  1.
          2    1    6    6  502    0 -0.15612976803E+03  0.16303880925E+03 -0.57614736388E+02  0.23297556875E+03  0.00000000000E+00 0. -1.
          1    1    5    5  503    0  0.15512432714E+03 -0.39229301971E+03 -0.36279241073E+02  0.42340707778E+03  0.00000000000E+00 0. -1.
         -2    1    5    5    0  503  0.45939756532E+02 -0.24308727387E+03 -0.53704396357E+02  0.25315221930E+03  0.00000000000E+00 0.  1.
         -1    1    6    6    0  502 -0.36028853385E+02  0.84447802810E+02  0.15745844860E+02  0.93152784746E+02  0.00000000000E+00 0.  1.
<mgrwt>
<rscale>  0 0.14184702E+04</rscale>
<asrwt>0</asrwt>
<pdfrwt beam="1">  1        2 0.14085806E+00 0.14184702E+04</pdfrwt>
<pdfrwt beam="2">  1       -2 0.84522439E-01 0.14184702E+04</pdfrwt>
<totfact> 0.33963135E+01</totfact>
</mgrwt>
</event>
<event>
12    1  0.1097093E-007  0.1545865E+04  0.7818608E-02  0.8854514E-01
          2   -1    0    0  501    0  0.00000000000E+00  0.00000000000E+00  0.10245925971E+04  0.10245925971E+04  0.00000000000E+00 0. -1.
         -2   -1    0    0    0  501 -0.00000000000E+00 -0.00000000000E+00 -0.58308473611E+03  0.58308473611E+03  0.00000000000E+00 0.  1.
         23    2    1    2    0    0 -0.32932118510E+03  0.97558970484E+02 -0.23774248293E+03  0.42750970458E+03  0.90955283739E+02 0.  0.
        254    2    1    2    0    0  0.32932118510E+03 -0.97558970484E+02  0.67925034397E+03  0.11801676287E+04  0.90191152909E+03 0.  0.
        -24    2    4    4    0    0  0.12463402135E+02 -0.11229517242E+03  0.81443168376E+03  0.82624037715E+03  0.81293610890E+02 0.  0.
         24    2    4    4    0    0  0.31685778297E+03  0.14736201939E+02 -0.13518133980E+03  0.35392725152E+03  0.79840431261E+02 0.  0.
         11    1    3    3    0    0 -0.13320397636E+03  0.51699722488E+02 -0.15198744646E+03  0.20860571542E+03  0.00000000000E+00 0.  1.
        -11    1    3    3    0    0 -0.19611720874E+03  0.45859247996E+02 -0.85755036479E+02  0.21890398917E+03  0.00000000000E+00 0. -1.
          4    1    6    6  502    0  0.42063926556E+01  0.11459953952E+02 -0.14055780303E+02  0.18616907468E+02  0.00000000000E+00 0. -1.
          1    1    5    5  503    0  0.24269867257E+02 -0.42440050492E+02  0.14393862393E+03  0.15201484073E+03  0.00000000000E+00 0. -1.
         -2    1    5    5    0  503 -0.11806465122E+02 -0.69855121931E+02  0.67049305983E+03  0.67422553642E+03  0.00000000000E+00 0.  1.
         -3    1    6    6    0  502  0.31265139031E+03  0.32762479869E+01 -0.12112555949E+03  0.33531034405E+03  0.00000000000E+00 0.  1.
<mgrwt>
<rscale>  0 0.15458646E+04</rscale>
<asrwt>0</asrwt>
<pdfrwt beam="1">  1        2 0.15762963E+00 0.15458646E+04</pdfrwt>
<pdfrwt beam="2">  1       -2 0.89705344E-01 0.15458646E+04</pdfrwt>
<totfact> 0.24912247E+01</totfact>
</mgrwt>
</event>
<event>
12    1  0.1097093E-007  0.1362034E+04  0.7818608E-02  0.8981768E-01
         -2   -1    0    0    0  501 -0.00000000000E+00  0.00000000000E+00  0.10639016817E+03  0.10639016817E+03  0.00000000000E+00 0.  1.
          2   -1    0    0  501    0  0.00000000000E+00 -0.00000000000E+00 -0.43592792551E+04  0.43592792551E+04  0.00000000000E+00 0. -1.
         23    2    1    2    0    0 -0.10332431629E+03  0.96605274449E+02 -0.68210316773E+02  0.18327834245E+03  0.94497672505E+02 0.  0.
        254    2    1    2    0    0  0.10332431629E+03 -0.96605274449E+02 -0.41846787702E+04  0.42823910808E+04  0.89851458886E+03 0.  0.
        -24    2    4    4    0    0  0.67597837561E+02  0.27741930690E+03 -0.33555923828E+04  0.33686787119E+04  0.80405753668E+02 0.  0.
         24    2    4    4    0    0  0.35726478726E+02 -0.37402458135E+03 -0.82908638736E+03  0.91371236890E+03  0.79468777792E+02 0.  0.
         13    1    3    3    0    0 -0.79587822840E+02  0.10138799162E+02 -0.36828355273E+02  0.88279921528E+02  0.00000000000E+00 0. -1.
        -13    1    3    3    0    0 -0.23736493447E+02  0.86466475287E+02 -0.31381961501E+02  0.94998420920E+02  0.00000000000E+00 0.  1.
          2    1    6    6  502    0 -0.24458846243E+00  0.41346999304E+01 -0.78072860845E+01  0.88379456343E+01  0.00000000000E+00 0. -1.
          3    1    5    5  503    0 -0.17672637057E+02  0.33599770440E+02 -0.37632696673E+03  0.37823703225E+03  0.00000000000E+00 0. -1.
         -4    1    5    5    0  503  0.85270474618E+02  0.24381953646E+03 -0.29792654161E+04  0.29904416797E+04  0.00000000000E+00 0.  1.
         -1    1    6    6    0  502  0.35971067188E+02 -0.37815928128E+03 -0.82127910128E+03  0.90487442327E+03  0.00000000000E+00 0.  1.
<mgrwt>
<rscale>  0 0.13620344E+04</rscale>
<asrwt>0</asrwt>
<pdfrwt beam="1">  1        2 0.67065853E+00 0.13620344E+04</pdfrwt>
<pdfrwt beam="2">  1       -2 0.16367714E-01 0.13620344E+04</pdfrwt>
<totfact> 0.51489277E+00</totfact>
</mgrwt>
</event>
<event>
12    1  0.1097093E-007  0.2304076E+04  0.7818608E-02  0.8476316E-01
          1   -1    0    0  501    0  0.00000000000E+00  0.00000000000E+00  0.70415670438E+03  0.70415670438E+03  0.00000000000E+00 0. -1.
         -1   -1    0    0    0  501 -0.00000000000E+00 -0.00000000000E+00 -0.18847956339E+04  0.18847956339E+04  0.00000000000E+00 0.  1.
         23    2    1    2    0    0 -0.79238893262E+03 -0.18062360181E+03 -0.11054039778E+04  0.13745050254E+04  0.82710366153E+02 0.  0.
        254    2    1    2    0    0  0.79238893262E+03  0.18062360181E+03 -0.75234951690E+02  0.12144473128E+04  0.89928686837E+03 0.  0.
        -24    2    4    4    0    0  0.63178675323E+03  0.44664197076E+03 -0.28780492878E+03  0.82952729573E+03  0.81488071110E+02 0.  0.
         24    2    4    4    0    0  0.16060217939E+03 -0.26601836895E+03  0.21256997708E+03  0.38492001711E+03  0.80116114282E+02 0.  0.
         11    1    3    3    0    0 -0.40102971954E+03 -0.49391368266E+02 -0.53738035592E+03  0.67234068012E+03  0.00000000000E+00 0. -1.
        -11    1    3    3    0    0 -0.39135921308E+03 -0.13123223355E+03 -0.56802362185E+03  0.70216434527E+03  0.00000000000E+00 0.  1.
          4    1    6    6  502    0  0.11745133015E+03 -0.17835741338E+03  0.18716232632E+03  0.28396464261E+03  0.00000000000E+00 0. -1.
          1    1    5    5  503    0  0.37341505759E+03  0.22848942839E+03 -0.19229727239E+03  0.47814690743E+03  0.00000000000E+00 0. -1.
         -2    1    5    5    0  503  0.25837169565E+03  0.21815254237E+03 -0.95507656385E+02  0.35138038830E+03  0.00000000000E+00 0.  1.
         -3    1    6    6    0  502  0.43150849241E+02 -0.87660955570E+02  0.25407650767E+02  0.10095537449E+03  0.00000000000E+00 0.  1.
<mgrwt>
<rscale>  0 0.23040759E+04</rscale>
<asrwt>0</asrwt>
<pdfrwt beam="1">  1        1 0.10833180E+00 0.23040759E+04</pdfrwt>
<pdfrwt beam="2">  1       -1 0.28996855E+00 0.23040759E+04</pdfrwt>
<totfact> 0.93593939E-01</totfact>
</mgrwt>
</event>
<event>
12    1  0.1097093E-007  0.2357001E+04  0.7818608E-02  0.8455779E-01
         -1   -1    0    0    0  501 -0.00000000000E+00  0.00000000000E+00  0.71670216846E+03  0.71670216846E+03  0.00000000000E+00 0.  1.
          1   -1    0    0  501    0  0.00000000000E+00 -0.00000000000E+00 -0.19378531714E+04  0.19378531714E+04  0.00000000000E+00 0. -1.
         23    2    1    2    0    0 -0.75615164605E+03  0.43584005839E+03 -0.10826547762E+04  0.13935633232E+04  0.90307823365E+02 0.  0.
        254    2    1    2    0    0  0.75615164605E+03 -0.43584005839E+03 -0.13849622675E+03  0.12609920167E+04  0.89955421906E+03 0.  0.
        -24    2    4    4    0    0  0.40468378186E+03 -0.26400621175E+03 -0.51683070466E+03  0.71184752401E+03  0.78387990203E+02 0.  0.
         24    2    4    4    0    0  0.35146786419E+03 -0.17183384664E+03  0.37833447791E+03  0.54914449269E+03  0.73254121183E+02 0.  0.
         11    1    3    3    0    0 -0.18627340322E+03  0.15337131079E+03 -0.30696507721E+03  0.39044602488E+03  0.00000000000E+00 0.  1.
        -11    1    3    3    0    0 -0.56987824283E+03  0.28246874760E+03 -0.77568969897E+03  0.10031172983E+04  0.00000000000E+00 0. -1.
          2    1    6    6  502    0  0.45217547945E+01 -0.73064937106E+01  0.28254986217E+02  0.29532615240E+02  0.00000000000E+00 0. -1.
          1    1    5    5  503    0  0.73834436951E+02 -0.24493713426E+02 -0.11529107584E+03  0.13908090539E+03  0.00000000000E+00 0. -1.
         -2    1    5    5    0  503  0.33084934491E+03 -0.23951249832E+03 -0.40153962883E+03  0.57276661861E+03  0.00000000000E+00 0.  1.
         -1    1    6    6    0  502  0.34694610940E+03 -0.16452735293E+03  0.35007949169E+03  0.51961187745E+03  0.00000000000E+00 0.  1.
<mgrwt>
<rscale>  0 0.23570011E+04</rscale>
<asrwt>0</asrwt>
<pdfrwt beam="1">  1        1 0.29813126E+00 0.23570011E+04</pdfrwt>
<pdfrwt beam="2">  1       -1 0.11026187E+00 0.23570011E+04</pdfrwt>
<totfact> 0.22412179E+00</totfact>
</mgrwt>
</event>
<event>
12    1  0.1097093E-007  0.1350517E+04  0.7818608E-02  0.8990437E-01
         -1   -1    0    0    0  501 -0.00000000000E+00  0.00000000000E+00  0.31899773919E+03  0.31899773919E+03  0.00000000000E+00 0.  1.
          1   -1    0    0  501    0  0.00000000000E+00 -0.00000000000E+00 -0.14293955345E+04  0.14293955345E+04  0.00000000000E+00 0. -1.
         23    2    1    2    0    0 -0.22056857489E+03 -0.28210097741E+03 -0.28367091571E+03  0.46634016884E+03  0.93661662209E+02 0.  0.
        254    2    1    2    0    0  0.22056857489E+03  0.28210097741E+03 -0.82672687964E+03  0.12820531049E+04  0.91211368401E+03 0.  0.
        -24    2    4    4    0    0  0.38111254134E+03 -0.21150780378E+03 -0.28081789042E+03  0.52468878966E+03  0.80357440162E+02 0.  0.
         24    2    4    4    0    0 -0.16054396644E+03  0.49360878119E+03 -0.54590898921E+03  0.75736431523E+03  0.78486224628E+02 0.  0.
         13    1    3    3    0    0 -0.15263515182E+01 -0.47382684799E+02 -0.52418485551E+02  0.70676348202E+02  0.00000000000E+00 0. -1.
        -13    1    3    3    0    0 -0.21904222337E+03 -0.23471829261E+03 -0.23125243016E+03  0.39566382064E+03  0.00000000000E+00 0.  1.
          2    1    6    6  502    0 -0.12211428611E+03  0.44951363202E+03 -0.49648809375E+03  0.68078985853E+03  0.00000000000E+00 0. -1.
          1    1    5    5  503    0  0.34009124340E+03 -0.16234402038E+03 -0.21994485204E+03  0.43634089051E+03  0.00000000000E+00 0. -1.
         -2    1    5    5    0  503  0.41021297937E+02 -0.49163783407E+02 -0.60873038377E+02  0.88347899152E+02  0.00000000000E+00 0.  1.
         -1    1    6    6    0  502 -0.38429680335E+02  0.44095149172E+02 -0.49420895467E+02  0.76574456707E+02  0.00000000000E+00 0.  1.
<mgrwt>
<rscale>  0 0.13505169E+04</rscale>
<asrwt>0</asrwt>
<pdfrwt beam="1">  1        1 0.21990700E+00 0.13505169E+04</pdfrwt>
<pdfrwt beam="2">  1       -1 0.49076576E-01 0.13505169E+04</pdfrwt>
<totfact> 0.29819415E+01</totfact>
</mgrwt>
</event>
<event>
12    1  0.1097093E-007  0.3861155E+04  0.7818608E-02  0.8033157E-01
         -2   -1    0    0    0  501 -0.00000000000E+00  0.00000000000E+00  0.11329360996E+04  0.11329360996E+04  0.00000000000E+00 0.  1.
          2   -1    0    0  501    0  0.00000000000E+00 -0.00000000000E+00 -0.32897967573E+04  0.32897967573E+04  0.00000000000E+00 0. -1.
         23    2    1    2    0    0 -0.60649577449E+02 -0.11612144467E+04 -0.26293967754E+04  0.28765755705E+04  0.94139511500E+02 0.  0.
        254    2    1    2    0    0  0.60649577449E+02  0.11612144467E+04  0.47253611773E+03  0.15461572864E+04  0.90289235750E+03 0.  0.
        -24    2    4    4    0    0 -0.45135150691E+02  0.12135808809E+03  0.47486210724E+03  0.49800576720E+03  0.75833738518E+02 0.  0.
         24    2    4    4    0    0  0.10578472814E+03  0.10398563587E+04 -0.23259895165E+01  0.10481515192E+04  0.78259451043E+02 0.  0.
         11    1    3    3    0    0 -0.17570402079E+02 -0.43687962500E+03 -0.87903687298E+03  0.98177306432E+03  0.00000000000E+00 0. -1.
        -11    1    3    3    0    0 -0.43079175370E+02 -0.72433482175E+03 -0.17503599025E+04  0.18948025062E+04  0.00000000000E+00 0.  1.
          2    1    6    6  502    0  0.51903045947E+02  0.20687360597E+03 -0.73721018442E+01  0.21341265874E+03  0.00000000000E+00 0. -1.
          1    1    5    5  503    0 -0.13628705621E+02  0.53979056872E+02  0.88544040688E+02  0.10459219540E+03  0.00000000000E+00 0. -1.
         -2    1    5    5    0  503 -0.31506445070E+02  0.67379031218E+02  0.38631806656E+03  0.39341357180E+03  0.00000000000E+00 0.  1.
         -1    1    6    6    0  502  0.53881682193E+02  0.83298275268E+03  0.50461123277E+01  0.83473886048E+03  0.00000000000E+00 0.  1.
<mgrwt>
<rscale>  0 0.38611550E+04</rscale>
<asrwt>0</asrwt>
<pdfrwt beam="1">  1        2 0.50612258E+00 0.38611550E+04</pdfrwt>
<pdfrwt beam="2">  1       -2 0.17429786E+00 0.38611550E+04</pdfrwt>
<totfact> 0.17916262E-01</totfact>
</mgrwt>
</event>
<event>
12    1  0.1320082E-007  0.1579832E+04  0.7818608E-02  0.8833035E-01
         -2   -1    0    0    0  501 -0.00000000000E+00  0.00000000000E+00  0.36522325249E+03  0.36522325249E+03  0.00000000000E+00 0.  1.
          2   -1    0    0  501    0  0.00000000000E+00 -0.00000000000E+00 -0.17084539058E+04  0.17084539058E+04  0.00000000000E+00 0. -1.
         23    2    1    2    0    0 -0.19309310293E+03 -0.28740501974E+03 -0.98724957389E+03  0.10501525937E+04  0.90951400423E+02 0.  0.
        254    2    1    2    0    0  0.19309310293E+03  0.28740501974E+03 -0.35598107941E+03  0.10235245645E+04  0.89498235376E+03 0.  0.
        -24    2    4    4    0    0  0.17785244131E+03  0.18987320849E+03  0.27083685547E+03  0.38395820744E+03  0.79924818407E+02 0.  0.
         24    2    4    4    0    0  0.15240661620E+02  0.97531811248E+02 -0.62681793488E+03  0.63956635710E+03  0.79997935436E+02 0.  0.
         11    1    3    3    0    0 -0.20243233970E+03 -0.26655148256E+03 -0.93584220519E+03  0.99389595936E+03  0.00000000000E+00 0. -1.
        -11    1    3    3    0    0  0.93392367701E+01 -0.20853537178E+02 -0.51407368696E+02  0.56256634387E+02  0.00000000000E+00 0.  1.
          2    1    6    6  502    0  0.47027861448E+02  0.64018959676E+02 -0.44073569368E+03  0.44783702241E+03  0.00000000000E+00 0. -1.
          3    1    5    5  503    0  0.51040127253E+02  0.99900066937E+02  0.14850864653E+03  0.18611807021E+03  0.00000000000E+00 0. -1.
         -4    1    5    5    0  503  0.12681231405E+03  0.89973141555E+02  0.12232820894E+03  0.19784013723E+03  0.00000000000E+00 0.  1.
         -1    1    6    6    0  502 -0.31787199828E+02  0.33512851573E+02 -0.18608224120E+03  0.19172933469E+03  0.00000000000E+00 0.  1.
<mgrwt>
<rscale>  0 0.15798318E+04</rscale>
<asrwt>0</asrwt>
<pdfrwt beam="1">  1        2 0.26283906E+00 0.15798318E+04</pdfrwt>
<pdfrwt beam="2">  1       -2 0.56188194E-01 0.15798318E+04</pdfrwt>
<totfact> 0.27700290E+01</totfact>
</mgrwt>
</event>
<event>
12    1  0.1097093E-007  0.1919691E+04  0.7818608E-02  0.8645116E-01
          1   -1    0    0  501    0  0.00000000000E+00  0.00000000000E+00  0.24737780799E+04  0.24737780799E+04  0.00000000000E+00 0. -1.
         -1   -1    0    0    0  501 -0.00000000000E+00 -0.00000000000E+00 -0.37242782046E+03  0.37242782046E+03  0.00000000000E+00 0.  1.
         23    2    1    2    0    0  0.71845496297E+03 -0.32248234887E+02  0.10820168176E+04  0.13024192971E+04  0.91203888795E+02 0.  0.
        254    2    1    2    0    0 -0.71845496297E+03  0.32248234887E+02  0.10193334419E+04  0.15437866033E+04  0.90940581063E+03 0.  0.
        -24    2    4    4    0    0 -0.56901604103E+03 -0.10734331753E+02  0.11773799427E+04  0.13098775399E+04  0.75240675896E+02 0.  0.
         24    2    4    4    0    0 -0.14943892194E+03  0.42982566640E+02 -0.15804650085E+03  0.23390906337E+03  0.74533623768E+02 0.  0.
         11    1    3    3    0    0  0.25825487659E+03 -0.14726655617E+02  0.47004167472E+03  0.53651806273E+03  0.00000000000E+00 0.  1.
        -11    1    3    3    0    0  0.46020008639E+03 -0.17521579270E+02  0.61197514287E+03  0.76590123433E+03  0.00000000000E+00 0. -1.
          4    1    6    6  502    0  0.69642162357E+01  0.88967969162E+01 -0.47030161094E+01  0.12238123372E+02  0.00000000000E+00 0. -1.
          3    1    5    5  503    0 -0.18464847371E+01  0.63651143710E+01  0.12624553083E+02  0.14258454593E+02  0.00000000000E+00 0. -1.
         -4    1    5    5    0  503 -0.56716955629E+03 -0.17099446124E+02  0.11647553896E+04  0.12956190854E+04  0.00000000000E+00 0.  1.
         -3    1    6    6    0  502 -0.15640313818E+03  0.34085769724E+02 -0.15334348474E+03  0.22167094000E+03  0.00000000000E+00 0.  1.
<mgrwt>
<rscale>  0 0.19196914E+04</rscale>
<asrwt>0</asrwt>
<pdfrwt beam="1">  1        1 0.38058123E+00 0.19196914E+04</pdfrwt>
<pdfrwt beam="2">  1       -1 0.57296589E-01 0.19196914E+04</pdfrwt>
<totfact> 0.40728653E+00</totfact>
</mgrwt>
</event>
<event>
12    1  0.1097093E-007  0.1413753E+04  0.7818608E-02  0.8943923E-01
          2   -1    0    0  501    0  0.00000000000E+00  0.00000000000E+00  0.17290025521E+04  0.17290025521E+04  0.00000000000E+00 0. -1.
         -2   -1    0    0    0  501 -0.00000000000E+00 -0.00000000000E+00 -0.28899565386E+03  0.28899565386E+03  0.00000000000E+00 0.  1.
         23    2    1    2    0    0  0.22992771494E+03  0.11235245881E+03 -0.29557565693E+02  0.27249945810E+03  0.88839607592E+02 0.  0.
        254    2    1    2    0    0 -0.22992771494E+03 -0.11235245881E+03  0.14695644640E+04  0.17454987479E+04  0.90645261103E+03 0.  0.
        -24    2    4    4    0    0 -0.47358800583E+03 -0.18516270816E+03  0.13654531972E+04  0.14592740123E+04  0.80295588485E+02 0.  0.
         24    2    4    4    0    0  0.24366029089E+03  0.72810249345E+02  0.10411126673E+03  0.28622473554E+03  0.80086038776E+02 0.  0.
         11    1    3    3    0    0  0.74813311035E+02  0.85210036949E+02 -0.14317124763E+02  0.11429244055E+03  0.00000000000E+00 0. -1.
        -11    1    3    3    0    0  0.15511440391E+03  0.27142421862E+02 -0.15240440930E+02  0.15820701756E+03  0.00000000000E+00 0.  1.
          4    1    6    6  502    0  0.89099610384E+02  0.35206245996E+01  0.70189604403E+02  0.11348002438E+03  0.00000000000E+00 0. -1.
          1    1    5    5  503    0 -0.11945587056E+03 -0.81739604441E+02  0.34259398649E+03  0.37191626413E+03  0.00000000000E+00 0. -1.
         -2    1    5    5    0  503 -0.35413213528E+03 -0.10342310371E+03  0.10228592107E+04  0.10873577482E+04  0.00000000000E+00 0.  1.
         -3    1    6    6    0  502  0.15456068051E+03  0.69289624745E+02  0.33921662326E+02  0.17274471115E+03  0.00000000000E+00 0.  1.
<mgrwt>
<rscale>  0 0.14137528E+04</rscale>
<asrwt>0</asrwt>
<pdfrwt beam="1">  1        2 0.26600039E+00 0.14137528E+04</pdfrwt>
<pdfrwt beam="2">  1       -2 0.44460871E-01 0.14137528E+04</pdfrwt>
<totfact> 0.44074696E+01</totfact>
</mgrwt>
</event>
<event>
12    1  0.1097093E-007  0.2241419E+04  0.7818608E-02  0.8501384E-01
          2   -1    0    0  501    0  0.00000000000E+00  0.00000000000E+00  0.15643980636E+04  0.15643980636E+04  0.00000000000E+00 0.  1.
         -2   -1    0    0    0  501 -0.00000000000E+00 -0.00000000000E+00 -0.80285815934E+03  0.80285815934E+03  0.00000000000E+00 0. -1.
         23    2    1    2    0    0  0.50089243501E+03  0.29651064576E+03  0.10992838576E+04  0.12473023752E+04  0.92338622696E+02 0.  0.
        254    2    1    2    0    0 -0.50089243501E+03 -0.29651064576E+03 -0.33774395327E+03  0.11199538477E+04  0.89521720750E+03 0.  0.
        -24    2    4    4    0    0 -0.49418142486E+03 -0.22975435048E+03 -0.61449626951E+03  0.82526848181E+03  0.80374495875E+02 0.  0.
         24    2    4    4    0    0 -0.67110101539E+01 -0.66756295281E+02  0.27675231624E+03  0.29468536593E+03  0.75803560161E+02 0.  0.
         11    1    3    3    0    0  0.29062511066E+03  0.11908237948E+03  0.60020632201E+03  0.67741508474E+03  0.00000000000E+00 0.  1.
        -11    1    3    3    0    0  0.21026732435E+03  0.17742826628E+03  0.49907753555E+03  0.56988729048E+03  0.00000000000E+00 0. -1.
          4    1    6    6  502    0 -0.13588130622E+02 -0.36651854163E+02  0.25226257094E+03  0.25527318779E+03  0.00000000000E+00 0. -1.
          3    1    5    5  503    0 -0.36576357143E+03 -0.20132647337E+03 -0.43744888309E+03  0.60471221617E+03  0.00000000000E+00 0. -1.
         -4    1    5    5    0  503 -0.12841785343E+03 -0.28427877108E+02 -0.17704738642E+03  0.22055626564E+03  0.00000000000E+00 0.  1.
         -3    1    6    6    0  502  0.68771204682E+01 -0.30104441118E+02  0.24489745300E+02  0.39412178141E+02  0.00000000000E+00 0.  1.
<mgrwt>
<rscale>  0 0.22414190E+04</rscale>
<asrwt>0</asrwt>
<pdfrwt beam="1">  1        2 0.24067662E+00 0.22414190E+04</pdfrwt>
<pdfrwt beam="2">  1       -2 0.12351664E+00 0.22414190E+04</pdfrwt>
<totfact> 0.52559972E+00</totfact>
</mgrwt>
</event>
<event>
12    1  0.1097093E-007  0.2770766E+04  0.7818608E-02  0.8312402E-01
          1   -1    0    0  501    0  0.00000000000E+00  0.00000000000E+00  0.16847419521E+04  0.16847419521E+04  0.00000000000E+00 0. -1.
         -1   -1    0    0    0  501 -0.00000000000E+00 -0.00000000000E+00 -0.11392168858E+04  0.11392168858E+04  0.00000000000E+00 0.  1.
         23    2    1    2    0    0 -0.82900559763E+03  0.85252526648E+03  0.57463188316E+03  0.13238661812E+04  0.91489090642E+02 0.  0.
        254    2    1    2    0    0  0.82900559763E+03 -0.85252526648E+03 -0.29106816876E+02  0.15000926566E+04  0.91399188222E+03 0.  0.
        -24    2    4    4    0    0  0.63664582242E+03 -0.98288069070E+03 -0.21149949726E+03  0.11926852704E+04  0.79961000191E+02 0.  0.
         24    2    4    4    0    0  0.19235977521E+03  0.13035542422E+03  0.18239268039E+03  0.30740738622E+03  0.85072859943E+02 0.  0.
         13    1    3    3    0    0 -0.53912913964E+03  0.55243627412E+03  0.32405298626E+03  0.83717166942E+03  0.00000000000E+00 0. -1.
        -13    1    3    3    0    0 -0.28987645799E+03  0.30008899237E+03  0.25057889690E+03  0.48669451179E+03  0.00000000000E+00 0.  1.
          4    1    6    6  502    0  0.17677572369E+03  0.11690109479E+03  0.19080159816E+03  0.28516797210E+03  0.00000000000E+00 0. -1.
          1    1    5    5  503    0  0.39099141323E+03 -0.66880881230E+03 -0.12605195378E+03  0.78490038074E+03  0.00000000000E+00 0. -1.
         -2    1    5    5    0  503  0.24565440919E+03 -0.31407187840E+03 -0.85447543489E+02  0.40778488967E+03  0.00000000000E+00 0.  1.
         -3    1    6    6    0  502  0.15584051522E+02  0.13454329430E+02 -0.84089177742E+01  0.22239414119E+02  0.00000000000E+00 0.  1.
<mgrwt>
<rscale>  0 0.27707663E+04</rscale>
<asrwt>0</asrwt>
<pdfrwt beam="1">  1        1 0.25919107E+00 0.27707663E+04</pdfrwt>
<pdfrwt beam="2">  1       -1 0.17526414E+00 0.27707663E+04</pdfrwt>
<totfact> 0.95412350E-01</totfact>
</mgrwt>
</event>
<event>
12    1  0.1097093E-007  0.2120949E+04  0.7818608E-02  0.8552071E-01
          2   -1    0    0  501    0  0.00000000000E+00  0.00000000000E+00  0.16740112429E+04  0.16740112429E+04  0.00000000000E+00 0. -1.
         -2   -1    0    0    0  501 -0.00000000000E+00 -0.00000000000E+00 -0.67180292904E+03  0.67180292904E+03  0.00000000000E+00 0.  1.
         23    2    1    2    0    0 -0.84177261430E+03 -0.15636716081E+03  0.19350910404E+03  0.88253013201E+03  0.91552375140E+02 0.  0.
        254    2    1    2    0    0  0.84177261430E+03  0.15636716081E+03  0.80869920978E+03  0.14632840399E+04  0.86843188931E+03 0.  0.
        -24    2    4    4    0    0  0.76405756542E+03 -0.10862215757E+03  0.87389293934E+03  0.11686200862E+04  0.80008125027E+02 0.  0.
         24    2    4    4    0    0  0.77715048880E+02  0.26498931838E+03 -0.65193729561E+02  0.29466395369E+03  0.79483681052E+02 0.  0.
         13    1    3    3    0    0 -0.13427973521E+03 -0.33228391927E+02 -0.17059901548E+01  0.13834046307E+03  0.00000000000E+00 0. -1.
        -13    1    3    3    0    0 -0.70749287908E+03 -0.12313876888E+03  0.19521509420E+03  0.74418966894E+03  0.00000000000E+00 0.  1.
          2    1    6    6  502    0  0.18198368699E+01  0.16974834351E+02  0.15474600896E+02  0.23041703070E+02  0.00000000000E+00 0. -1.
          3    1    5    5  503    0  0.18056312551E+03 -0.52078006204E+02  0.24655514179E+03  0.31000741760E+03  0.00000000000E+00 0. -1.
         -4    1    5    5    0  503  0.58349443991E+03 -0.56544151367E+02  0.62733779755E+03  0.85861266861E+03  0.00000000000E+00 0.  1.
         -1    1    6    6    0  502  0.75895212011E+02  0.24801448403E+03 -0.80668330457E+02  0.27162225062E+03  0.00000000000E+00 0.  1.
<mgrwt>
<rscale>  0 0.21209485E+04</rscale>
<asrwt>0</asrwt>
<pdfrwt beam="1">  1        2 0.25754019E+00 0.21209485E+04</pdfrwt>
<pdfrwt beam="2">  1       -2 0.10335430E+00 0.21209485E+04</pdfrwt>
<totfact> 0.71221060E+00</totfact>
</mgrwt>
</event>
<event>
12    1  0.1097093E-007  0.1118445E+04  0.7818608E-02  0.9187398E-01
         -1   -1    0    0    0  501 -0.00000000000E+00  0.00000000000E+00  0.33382889957E+03  0.33382889957E+03  0.00000000000E+00 0.  1.
          1   -1    0    0  501    0  0.00000000000E+00 -0.00000000000E+00 -0.93679709348E+03  0.93679709348E+03  0.00000000000E+00 0. -1.
         23    2    1    2    0    0 -0.52785471432E+02 -0.90731922205E+01  0.81311262599E+02  0.13589525312E+03  0.94801738301E+02 0.  0.
        254    2    1    2    0    0  0.52785471432E+02  0.90731922205E+01 -0.68427945651E+03  0.11347307399E+04  0.90360768518E+03 0.  0.
        -24    2    4    4    0    0 -0.34498965185E+03  0.24181982614E+03 -0.40832782205E+03  0.59187774406E+03  0.78057449714E+02 0.  0.
         24    2    4    4    0    0  0.39777512328E+03 -0.23274663392E+03 -0.27595163446E+03  0.54285299586E+03  0.78383839220E+02 0.  0.
         13    1    3    3    0    0 -0.88390339060E+01  0.29950650228E+02  0.69155667989E+02  0.75879354139E+02  0.00000000000E+00 0.  1.
        -13    1    3    3    0    0 -0.43946437526E+02 -0.39023842449E+02  0.12155594610E+02  0.60015898986E+02  0.00000000000E+00 0. -1.
          2    1    6    6  502    0  0.29081282673E+03 -0.20128331893E+03 -0.18603856647E+03  0.39962159962E+03  0.00000000000E+00 0. -1.
          1    1    5    5  503    0 -0.27796002224E+03  0.16495824174E+03 -0.27755341882E+03  0.42603860832E+03  0.00000000000E+00 0. -1.
         -2    1    5    5    0  503 -0.67029629607E+02  0.76861584403E+02 -0.13077440323E+03  0.16583913574E+03  0.00000000000E+00 0.  1.
         -1    1    6    6    0  502  0.10696229655E+03 -0.31463314997E+02 -0.89913067986E+02  0.14323139624E+03  0.00000000000E+00 0.  1.
<mgrwt>
<rscale>  0 0.11184452E+04</rscale>
<asrwt>0</asrwt>
<pdfrwt beam="1">  1        1 0.14412263E+00 0.11184452E+04</pdfrwt>
<pdfrwt beam="2">  1       -1 0.51358293E-01 0.11184452E+04</pdfrwt>
<totfact> 0.64444579E+01</totfact>
</mgrwt>
</event>
<event>
12    1  0.1097093E-007  0.2278677E+04  0.7818608E-02  0.8486376E-01
         -1   -1    0    0    0  501 -0.00000000000E+00  0.00000000000E+00  0.95683512682E+03  0.95683512682E+03  0.00000000000E+00 0.  1.
          1   -1    0    0  501    0  0.00000000000E+00 -0.00000000000E+00 -0.13566517988E+04  0.13566517988E+04  0.00000000000E+00 0. -1.
         23    2    1    2    0    0 -0.61400322908E+03 -0.57506920729E+03  0.30037596795E+03  0.89783118108E+03  0.90391089723E+02 0.  0.
        254    2    1    2    0    0  0.61400322908E+03  0.57506920729E+03 -0.70019263993E+03  0.14156557445E+04  0.89783455909E+03 0.  0.
        -24    2    4    4    0    0  0.89117444989E+02  0.67839330475E+03 -0.36806336687E+03  0.78078994117E+03  0.77478353564E+02 0.  0.
         24    2    4    4    0    0  0.52488578409E+03 -0.10332409745E+03 -0.33212927306E+03  0.63486580335E+03  0.81017151195E+02 0.  0.
         13    1    3    3    0    0 -0.37902530810E+03 -0.30789660969E+03  0.20387040473E+03  0.52917260734E+03  0.00000000000E+00 0. -1.
        -13    1    3    3    0    0 -0.23497792099E+03 -0.26717259760E+03  0.96505563229E+02  0.36865857374E+03  0.00000000000E+00 0.  1.
          2    1    6    6  502    0  0.19968696484E+03 -0.23109558738E+02 -0.83244993200E+02  0.21757450339E+03  0.00000000000E+00 0. -1.
          1    1    5    5  503    0 -0.18945740913E+01 -0.15330002030E+01 -0.35366452463E+00  0.24626366370E+01  0.00000000000E+00 0. -1.
         -2    1    5    5    0  503  0.91012019081E+02  0.67992630495E+03 -0.36770970235E+03  0.77832730453E+03  0.00000000000E+00 0.  1.
         -1    1    6    6    0  502  0.32519881925E+03 -0.80214538717E+02 -0.24888427986E+03  0.41729129996E+03  0.00000000000E+00 0.  1.
<mgrwt>
<rscale>  0 0.22786769E+04</rscale>
<asrwt>0</asrwt>
<pdfrwt beam="1">  1        1 0.20871566E+00 0.22786769E+04</pdfrwt>
<pdfrwt beam="2">  1       -1 0.14720540E+00 0.22786769E+04</pdfrwt>
<totfact> 0.27397554E+00</totfact>
</mgrwt>
</event>
<event>
12    1  0.1097093E-007  0.1547440E+04  0.7818608E-02  0.8853504E-01
          1   -1    0    0  501    0  0.00000000000E+00  0.00000000000E+00  0.72739782233E+03  0.72739782233E+03  0.00000000000E+00 0. -1.
         -1   -1    0    0    0  501 -0.00000000000E+00 -0.00000000000E+00 -0.82299244750E+03  0.82299244750E+03  0.00000000000E+00 0.  1.
         23    2    1    2    0    0  0.36348346398E+03 -0.19959448088E+03  0.17879919627E+03  0.46072320467E+03  0.91315570104E+02 0.  0.
        254    2    1    2    0    0 -0.36348346398E+03  0.19959448088E+03 -0.27439382145E+03  0.10896670652E+04  0.96959999911E+03 0.  0.
        -24    2    4    4    0    0 -0.37187059436E+03  0.56458748996E+03 -0.19062502031E+03  0.70695095317E+03  0.79968612888E+02 0.  0.
         24    2    4    4    0    0  0.83871303768E+01 -0.36499300908E+03 -0.83768801141E+02  0.38271611200E+03  0.78512226495E+02 0.  0.
         11    1    3    3    0    0  0.65555960169E+02 -0.80351835844E+02  0.42473635787E+02  0.11206253243E+03  0.00000000000E+00 0.  1.
        -11    1    3    3    0    0  0.29792750381E+03 -0.11924264504E+03  0.13632556049E+03  0.34866067224E+03  0.00000000000E+00 0. -1.
          4    1    6    6  502    0 -0.17094360112E+02 -0.19565620834E+03 -0.78155626366E+02  0.21138086702E+03  0.00000000000E+00 0. -1.
          3    1    5    5  503    0 -0.25294063760E+03  0.38002080816E+03 -0.89397765660E+02  0.46517388285E+03  0.00000000000E+00 0. -1.
         -4    1    5    5    0  503 -0.11892995676E+03  0.18456668180E+03 -0.10122725465E+03  0.24177707031E+03  0.00000000000E+00 0.  1.
         -3    1    6    6    0  502  0.25481490489E+02 -0.16933680074E+03 -0.56131747748E+01  0.17133524498E+03  0.00000000000E+00 0.  1.
<mgrwt>
<rscale>  0 0.15474404E+04</rscale>
<asrwt>0</asrwt>
<pdfrwt beam="1">  1        1 0.11190736E+00 0.15474404E+04</pdfrwt>
<pdfrwt beam="2">  1       -1 0.12661422E+00 0.15474404E+04</pdfrwt>
<totfact> 0.13418345E+01</totfact>
</mgrwt>
</event>
<event>
12    1  0.1097093E-007  0.1471796E+04  0.7818608E-02  0.8903428E-01
          2   -1    0    0  501    0  0.00000000000E+00  0.00000000000E+00  0.49073653271E+03  0.49073653271E+03  0.00000000000E+00 0. -1.
         -2   -1    0    0    0  501 -0.00000000000E+00 -0.00000000000E+00 -0.11035374233E+04  0.11035374233E+04  0.00000000000E+00 0.  1.
         23    2    1    2    0    0 -0.26983948268E+03  0.97564434026E+02  0.18904202937E+03  0.35556826837E+03  0.91431610543E+02 0.  0.
        254    2    1    2    0    0  0.26983948268E+03 -0.97564434026E+02 -0.80184291997E+03  0.12387056877E+04  0.89950405619E+03 0.  0.
        -24    2    4    4    0    0  0.13622168096E+03  0.24642555651E+03 -0.81003230101E+03  0.86125647117E+03  0.79551739078E+02 0.  0.
         24    2    4    4    0    0  0.13361780172E+03 -0.34398999053E+03  0.81893810380E+01  0.37744921648E+03  0.78854388170E+02 0.  0.
         11    1    3    3    0    0 -0.19691101303E+03  0.99413896787E+02  0.17431311653E+03  0.28114432685E+03  0.00000000000E+00 0. -1.
        -11    1    3    3    0    0 -0.72928469656E+02 -0.18494627610E+01  0.14728912839E+02  0.74423941526E+02  0.00000000000E+00 0.  1.
          2    1    6    6  502    0  0.13262109351E+03 -0.34841338442E+03  0.76113836248E+01  0.37287822952E+03  0.00000000000E+00 0. -1.
          1    1    5    5  503    0  0.11452220364E+03  0.22998989232E+03 -0.77742729497E+03  0.81878195184E+03  0.00000000000E+00 0. -1.
         -2    1    5    5    0  503  0.21699477324E+02  0.16435664194E+02 -0.32605006039E+02  0.42474519331E+02  0.00000000000E+00 0.  1.
         -1    1    6    6    0  502  0.99670821259E+00  0.44233938896E+01  0.57799741318E+00  0.45709869584E+01  0.00000000000E+00 0.  1.
<mgrwt>
<rscale>  0 0.14717964E+04</rscale>
<asrwt>0</asrwt>
<pdfrwt beam="1">  1        2 0.75497928E-01 0.14717964E+04</pdfrwt>
<pdfrwt beam="2">  1       -2 0.16977499E+00 0.14717964E+04</pdfrwt>
<totfact> 0.13020974E+01</totfact>
</mgrwt>
</event>
<event>
12    1  0.1097093E-007  0.2552899E+04  0.7818608E-02  0.8384379E-01
         -2   -1    0    0    0  501 -0.00000000000E+00  0.00000000000E+00  0.26558812624E+04  0.26558812624E+04  0.00000000000E+00 0.  1.
          2   -1    0    0  501    0  0.00000000000E+00 -0.00000000000E+00 -0.61347767925E+03  0.61347767925E+03  0.00000000000E+00 0. -1.
         23    2    1    2    0    0 -0.45182065790E+03  0.56412543832E+03 -0.19128425619E+03  0.75305871618E+03  0.90157341785E+02 0.  0.
        254    2    1    2    0    0  0.45182065790E+03 -0.56412543832E+03  0.22336878393E+04  0.25163002254E+04  0.90555289411E+03 0.  0.
        -24    2    4    4    0    0  0.31342080762E+03 -0.80352227382E+03  0.17699834562E+04  0.19705271736E+04  0.79090199093E+02 0.  0.
         24    2    4    4    0    0  0.13839985028E+03  0.23939683550E+03  0.46370438313E+03  0.54577305184E+03  0.79881823804E+02 0.  0.
         11    1    3    3    0    0 -0.11216143679E+03  0.86056555738E+02 -0.25739197782E+02  0.14369559837E+03  0.00000000000E+00 0.  1.
        -11    1    3    3    0    0 -0.33965922110E+03  0.47806888259E+03 -0.16554505841E+03  0.60936311781E+03  0.00000000000E+00 0. -1.
          4    1    6    6  502    0  0.76706519353E+02  0.10665818473E+03  0.14870984639E+03  0.19843003022E+03  0.00000000000E+00 0. -1.
          1    1    5    5  503    0  0.52046925543E+02 -0.19161185222E+03  0.46764955975E+03  0.50805520872E+03  0.00000000000E+00 0. -1.
         -2    1    5    5    0  503  0.26137388207E+03 -0.61191042161E+03  0.13023338964E+04  0.14624719649E+04  0.00000000000E+00 0.  1.
         -3    1    6    6    0  502  0.61693330925E+02  0.13273865077E+03  0.31499453674E+03  0.34734302161E+03  0.00000000000E+00 0.  1.
<mgrwt>
<rscale>  0 0.25528994E+04</rscale>
<asrwt>0</asrwt>
<pdfrwt beam="1">  1        2 0.94381183E-01 0.25528994E+04</pdfrwt>
<pdfrwt beam="2">  1       -2 0.40859711E+00 0.25528994E+04</pdfrwt>
<totfact> 0.27945904E-01</totfact>
</mgrwt>
</event>
<event>
12    1  0.1097093E-007  0.1849276E+04  0.7818608E-02  0.8680525E-01
         -1   -1    0    0    0  501 -0.00000000000E+00  0.00000000000E+00  0.34666101532E+03  0.34666101532E+03  0.00000000000E+00 0.  1.
          1   -1    0    0  501    0  0.00000000000E+00 -0.00000000000E+00 -0.24662587438E+04  0.24662587438E+04  0.00000000000E+00 0. -1.
         23    2    1    2    0    0  0.41029725461E+03  0.45306664400E+03 -0.13552549944E+04  0.14896142193E+04  0.92850426080E+02 0.  0.
        254    2    1    2    0    0 -0.41029725461E+03 -0.45306664400E+03 -0.76434273409E+03  0.13233055398E+04  0.89067643698E+03 0.  0.
        -24    2    4    4    0    0 -0.25910829684E+03 -0.14661954830E+03 -0.89649963088E+03  0.94795453369E+03  0.79194749376E+02 0.  0.
         24    2    4    4    0    0 -0.15118895777E+03 -0.30644709570E+03  0.13215689679E+03  0.37535100609E+03  0.81578238434E+02 0.  0.
         13    1    3    3    0    0  0.21566490607E+03  0.17768166353E+03 -0.56117967431E+03  0.62690091093E+03  0.00000000000E+00 0. -1.
        -13    1    3    3    0    0  0.19463234855E+03  0.27538498048E+03 -0.79407532006E+03  0.86271330841E+03  0.00000000000E+00 0.  1.
          2    1    6    6  502    0 -0.13282058867E+03 -0.18611938803E+03  0.99222175102E+02  0.24925243310E+03  0.00000000000E+00 0. -1.
          1    1    5    5  503    0 -0.10552959861E+03 -0.10255214285E+03 -0.38921789365E+03  0.41610576410E+03  0.00000000000E+00 0. -1.
         -2    1    5    5    0  503 -0.15357869824E+03 -0.44067405454E+02 -0.50728173724E+03  0.53184876958E+03  0.00000000000E+00 0.  1.
         -1    1    6    6    0  502 -0.18368369103E+02 -0.12032770766E+03  0.32934721691E+02  0.12609857298E+03  0.00000000000E+00 0.  1.
<mgrwt>
<rscale>  0 0.18492764E+04</rscale>
<asrwt>0</asrwt>
<pdfrwt beam="1">  1        1 0.37942444E+00 0.18492764E+04</pdfrwt>
<pdfrwt beam="2">  1       -1 0.53332462E-01 0.18492764E+04</pdfrwt>
<totfact> 0.47683594E+00</totfact>
</mgrwt>
</event>
<event>
12    1  0.1097093E-007  0.1613251E+04  0.7818608E-02  0.8812449E-01
         -2   -1    0    0    0  501 -0.00000000000E+00  0.00000000000E+00  0.60758127821E+03  0.60758127821E+03  0.00000000000E+00 0. -1.
          2   -1    0    0  501    0  0.00000000000E+00 -0.00000000000E+00 -0.10708766403E+04  0.10708766403E+04  0.00000000000E+00 0.  1.
         23    2    1    2    0    0 -0.35447216692E+03 -0.11654762811E+03  0.25509862468E+03  0.46045250015E+03  0.87791399555E+02 0.  0.
        254    2    1    2    0    0  0.35447216692E+03  0.11654762811E+03 -0.71839398678E+03  0.12180054184E+04  0.91006231226E+03 0.  0.
        -24    2    4    4    0    0  0.50982232811E+03 -0.17173026461E+03 -0.69056038433E+03  0.87970779704E+03  0.87189871832E+02 0.  0.
         24    2    4    4    0    0 -0.15535016118E+03  0.28827789273E+03 -0.27833602448E+02  0.33829762133E+03  0.80204458454E+02 0.  0.
         13    1    3    3    0    0 -0.25009077987E+03 -0.87042803593E+02  0.22602879923E+03  0.34815350913E+03  0.00000000000E+00 0. -1.
        -13    1    3    3    0    0 -0.10438138705E+03 -0.29504824520E+02  0.29069825447E+02  0.11229899102E+03  0.00000000000E+00 0.  1.
          4    1    6    6  502    0 -0.76876532967E+02  0.90414143794E+02  0.19422657887E+02  0.12025788273E+03  0.00000000000E+00 0. -1.
          1    1    5    5  503    0  0.94037780945E+02 -0.16549373736E+02 -0.17573727439E+03  0.20000143906E+03  0.00000000000E+00 0. -1.
         -2    1    5    5    0  503  0.41578454716E+03 -0.15518089088E+03 -0.51482310994E+03  0.67970635798E+03  0.00000000000E+00 0.  1.
         -3    1    6    6    0  502 -0.78473628214E+02  0.19786374893E+03 -0.47256260335E+02  0.21803973860E+03  0.00000000000E+00 0.  1.
<mgrwt>
<rscale>  0 0.16132509E+04</rscale>
<asrwt>0</asrwt>
<pdfrwt beam="1">  1        2 0.16475025E+00 0.16132509E+04</pdfrwt>
<pdfrwt beam="2">  1       -2 0.93474044E-01 0.16132509E+04</pdfrwt>
<totfact> 0.21064384E+01</totfact>
</mgrwt>
</event>
<event>
12    1  0.1097093E-007  0.1148223E+04  0.7818608E-02  0.9159424E-01
          2   -1    0    0  501    0  0.00000000000E+00  0.00000000000E+00  0.28816359275E+04  0.28816359275E+04  0.00000000000E+00 0. -1.
         -2   -1    0    0    0  501 -0.00000000000E+00 -0.00000000000E+00 -0.11438085941E+03  0.11438085941E+03  0.00000000000E+00 0.  1.
         23    2    1    2    0    0  0.11175048226E+03 -0.49729137916E+02  0.10742376235E+03  0.18332751958E+03  0.84308702254E+02 0.  0.
        254    2    1    2    0    0 -0.11175048226E+03  0.49729137916E+02  0.26598313057E+04  0.28126892673E+04  0.90639791598E+03 0.  0.
        -24    2    4    4    0    0 -0.29906423439E+03  0.26927840580E+03  0.23360674729E+04  0.23718146528E+04  0.79644415647E+02 0.  0.
         24    2    4    4    0    0  0.18731375213E+03 -0.21954926789E+03  0.32376383276E+03  0.44087461450E+03  0.79114370004E+02 0.  0.
         11    1    3    3    0    0  0.84355620528E+02 -0.32759721808E+02  0.11863422078E+03  0.14920840602E+03  0.00000000000E+00 0.  1.
        -11    1    3    3    0    0  0.27394861733E+02 -0.16969416108E+02 -0.11210458424E+02  0.34119113566E+02  0.00000000000E+00 0. -1.
          4    1    6    6  502    0  0.77101066076E+02 -0.80065150854E+02  0.71134061170E+02  0.13196612228E+03  0.00000000000E+00 0. -1.
          1    1    5    5  503    0 -0.22128016206E+02  0.22439634278E+01  0.21441958157E+03  0.21557003835E+03  0.00000000000E+00 0. -1.
         -2    1    5    5    0  503 -0.27693621818E+03  0.26703444238E+03  0.21216478914E+04  0.21562446144E+04  0.00000000000E+00 0.  1.
         -3    1    6    6    0  502  0.11021268605E+03 -0.13948411703E+03  0.25262977159E+03  0.30890849222E+03  0.00000000000E+00 0.  1.
<mgrwt>
<rscale>  0 0.11482230E+04</rscale>
<asrwt>0</asrwt>
<pdfrwt beam="1">  1        2 0.44332855E+00 0.11482230E+04</pdfrwt>
<pdfrwt beam="2">  1       -2 0.17597058E-01 0.11482230E+04</pdfrwt>
<totfact> 0.55321496E+01</totfact>
</mgrwt>
</event>
<event>
12    1  0.1097093E-007  0.2766879E+04  0.7818608E-02  0.8313625E-01
          1   -1    0    0  501    0  0.00000000000E+00  0.00000000000E+00  0.14463801509E+04  0.14463801509E+04  0.00000000000E+00 0. -1.
         -1   -1    0    0    0  501 -0.00000000000E+00 -0.00000000000E+00 -0.13232377417E+04  0.13232377417E+04  0.00000000000E+00 0.  1.
         23    2    1    2    0    0  0.33139918598E+03 -0.54575245571E+03  0.11188281983E+04  0.12913328495E+04  0.89960143467E+02 0.  0.
        254    2    1    2    0    0 -0.33139918598E+03  0.54575245571E+03 -0.99568578914E+03  0.14782850431E+04  0.88671602811E+03 0.  0.
        -24    2    4    4    0    0  0.26381154594E+03  0.52829689267E+02 -0.11323098974E+03  0.30254980074E+03  0.79546320153E+02 0.  0.
         24    2    4    4    0    0 -0.59521073192E+03  0.49292276644E+03 -0.88245479939E+03  0.11757352423E+04  0.79863746550E+02 0.  0.
         11    1    3    3    0    0  0.29956662748E+03 -0.46158051091E+03  0.10094836591E+04  0.11497190919E+04  0.00000000000E+00 0.  1.
        -11    1    3    3    0    0  0.31832558498E+02 -0.84171944805E+02  0.10934453925E+03  0.14161375758E+03  0.00000000000E+00 0. -1.
          4    1    6    6  502    0 -0.51729209098E+03  0.39927675656E+03 -0.71459580246E+03  0.96832855820E+03  0.00000000000E+00 0. -1.
          1    1    5    5  503    0  0.18574734244E+03  0.43876931417E+02 -0.11702969405E+03  0.22388213333E+03  0.00000000000E+00 0. -1.
         -2    1    5    5    0  503  0.78064203506E+02  0.89527578500E+01  0.37987043091E+01  0.78667667415E+02  0.00000000000E+00 0.  1.
         -3    1    6    6    0  502 -0.77918640940E+02  0.93646009883E+02 -0.16785899693E+03  0.20740668413E+03  0.00000000000E+00 0.  1.
<mgrwt>
<rscale>  0 0.27668790E+04</rscale>
<asrwt>0</asrwt>
<pdfrwt beam="1">  1        1 0.22252002E+00 0.27668790E+04</pdfrwt>
<pdfrwt beam="2">  1       -1 0.20357504E+00 0.27668790E+04</pdfrwt>
<totfact> 0.88021962E-01</totfact>
</mgrwt>
</event>
<event>
12    1  0.1097093E-007  0.2189795E+04  0.7818608E-02  0.8522688E-01
         -1   -1    0    0    0  501 -0.00000000000E+00  0.00000000000E+00  0.53102492961E+03  0.53102492961E+03  0.00000000000E+00 0.  1.
          1   -1    0    0  501    0  0.00000000000E+00 -0.00000000000E+00 -0.22575229687E+04  0.22575229687E+04  0.00000000000E+00 0. -1.
         23    2    1    2    0    0 -0.15104231050E+03 -0.48690121320E+03  0.22268218524E+03  0.56367077418E+03  0.90833997266E+02 0.  0.
        254    2    1    2    0    0  0.15104231050E+03  0.48690121320E+03 -0.19491802243E+04  0.22248771241E+04  0.94386868767E+03 0.  0.
        -24    2    4    4    0    0  0.18592534906E+03  0.74392114617E+03 -0.11861638461E+04  0.14147579853E+04  0.81046777632E+02 0.  0.
         24    2    4    4    0    0 -0.34883038562E+02 -0.25701993297E+03 -0.76301637827E+03  0.81011913881E+03  0.82601169748E+02 0.  0.
         11    1    3    3    0    0 -0.15929136533E+03 -0.47612497318E+03  0.20735439745E+03  0.54319846768E+03  0.00000000000E+00 0.  1.
        -11    1    3    3    0    0  0.82490548295E+01 -0.10776240025E+02  0.15327787789E+02  0.20472306493E+02  0.00000000000E+00 0. -1.
          4    1    6    6  502    0 -0.19493381829E+02 -0.22793770559E+03 -0.72290236206E+03  0.75823704383E+03  0.00000000000E+00 0. -1.
          3    1    5    5  503    0  0.19393737980E+03  0.72487940454E+03 -0.11566822514E+04  0.13787587494E+04  0.00000000000E+00 0. -1.
         -4    1    5    5    0  503 -0.80120307398E+01  0.19041741625E+02 -0.29481594667E+02  0.35999235892E+02  0.00000000000E+00 0.  1.
         -3    1    6    6    0  502 -0.15389656732E+02 -0.29082227375E+02 -0.40114016212E+02  0.51882094985E+02  0.00000000000E+00 0.  1.
<mgrwt>
<rscale>  0 0.21897954E+04</rscale>
<asrwt>0</asrwt>
<pdfrwt beam="1">  1        1 0.34731122E+00 0.21897954E+04</pdfrwt>
<pdfrwt beam="2">  1       -1 0.81696144E-01 0.21897954E+04</pdfrwt>
<totfact> 0.27081059E+00</totfact>
</mgrwt>
</event>
<event>
12    1  0.1097538E-007  0.1639487E+04  0.7818608E-02  0.8796651E-01
         -1   -1    0    0    0  501 -0.00000000000E+00  0.00000000000E+00  0.24723538515E+03  0.24723538515E+03  0.00000000000E+00 0.  1.
          1   -1    0    0  501    0  0.00000000000E+00 -0.00000000000E+00 -0.27179726112E+04  0.27179726112E+04  0.00000000000E+00 0. -1.
         23    2    1    2    0    0  0.52472540105E+03  0.21219751509E+03 -0.71201215440E+03  0.91382608901E+03  0.88047038756E+02 0.  0.
        254    2    1    2    0    0 -0.52472540105E+03 -0.21219751509E+03 -0.17587250716E+04  0.20513819073E+04  0.89145348738E+03 0.  0.
        -24    2    4    4    0    0 -0.13371999959E+03  0.34046236639E+03 -0.66430760433E+03  0.76204779798E+03  0.74943925830E+02 0.  0.
         24    2    4    4    0    0 -0.39100540146E+03 -0.55265988148E+03 -0.10944174673E+04  0.12893341093E+04  0.79464987227E+02 0.  0.
         11    1    3    3    0    0  0.27768366053E+01  0.86003503582E+01 -0.17647347542E+01  0.92082102805E+01  0.00000000000E+00 0. -1.
        -11    1    3    3    0    0  0.52194856444E+03  0.20359716473E+03 -0.71024741964E+03  0.90461787873E+03  0.00000000000E+00 0.  1.
          2    1    6    6  502    0 -0.70058606340E+02 -0.12143436712E+03 -0.17413618001E+03  0.22355742670E+03  0.00000000000E+00 0. -1.
          3    1    5    5  503    0 -0.64183948529E+01  0.53257654325E+02 -0.15089989704E+03  0.16015103017E+03  0.00000000000E+00 0. -1.
         -4    1    5    5    0  503 -0.12730160474E+03  0.28720471206E+03 -0.51340770729E+03  0.60189676782E+03  0.00000000000E+00 0.  1.
         -1    1    6    6    0  502 -0.32094679512E+03 -0.43122551436E+03 -0.92028128726E+03  0.10657766826E+04  0.00000000000E+00 0.  1.
<mgrwt>
<rscale>  0 0.16394865E+04</rscale>
<asrwt>0</asrwt>
<pdfrwt beam="1">  1        1 0.41814960E+00 0.16394865E+04</pdfrwt>
<pdfrwt beam="2">  1       -1 0.38036216E-01 0.16394865E+04</pdfrwt>
<totfact> 0.61038805E+00</totfact>
</mgrwt>
</event>
<event>
12    1  0.1097093E-007  0.2150920E+04  0.7818608E-02  0.8539139E-01
         -2   -1    0    0    0  501 -0.00000000000E+00  0.00000000000E+00  0.46739048412E+03  0.46739048412E+03  0.00000000000E+00 0. -1.
          2   -1    0    0  501    0  0.00000000000E+00 -0.00000000000E+00 -0.24746199763E+04  0.24746199763E+04  0.00000000000E+00 0.  1.
         23    2    1    2    0    0 -0.46456962851E+03  0.75107791804E+03 -0.90398566498E+03  0.12670873519E+04  0.91527570800E+02 0.  0.
        254    2    1    2    0    0  0.46456962851E+03 -0.75107791804E+03 -0.11032438272E+04  0.16749231085E+04  0.89904254535E+03 0.  0.
        -24    2    4    4    0    0  0.15124984403E+03  0.18578146742E+03 -0.12366785601E+03  0.28143490894E+03  0.80750234699E+02 0.  0.
         24    2    4    4    0    0  0.31331978449E+03 -0.93685938546E+03 -0.97957597116E+03  0.13934881995E+04  0.79783979870E+02 0.  0.
         13    1    3    3    0    0 -0.42436325200E+03  0.64439392404E+03 -0.81643559864E+03  0.11233409036E+04  0.00000000000E+00 0. -1.
        -13    1    3    3    0    0 -0.40206376506E+02  0.10668399400E+03 -0.87550066333E+02  0.14374644831E+03  0.00000000000E+00 0.  1.
          2    1    6    6  502    0  0.43001913174E+02 -0.64439442028E+02 -0.85575475583E+02  0.11543295997E+03  0.00000000000E+00 0. -1.
          1    1    5    5  503    0  0.53445325307E+02  0.14622300273E+02 -0.21862047034E+02  0.59566463408E+02  0.00000000000E+00 0. -1.
         -2    1    5    5    0  503  0.97804518718E+02  0.17115916715E+03 -0.10180580898E+03  0.22186844553E+03  0.00000000000E+00 0.  1.
         -1    1    6    6    0  502  0.27031787131E+03 -0.87241994343E+03 -0.89400049557E+03  0.12780552395E+04  0.00000000000E+00 0.  1.
<mgrwt>
<rscale>  0 0.21509196E+04</rscale>
<asrwt>0</asrwt>
<pdfrwt beam="1">  1        2 0.38071076E+00 0.21509196E+04</pdfrwt>
<pdfrwt beam="2">  1       -2 0.71906229E-01 0.21509196E+04</pdfrwt>
<totfact> 0.57925984E+00</totfact>
</mgrwt>
</event>
<event>
12    1  0.1097093E-007  0.1881001E+04  0.7818608E-02  0.8664372E-01
          2   -1    0    0  501    0  0.00000000000E+00  0.00000000000E+00  0.13044350650E+04  0.13044350650E+04  0.00000000000E+00 0. -1.
         -2   -1    0    0    0  501 -0.00000000000E+00 -0.00000000000E+00 -0.67810266602E+03  0.67810266602E+03  0.00000000000E+00 0.  1.
         23    2    1    2    0    0 -0.61728088110E+03 -0.37328606210E+03  0.29334993046E+03  0.78406645868E+03  0.91257107109E+02 0.  0.
        254    2    1    2    0    0  0.61728088110E+03  0.37328606210E+03  0.33298246849E+03  0.11984712723E+04  0.89726133090E+03 0.  0.
        -24    2    4    4    0    0  0.53285836984E+03  0.51658850683E+03  0.53999427283E+03  0.92125245635E+03  0.79438944725E+02 0.  0.
         24    2    4    4    0    0  0.84422511260E+02 -0.14330244473E+03 -0.20701180434E+03  0.27721881597E+03  0.79584129819E+02 0.  0.
         13    1    3    3    0    0 -0.56869662070E+03 -0.36292441782E+03  0.25464854320E+03  0.72109351682E+03  0.00000000000E+00 0. -1.
        -13    1    3    3    0    0 -0.48584260400E+02 -0.10361644278E+02  0.38701387258E+02  0.62972941860E+02  0.00000000000E+00 0.  1.
          4    1    6    6  502    0  0.44143380508E+02 -0.34847624305E+02 -0.11977549153E+03  0.13232219517E+03  0.00000000000E+00 0. -1.
          3    1    5    5  503    0 -0.98450396646E+00 -0.18988432402E+01  0.91132143169E+00  0.23249431095E+01  0.00000000000E+00 0. -1.
         -4    1    5    5    0  503  0.53384287380E+03  0.51848735007E+03  0.53908295140E+03  0.91892751324E+03  0.00000000000E+00 0.  1.
         -3    1    6    6    0  502  0.40279130752E+02 -0.10845482043E+03 -0.87236312810E+02  0.14489662081E+03  0.00000000000E+00 0.  1.
<mgrwt>
<rscale>  0 0.18810007E+04</rscale>
<asrwt>0</asrwt>
<pdfrwt beam="1">  1        2 0.20068232E+00 0.18810007E+04</pdfrwt>
<pdfrwt beam="2">  1       -2 0.10432349E+00 0.18810007E+04</pdfrwt>
<totfact> 0.11509820E+01</totfact>
</mgrwt>
</event>
<event>
12    1  0.1097093E-007  0.1905071E+04  0.7818608E-02  0.8652336E-01
         -2   -1    0    0    0  501 -0.00000000000E+00  0.00000000000E+00  0.28733092775E+03  0.28733092775E+03  0.00000000000E+00 0.  1.
          2   -1    0    0  501    0  0.00000000000E+00 -0.00000000000E+00 -0.31577676916E+04  0.31577676916E+04  0.00000000000E+00 0. -1.
         23    2    1    2    0    0  0.44064812888E+03 -0.43689826786E+03 -0.38696350628E+03  0.73681553413E+03  0.90030584750E+02 0.  0.
        254    2    1    2    0    0 -0.44064812888E+03  0.43689826786E+03 -0.24834732576E+04  0.27082830852E+04  0.88436812396E+03 0.  0.
        -24    2    4    4    0    0 -0.40069590394E+03  0.69432545107E+03 -0.19392344738E+04  0.20999090042E+04  0.79639451580E+02 0.  0.
         24    2    4    4    0    0 -0.39952224935E+02 -0.25742718321E+03 -0.54423878376E+03  0.60837408098E+03  0.77834656337E+02 0.  0.
         13    1    3    3    0    0  0.32076431493E+03 -0.26885931211E+03 -0.28681769183E+03  0.50738492664E+03  0.00000000000E+00 0.  1.
        -13    1    3    3    0    0  0.11988381395E+03 -0.16803895575E+03 -0.10014581446E+03  0.22943060748E+03  0.00000000000E+00 0. -1.
          4    1    6    6  502    0 -0.82982057174E+01 -0.27732989806E+02 -0.13449891435E+03  0.13757883886E+03  0.00000000000E+00 0. -1.
          3    1    5    5  503    0 -0.11982352804E+01  0.20027509332E+02 -0.30277908571E+02  0.36322013233E+02  0.00000000000E+00 0. -1.
         -4    1    5    5    0  503 -0.39949766866E+03  0.67429794173E+03 -0.19089565652E+04  0.20635869910E+04  0.00000000000E+00 0.  1.
         -3    1    6    6    0  502 -0.31654019218E+02 -0.22969419340E+03 -0.40973986942E+03  0.47079524212E+03  0.00000000000E+00 0.  1.
<mgrwt>
<rscale>  0 0.19050715E+04</rscale>
<asrwt>0</asrwt>
<pdfrwt beam="1">  1        2 0.48581039E+00 0.19050715E+04</pdfrwt>
<pdfrwt beam="2">  1       -2 0.44204761E-01 0.19050715E+04</pdfrwt>
<totfact> 0.63017213E+00</totfact>
</mgrwt>
</event>
<event>
12    1  0.1097093E-007  0.1254842E+04  0.7818608E-02  0.9066163E-01
         -2   -1    0    0    0  501 -0.00000000000E+00  0.00000000000E+00  0.43569194544E+03  0.43569194544E+03  0.00000000000E+00 0. -1.
          2   -1    0    0  501    0  0.00000000000E+00 -0.00000000000E+00 -0.90352102717E+03  0.90352102717E+03  0.00000000000E+00 0.  1.
         23    2    1    2    0    0 -0.21144963074E+03  0.16813673252E+03 -0.29904210031E+02  0.28770133507E+03  0.94323322984E+02 0.  0.
        254    2    1    2    0    0  0.21144963074E+03 -0.16813673252E+03 -0.43792487170E+03  0.10515116375E+04  0.91701560699E+03 0.  0.
        -24    2    4    4    0    0  0.32830813066E+03  0.29938673373E+03 -0.30591628686E+03  0.54554724952E+03  0.81353438193E+02 0.  0.
         24    2    4    4    0    0 -0.11685849991E+03 -0.46752346626E+03 -0.13200858484E+03  0.50596438801E+03  0.79621573480E+02 0.  0.
         11    1    3    3    0    0 -0.38760139914E+02  0.19053313147E+02  0.29071198535E+02  0.52062575544E+02  0.00000000000E+00 0. -1.
        -11    1    3    3    0    0 -0.17268949083E+03  0.14908341938E+03 -0.58975408566E+02  0.23563875953E+03  0.00000000000E+00 0.  1.
          2    1    6    6  502    0 -0.87737080407E+02 -0.36891301597E+03 -0.13656159031E+03  0.40304302075E+03  0.00000000000E+00 0. -1.
          1    1    5    5  503    0  0.22621418260E+03  0.25334512748E+03 -0.23409530190E+03  0.41250117624E+03  0.00000000000E+00 0. -1.
         -2    1    5    5    0  503  0.10209394805E+03  0.46041606257E+02 -0.71820984965E+02  0.13304607329E+03  0.00000000000E+00 0.  1.
         -1    1    6    6    0  502 -0.29121419506E+02 -0.98610450285E+02  0.45530054695E+01  0.10292136726E+03  0.00000000000E+00 0.  1.
<mgrwt>
<rscale>  0 0.12548416E+04</rscale>
<asrwt>0</asrwt>
<pdfrwt beam="1">  1        2 0.13900324E+00 0.12548416E+04</pdfrwt>
<pdfrwt beam="2">  1       -2 0.67029530E-01 0.12548416E+04</pdfrwt>
<totfact> 0.58589566E+01</totfact>
</mgrwt>
</event>
<event>
12    1  0.1097093E-007  0.2176513E+04  0.7818608E-02  0.8528268E-01
         -1   -1    0    0    0  501 -0.00000000000E+00  0.00000000000E+00  0.12590707228E+04  0.12590707228E+04  0.00000000000E+00 0.  1.
          1   -1    0    0  501    0  0.00000000000E+00 -0.00000000000E+00 -0.94061614110E+03  0.94061614110E+03  0.00000000000E+00 0. -1.
         23    2    1    2    0    0 -0.42519303856E+02 -0.89867662154E+03  0.18623978885E+03  0.92299567582E+03  0.88364004724E+02 0.  0.
        254    2    1    2    0    0  0.42519303856E+02  0.89867662154E+03  0.13221479281E+03  0.12766911880E+04  0.89612057049E+03 0.  0.
        -24    2    4    4    0    0 -0.14318992965E+03  0.15694737123E+03 -0.31432399112E+03  0.38755902099E+03  0.79161796750E+02 0.  0.
         24    2    4    4    0    0  0.18570923350E+03  0.74172925031E+03  0.44653878394E+03  0.88913216705E+03  0.80677907369E+02 0.  0.
         11    1    3    3    0    0 -0.76410656762E+01 -0.44317390286E+03  0.13473367981E+03  0.46326521403E+03  0.00000000000E+00 0. -1.
        -11    1    3    3    0    0 -0.34878238180E+02 -0.45550271869E+03  0.51506109031E+02  0.45973046179E+03  0.00000000000E+00 0.  1.
          4    1    6    6  502    0  0.17629545889E+01  0.10022192359E+03  0.76120181364E+02  0.12586430784E+03  0.00000000000E+00 0. -1.
          3    1    5    5  503    0 -0.69886752863E+01  0.28560874754E+02 -0.93851689544E+02  0.98349909909E+02  0.00000000000E+00 0. -1.
         -4    1    5    5    0  503 -0.13620125436E+03  0.12838649647E+03 -0.22047230158E+03  0.28920911108E+03  0.00000000000E+00 0.  1.
         -3    1    6    6    0  502  0.18394627891E+03  0.64150732672E+03  0.37041860257E+03  0.76326785920E+03  0.00000000000E+00 0.  1.
<mgrwt>
<rscale>  0 0.21765130E+04</rscale>
<asrwt>0</asrwt>
<pdfrwt beam="1">  1        1 0.14471018E+00 0.21765130E+04</pdfrwt>
<pdfrwt beam="2">  1       -1 0.19370319E+00 0.21765130E+04</pdfrwt>
<totfact> 0.25644839E+00</totfact>
</mgrwt>
</event>
<event>
12    1  0.1097093E-007  0.1774900E+04  0.7818608E-02  0.8719762E-01
         -2   -1    0    0    0  501 -0.00000000000E+00  0.00000000000E+00  0.35184211802E+03  0.35184211802E+03  0.00000000000E+00 0.  1.
          2   -1    0    0  501    0  0.00000000000E+00 -0.00000000000E+00 -0.22384112739E+04  0.22384112739E+04  0.00000000000E+00 0. -1.
         23    2    1    2    0    0  0.10523592523E+02  0.19434664914E+03 -0.14106336221E+04  0.14268964296E+04  0.90911159836E+02 0.  0.
        254    2    1    2    0    0 -0.10523592523E+02 -0.19434664914E+03 -0.47593553380E+03  0.11633569623E+04  0.10435532681E+04 0.  0.
        -24    2    4    4    0    0  0.24690751471E+02 -0.61559145932E+03 -0.35833168782E+03  0.71720656684E+03  0.80132284534E+02 0.  0.
         24    2    4    4    0    0 -0.35214343994E+02  0.42124481018E+03 -0.11760384597E+03  0.44615039549E+03  0.80822463956E+02 0.  0.
         11    1    3    3    0    0  0.25593718911E+02  0.19202232563E+03 -0.13673683888E+04  0.13810227814E+04  0.00000000000E+00 0. -1.
        -11    1    3    3    0    0 -0.15070126388E+02  0.23243235074E+01 -0.43265233291E+02  0.45873648219E+02  0.00000000000E+00 0.  1.
          2    1    6    6  502    0  0.25792561904E+02  0.95661677882E+02 -0.29771369863E+02  0.10345408319E+03  0.00000000000E+00 0. -1.
          1    1    5    5  503    0 -0.18478971510E+02 -0.18885263339E+03 -0.14075783970E+03  0.23626163244E+03  0.00000000000E+00 0. -1.
         -2    1    5    5    0  503  0.43169722982E+02 -0.42673882592E+03 -0.21757384813E+03  0.48094493440E+03  0.00000000000E+00 0.  1.
         -1    1    6    6    0  502 -0.61006905898E+02  0.32558313230E+03 -0.87832476111E+02  0.34269631230E+03  0.00000000000E+00 0.  1.
<mgrwt>
<rscale>  0 0.17748998E+04</rscale>
<asrwt>0</asrwt>
<pdfrwt beam="1">  1        2 0.34437095E+00 0.17748998E+04</pdfrwt>
<pdfrwt beam="2">  1       -2 0.54129558E-01 0.17748998E+04</pdfrwt>
<totfact> 0.14941380E+01</totfact>
</mgrwt>
</event>
<event>
12    1  0.1097093E-007  0.1458992E+04  0.7818608E-02  0.8912191E-01
         -1   -1    0    0    0  501 -0.00000000000E+00  0.00000000000E+00  0.33053245499E+03  0.33053245499E+03  0.00000000000E+00 0.  1.
          1   -1    0    0  501    0  0.00000000000E+00 -0.00000000000E+00 -0.16100206736E+04  0.16100206736E+04  0.00000000000E+00 0. -1.
         23    2    1    2    0    0 -0.15824887178E+03  0.40641662945E+03 -0.51622593786E+03  0.68188896173E+03  0.90918397984E+02 0.  0.
        254    2    1    2    0    0  0.15824887178E+03 -0.40641662945E+03 -0.76326228076E+03  0.12586641669E+04  0.90080463678E+03 0.  0.
        -24    2    4    4    0    0  0.47067115865E+03 -0.15647815314E+02 -0.25763763627E+03  0.54269452568E+03  0.79774700697E+02 0.  0.
         24    2    4    4    0    0 -0.31242228686E+03 -0.39076881414E+03 -0.50562464450E+03  0.71596964121E+03  0.81537074849E+02 0.  0.
         11    1    3    3    0    0 -0.13036871097E+03  0.23541374734E+03 -0.35278566955E+03  0.44370413777E+03  0.00000000000E+00 0.  1.
        -11    1    3    3    0    0 -0.27880160817E+02  0.17100288212E+03 -0.16344026831E+03  0.23818482396E+03  0.00000000000E+00 0. -1.
          2    1    6    6  502    0 -0.30195118524E+02 -0.76771279690E+02 -0.10897639057E+03  0.13668002147E+03  0.00000000000E+00 0. -1.
          1    1    5    5  503    0  0.23915060254E+03  0.31863854607E+02 -0.13323091996E+03  0.27560622990E+03  0.00000000000E+00 0. -1.
         -2    1    5    5    0  503  0.23152055611E+03 -0.47511669921E+02 -0.12440671630E+03  0.26708829578E+03  0.00000000000E+00 0.  1.
         -1    1    6    6    0  502 -0.28222716834E+03 -0.31399753445E+03 -0.39664825392E+03  0.57928961973E+03  0.00000000000E+00 0.  1.
<mgrwt>
<rscale>  0 0.14589916E+04</rscale>
<asrwt>0</asrwt>
<pdfrwt beam="1">  1        1 0.24769549E+00 0.14589916E+04</pdfrwt>
<pdfrwt beam="2">  1       -1 0.50851146E-01 0.14589916E+04</pdfrwt>
<totfact> 0.20717324E+01</totfact>
</mgrwt>
</event>
<event>
12    1  0.1097093E-007  0.1536993E+04  0.7818608E-02  0.8860219E-01
         -2   -1    0    0    0  501 -0.00000000000E+00  0.00000000000E+00  0.22065477470E+03  0.22065477470E+03  0.00000000000E+00 0.  1.
          2   -1    0    0  501    0  0.00000000000E+00 -0.00000000000E+00 -0.26765196787E+04  0.26765196787E+04  0.00000000000E+00 0. -1.
         23    2    1    2    0    0  0.29875881772E+03  0.21473973820E+03 -0.17072063392E+03  0.41560808613E+03  0.90634210359E+02 0.  0.
        254    2    1    2    0    0 -0.29875881772E+03 -0.21473973820E+03 -0.22851442701E+04  0.24815663673E+04  0.89493983806E+03 0.  0.
        -24    2    4    4    0    0 -0.17824913726E+03  0.31140166305E+03 -0.13478426127E+04  0.13970135437E+04  0.78888413789E+02 0.  0.
         24    2    4    4    0    0 -0.12050968046E+03 -0.52614140125E+03 -0.93730165740E+03  0.10845528236E+04  0.79831529557E+02 0.  0.
         13    1    3    3    0    0  0.80402841538E+02  0.94179033775E+02 -0.23712863408E+02  0.12608174817E+03  0.00000000000E+00 0. -1.
        -13    1    3    3    0    0  0.21835597618E+03  0.12056070442E+03 -0.14700777051E+03  0.28952633796E+03  0.00000000000E+00 0.  1.
          2    1    6    6  502    0 -0.78677460920E+02 -0.17360574544E+03 -0.32232343914E+03  0.37446160968E+03  0.00000000000E+00 0. -1.
          3    1    5    5  503    0  0.50757015792E+01  0.83029902245E+01 -0.80896054784E+02  0.81479286158E+02  0.00000000000E+00 0. -1.
         -4    1    5    5    0  503 -0.18332483884E+03  0.30309867283E+03 -0.12669465579E+04  0.13155342575E+04  0.00000000000E+00 0.  1.
         -1    1    6    6    0  502 -0.41832219538E+02 -0.35253565581E+03 -0.61497821827E+03  0.71009121396E+03  0.00000000000E+00 0.  1.
<mgrwt>
<rscale>  0 0.15369930E+04</rscale>
<asrwt>0</asrwt>
<pdfrwt beam="1">  1        2 0.41177226E+00 0.15369930E+04</pdfrwt>
<pdfrwt beam="2">  1       -2 0.33946888E-01 0.15369930E+04</pdfrwt>
<totfact> 0.21540384E+01</totfact>
</mgrwt>
</event>
<event>
12    1  0.1097093E-007  0.1564339E+04  0.7818608E-02  0.8842761E-01
         -2   -1    0    0    0  501 -0.00000000000E+00  0.00000000000E+00  0.18601454556E+03  0.18601454556E+03  0.00000000000E+00 0.  1.
          2   -1    0    0  501    0  0.00000000000E+00 -0.00000000000E+00 -0.32889297250E+04  0.32889297250E+04  0.00000000000E+00 0. -1.
         23    2    1    2    0    0  0.49738657550E+03 -0.13380967358E+03 -0.89480948948E+03  0.10364900261E+04  0.91263998761E+02 0.  0.
        254    2    1    2    0    0 -0.49738657550E+03  0.13380967358E+03 -0.22081056900E+04  0.24384542445E+04  0.89723460152E+03 0.  0.
        -24    2    4    4    0    0 -0.89015074746E+02  0.39662439665E+03 -0.44470558131E+03  0.60772014354E+03  0.79536930180E+02 0.  0.
         24    2    4    4    0    0 -0.40837150075E+03 -0.26281472307E+03 -0.17634001086E+04  0.18307341009E+04  0.78540078199E+02 0.  0.
         13    1    3    3    0    0  0.29909633759E+03 -0.44734155393E+02 -0.57696773763E+03  0.65142270001E+03  0.00000000000E+00 0. -1.
        -13    1    3    3    0    0  0.19829023790E+03 -0.89075518184E+02 -0.31784175184E+03  0.38506732607E+03  0.00000000000E+00 0.  1.
          4    1    6    6  502    0 -0.12131183658E+03 -0.12158641946E+03 -0.58750724408E+03  0.61209850591E+03  0.00000000000E+00 0. -1.
          3    1    5    5  503    0 -0.81838060826E+02  0.19962489739E+03 -0.20810229711E+03  0.29975679129E+03  0.00000000000E+00 0. -1.
         -4    1    5    5    0  503 -0.71770139193E+01  0.19699949926E+03 -0.23660328420E+03  0.30796335225E+03  0.00000000000E+00 0.  1.
         -3    1    6    6    0  502 -0.28705966418E+03 -0.14122830361E+03 -0.11758928646E+04  0.12186355950E+04  0.00000000000E+00 0.  1.
<mgrwt>
<rscale>  0 0.15643385E+04</rscale>
<asrwt>0</asrwt>
<pdfrwt beam="1">  1        2 0.50598915E+00 0.15643385E+04</pdfrwt>
<pdfrwt beam="2">  1       -2 0.28617625E-01 0.15643385E+04</pdfrwt>
<totfact> 0.12315434E+01</totfact>
</mgrwt>
</event>
<event>
12    1  0.1097093E-007  0.1592692E+04  0.7818608E-02  0.8825050E-01
          1   -1    0    0  501    0  0.00000000000E+00  0.00000000000E+00  0.12491040414E+04  0.12491040414E+04  0.00000000000E+00 0. -1.
         -1   -1    0    0    0  501 -0.00000000000E+00 -0.00000000000E+00 -0.50769775208E+03  0.50769775208E+03  0.00000000000E+00 0.  1.
         23    2    1    2    0    0  0.17150151001E+03  0.33571478924E+03 -0.17001361051E+03  0.42329867356E+03  0.90332450570E+02 0.  0.
        254    2    1    2    0    0 -0.17150151001E+03 -0.33571478924E+03  0.91141989979E+03  0.13335031199E+04  0.89745593170E+03 0.  0.
        -24    2    4    4    0    0  0.31731384508E+03  0.33104498463E+02  0.17575871233E+03  0.37301336728E+03  0.80398153670E+02 0.  0.
         24    2    4    4    0    0 -0.48881535509E+03 -0.36881928771E+03  0.73566118746E+03  0.96048975260E+03  0.79843996370E+02 0.  0.
         11    1    3    3    0    0 -0.75689588141E+01  0.25590366995E+02  0.44201350188E+00  0.26689911885E+02  0.00000000000E+00 0. -1.
        -11    1    3    3    0    0  0.17907046883E+03  0.31012442225E+03 -0.17045562401E+03  0.39660876168E+03  0.00000000000E+00 0.  1.
          4    1    6    6  502    0 -0.20805685564E+03 -0.12861830305E+03  0.24429044842E+03  0.34569950282E+03  0.00000000000E+00 0. -1.
          1    1    5    5  503    0  0.16054871878E+03 -0.10662800971E+02  0.12088104966E+03  0.20125062632E+03  0.00000000000E+00 0. -1.
         -2    1    5    5    0  503  0.15676512629E+03  0.43767299435E+02  0.54877662669E+02  0.17176274096E+03  0.00000000000E+00 0.  1.
         -3    1    6    6    0  502 -0.28075849945E+03 -0.24020098466E+03  0.49137073903E+03  0.61479024978E+03  0.00000000000E+00 0.  1.
<mgrwt>
<rscale>  0 0.15926925E+04</rscale>
<asrwt>0</asrwt>
<pdfrwt beam="1">  1        1 0.19216985E+00 0.15926925E+04</pdfrwt>
<pdfrwt beam="2">  1       -1 0.78107347E-01 0.15926925E+04</pdfrwt>
<totfact> 0.15509810E+01</totfact>
</mgrwt>
</event>
<event>
12    1  0.1097093E-007  0.2150225E+04  0.7818608E-02  0.8539436E-01
         -2   -1    0    0    0  501 -0.00000000000E+00  0.00000000000E+00  0.83732987658E+03  0.83732987658E+03  0.00000000000E+00 0.  1.
          2   -1    0    0  501    0  0.00000000000E+00 -0.00000000000E+00 -0.13804195854E+04  0.13804195854E+04  0.00000000000E+00 0. -1.
         23    2    1    2    0    0 -0.47915240613E+03  0.60097901473E+03 -0.67459675579E+03  0.10265063680E+04  0.88722804936E+02 0.  0.
        254    2    1    2    0    0  0.47915240613E+03 -0.60097901473E+03  0.13150704695E+03  0.11912430940E+04  0.90055716157E+03 0.  0.
        -24    2    4    4    0    0 -0.13565210952E+03  0.90111439989E+02  0.19019430610E+03  0.26101214518E+03  0.73701420789E+02 0.  0.
         24    2    4    4    0    0  0.61480451565E+03 -0.69109045472E+03 -0.58687259155E+02  0.93023094885E+03  0.79339868607E+02 0.  0.
         11    1    3    3    0    0 -0.27445545418E+03  0.31125151890E+03 -0.41536818617E+03  0.58714055764E+03  0.00000000000E+00 0.  1.
        -11    1    3    3    0    0 -0.20469695196E+03  0.28972749583E+03 -0.25922856962E+03  0.43936581033E+03  0.00000000000E+00 0. -1.
          4    1    6    6  502    0  0.12532075414E+03 -0.18360984897E+03  0.43468872162E+01  0.22234379570E+03  0.00000000000E+00 0. -1.
          3    1    5    5  503    0 -0.86304005044E+02  0.36257457381E+02  0.58412092018E+02  0.11034018758E+03  0.00000000000E+00 0. -1.
         -4    1    5    5    0  503 -0.49348104475E+02  0.53853982608E+02  0.13178221408E+03  0.15067195760E+03  0.00000000000E+00 0.  1.
         -3    1    6    6    0  502  0.48948376151E+03 -0.50748060574E+03 -0.63034146371E+02  0.70788715315E+03  0.00000000000E+00 0.  1.
<mgrwt>
<rscale>  0 0.21502247E+04</rscale>
<asrwt>0</asrwt>
<pdfrwt beam="1">  1        2 0.21237224E+00 0.21502247E+04</pdfrwt>
<pdfrwt beam="2">  1       -2 0.12881998E+00 0.21502247E+04</pdfrwt>
<totfact> 0.60584353E+00</totfact>
</mgrwt>
</event>
<event>
12    1  0.1097093E-007  0.1663868E+04  0.7818608E-02  0.8782244E-01
          1   -1    0    0  501    0  0.00000000000E+00  0.00000000000E+00  0.71152345404E+03  0.71152345404E+03  0.00000000000E+00 0. -1.
         -1   -1    0    0    0  501 -0.00000000000E+00 -0.00000000000E+00 -0.97272173174E+03  0.97272173174E+03  0.00000000000E+00 0.  1.
         23    2    1    2    0    0  0.40581268615E+03 -0.45192067497E+03 -0.74908361964E+02  0.61973230723E+03  0.97676185583E+02 0.  0.
        254    2    1    2    0    0 -0.40581268615E+03  0.45192067497E+03 -0.18628991574E+03  0.10645128785E+04  0.85414723741E+03 0.  0.
        -24    2    4    4    0    0  0.26946135244E+02  0.27898348506E+03 -0.44079266723E+03  0.52754920106E+03  0.73838370210E+02 0.  0.
         24    2    4    4    0    0 -0.43275882139E+03  0.17293718991E+03  0.25450275149E+03  0.53696367748E+03  0.79817737825E+02 0.  0.
         11    1    3    3    0    0  0.20564221671E+02  0.83901684526E-01  0.28369069087E+01  0.20759149627E+02  0.00000000000E+00 0. -1.
        -11    1    3    3    0    0  0.38524846448E+03 -0.45200457665E+03 -0.77745268872E+02  0.59897315761E+03  0.00000000000E+00 0.  1.
          2    1    6    6  502    0 -0.15720640109E+03  0.46089777778E+02  0.50613989349E+02  0.17146397895E+03  0.00000000000E+00 0. -1.
          1    1    5    5  503    0 -0.25499109863E+02  0.83742443006E+02 -0.12564567293E+03  0.15313339443E+03  0.00000000000E+00 0. -1.
         -2    1    5    5    0  503  0.52445245107E+02  0.19524104205E+03 -0.31514699430E+03  0.37441580663E+03  0.00000000000E+00 0.  1.
         -1    1    6    6    0  502 -0.27555242030E+03  0.12684741213E+03  0.20388876214E+03  0.36549969853E+03  0.00000000000E+00 0.  1.
<mgrwt>
<rscale>  0 0.16638682E+04</rscale>
<asrwt>0</asrwt>
<pdfrwt beam="1">  1        1 0.10946515E+00 0.16638682E+04</pdfrwt>
<pdfrwt beam="2">  1       -1 0.14964950E+00 0.16638682E+04</pdfrwt>
<totfact> 0.89060344E+00</totfact>
</mgrwt>
</event>
<event>
12    1  0.1097093E-007  0.1915460E+04  0.7818608E-02  0.8647199E-01
          1   -1    0    0  501    0  0.00000000000E+00  0.00000000000E+00  0.43076363691E+03  0.43076363691E+03  0.00000000000E+00 0. -1.
         -1   -1    0    0    0  501 -0.00000000000E+00 -0.00000000000E+00 -0.21293498442E+04  0.21293498442E+04  0.00000000000E+00 0.  1.
         23    2    1    2    0    0  0.55194012937E+03 -0.38525547035E+02 -0.13261330158E+04  0.14398204288E+04  0.91279610026E+02 0.  0.
        254    2    1    2    0    0 -0.55194012937E+03  0.38525547035E+02 -0.37245319151E+03  0.11202930524E+04  0.90011833624E+03 0.  0.
        -24    2    4    4    0    0 -0.72060136434E+03  0.71841561371E+02 -0.30704536378E+02  0.72927244808E+03  0.80423869312E+02 0.  0.
         24    2    4    4    0    0  0.16866123497E+03 -0.33316014336E+02 -0.34174865513E+03  0.39102060432E+03  0.80922189365E+02 0.  0.
         13    1    3    3    0    0 -0.32686933132E+01  0.14666764628E+00 -0.31681375615E+01  0.45544443111E+01  0.00000000000E+00 0. -1.
        -13    1    3    3    0    0  0.55520882268E+03 -0.38672214681E+02 -0.13229648783E+04  0.14352659844E+04  0.00000000000E+00 0.  1.
          2    1    6    6  502    0  0.98514904133E+02  0.14673559470E+02 -0.22986498743E+03  0.25051629114E+03  0.00000000000E+00 0. -1.
          3    1    5    5  503    0 -0.60462740347E+03  0.33992137486E+02 -0.10892271543E+02  0.60568011691E+03  0.00000000000E+00 0. -1.
         -4    1    5    5    0  503 -0.11597396086E+03  0.37849423885E+02 -0.19812264836E+02  0.12359233117E+03  0.00000000000E+00 0.  1.
         -1    1    6    6    0  502  0.70146330838E+02 -0.47989573806E+02 -0.11188366770E+03  0.14050431318E+03  0.00000000000E+00 0.  1.
<mgrwt>
<rscale>  0 0.19154597E+04</rscale>
<asrwt>0</asrwt>
<pdfrwt beam="1">  1        1 0.66271330E-01 0.19154597E+04</pdfrwt>
<pdfrwt beam="2">  1       -1 0.32759228E+00 0.19154597E+04</pdfrwt>
<totfact> 0.11096523E+00</totfact>
</mgrwt>
</event>
<event>
12    1  0.1097093E-007  0.1687447E+04  0.7818608E-02  0.8768556E-01
          2   -1    0    0  501    0  0.00000000000E+00  0.00000000000E+00  0.24223392701E+04  0.24223392701E+04  0.00000000000E+00 0. -1.
         -2   -1    0    0    0  501 -0.00000000000E+00 -0.00000000000E+00 -0.29387681556E+03  0.29387681556E+03  0.00000000000E+00 0.  1.
         23    2    1    2    0    0  0.38759937630E+03 -0.67100864967E+02  0.15035821647E+04  0.15572352046E+04  0.97397915191E+02 0.  0.
        254    2    1    2    0    0 -0.38759937630E+03  0.67100864967E+02  0.62488028987E+03  0.11589808811E+04  0.89332273197E+03 0.  0.
        -24    2    4    4    0    0 -0.47595635245E+03  0.39709849703E+03  0.38873069670E+03  0.73582420270E+03  0.78128336276E+02 0.  0.
         24    2    4    4    0    0  0.88356976154E+02 -0.32999763207E+03  0.23614959316E+03  0.42315667838E+03  0.81176053744E+02 0.  0.
         13    1    3    3    0    0  0.53882322230E+02 -0.21089031575E+01  0.10642548843E+03  0.11930690134E+03  0.00000000000E+00 0.  1.
        -13    1    3    3    0    0  0.33371705407E+03 -0.64991961810E+02  0.13971566763E+04  0.14379283032E+04  0.00000000000E+00 0. -1.
          4    1    6    6  502    0  0.39448017961E+02 -0.25628591266E+03  0.14943242843E+03  0.29928024628E+03  0.00000000000E+00 0. -1.
          3    1    5    5  503    0 -0.40781172367E+03  0.30088097723E+03  0.31127255975E+03  0.59475236096E+03  0.00000000000E+00 0. -1.
         -4    1    5    5    0  503 -0.68144628784E+02  0.96217519806E+02  0.77458136957E+02  0.14107184173E+03  0.00000000000E+00 0.  1.
         -3    1    6    6    0  502  0.48908958193E+02 -0.73711719407E+02  0.86717164734E+02  0.12387643210E+03  0.00000000000E+00 0.  1.
<mgrwt>
<rscale>  0 0.16874470E+04</rscale>
<asrwt>0</asrwt>
<pdfrwt beam="1">  1        2 0.37266757E+00 0.16874470E+04</pdfrwt>
<pdfrwt beam="2">  1       -2 0.45211819E-01 0.16874470E+04</pdfrwt>
<totfact> 0.17078805E+01</totfact>
</mgrwt>
</event>
<event>
12    1  0.1097093E-007  0.1323317E+04  0.7818608E-02  0.9011277E-01
          2   -1    0    0  501    0  0.00000000000E+00  0.00000000000E+00  0.14763464762E+04  0.14763464762E+04  0.00000000000E+00 0. -1.
         -2   -1    0    0    0  501 -0.00000000000E+00 -0.00000000000E+00 -0.29653721453E+03  0.29653721453E+03  0.00000000000E+00 0.  1.
         23    2    1    2    0    0 -0.98047878759E+02 -0.20524247323E+03  0.64687034271E+03  0.69166881558E+03  0.90700886515E+02 0.  0.
        254    2    1    2    0    0  0.98047878759E+02  0.20524247323E+03  0.53293891895E+03  0.10812148751E+04  0.91283287383E+03 0.  0.
        -24    2    4    4    0    0 -0.11926409625E+03  0.17120207418E+03 -0.20714327369E+03  0.30486924775E+03  0.80640235196E+02 0.  0.
         24    2    4    4    0    0  0.21731197501E+03  0.34040399049E+02  0.74008219264E+03  0.77634562739E+03  0.81287379424E+02 0.  0.
         13    1    3    3    0    0 -0.11139242408E+03 -0.20254595130E+03  0.61531706748E+03  0.65730375631E+03  0.00000000000E+00 0. -1.
        -13    1    3    3    0    0  0.13344545322E+02 -0.26965219289E+01  0.31553275237E+02  0.34365059269E+02  0.00000000000E+00 0.  1.
          4    1    6    6  502    0  0.19996024248E+03  0.44988034436E+01  0.64349328288E+03  0.67386047734E+03  0.00000000000E+00 0. -1.
          3    1    5    5  503    0 -0.12114018643E+03  0.14268869993E+03 -0.20278262670E+03  0.27596340979E+03  0.00000000000E+00 0. -1.
         -4    1    5    5    0  503  0.18760901765E+01  0.28513374258E+02 -0.43606469863E+01  0.28905837958E+02  0.00000000000E+00 0.  1.
         -3    1    6    6    0  502  0.17351732532E+02  0.29541595605E+02  0.96588909757E+02  0.10248515005E+03  0.00000000000E+00 0.  1.
<mgrwt>
<rscale>  0 0.13233165E+04</rscale>
<asrwt>0</asrwt>
<pdfrwt beam="1">  1        2 0.22713022E+00 0.13233165E+04</pdfrwt>
<pdfrwt beam="2">  1       -2 0.45621111E-01 0.13233165E+04</pdfrwt>
<totfact> 0.58350376E+01</totfact>
</mgrwt>
</event>
<event>
12    1  0.1097093E-007  0.1332844E+04  0.7818608E-02  0.9003918E-01
         -2   -1    0    0    0  501 -0.00000000000E+00  0.00000000000E+00  0.37275324341E+03  0.37275324341E+03  0.00000000000E+00 0.  1.
          2   -1    0    0  501    0  0.00000000000E+00 -0.00000000000E+00 -0.11914530960E+04  0.11914530960E+04  0.00000000000E+00 0. -1.
         23    2    1    2    0    0 -0.36523815536E+02  0.96049244433E+02 -0.61801547553E+03  0.63310355540E+03  0.91200534057E+02 0.  0.
        254    2    1    2    0    0  0.36523815536E+02 -0.96049244433E+02 -0.20068437710E+03  0.93110278404E+03  0.90339289834E+03 0.  0.
        -24    2    4    4    0    0 -0.17055327385E+03 -0.25077760287E+03 -0.46000297278E+03  0.55679046923E+03  0.80218865209E+02 0.  0.
         24    2    4    4    0    0  0.20707708939E+03  0.15472835844E+03  0.25931859569E+03  0.37431231481E+03  0.77728946291E+02 0.  0.
         11    1    3    3    0    0 -0.39184272038E+02  0.31188524918E+02 -0.10887149176E+03  0.11983794466E+03  0.00000000000E+00 0.  1.
        -11    1    3    3    0    0  0.26604565023E+01  0.64860719515E+02 -0.50914398377E+03  0.51326561075E+03  0.00000000000E+00 0. -1.
          4    1    6    6  502    0  0.19979877316E+03  0.11835344951E+03  0.21445130012E+03  0.31609563251E+03  0.00000000000E+00 0. -1.
          1    1    5    5  503    0 -0.10749955195E+03 -0.15824946221E+03 -0.35511088469E+03  0.40336433455E+03  0.00000000000E+00 0. -1.
         -2    1    5    5    0  503 -0.63053721900E+02 -0.92528140666E+02 -0.10489208810E+03  0.15342613469E+03  0.00000000000E+00 0.  1.
         -3    1    6    6    0  502  0.72783162328E+01  0.36374908926E+02  0.44867295564E+02  0.58216682298E+02  0.00000000000E+00 0.  1.
<mgrwt>
<rscale>  0 0.13328436E+04</rscale>
<asrwt>0</asrwt>
<pdfrwt beam="1">  1        2 0.18330048E+00 0.13328436E+04</pdfrwt>
<pdfrwt beam="2">  1       -2 0.57346652E-01 0.13328436E+04</pdfrwt>
<totfact> 0.53395141E+01</totfact>
</mgrwt>
</event>
<event>
12    1  0.1100456E-007  0.2020664E+04  0.7818608E-02  0.8597020E-01
          1   -1    0    0  501    0  0.00000000000E+00  0.00000000000E+00  0.11826963203E+04  0.11826963203E+04  0.00000000000E+00 0. -1.
         -1   -1    0    0    0  501 -0.00000000000E+00 -0.00000000000E+00 -0.86308812532E+03  0.86308812532E+03  0.00000000000E+00 0.  1.
         23    2    1    2    0    0 -0.90718836442E+02 -0.72258934634E+03  0.50062367802E+03  0.88868358480E+03  0.93643879522E+02 0.  0.
        254    2    1    2    0    0  0.90718836442E+02  0.72258934634E+03 -0.18101548308E+03  0.11571008608E+04  0.88076701013E+03 0.  0.
        -24    2    4    4    0    0  0.28967806426E+03  0.44249892939E+03 -0.46156854302E+03  0.70640268152E+03  0.78997120997E+02 0.  0.
         24    2    4    4    0    0 -0.19895922782E+03  0.28009041696E+03  0.28055305994E+03  0.45069817925E+03  0.79896266059E+02 0.  0.
         13    1    3    3    0    0 -0.86979472692E+02 -0.69506303383E+03  0.50047752018E+03  0.86090405846E+03  0.00000000000E+00 0. -1.
        -13    1    3    3    0    0 -0.37393637493E+01 -0.27526312510E+02  0.14615783951E+00  0.27779526342E+02  0.00000000000E+00 0.  1.
          2    1    6    6  502    0 -0.20586486914E+03  0.26092232372E+03  0.26434709239E+03  0.42466479559E+03  0.00000000000E+00 0. -1.
          3    1    5    5  503    0  0.20049042527E+03  0.33178347465E+03 -0.37824621124E+03  0.54161506718E+03  0.00000000000E+00 0. -1.
         -4    1    5    5    0  503  0.89187638991E+02  0.11071545474E+03 -0.83322331777E+02  0.16478761434E+03  0.00000000000E+00 0.  1.
         -1    1    6    6    0  502  0.69056413166E+01  0.19168093241E+02  0.16205967553E+02  0.26033383661E+02  0.00000000000E+00 0.  1.
<mgrwt>
<rscale>  0 0.20206644E+04</rscale>
<asrwt>0</asrwt>
<pdfrwt beam="1">  1        1 0.18195328E+00 0.20206644E+04</pdfrwt>
<pdfrwt beam="2">  1       -1 0.13278279E+00 0.20206644E+04</pdfrwt>
<totfact> 0.48969105E+00</totfact>
</mgrwt>
</event>
<event>
12    1  0.1097093E-007  0.1599984E+04  0.7818608E-02  0.8820558E-01
         -2   -1    0    0    0  501 -0.00000000000E+00  0.00000000000E+00  0.58242214857E+03  0.58242214857E+03  0.00000000000E+00 0.  1.
          2   -1    0    0  501    0  0.00000000000E+00 -0.00000000000E+00 -0.10988372415E+04  0.10988372415E+04  0.00000000000E+00 0. -1.
         23    2    1    2    0    0 -0.11210375875E+03 -0.46768740597E+03 -0.46372249749E+03  0.67349599667E+03  0.85202936709E+02 0.  0.
        254    2    1    2    0    0  0.11210375875E+03  0.46768740597E+03 -0.52692595442E+02  0.10077633934E+04  0.88403155206E+03 0.  0.
        -24    2    4    4    0    0 -0.11732767334E+03  0.44645429541E+03  0.31719937468E+03  0.56584173079E+03  0.80462414693E+02 0.  0.
         24    2    4    4    0    0  0.22943143210E+03  0.21233110564E+02 -0.36989197012E+03  0.44192166262E+03  0.73382963369E+02 0.  0.
         11    1    3    3    0    0  0.12318939119E+02 -0.37256268233E+02 -0.25710730685E+02  0.46912977479E+02  0.00000000000E+00 0.  1.
        -11    1    3    3    0    0 -0.12442269787E+03 -0.43043113774E+03 -0.43801176680E+03  0.62658301919E+03  0.00000000000E+00 0. -1.
          2    1    6    6  502    0  0.10021586983E+02 -0.70840604565E+01 -0.17165270251E+01  0.12392037090E+02  0.00000000000E+00 0. -1.
          3    1    5    5  503    0 -0.19800755565E+02  0.22917899784E+02  0.49623829247E+01  0.30690801484E+02  0.00000000000E+00 0. -1.
         -4    1    5    5    0  503 -0.97526917780E+02  0.42353639563E+03  0.31223699175E+03  0.53515092930E+03  0.00000000000E+00 0.  1.
         -1    1    6    6    0  502  0.21940984511E+03  0.28317171021E+02 -0.36817544310E+03  0.42952962553E+03  0.00000000000E+00 0.  1.
<mgrwt>
<rscale>  0 0.15999839E+04</rscale>
<asrwt>0</asrwt>
<pdfrwt beam="1">  1        2 0.16905188E+00 0.15999839E+04</pdfrwt>
<pdfrwt beam="2">  1       -2 0.89603408E-01 0.15999839E+04</pdfrwt>
<totfact> 0.22345872E+01</totfact>
</mgrwt>
</event>
<event>
12    1  0.1097093E-007  0.2006720E+04  0.7818608E-02  0.8603485E-01
          1   -1    0    0  501    0  0.00000000000E+00  0.00000000000E+00  0.70420900654E+03  0.70420900654E+03  0.00000000000E+00 0. -1.
         -1   -1    0    0    0  501 -0.00000000000E+00 -0.00000000000E+00 -0.14295916455E+04  0.14295916455E+04  0.00000000000E+00 0.  1.
         23    2    1    2    0    0 -0.35783663003E+03  0.57171255617E+03 -0.77198893773E+03  0.10290788703E+04  0.90189249167E+02 0.  0.
        254    2    1    2    0    0  0.35783663003E+03 -0.57171255617E+03  0.46606298745E+02  0.11047217817E+04  0.87369088773E+03 0.  0.
        -24    2    4    4    0    0  0.61416567557E+03 -0.43571844697E+03  0.17608279196E+03  0.77714630802E+03  0.76819218712E+02 0.  0.
         24    2    4    4    0    0 -0.25632904554E+03 -0.13599410920E+03 -0.12947649321E+03  0.32757547372E+03  0.79640136662E+02 0.  0.
         13    1    3    3    0    0 -0.22340604600E+03  0.29363282751E+03 -0.46505454560E+03  0.59363812981E+03  0.00000000000E+00 0. -1.
        -13    1    3    3    0    0 -0.13443058404E+03  0.27807972866E+03 -0.30693439212E+03  0.43544074050E+03  0.00000000000E+00 0.  1.
          2    1    6    6  502    0 -0.23980585930E+02 -0.43364335268E+02 -0.10794633391E+02  0.50715462976E+02  0.00000000000E+00 0. -1.
          3    1    5    5  503    0  0.78741051576E+02 -0.33693704949E+02  0.37006740390E+02  0.93300148932E+02  0.00000000000E+00 0. -1.
         -4    1    5    5    0  503  0.53542462400E+03 -0.40202474202E+03  0.13907605157E+03  0.68384615909E+03  0.00000000000E+00 0.  1.
         -1    1    6    6    0  502 -0.23234845961E+03 -0.92629773933E+02 -0.11868185982E+03  0.27686001075E+03  0.00000000000E+00 0.  1.
<mgrwt>
<rscale>  0 0.20067200E+04</rscale>
<asrwt>0</asrwt>
<pdfrwt beam="1">  1        1 0.10833985E+00 0.20067200E+04</pdfrwt>
<pdfrwt beam="2">  1       -1 0.21993717E+00 0.20067200E+04</pdfrwt>
<totfact> 0.27566885E+00</totfact>
</mgrwt>
</event>
<event>
12    1  0.1097093E-007  0.1475637E+04  0.7818608E-02  0.8900817E-01
         -1   -1    0    0    0  501 -0.00000000000E+00  0.00000000000E+00  0.36281362496E+03  0.36281362496E+03  0.00000000000E+00 0.  1.
          1   -1    0    0  501    0  0.00000000000E+00 -0.00000000000E+00 -0.15004295426E+04  0.15004295426E+04  0.00000000000E+00 0. -1.
         23    2    1    2    0    0 -0.25798479933E+03  0.28309586589E+03 -0.50019660450E+02  0.39804074209E+03  0.96099115337E+02 0.  0.
        254    2    1    2    0    0  0.25798479933E+03 -0.28309586589E+03 -0.10875962572E+04  0.14652024255E+04  0.90402052132E+03 0.  0.
        -24    2    4    4    0    0 -0.17203657772E+02 -0.10586935386E+03  0.13886126876E+03  0.19346135449E+03  0.81489617684E+02 0.  0.
         24    2    4    4    0    0  0.27518845710E+03 -0.17722651203E+03 -0.12264575259E+04  0.12717410710E+04  0.77390988872E+02 0.  0.
         13    1    3    3    0    0 -0.38776208832E+02  0.10486978489E+03 -0.46813161520E+01  0.11190701888E+03  0.00000000000E+00 0. -1.
        -13    1    3    3    0    0 -0.21920859050E+03  0.17822608100E+03 -0.45338344298E+02  0.28613372321E+03  0.00000000000E+00 0.  1.
          2    1    6    6  502    0  0.16470927237E+03 -0.14429085122E+03 -0.73381510112E+03  0.76578952512E+03  0.00000000000E+00 0. -1.
          1    1    5    5  503    0 -0.46070832419E+02 -0.77251317609E+02  0.11612788845E+03  0.14688762421E+03  0.00000000000E+00 0. -1.
         -2    1    5    5    0  503  0.28867174647E+02 -0.28618036254E+02  0.22733380316E+02  0.46573730275E+02  0.00000000000E+00 0.  1.
         -1    1    6    6    0  502  0.11047918473E+03 -0.32935660806E+02 -0.49264242482E+03  0.50595154585E+03  0.00000000000E+00 0.  1.
<mgrwt>
<rscale>  0 0.14756372E+04</rscale>
<asrwt>0</asrwt>
<pdfrwt beam="1">  1        1 0.23083531E+00 0.14756372E+04</pdfrwt>
<pdfrwt beam="2">  1       -1 0.55817481E-01 0.14756372E+04</pdfrwt>
<totfact> 0.20568994E+01</totfact>
</mgrwt>
</event>
<event>
12    1  0.1097093E-007  0.3420705E+04  0.7818608E-02  0.8132843E-01
          2   -1    0    0  501    0  0.00000000000E+00  0.00000000000E+00  0.90796599084E+03  0.90796599084E+03  0.00000000000E+00 0. -1.
         -2   -1    0    0    0  501 -0.00000000000E+00 -0.00000000000E+00 -0.32218231384E+04  0.32218231384E+04  0.00000000000E+00 0.  1.
         23    2    1    2    0    0 -0.12640220911E+04  0.52988046578E+03 -0.20410303161E+04  0.24600277857E+04  0.86062771262E+02 0.  0.
        254    2    1    2    0    0  0.12640220911E+04 -0.52988046578E+03 -0.27282683145E+03  0.16697613435E+04  0.91386175624E+03 0.  0.
        -24    2    4    4    0    0 -0.63054702043E+02  0.66235118997E+02  0.10783630634E+03  0.16385679908E+03  0.82809390781E+02 0.  0.
         24    2    4    4    0    0  0.13270767931E+04 -0.59611558477E+03 -0.38066313780E+03  0.15059045444E+04  0.79733726561E+02 0.  0.
         13    1    3    3    0    0 -0.14225553041E+03  0.44312212890E+02 -0.26485497503E+03  0.30388873942E+03  0.00000000000E+00 0. -1.
        -13    1    3    3    0    0 -0.11217665607E+04  0.48556825288E+03 -0.17761753410E+04  0.21561390463E+04  0.00000000000E+00 0.  1.
          4    1    6    6  502    0  0.85095886366E+02 -0.19167013862E+02 -0.15338700874E+02  0.88566133715E+02  0.00000000000E+00 0. -1.
          1    1    5    5  503    0 -0.19728867644E+02 -0.14174713944E+02  0.24799897861E+01  0.24419276878E+02  0.00000000000E+00 0. -1.
         -2    1    5    5    0  503 -0.43325834400E+02  0.80409832941E+02  0.10535631656E+03  0.13943752220E+03  0.00000000000E+00 0.  1.
         -3    1    6    6    0  502  0.12419809068E+04 -0.57694857091E+03 -0.36532443692E+03  0.14173384107E+04  0.00000000000E+00 0.  1.
<mgrwt>
<rscale>  0 0.34207051E+04</rscale>
<asrwt>0</asrwt>
<pdfrwt beam="1">  1        2 0.13968708E+00 0.34207051E+04</pdfrwt>
<pdfrwt beam="2">  1       -2 0.49566510E+00 0.34207051E+04</pdfrwt>
<totfact> 0.41978131E-02</totfact>
</mgrwt>
</event>
<event>
12    1  0.1097093E-007  0.1715572E+04  0.7818608E-02  0.8752533E-01
          2   -1    0    0  501    0  0.00000000000E+00  0.00000000000E+00  0.48695078670E+03  0.48695078670E+03  0.00000000000E+00 0. -1.
         -2   -1    0    0    0  501 -0.00000000000E+00 -0.00000000000E+00 -0.15110289472E+04  0.15110289472E+04  0.00000000000E+00 0.  1.
         23    2    1    2    0    0  0.47281331684E+03 -0.38058011256E+03 -0.51441612924E+03  0.80094453325E+03  0.92165810735E+02 0.  0.
        254    2    1    2    0    0 -0.47281331684E+03  0.38058011256E+03 -0.50966203123E+03  0.11970352006E+04  0.89707537630E+03 0.  0.
        -24    2    4    4    0    0  0.30458978842E+02  0.51911078439E+03 -0.39152941342E+03  0.65603697363E+03  0.81764743834E+02 0.  0.
         24    2    4    4    0    0 -0.50327229569E+03 -0.13853067183E+03 -0.11813261782E+03  0.54099822698E+03  0.79057039907E+02 0.  0.
         11    1    3    3    0    0  0.35305777577E+03 -0.32439890301E+03 -0.42990109160E+03  0.64397157536E+03  0.00000000000E+00 0. -1.
        -11    1    3    3    0    0  0.11975554108E+03 -0.56181209550E+02 -0.84515037633E+02  0.15697295790E+03  0.00000000000E+00 0.  1.
          4    1    6    6  502    0 -0.25939862738E+03 -0.10046632441E+03 -0.91020337762E+02  0.29268725991E+03  0.00000000000E+00 0. -1.
          3    1    5    5  503    0 -0.23235522955E+02  0.77320676900E+02 -0.48995994533E+02  0.94440373165E+02  0.00000000000E+00 0. -1.
         -4    1    5    5    0  503  0.53694501797E+02  0.44179010749E+03 -0.34253341888E+03  0.56159660047E+03  0.00000000000E+00 0.  1.
         -3    1    6    6    0  502 -0.24387366830E+03 -0.38064347425E+02 -0.27112280055E+02  0.24831096707E+03  0.00000000000E+00 0.  1.
<mgrwt>
<rscale>  0 0.17155719E+04</rscale>
<asrwt>0</asrwt>
<pdfrwt beam="1">  1        2 0.74915508E-01 0.17155719E+04</pdfrwt>
<pdfrwt beam="2">  1       -2 0.23246599E+00 0.17155719E+04</pdfrwt>
<totfact> 0.49777129E+00</totfact>
</mgrwt>
</event>
<event>
12    1  0.1097093E-007  0.3027074E+04  0.7818608E-02  0.8236042E-01
          1   -1    0    0  501    0  0.00000000000E+00  0.00000000000E+00  0.42181839386E+04  0.42181839386E+04  0.00000000000E+00 0. -1.
         -1   -1    0    0    0  501 -0.00000000000E+00 -0.00000000000E+00 -0.54307596390E+03  0.54307596390E+03  0.00000000000E+00 0.  1.
         23    2    1    2    0    0  0.12087408213E+04 -0.66426059899E+03  0.15347221343E+04  0.20655223846E+04  0.93349746307E+02 0.  0.
        254    2    1    2    0    0 -0.12087408213E+04  0.66426059899E+03  0.21403858404E+04  0.26957375179E+04  0.88512863666E+03 0.  0.
        -24    2    4    4    0    0  0.45579731812E+02  0.30883788126E+03  0.30742032741E+03  0.44500504954E+03  0.77870967346E+02 0.  0.
         24    2    4    4    0    0 -0.12543205531E+04  0.35542271773E+03  0.18329655130E+04  0.22507324684E+04  0.79929433263E+02 0.  0.
         11    1    3    3    0    0  0.53542594528E+03 -0.32700384930E+03  0.75231606069E+03  0.97958762523E+03  0.00000000000E+00 0.  1.
        -11    1    3    3    0    0  0.67331487603E+03 -0.33725674969E+03  0.78240607362E+03  0.10859347593E+04  0.00000000000E+00 0. -1.
          2    1    6    6  502    0 -0.12422274643E+03  0.56177828242E+02  0.21596903038E+03  0.25540137275E+03  0.00000000000E+00 0. -1.
          3    1    5    5  503    0  0.36372226617E+02  0.75259699993E+02  0.50513432009E+02  0.97665593355E+02  0.00000000000E+00 0. -1.
         -4    1    5    5    0  503  0.92075051951E+01  0.23357818127E+03  0.25690689541E+03  0.34733945619E+03  0.00000000000E+00 0.  1.
         -1    1    6    6    0  502 -0.11300978067E+04  0.29924488949E+03  0.16169964826E+04  0.19953310957E+04  0.00000000000E+00 0.  1.
<mgrwt>
<rscale>  0 0.30270740E+04</rscale>
<asrwt>0</asrwt>
<pdfrwt beam="1">  1        1 0.64895135E+00 0.30270740E+04</pdfrwt>
<pdfrwt beam="2">  1       -1 0.83550151E-01 0.30270740E+04</pdfrwt>
<totfact> 0.73334052E-02</totfact>
</mgrwt>
</event>
<event>
12    1  0.1097093E-007  0.2218644E+04  0.7818608E-02  0.8510708E-01
          1   -1    0    0  501    0  0.00000000000E+00  0.00000000000E+00  0.18075888807E+04  0.18075888807E+04  0.00000000000E+00 0.  1.
         -1   -1    0    0    0  501 -0.00000000000E+00 -0.00000000000E+00 -0.68079402012E+03  0.68079402012E+03  0.00000000000E+00 0. -1.
         23    2    1    2    0    0 -0.21332945573E+03 -0.62944600618E+03 -0.24766669779E+03  0.71500122609E+03  0.90422501228E+02 0.  0.
        254    2    1    2    0    0  0.21332945573E+03  0.62944600618E+03  0.13744615584E+04  0.17733816748E+04  0.90223403698E+03 0.  0.
        -24    2    4    4    0    0  0.52029277356E+03  0.56737780854E+03  0.79236573818E+03  0.11074859064E+04  0.77842288707E+02 0.  0.
         24    2    4    4    0    0 -0.30696331783E+03  0.62068197639E+02  0.58209582021E+03  0.66589576839E+03  0.80639263426E+02 0.  0.
         13    1    3    3    0    0 -0.21743596263E+03 -0.55403485277E+03 -0.21732297020E+03  0.63361051862E+03  0.00000000000E+00 0. -1.
        -13    1    3    3    0    0  0.41065068963E+01 -0.75411153416E+02 -0.30343727596E+02  0.81390707472E+02  0.00000000000E+00 0.  1.
          4    1    6    6  502    0 -0.28173569814E+03  0.61849090096E+02  0.56788315803E+03  0.63693923942E+03  0.00000000000E+00 0. -1.
          3    1    5    5  503    0  0.40095643342E+03  0.47819558524E+03  0.65802854440E+03  0.90688403034E+03  0.00000000000E+00 0. -1.
         -4    1    5    5    0  503  0.11933634014E+03  0.89182223302E+02  0.13433719378E+03  0.20060187602E+03  0.00000000000E+00 0.  1.
         -3    1    6    6    0  502 -0.25227619692E+02  0.21910754358E+00  0.14212662184E+02  0.28956528967E+02  0.00000000000E+00 0.  1.
<mgrwt>
<rscale>  0 0.22186444E+04</rscale>
<asrwt>0</asrwt>
<pdfrwt beam="1">  1        1 0.27809060E+00 0.22186444E+04</pdfrwt>
<pdfrwt beam="2">  1       -1 0.10473754E+00 0.22186444E+04</pdfrwt>
<totfact> 0.31376818E+00</totfact>
</mgrwt>
</event>
<event>
12    1  0.1097093E-007  0.2172096E+04  0.7818608E-02  0.8530133E-01
          2   -1    0    0  501    0  0.00000000000E+00  0.00000000000E+00  0.42989181705E+03  0.42989181705E+03  0.00000000000E+00 0. -1.
         -2   -1    0    0    0  501 -0.00000000000E+00 -0.00000000000E+00 -0.27437135035E+04  0.27437135035E+04  0.00000000000E+00 0.  1.
         23    2    1    2    0    0 -0.59294353068E+03 -0.34172052680E+03 -0.18076189381E+04  0.19349529446E+04  0.90563366207E+02 0.  0.
        254    2    1    2    0    0  0.59294353068E+03  0.34172052680E+03 -0.50620274840E+03  0.12386523760E+04  0.89981305677E+03 0.  0.
        -24    2    4    4    0    0  0.95776331238E+02 -0.27296322144E+03 -0.28498274306E+03  0.41389423389E+03  0.80070263619E+02 0.  0.
         24    2    4    4    0    0  0.49716719944E+03  0.61468374824E+03 -0.22122000534E+03  0.82475814214E+03  0.79223530042E+02 0.  0.
         11    1    3    3    0    0 -0.14622871959E+03 -0.44558081521E+02 -0.36026515158E+03  0.39135564453E+03  0.00000000000E+00 0. -1.
        -11    1    3    3    0    0 -0.44671481109E+03 -0.29716244528E+03 -0.14473537865E+04  0.15435973000E+04  0.00000000000E+00 0.  1.
          4    1    6    6  502    0  0.44731155224E+03  0.53312616020E+03 -0.21740723446E+03  0.72909329516E+03  0.00000000000E+00 0. -1.
          1    1    5    5  503    0  0.52069826700E+02 -0.23862349013E+03 -0.22436134716E+03  0.33164808306E+03  0.00000000000E+00 0. -1.
         -2    1    5    5    0  503  0.43706504539E+02 -0.34339731311E+02 -0.60621395900E+02  0.82246150830E+02  0.00000000000E+00 0.  1.
         -3    1    6    6    0  502  0.49855647200E+02  0.81557588043E+02 -0.38127708732E+01  0.95664846976E+02  0.00000000000E+00 0.  1.
<mgrwt>
<rscale>  0 0.21720957E+04</rscale>
<asrwt>0</asrwt>
<pdfrwt beam="1">  1        2 0.66137202E-01 0.21720957E+04</pdfrwt>
<pdfrwt beam="2">  1       -2 0.42210978E+00 0.21720957E+04</pdfrwt>
<totfact> 0.35695842E-01</totfact>
</mgrwt>
</event>
<event>
12    1  0.1097093E-007  0.1728372E+04  0.7818608E-02  0.8745346E-01
         -2   -1    0    0    0  501 -0.00000000000E+00  0.00000000000E+00  0.44809460489E+03  0.44809460489E+03  0.00000000000E+00 0. -1.
          2   -1    0    0  501    0  0.00000000000E+00 -0.00000000000E+00 -0.16666515796E+04  0.16666515796E+04  0.00000000000E+00 0.  1.
         23    2    1    2    0    0  0.17652609571E+03  0.70225796504E+02 -0.11691125458E+04  0.11882708113E+04  0.95237866743E+02 0.  0.
        254    2    1    2    0    0 -0.17652609571E+03 -0.70225796504E+02 -0.49444428875E+02  0.92647537317E+03  0.90543842451E+03 0.  0.
        -24    2    4    4    0    0 -0.11095580192E+03 -0.31239110270E+03 -0.37726611059E+03  0.50720628198E+03  0.70916170649E+02 0.  0.
         24    2    4    4    0    0 -0.65570293793E+02  0.24216530619E+03  0.32782168171E+03  0.41926909119E+03  0.73321326217E+02 0.  0.
         13    1    3    3    0    0  0.15240422968E+03  0.31320138134E+02 -0.70815626263E+03  0.72504709680E+03  0.00000000000E+00 0.  1.
        -13    1    3    3    0    0  0.24121866037E+02  0.38905658370E+02 -0.46095628321E+03  0.46322371453E+03  0.00000000000E+00 0. -1.
          4    1    6    6  502    0 -0.58219212689E+02  0.10232459389E+03  0.11548136157E+03  0.16491132196E+03  0.00000000000E+00 0. -1.
          3    1    5    5  503    0 -0.13097004994E+02 -0.37247884216E+02 -0.86611398526E+02  0.95186505204E+02  0.00000000000E+00 0. -1.
         -4    1    5    5    0  503 -0.97858796928E+02 -0.27514321848E+03 -0.29065471206E+03  0.41201977678E+03  0.00000000000E+00 0.  1.
         -3    1    6    6    0  502 -0.73510811041E+01  0.13984071230E+03  0.21234032014E+03  0.25435776923E+03  0.00000000000E+00 0.  1.
<mgrwt>
<rscale>  0 0.17283722E+04</rscale>
<asrwt>0</asrwt>
<pdfrwt beam="1">  1        2 0.25640794E+00 0.17283722E+04</pdfrwt>
<pdfrwt beam="2">  1       -2 0.68937630E-01 0.17283722E+04</pdfrwt>
<totfact> 0.18676364E+01</totfact>
</mgrwt>
</event>
<event>
12    1  0.1097093E-007  0.1278715E+04  0.7818608E-02  0.9046617E-01
         -1   -1    0    0    0  501 -0.00000000000E+00  0.00000000000E+00  0.20149891732E+03  0.20149891732E+03  0.00000000000E+00 0.  1.
          1   -1    0    0  501    0  0.00000000000E+00 -0.00000000000E+00 -0.20286860633E+04  0.20286860633E+04  0.00000000000E+00 0. -1.
         23    2    1    2    0    0  0.15727269675E+03 -0.18028468944E+03 -0.82658661148E+03  0.86541824901E+03  0.92011135443E+02 0.  0.
        254    2    1    2    0    0 -0.15727269675E+03  0.18028468944E+03 -0.10006005344E+04  0.13647667316E+04  0.89674384953E+03 0.  0.
        -24    2    4    4    0    0 -0.34657325219E+03 -0.18644735722E+03 -0.17388233641E+03  0.43747515653E+03  0.79207382995E+02 0.  0.
         24    2    4    4    0    0  0.18930055544E+03  0.36673204665E+03 -0.82671819804E+03  0.92729157503E+03  0.77971737356E+02 0.  0.
         13    1    3    3    0    0 -0.21110915442E+01  0.10689467155E+01  0.15338554283E+01  0.28199409681E+01  0.00000000000E+00 0.  1.
        -13    1    3    3    0    0  0.15938378830E+03 -0.18135363615E+03 -0.82812046691E+03  0.86259830804E+03  0.00000000000E+00 0. -1.
          4    1    6    6  502    0  0.14055885706E+03  0.18879574470E+03 -0.47543443686E+03  0.53050780322E+03  0.00000000000E+00 0. -1.
          3    1    5    5  503    0 -0.12861319250E+03 -0.46363850332E+02 -0.95559817570E+02  0.16680119495E+03  0.00000000000E+00 0. -1.
         -4    1    5    5    0  503 -0.21796005969E+03 -0.14008350688E+03 -0.78322518837E+02  0.27067396158E+03  0.00000000000E+00 0.  1.
         -3    1    6    6    0  502  0.48741698377E+02  0.17793630195E+03 -0.35128376118E+03  0.39678377182E+03  0.00000000000E+00 0.  1.
<mgrwt>
<rscale>  0 0.12787151E+04</rscale>
<asrwt>0</asrwt>
<pdfrwt beam="1">  1        1 0.31210554E+00 0.12787151E+04</pdfrwt>
<pdfrwt beam="2">  1       -1 0.30999834E-01 0.12787151E+04</pdfrwt>
<totfact> 0.27046744E+01</totfact>
</mgrwt>
</event>
<event>
12    1  0.1097093E-007  0.1080391E+04  0.7818608E-02  0.9224518E-01
          2   -1    0    0  501    0  0.00000000000E+00  0.00000000000E+00  0.14109724597E+03  0.14109724597E+03  0.00000000000E+00 0. -1.
         -2   -1    0    0    0  501 -0.00000000000E+00 -0.00000000000E+00 -0.20681561427E+04  0.20681561427E+04  0.00000000000E+00 0.  1.
         23    2    1    2    0    0  0.10674643320E+03 -0.87694509971E+02 -0.21717215500E+03  0.27285974059E+03  0.90573533906E+02 0.  0.
        254    2    1    2    0    0 -0.10674643320E+03  0.87694509971E+02 -0.17098867417E+04  0.19363936481E+04  0.89823302252E+03 0.  0.
        -24    2    4    4    0    0 -0.18489222148E+03 -0.37914140804E+03 -0.83033367125E+03  0.93496843793E+03  0.82332456906E+02 0.  0.
         24    2    4    4    0    0  0.78145788272E+02  0.46683591801E+03 -0.87955307048E+03  0.10014252102E+04  0.72085429838E+02 0.  0.
         11    1    3    3    0    0  0.56560343394E+02 -0.34351086834E+02 -0.31549827772E+02  0.73310717115E+02  0.00000000000E+00 0. -1.
        -11    1    3    3    0    0  0.50186089809E+02 -0.53343423137E+02 -0.18562232723E+03  0.19954902347E+03  0.00000000000E+00 0.  1.
          4    1    6    6  502    0  0.50637946544E+02  0.39952058234E+03 -0.69790244254E+03  0.80575971396E+03  0.00000000000E+00 0. -1.
          3    1    5    5  503    0 -0.12503076166E+03 -0.32681057222E+03 -0.66129145032E+03  0.74816056014E+03  0.00000000000E+00 0. -1.
         -4    1    5    5    0  503 -0.59861459817E+02 -0.52330835819E+02 -0.16904222093E+03  0.18680787779E+03  0.00000000000E+00 0.  1.
         -3    1    6    6    0  502  0.27507841727E+02  0.67315335673E+02 -0.18165062795E+03  0.19566549621E+03  0.00000000000E+00 0.  1.
<mgrwt>
<rscale>  0 0.10803909E+04</rscale>
<asrwt>0</asrwt>
<pdfrwt beam="1">  1        2 0.21707270E-01 0.10803909E+04</pdfrwt>
<pdfrwt beam="2">  1       -2 0.31817785E+00 0.10803909E+04</pdfrwt>
<totfact> 0.64066276E+00</totfact>
</mgrwt>
</event>
<event>
12    1  0.1097093E-007  0.2398163E+04  0.7818608E-02  0.8440192E-01
         -2   -1    0    0    0  501 -0.00000000000E+00  0.00000000000E+00  0.87492401197E+03  0.87492401197E+03  0.00000000000E+00 0.  1.
          2   -1    0    0  501    0  0.00000000000E+00 -0.00000000000E+00 -0.16433389320E+04  0.16433389320E+04  0.00000000000E+00 0. -1.
         23    2    1    2    0    0 -0.60758499970E+03  0.60672494439E+03  0.26562561640E+03  0.90342402126E+03  0.91341688768E+02 0.  0.
        254    2    1    2    0    0  0.60758499970E+03 -0.60672494439E+03 -0.10340405364E+04  0.16148389227E+04  0.89509229984E+03 0.  0.
        -24    2    4    4    0    0  0.66979602259E+03 -0.65688120003E+03 -0.11263322800E+04  0.14681347624E+04  0.81704666804E+02 0.  0.
         24    2    4    4    0    0 -0.62211022888E+02  0.50156255645E+02  0.92291743659E+02  0.14670416028E+03  0.81354061654E+02 0.  0.
         13    1    3    3    0    0 -0.73582136615E+02  0.59141606896E+02  0.58340892641E+02  0.11097621479E+03  0.00000000000E+00 0. -1.
        -13    1    3    3    0    0 -0.53400286309E+03  0.54758333749E+03  0.20728472376E+03  0.79244780647E+03  0.00000000000E+00 0.  1.
          4    1    6    6  502    0 -0.18358180301E+02  0.64850038170E+01 -0.13810880732E+02  0.23870871058E+02  0.00000000000E+00 0. -1.
          3    1    5    5  503    0  0.29675719681E+03 -0.23542101059E+03 -0.46137859336E+03  0.59695736237E+03  0.00000000000E+00 0. -1.
         -4    1    5    5    0  503  0.37303882579E+03 -0.42146018944E+03 -0.66495368669E+03  0.87117740000E+03  0.00000000000E+00 0.  1.
         -3    1    6    6    0  502 -0.43852842587E+02  0.43671251828E+02  0.10610262439E+03  0.12283328923E+03  0.00000000000E+00 0.  1.
<mgrwt>
<rscale>  0 0.23981632E+04</rscale>
<asrwt>0</asrwt>
<pdfrwt beam="1">  1        2 0.25282137E+00 0.23981632E+04</pdfrwt>
<pdfrwt beam="2">  1       -2 0.13460369E+00 0.23981632E+04</pdfrwt>
<totfact> 0.37709448E+00</totfact>
</mgrwt>
</event>
<event>
12    1  0.1097093E-007  0.1265873E+04  0.7818608E-02  0.9057074E-01
          2   -1    0    0  501    0  0.00000000000E+00  0.00000000000E+00  0.79049843488E+03  0.79049843488E+03  0.00000000000E+00 0. -1.
         -2   -1    0    0    0  501 -0.00000000000E+00 -0.00000000000E+00 -0.50678009485E+03  0.50678009485E+03  0.00000000000E+00 0.  1.
         23    2    1    2    0    0  0.22690742571E+03 -0.26971860366E+03 -0.91599073262E+02  0.37598337961E+03  0.93477304842E+02 0.  0.
        254    2    1    2    0    0 -0.22690742571E+03  0.26971860366E+03  0.37531741329E+03  0.92129515011E+03  0.76399377477E+03 0.  0.
        -24    2    4    4    0    0 -0.26756771409E+02 -0.25788078006E+03  0.14302738858E+03  0.30579752704E+03  0.76399424829E+02 0.  0.
         24    2    4    4    0    0 -0.20015065431E+03  0.52759938372E+03  0.23229002471E+03  0.61549762307E+03  0.80357167118E+02 0.  0.
         13    1    3    3    0    0  0.23301303469E+03 -0.27185715375E+03 -0.91289664464E+02  0.36950668359E+03  0.00000000000E+00 0.  1.
        -13    1    3    3    0    0 -0.61056089790E+01  0.21385500959E+01 -0.30940879809E+00  0.64766960189E+01  0.00000000000E+00 0. -1.
          4    1    6    6  502    0 -0.91297685251E+02  0.21624642248E+03  0.55206421844E+02  0.24113384578E+03  0.00000000000E+00 0. -1.
          3    1    5    5  503    0 -0.34330678618E+02 -0.41875367456E+02  0.28611340362E+02  0.61243372631E+02  0.00000000000E+00 0. -1.
         -4    1    5    5    0  503  0.75739072094E+01 -0.21600541261E+03  0.11441604822E+03  0.24455415441E+03  0.00000000000E+00 0.  1.
         -3    1    6    6    0  502 -0.10885296906E+03  0.31135296124E+03  0.17708360287E+03  0.37436377729E+03  0.00000000000E+00 0.  1.
<mgrwt>
<rscale>  0 0.12658734E+04</rscale>
<asrwt>0</asrwt>
<pdfrwt beam="1">  1        2 0.12161514E+00 0.12658734E+04</pdfrwt>
<pdfrwt beam="2">  1       -2 0.77966169E-01 0.12658734E+04</pdfrwt>
<totfact> 0.50379244E+01</totfact>
</mgrwt>
</event>
<event>
12    1  0.1097093E-007  0.1547241E+04  0.7818608E-02  0.8853632E-01
          1   -1    0    0  501    0  0.00000000000E+00  0.00000000000E+00  0.12740211735E+04  0.12740211735E+04  0.00000000000E+00 0. -1.
         -1   -1    0    0    0  501 -0.00000000000E+00 -0.00000000000E+00 -0.46976323387E+03  0.46976323387E+03  0.00000000000E+00 0.  1.
         23    2    1    2    0    0 -0.27118621151E+03 -0.32547334732E+03 -0.48738537669E+02  0.43626795203E+03  0.92083765053E+02 0.  0.
        254    2    1    2    0    0  0.27118621151E+03  0.32547334732E+03  0.85299647725E+03  0.13075164553E+04  0.89583560408E+03 0.  0.
        -24    2    4    4    0    0  0.51738805123E+02  0.40329836873E+03 -0.59400877018E+01  0.41429573377E+03  0.79241354121E+02 0.  0.
         24    2    4    4    0    0  0.21944740639E+03 -0.77825021407E+02  0.85893656495E+03  0.89322072153E+03  0.76533238761E+02 0.  0.
         13    1    3    3    0    0 -0.43829083544E+02 -0.93205962961E+02 -0.41845320290E+02  0.11117270765E+03  0.00000000000E+00 0. -1.
        -13    1    3    3    0    0 -0.22735712797E+03 -0.23226738436E+03 -0.68932173793E+01  0.32509524438E+03  0.00000000000E+00 0.  1.
          4    1    6    6  502    0  0.88593029749E+02 -0.55095677715E+02  0.26909098847E+03  0.28860737811E+03  0.00000000000E+00 0. -1.
          1    1    5    5  503    0  0.12878990246E+01  0.32528549991E+02  0.21646103081E+02  0.39093721069E+02  0.00000000000E+00 0. -1.
         -2    1    5    5    0  503  0.50450906098E+02  0.37076981873E+03 -0.27586190782E+02  0.37520201270E+03  0.00000000000E+00 0.  1.
         -3    1    6    6    0  502  0.13085437664E+03 -0.22729343692E+02  0.58984557648E+03  0.60461334342E+03  0.00000000000E+00 0.  1.
<mgrwt>
<rscale>  0 0.15472405E+04</rscale>
<asrwt>0</asrwt>
<pdfrwt beam="1">  1        1 0.19600326E+00 0.15472405E+04</pdfrwt>
<pdfrwt beam="2">  1       -1 0.72271267E-01 0.15472405E+04</pdfrwt>
<totfact> 0.17575859E+01</totfact>
</mgrwt>
</event>
<event>
12    1  0.1097093E-007  0.3166005E+04  0.7818608E-02  0.8197853E-01
          2   -1    0    0  501    0  0.00000000000E+00  0.00000000000E+00  0.16412188642E+04  0.16412188642E+04  0.00000000000E+00 0. -1.
         -2   -1    0    0    0  501 -0.00000000000E+00 -0.00000000000E+00 -0.15268511480E+04  0.15268511480E+04  0.00000000000E+00 0.  1.
         23    2    1    2    0    0  0.23901445322E+03  0.48401552805E+03  0.14036833014E+04  0.15066969001E+04  0.91704950434E+02 0.  0.
        254    2    1    2    0    0 -0.23901445322E+03 -0.48401552805E+03 -0.12893155852E+04  0.16613731121E+04  0.89801280570E+03 0.  0.
        -24    2    4    4    0    0 -0.40749201353E+03 -0.10371521471E+03 -0.16404376358E+03  0.45895691828E+03  0.83213638377E+02 0.  0.
         24    2    4    4    0    0  0.16847756031E+03 -0.38030031334E+03 -0.11252718216E+04  0.12024161939E+04  0.80963041051E+02 0.  0.
         11    1    3    3    0    0  0.17587716259E+03  0.40611206313E+03  0.12137750399E+04  0.12919402585E+04  0.00000000000E+00 0. -1.
        -11    1    3    3    0    0  0.63137290632E+02  0.77903464922E+02  0.18990826149E+03  0.21475664157E+03  0.00000000000E+00 0.  1.
          2    1    6    6  502    0  0.81070519226E+02 -0.14411901599E+03 -0.34641656465E+03  0.38385825004E+03  0.00000000000E+00 0. -1.
          1    1    5    5  503    0 -0.27272304216E+03 -0.68920554178E+02 -0.66670719124E+02  0.28908975302E+03  0.00000000000E+00 0. -1.
         -4    1    5    5    0  503 -0.13476897138E+03 -0.34794660534E+02 -0.97373044457E+02  0.16986716526E+03  0.00000000000E+00 0.  1.
         -1    1    6    6    0  502  0.87407041087E+02 -0.23618129735E+03 -0.77885525700E+03  0.81855794383E+03  0.00000000000E+00 0.  1.
<mgrwt>
<rscale>  0 0.31660050E+04</rscale>
<asrwt>0</asrwt>
<pdfrwt beam="1">  1        2 0.25249521E+00 0.31660050E+04</pdfrwt>
<pdfrwt beam="2">  1       -2 0.23490018E+00 0.31660050E+04</pdfrwt>
<totfact> 0.71160981E-01</totfact>
</mgrwt>
</event>
<event>
12    1  0.1097093E-007  0.1556060E+04  0.7818608E-02  0.8848006E-01
         -2   -1    0    0    0  501 -0.00000000000E+00  0.00000000000E+00  0.20541905270E+03  0.20541905270E+03  0.00000000000E+00 0.  1.
          2   -1    0    0  501    0  0.00000000000E+00 -0.00000000000E+00 -0.29468096200E+04  0.29468096200E+04  0.00000000000E+00 0. -1.
         23    2    1    2    0    0 -0.47955735969E+03  0.15562392436E+03 -0.69283252791E+03  0.86072537290E+03  0.81468943467E+02 0.  0.
        254    2    1    2    0    0  0.47955735969E+03 -0.15562392436E+03 -0.20485580394E+04  0.22915032998E+04  0.89454081249E+03 0.  0.
        -24    2    4    4    0    0  0.93047791388E+02  0.17405374997E+03 -0.15849274023E+04  0.15991058308E+04  0.78689187371E+02 0.  0.
         24    2    4    4    0    0  0.38650956830E+03 -0.32967767434E+03 -0.46363063707E+03  0.69239746898E+03  0.79899136869E+02 0.  0.
         11    1    3    3    0    0 -0.35626690046E+03  0.11035464972E+03 -0.44836755317E+03  0.58321326786E+03  0.00000000000E+00 0. -1.
        -11    1    3    3    0    0 -0.12329045923E+03  0.45269274645E+02 -0.24446497475E+03  0.27751210504E+03  0.00000000000E+00 0.  1.
          4    1    6    6  502    0  0.31249779738E+02 -0.50203771315E+02 -0.80317071675E+02  0.99738655447E+02  0.00000000000E+00 0. -1.
          1    1    5    5  503    0  0.20593467946E+02  0.11171048508E+03 -0.71881471564E+03  0.72773478604E+03  0.00000000000E+00 0. -1.
         -2    1    5    5    0  503  0.72454323442E+02  0.62343264893E+02 -0.86611268667E+03  0.87137104478E+03  0.00000000000E+00 0.  1.
         -3    1    6    6    0  502  0.35525978856E+03 -0.27947390302E+03 -0.38331356540E+03  0.59265881353E+03  0.00000000000E+00 0.  1.
<mgrwt>
<rscale>  0 0.15560602E+04</rscale>
<asrwt>0</asrwt>
<pdfrwt beam="1">  1        2 0.45335528E+00 0.15560602E+04</pdfrwt>
<pdfrwt beam="2">  1       -2 0.31602934E-01 0.15560602E+04</pdfrwt>
<totfact> 0.16919242E+01</totfact>
</mgrwt>
</event>
<event>
12    1  0.1097093E-007  0.1210055E+04  0.7818608E-02  0.9104101E-01
         -2   -1    0    0    0  501 -0.00000000000E+00  0.00000000000E+00  0.35387124377E+03  0.35387124377E+03  0.00000000000E+00 0.  1.
          2   -1    0    0  501    0  0.00000000000E+00 -0.00000000000E+00 -0.10344394209E+04  0.10344394209E+04  0.00000000000E+00 0. -1.
         23    2    1    2    0    0 -0.33849790083E+02 -0.20971384440E+03  0.89951015525E+01  0.23130445589E+03  0.91077629761E+02 0.  0.
        254    2    1    2    0    0  0.33849790083E+02  0.20971384440E+03 -0.68956327870E+03  0.11570062088E+04  0.90445571867E+03 0.  0.
        -24    2    4    4    0    0 -0.12499176078E+03  0.27943395183E+03  0.11005031240E+03  0.33478514357E+03  0.79143839911E+02 0.  0.
         24    2    4    4    0    0  0.15884155086E+03 -0.69720107433E+02 -0.79961359110E+03  0.82222106523E+03  0.81080536347E+02 0.  0.
         13    1    3    3    0    0 -0.61487075641E+01 -0.39972767013E+02  0.39616022052E+02  0.56613230879E+02  0.00000000000E+00 0. -1.
        -13    1    3    3    0    0 -0.27701082519E+02 -0.16974107738E+03 -0.30620920499E+02  0.17469122501E+03  0.00000000000E+00 0.  1.
          4    1    6    6  502    0  0.88488283964E+02 -0.39824177700E+01 -0.27720204394E+03  0.29101032493E+03  0.00000000000E+00 0. -1.
          3    1    5    5  503    0 -0.11834443375E+03  0.18264788357E+03  0.60713068739E+02  0.22594630134E+03  0.00000000000E+00 0. -1.
         -4    1    5    5    0  503 -0.66473270285E+01  0.96786068254E+02  0.49337243662E+02  0.10883884223E+03  0.00000000000E+00 0.  1.
         -3    1    6    6    0  502  0.70353266899E+02 -0.65737689663E+02 -0.52241154716E+03  0.53121074030E+03  0.00000000000E+00 0.  1.
<mgrwt>
<rscale>  0 0.12100551E+04</rscale>
<asrwt>0</asrwt>
<pdfrwt beam="1">  1        2 0.15914453E+00 0.12100551E+04</pdfrwt>
<pdfrwt beam="2">  1       -2 0.54441730E-01 0.12100551E+04</pdfrwt>
<totfact> 0.74978468E+01</totfact>
</mgrwt>
</event>
<event>
12    1  0.1097093E-007  0.1610959E+04  0.7818608E-02  0.8813843E-01
         -2   -1    0    0    0  501 -0.00000000000E+00  0.00000000000E+00  0.37009970354E+03  0.37009970354E+03  0.00000000000E+00 0. -1.
          2   -1    0    0  501    0  0.00000000000E+00 -0.00000000000E+00 -0.17530345604E+04  0.17530345604E+04  0.00000000000E+00 0.  1.
         23    2    1    2    0    0 -0.24720097196E+03 -0.27477274871E+02  0.16830450538E+03  0.31425373325E+03  0.92550965167E+02 0.  0.
        254    2    1    2    0    0  0.24720097196E+03  0.27477274871E+02 -0.15512393622E+04  0.18088805307E+04  0.89657230281E+03 0.  0.
        -24    2    4    4    0    0  0.87405882815E+02 -0.28906861296E+01 -0.16128448235E+04  0.16171720606E+04  0.79554411904E+02 0.  0.
         24    2    4    4    0    0  0.15979508915E+03  0.30367961001E+02  0.61605461285E+02  0.19170847007E+03  0.80623948463E+02 0.  0.
         13    1    3    3    0    0 -0.14165217041E+03 -0.51503035042E+02  0.63409226521E+02  0.16351950957E+03  0.00000000000E+00 0. -1.
        -13    1    3    3    0    0 -0.10554880155E+03  0.24025760172E+02  0.10489527886E+03  0.15073422368E+03  0.00000000000E+00 0.  1.
          4    1    6    6  502    0  0.59869928202E+02  0.50905120466E+02  0.17184226818E+02  0.80442757560E+02  0.00000000000E+00 0. -1.
          1    1    5    5  503    0  0.14444829891E+02 -0.33449843085E+02 -0.36214945528E+03  0.36397770958E+03  0.00000000000E+00 0. -1.
         -2    1    5    5    0  503  0.72961052924E+02  0.30559156956E+02 -0.12506953682E+04  0.12531943510E+04  0.00000000000E+00 0.  1.
         -3    1    6    6    0  502  0.99925160946E+02 -0.20537159465E+02  0.44421234466E+02  0.11126571251E+03  0.00000000000E+00 0.  1.
<mgrwt>
<rscale>  0 0.16109594E+04</rscale>
<asrwt>0</asrwt>
<pdfrwt beam="1">  1        2 0.26969763E+00 0.16109594E+04</pdfrwt>
<pdfrwt beam="2">  1       -2 0.56938416E-01 0.16109594E+04</pdfrwt>
<totfact> 0.25387184E+01</totfact>
</mgrwt>
</event>
<event>
12    1  0.1097093E-007  0.2430057E+04  0.7818608E-02  0.8428336E-01
         -1   -1    0    0    0  501 -0.00000000000E+00  0.00000000000E+00  0.58245569226E+03  0.58245569226E+03  0.00000000000E+00 0.  1.
          1   -1    0    0  501    0  0.00000000000E+00 -0.00000000000E+00 -0.25346032434E+04  0.25346032434E+04  0.00000000000E+00 0. -1.
         23    2    1    2    0    0 -0.83236898299E+03 -0.19377887252E+03 -0.16143350653E+04  0.18287954413E+04  0.89591784387E+02 0.  0.
        254    2    1    2    0    0  0.83236898299E+03  0.19377887252E+03 -0.33781248580E+03  0.12882634943E+04  0.90283840189E+03 0.  0.
        -24    2    4    4    0    0  0.42269248292E+02  0.39786165031E+03 -0.20632941642E+03  0.45755309598E+03  0.81868342028E+02 0.  0.
         24    2    4    4    0    0  0.79009973470E+03 -0.20408277779E+03 -0.13148306938E+03  0.83071039833E+03  0.82973474090E+02 0.  0.
         13    1    3    3    0    0 -0.79650132432E+03 -0.16552905049E+03 -0.15210645147E+04  0.17249497048E+04  0.00000000000E+00 0. -1.
        -13    1    3    3    0    0 -0.35867658669E+02 -0.28249822030E+02 -0.93270550604E+02  0.10384573652E+03  0.00000000000E+00 0.  1.
          2    1    6    6  502    0  0.31659115387E+03 -0.11136038829E+03 -0.83441028947E+02  0.34582293172E+03  0.00000000000E+00 0. -1.
          3    1    5    5  503    0  0.60112915992E+02  0.26274014786E+03 -0.11240048442E+03  0.29202708241E+03  0.00000000000E+00 0. -1.
         -4    1    5    5    0  503 -0.17843667700E+02  0.13512150245E+03 -0.93928931999E+02  0.16552601357E+03  0.00000000000E+00 0.  1.
         -1    1    6    6    0  502  0.47350858083E+03 -0.92722389498E+02 -0.48042040437E+02  0.48488746661E+03  0.00000000000E+00 0.  1.
<mgrwt>
<rscale>  0 0.24300569E+04</rscale>
<asrwt>0</asrwt>
<pdfrwt beam="1">  1        1 0.38993897E+00 0.24300569E+04</pdfrwt>
<pdfrwt beam="2">  1       -1 0.89608567E-01 0.24300569E+04</pdfrwt>
<totfact> 0.13968771E+00</totfact>
</mgrwt>
</event>
<event>
12    1  0.1097093E-007  0.1677563E+04  0.7818608E-02  0.8774265E-01
         -1   -1    0    0    0  501 -0.00000000000E+00  0.00000000000E+00  0.48682797955E+03  0.48682797955E+03  0.00000000000E+00 0.  1.
          1   -1    0    0  501    0  0.00000000000E+00 -0.00000000000E+00 -0.14451809102E+04  0.14451809102E+04  0.00000000000E+00 0. -1.
         23    2    1    2    0    0 -0.55388613605E+02  0.17442212490E+03 -0.98506254852E+03  0.10060294694E+04  0.90863043414E+02 0.  0.
        254    2    1    2    0    0  0.55388613605E+02 -0.17442212490E+03  0.26709617874E+02  0.92597942033E+03  0.90732216275E+03 0.  0.
        -24    2    4    4    0    0 -0.32690536985E+03  0.80912479963E+02  0.23033803706E+03  0.41682737206E+03  0.85296521239E+02 0.  0.
         24    2    4    4    0    0  0.38229398345E+03 -0.25533460486E+03 -0.20362841918E+03  0.50915204827E+03  0.80167480523E+02 0.  0.
         13    1    3    3    0    0 -0.74942898298E+02  0.16763108960E+03 -0.88566469510E+03  0.90449907261E+03  0.00000000000E+00 0. -1.
        -13    1    3    3    0    0  0.19554284693E+02  0.67910352961E+01 -0.99397853421E+02  0.10153039680E+03  0.00000000000E+00 0.  1.
          4    1    6    6  502    0  0.36988615149E+03 -0.25529956410E+03 -0.20897015317E+03  0.49564317549E+03  0.00000000000E+00 0. -1.
          1    1    5    5  503    0 -0.23356171921E+03  0.79286213315E+02  0.12652632132E+03  0.27721163448E+03  0.00000000000E+00 0. -1.
         -2    1    5    5    0  503 -0.93343650635E+02  0.16262666485E+01  0.10381171573E+03  0.13961573758E+03  0.00000000000E+00 0.  1.
         -3    1    6    6    0  502  0.12407831957E+02 -0.35040767590E-01  0.53417339875E+01  0.13508872778E+02  0.00000000000E+00 0.  1.
<mgrwt>
<rscale>  0 0.16775631E+04</rscale>
<asrwt>0</asrwt>
<pdfrwt beam="1">  1        1 0.22233552E+00 0.16775631E+04</pdfrwt>
<pdfrwt beam="2">  1       -1 0.74896612E-01 0.16775631E+04</pdfrwt>
<totfact> 0.12210051E+01</totfact>
</mgrwt>
</event>
<event>
12    1  0.1162010E-007  0.2169844E+04  0.7818608E-02  0.8531086E-01
         -1   -1    0    0    0  501 -0.00000000000E+00  0.00000000000E+00  0.39482655842E+03  0.39482655842E+03  0.00000000000E+00 0.  1.
          1   -1    0    0  501    0  0.00000000000E+00 -0.00000000000E+00 -0.29811967727E+04  0.29811967727E+04  0.00000000000E+00 0. -1.
         23    2    1    2    0    0 -0.36500294853E+03  0.76484905604E+03 -0.15248454955E+04  0.17469322967E+04  0.91637509338E+02 0.  0.
        254    2    1    2    0    0  0.36500294853E+03 -0.76484905604E+03 -0.10615247187E+04  0.16290910344E+04  0.89937847363E+03 0.  0.
        -24    2    4    4    0    0  0.42379264300E+03 -0.18991124397E+03 -0.91200571573E+03  0.10269033499E+04  0.84318323400E+02 0.  0.
         24    2    4    4    0    0 -0.58789694472E+02 -0.57493781207E+03 -0.14951900297E+03  0.60218768445E+03  0.79147704522E+02 0.  0.
         11    1    3    3    0    0 -0.17075598013E+02  0.17108107014E+02 -0.76602672947E+02  0.80325792096E+02  0.00000000000E+00 0.  1.
        -11    1    3    3    0    0 -0.34792735052E+03  0.74774094903E+03 -0.14482428226E+04  0.16666065046E+04  0.00000000000E+00 0. -1.
          2    1    6    6  502    0  0.68123377693E+01 -0.56154259271E+01  0.26909951567E+01  0.92294316813E+01  0.00000000000E+00 0. -1.
          3    1    5    5  503    0  0.20462019134E+02 -0.30612585700E+02 -0.51554620602E+02  0.63353796537E+02  0.00000000000E+00 0. -1.
         -4    1    5    5    0  503  0.40333062387E+03 -0.15929865827E+03 -0.86045109513E+03  0.96354955337E+03  0.00000000000E+00 0.  1.
         -1    1    6    6    0  502 -0.65602032241E+02 -0.56932238614E+03 -0.15220999813E+03  0.59295825277E+03  0.00000000000E+00 0.  1.
<mgrwt>
<rscale>  0 0.21698439E+04</rscale>
<asrwt>0</asrwt>
<pdfrwt beam="1">  1        1 0.45864564E+00 0.21698439E+04</pdfrwt>
<pdfrwt beam="2">  1       -1 0.60742550E-01 0.21698439E+04</pdfrwt>
<totfact> 0.15515916E+00</totfact>
</mgrwt>
</event>
<event>
12    1  0.1097093E-007  0.2138118E+04  0.7818608E-02  0.8544636E-01
         -1   -1    0    0    0  501 -0.00000000000E+00  0.00000000000E+00  0.26832107575E+03  0.26832107575E+03  0.00000000000E+00 0.  1.
          1   -1    0    0  501    0  0.00000000000E+00 -0.00000000000E+00 -0.42594000465E+04  0.42594000465E+04  0.00000000000E+00 0. -1.
         23    2    1    2    0    0 -0.38049155415E+03 -0.59621144467E+03 -0.54813853497E+03  0.89951364019E+03  0.91798833533E+02 0.  0.
        254    2    1    2    0    0  0.38049155415E+03  0.59621144467E+03 -0.34429404357E+04  0.36282074820E+04  0.89989375982E+03 0.  0.
        -24    2    4    4    0    0  0.65967850468E+03  0.51845945206E+03 -0.26085306521E+04  0.27413802782E+04  0.82205436042E+02 0.  0.
         24    2    4    4    0    0 -0.27918695052E+03  0.77751992607E+02 -0.83440978365E+03  0.88682720384E+03  0.78943503370E+02 0.  0.
         11    1    3    3    0    0 -0.60418245446E+02 -0.43311500419E+02 -0.55753530111E+02  0.92923121832E+02  0.00000000000E+00 0. -1.
        -11    1    3    3    0    0 -0.32007330871E+03 -0.55289994425E+03 -0.49238500486E+03  0.80659051836E+03  0.00000000000E+00 0.  1.
          2    1    6    6  502    0 -0.31336615658E+02  0.29304009346E+02 -0.73522778501E+02  0.85125245393E+02  0.00000000000E+00 0. -1.
          3    1    5    5  503    0  0.39047386251E+03  0.31178273405E+03 -0.16816891937E+04  0.17543536858E+04  0.00000000000E+00 0. -1.
         -4    1    5    5    0  503  0.26920464216E+03  0.20667671801E+03 -0.92684145836E+03  0.98702659238E+03  0.00000000000E+00 0.  1.
         -1    1    6    6    0  502 -0.24785033486E+03  0.48447983261E+02 -0.76088700515E+03  0.80170195845E+03  0.00000000000E+00 0.  1.
<mgrwt>
<rscale>  0 0.21381177E+04</rscale>
<asrwt>0</asrwt>
<pdfrwt beam="1">  1        1 0.65529235E+00 0.21381177E+04</pdfrwt>
<pdfrwt beam="2">  1       -1 0.41280164E-01 0.21381177E+04</pdfrwt>
<totfact> 0.29558370E-01</totfact>
</mgrwt>
</event>
<event>
12    1  0.1097093E-007  0.1202064E+04  0.7818608E-02  0.9111052E-01
          1   -1    0    0  501    0  0.00000000000E+00  0.00000000000E+00  0.22978574883E+03  0.22978574883E+03  0.00000000000E+00 0. -1.
         -1   -1    0    0    0  501 -0.00000000000E+00 -0.00000000000E+00 -0.15720708325E+04  0.15720708325E+04  0.00000000000E+00 0.  1.
         23    2    1    2    0    0  0.84685288071E+02  0.22377273304E+03 -0.41056163309E+03  0.48389288544E+03  0.91354452251E+02 0.  0.
        254    2    1    2    0    0 -0.84685288071E+02 -0.22377273304E+03 -0.93172345063E+03  0.13179636959E+04  0.90092945411E+03 0.  0.
        -24    2    4    4    0    0 -0.32154044653E+03  0.19639340242E+03 -0.64211941390E+03  0.74980993511E+03  0.89100896782E+02 0.  0.
         24    2    4    4    0    0  0.23685515846E+03 -0.42016613546E+03 -0.28960403673E+03  0.56815376083E+03  0.79298489106E+02 0.  0.
         13    1    3    3    0    0 -0.57892018406E+01  0.19291262548E+02 -0.49652772058E+01  0.20744195486E+02  0.00000000000E+00 0. -1.
        -13    1    3    3    0    0  0.90474489912E+02  0.20448147049E+03 -0.40559635588E+03  0.46314868995E+03  0.00000000000E+00 0.  1.
          4    1    6    6  502    0  0.41899196983E+02 -0.32071354502E+02 -0.47090249437E+02  0.70722033903E+02  0.00000000000E+00 0. -1.
          1    1    5    5  503    0 -0.12116673628E+03  0.28055230551E+02 -0.18118160638E+03  0.21976179931E+03  0.00000000000E+00 0. -1.
         -2    1    5    5    0  503 -0.20037371025E+03  0.16833817187E+03 -0.46093780751E+03  0.53004813580E+03  0.00000000000E+00 0.  1.
         -3    1    6    6    0  502  0.19495596148E+03 -0.38809478096E+03 -0.24251378729E+03  0.49743172692E+03  0.00000000000E+00 0.  1.
<mgrwt>
<rscale>  0 0.12020640E+04</rscale>
<asrwt>0</asrwt>
<pdfrwt beam="1">  1        1 0.35351654E-01 0.12020640E+04</pdfrwt>
<pdfrwt beam="2">  1       -1 0.24185705E+00 0.12020640E+04</pdfrwt>
<totfact> 0.97018597E+00</totfact>
</mgrwt>
</event>
<event>
12    1  0.1106607E-007  0.2129941E+04  0.7818608E-02  0.8548167E-01
          2   -1    0    0  501    0  0.00000000000E+00  0.00000000000E+00  0.77188826209E+03  0.77188826209E+03  0.00000000000E+00 0. -1.
         -2   -1    0    0    0  501 -0.00000000000E+00 -0.00000000000E+00 -0.14693352195E+04  0.14693352195E+04  0.00000000000E+00 0.  1.
         23    2    1    2    0    0  0.12536935815E+03  0.19155127114E+03  0.57275260048E+03  0.62418457201E+03  0.95663332319E+02 0.  0.
        254    2    1    2    0    0 -0.12536935815E+03 -0.19155127114E+03 -0.12701995579E+04  0.16170389096E+04  0.97416556745E+03 0.  0.
        -24    2    4    4    0    0 -0.45042310956E+03  0.16615556673E+03 -0.80997564541E+03  0.94504736321E+03  0.81026678168E+02 0.  0.
         24    2    4    4    0    0  0.32505375141E+03 -0.35770683786E+03 -0.46022391246E+03  0.67199154636E+03  0.78437654292E+02 0.  0.
         11    1    3    3    0    0  0.12749322081E+03  0.16303711418E+03  0.54997086121E+03  0.58762536546E+03  0.00000000000E+00 0. -1.
        -11    1    3    3    0    0 -0.21238626656E+01  0.28514156962E+02  0.22781739270E+02  0.36559206557E+02  0.00000000000E+00 0.  1.
          2    1    6    6  502    0  0.27254314447E+03 -0.33493405253E+03 -0.41674361903E+03  0.60011318027E+03  0.00000000000E+00 0. -1.
          3    1    5    5  503    0 -0.41769883206E+03  0.14502985907E+03 -0.69574635073E+03  0.82435972662E+03  0.00000000000E+00 0. -1.
         -4    1    5    5    0  503 -0.32724277500E+02  0.21125707660E+02 -0.11422929468E+03  0.12068763658E+03  0.00000000000E+00 0.  1.
         -1    1    6    6    0  502  0.52510606942E+02 -0.22772785339E+02 -0.43480293435E+02  0.71878366082E+02  0.00000000000E+00 0.  1.
<mgrwt>
<rscale>  0 0.21299414E+04</rscale>
<asrwt>0</asrwt>
<pdfrwt beam="1">  1        2 0.11875204E+00 0.21299414E+04</pdfrwt>
<pdfrwt beam="2">  1       -2 0.22605157E+00 0.21299414E+04</pdfrwt>
<totfact> 0.30040689E+00</totfact>
</mgrwt>
</event>
<event>
12    1  0.1097093E-007  0.1797455E+04  0.7818608E-02  0.8707654E-01
         -1   -1    0    0    0  501 -0.00000000000E+00  0.00000000000E+00  0.12568865514E+04  0.12568865514E+04  0.00000000000E+00 0.  1.
          1   -1    0    0  501    0  0.00000000000E+00 -0.00000000000E+00 -0.64262852427E+03  0.64262852427E+03  0.00000000000E+00 0. -1.
         23    2    1    2    0    0 -0.15621190344E+03  0.60823013867E+03  0.46337539484E+03  0.78579938404E+03  0.91748869508E+02 0.  0.
        254    2    1    2    0    0  0.15621190344E+03 -0.60823013867E+03  0.15088263225E+03  0.11137156916E+04  0.90733180954E+03 0.  0.
        -24    2    4    4    0    0  0.19688378570E+03 -0.17914657814E+02 -0.29790258225E+03  0.36674371771E+03  0.81675246781E+02 0.  0.
         24    2    4    4    0    0 -0.40671882261E+02 -0.59031548085E+03  0.44878521449E+03  0.74697197387E+03  0.80202194850E+02 0.  0.
         11    1    3    3    0    0 -0.10516917243E+03  0.41475859466E+03  0.26098448901E+03  0.50119671805E+03  0.00000000000E+00 0.  1.
        -11    1    3    3    0    0 -0.51042731006E+02  0.19347154400E+03  0.20239090583E+03  0.28460266599E+03  0.00000000000E+00 0. -1.
          2    1    6    6  502    0 -0.63979931327E+02 -0.45573426963E+03  0.33538357309E+03  0.56944648319E+03  0.00000000000E+00 0. -1.
          1    1    5    5  503    0  0.17643082192E+03 -0.37257120535E+02 -0.22336636721E+03  0.28706874082E+03  0.00000000000E+00 0. -1.
         -2    1    5    5    0  503  0.20452963780E+02  0.19342462721E+02 -0.74536215032E+02  0.79674976893E+02  0.00000000000E+00 0.  1.
         -1    1    6    6    0  502  0.23308049067E+02 -0.13458121123E+03  0.11340164141E+03  0.17752549068E+03  0.00000000000E+00 0.  1.
<mgrwt>
<rscale>  0 0.17974550E+04</rscale>
<asrwt>0</asrwt>
<pdfrwt beam="1">  1        1 0.98865927E-01 0.17974550E+04</pdfrwt>
<pdfrwt beam="2">  1       -1 0.19336716E+00 0.17974550E+04</pdfrwt>
<totfact> 0.48918401E+00</totfact>
</mgrwt>
</event>
<event>
12    1  0.1097093E-007  0.1721883E+04  0.7818608E-02  0.8748981E-01
         -2   -1    0    0    0  501 -0.00000000000E+00  0.00000000000E+00  0.93245449753E+03  0.93245449753E+03  0.00000000000E+00 0.  1.
          2   -1    0    0  501    0  0.00000000000E+00 -0.00000000000E+00 -0.79491338874E+03  0.79491338874E+03  0.00000000000E+00 0. -1.
         23    2    1    2    0    0 -0.53965801303E+03  0.54068441716E+02  0.34974738966E+03  0.65401290350E+03  0.10609181851E+03 0.  0.
        254    2    1    2    0    0  0.53965801303E+03 -0.54068441716E+02 -0.21220628088E+03  0.10733549828E+04  0.90161258087E+03 0.  0.
        -24    2    4    4    0    0  0.81958782044E+01  0.36113454314E+03 -0.11062451804E+03  0.38684094437E+03  0.83203374791E+02 0.  0.
         24    2    4    4    0    0  0.53146213482E+03 -0.41520298486E+03 -0.10158176284E+03  0.68651403840E+03  0.78339970641E+02 0.  0.
         13    1    3    3    0    0 -0.48919189349E+03  0.24434067311E+02  0.28478272702E+03  0.56657473815E+03  0.00000000000E+00 0.  1.
        -13    1    3    3    0    0 -0.50466119539E+02  0.29634374404E+02  0.64964662641E+02  0.87438165350E+02  0.00000000000E+00 0. -1.
          2    1    6    6  502    0  0.28046330962E+03 -0.17075174989E+03 -0.58211602486E+02  0.33347326549E+03  0.00000000000E+00 0. -1.
          1    1    5    5  503    0 -0.36990787139E+02  0.13557163877E+03 -0.37303864831E+02  0.14539451813E+03  0.00000000000E+00 0. -1.
         -2    1    5    5    0  503  0.45186665343E+02  0.22556290437E+03 -0.73320653208E+02  0.24144642623E+03  0.00000000000E+00 0.  1.
         -1    1    6    6    0  502  0.25099882520E+03 -0.24445123496E+03 -0.43370160350E+02  0.35304077291E+03  0.00000000000E+00 0.  1.
<mgrwt>
<rscale>  0 0.17218833E+04</rscale>
<asrwt>0</asrwt>
<pdfrwt beam="1">  1        2 0.12229437E+00 0.17218833E+04</pdfrwt>
<pdfrwt beam="2">  1       -2 0.14345454E+00 0.17218833E+04</pdfrwt>
<totfact> 0.11117915E+01</totfact>
</mgrwt>
</event>
<event>
12    1  0.1097093E-007  0.1194136E+04  0.7818608E-02  0.9118005E-01
         -2   -1    0    0    0  501 -0.00000000000E+00  0.00000000000E+00  0.10242477737E+04  0.10242477737E+04  0.00000000000E+00 0. -1.
          2   -1    0    0  501    0  0.00000000000E+00 -0.00000000000E+00 -0.34805061998E+03  0.34805061998E+03  0.00000000000E+00 0.  1.
         23    2    1    2    0    0  0.10745396334E+03  0.63231279063E+02 -0.91037867547E+02  0.18052365059E+03  0.93575350422E+02 0.  0.
        254    2    1    2    0    0 -0.10745396334E+03 -0.63231279063E+02  0.76723502130E+03  0.11917747431E+04  0.90340074802E+03 0.  0.
        -24    2    4    4    0    0 -0.37614002367E+03 -0.33911164702E+03  0.36639970436E+03  0.63008944731E+03  0.79283930909E+02 0.  0.
         24    2    4    4    0    0  0.26868606033E+03  0.27588036796E+03  0.40083531694E+03  0.56168529580E+03  0.80741834129E+02 0.  0.
         11    1    3    3    0    0 -0.10641270905E+02  0.21625883886E+01 -0.34290394026E+02  0.35968660769E+02  0.00000000000E+00 0. -1.
        -11    1    3    3    0    0  0.11809523424E+03  0.61068690675E+02 -0.56747473520E+02  0.14455498982E+03  0.00000000000E+00 0.  1.
          4    1    6    6  502    0  0.16670978349E+02  0.64183387095E+01  0.47858051601E+02  0.51083360245E+02  0.00000000000E+00 0. -1.
          3    1    5    5  503    0 -0.82466090644E+02 -0.50190215104E+02  0.40039068382E+02  0.10451239541E+03  0.00000000000E+00 0. -1.
         -4    1    5    5    0  503 -0.29367393302E+03 -0.28892143192E+03  0.32636063598E+03  0.52557705189E+03  0.00000000000E+00 0.  1.
         -3    1    6    6    0  502  0.25201508198E+03  0.26946202925E+03  0.35297726534E+03  0.51060193556E+03  0.00000000000E+00 0.  1.
<mgrwt>
<rscale>  0 0.11941358E+04</rscale>
<asrwt>0</asrwt>
<pdfrwt beam="1">  1        2 0.53546250E-01 0.11941358E+04</pdfrwt>
<pdfrwt beam="2">  1       -2 0.15757658E+00 0.11941358E+04</pdfrwt>
<totfact> 0.24072954E+01</totfact>
</mgrwt>
</event>
<event>
12    1  0.1097093E-007  0.1797851E+04  0.7818608E-02  0.8707443E-01
         -1   -1    0    0    0  501 -0.00000000000E+00  0.00000000000E+00  0.52608586629E+03  0.52608586629E+03  0.00000000000E+00 0.  1.
          1   -1    0    0  501    0  0.00000000000E+00 -0.00000000000E+00 -0.15359975851E+04  0.15359975851E+04  0.00000000000E+00 0. -1.
         23    2    1    2    0    0 -0.51279458894E+03 -0.42642777336E+03 -0.26219339431E+03  0.72232459253E+03  0.90600798056E+02 0.  0.
        254    2    1    2    0    0  0.51279458894E+03  0.42642777336E+03 -0.74771832455E+03  0.13397588589E+04  0.88942238043E+03 0.  0.
        -24    2    4    4    0    0 -0.11050780023E+03 -0.12191436208E+03  0.45611739711E+02  0.18872279514E+03  0.80378958782E+02 0.  0.
         24    2    4    4    0    0  0.62330238917E+03  0.54834213544E+03 -0.79333006426E+03  0.11510360638E+04  0.79539068239E+02 0.  0.
         11    1    3    3    0    0 -0.18799781001E+03 -0.19410853091E+03 -0.14219607099E+03  0.30535392735E+03  0.00000000000E+00 0.  1.
        -11    1    3    3    0    0 -0.32479677893E+03 -0.23231924246E+03 -0.11999732332E+03  0.41697066519E+03  0.00000000000E+00 0. -1.
          2    1    6    6  502    0  0.37548276119E+03  0.28861720901E+03 -0.41810467276E+03  0.63174260159E+03  0.00000000000E+00 0. -1.
          1    1    5    5  503    0 -0.93863260259E+02 -0.67067033645E+02 -0.17663267668E+00  0.11536173468E+03  0.00000000000E+00 0. -1.
         -2    1    5    5    0  503 -0.16644539972E+02 -0.54847328434E+02  0.45788372388E+02  0.73361060469E+02  0.00000000000E+00 0.  1.
         -1    1    6    6    0  502  0.24781962798E+03  0.25972492643E+03 -0.37522539150E+03  0.51929346217E+03  0.00000000000E+00 0.  1.
<mgrwt>
<rscale>  0 0.17978505E+04</rscale>
<asrwt>0</asrwt>
<pdfrwt beam="1">  1        1 0.23630732E+00 0.17978505E+04</pdfrwt>
<pdfrwt beam="2">  1       -1 0.80936287E-01 0.17978505E+04</pdfrwt>
<totfact> 0.88695847E+00</totfact>
</mgrwt>
</event>
<event>
12    1  0.1097093E-007  0.1553541E+04  0.7818608E-02  0.8849609E-01
         -2   -1    0    0    0  501 -0.00000000000E+00  0.00000000000E+00  0.20911340590E+03  0.20911340590E+03  0.00000000000E+00 0.  1.
          2   -1    0    0  501    0  0.00000000000E+00 -0.00000000000E+00 -0.28853835447E+04  0.28853835447E+04  0.00000000000E+00 0. -1.
         23    2    1    2    0    0  0.14108369267E+03  0.32767884541E+03 -0.16187724906E+04  0.16601993908E+04  0.92518141875E+02 0.  0.
        254    2    1    2    0    0 -0.14108369267E+03 -0.32767884541E+03 -0.10574976482E+04  0.14342975599E+04  0.90090520047E+03 0.  0.
        -24    2    4    4    0    0 -0.17995693866E+03  0.12309151596E+03 -0.92822734254E+03  0.95681435350E+03  0.79697468961E+02 0.  0.
         24    2    4    4    0    0  0.38873245998E+02 -0.45077036137E+03 -0.12927030566E+03  0.47748320637E+03  0.81082380915E+02 0.  0.
         13    1    3    3    0    0  0.48187639050E+02  0.32572726370E+02 -0.21415355519E+03  0.22191164067E+03  0.00000000000E+00 0.  1.
        -13    1    3    3    0    0  0.92896053615E+02  0.29510611904E+03 -0.14046189354E+04  0.14382877501E+04  0.00000000000E+00 0. -1.
          2    1    6    6  502    0  0.36668763852E+02 -0.12835143946E+03 -0.65983551742E+02  0.14890439670E+03  0.00000000000E+00 0. -1.
          3    1    5    5  503    0 -0.37039317480E+01  0.12948855917E+02 -0.14676378410E+02  0.19919539734E+02  0.00000000000E+00 0. -1.
         -4    1    5    5    0  503 -0.17625300692E+03  0.11014266004E+03 -0.91355096413E+03  0.93689481377E+03  0.00000000000E+00 0.  1.
         -1    1    6    6    0  502  0.22044821464E+01 -0.32241892190E+03 -0.63286753916E+02  0.32857880967E+03  0.00000000000E+00 0.  1.
<mgrwt>
<rscale>  0 0.15535410E+04</rscale>
<asrwt>0</asrwt>
<pdfrwt beam="1">  1        2 0.44390517E+00 0.15535410E+04</pdfrwt>
<pdfrwt beam="2">  1       -2 0.32171292E-01 0.15535410E+04</pdfrwt>
<totfact> 0.17846865E+01</totfact>
</mgrwt>
</event>
<event>
12    1  0.1097093E-007  0.2129605E+04  0.7818608E-02  0.8548313E-01
          2   -1    0    0  501    0  0.00000000000E+00  0.00000000000E+00  0.17787344917E+04  0.17787344917E+04  0.00000000000E+00 0. -1.
         -2   -1    0    0    0  501 -0.00000000000E+00 -0.00000000000E+00 -0.63742181852E+03  0.63742181852E+03  0.00000000000E+00 0.  1.
         23    2    1    2    0    0  0.18061446720E+03  0.75919991574E+03  0.90662965552E+03  0.12004030087E+04  0.99919734395E+02 0.  0.
        254    2    1    2    0    0 -0.18061446720E+03 -0.75919991574E+03  0.23468301767E+03  0.12157533015E+04  0.90220500635E+03 0.  0.
        -24    2    4    4    0    0  0.16878315634E+03 -0.64234739784E+03 -0.14095275416E+03  0.68357779304E+03  0.79454306709E+02 0.  0.
         24    2    4    4    0    0 -0.34939762353E+03 -0.11685251790E+03  0.37563577184E+03  0.53217550845E+03  0.79845653885E+02 0.  0.
         11    1    3    3    0    0  0.68373468348E+02  0.47834752587E+03  0.58819324892E+03  0.76122439842E+03  0.00000000000E+00 0. -1.
        -11    1    3    3    0    0  0.11224099885E+03  0.28085238987E+03  0.31843640660E+03  0.43917861033E+03  0.00000000000E+00 0.  1.
          2    1    6    6  502    0 -0.27906353291E+03 -0.96916780609E+02  0.25083850448E+03  0.38754260810E+03  0.00000000000E+00 0. -1.
          3    1    5    5  503    0  0.10164470646E+03 -0.42541335896E+03 -0.12970183015E+03  0.45621347753E+03  0.00000000000E+00 0. -1.
         -4    1    5    5    0  503  0.67138449879E+02 -0.21693403888E+03 -0.11250924011E+02  0.22736431551E+03  0.00000000000E+00 0.  1.
         -1    1    6    6    0  502 -0.70334090628E+02 -0.19935737295E+02  0.12479726736E+03  0.14463290036E+03  0.00000000000E+00 0.  1.
<mgrwt>
<rscale>  0 0.21296048E+04</rscale>
<asrwt>0</asrwt>
<pdfrwt beam="1">  1        2 0.27365146E+00 0.21296048E+04</pdfrwt>
<pdfrwt beam="2">  1       -2 0.98064896E-01 0.21296048E+04</pdfrwt>
<totfact> 0.70513322E+00</totfact>
</mgrwt>
</event>
<event>
12    1  0.1097093E-007  0.1590694E+04  0.7818608E-02  0.8826286E-01
          1   -1    0    0  501    0  0.00000000000E+00  0.00000000000E+00  0.24511035836E+04  0.24511035836E+04  0.00000000000E+00 0. -1.
         -1   -1    0    0    0  501 -0.00000000000E+00 -0.00000000000E+00 -0.25807831619E+03  0.25807831619E+03  0.00000000000E+00 0.  1.
         23    2    1    2    0    0 -0.40115720470E+03 -0.14147332963E+03  0.13354010793E+04  0.14044526333E+04  0.90825936128E+02 0.  0.
        254    2    1    2    0    0  0.40115720470E+03  0.14147332963E+03  0.85762418814E+03  0.13047292665E+04  0.88648598691E+03 0.  0.
        -24    2    4    4    0    0  0.53362900553E+03  0.20027924325E+03  0.17386440184E+03  0.60111454250E+03  0.78982100227E+02 0.  0.
         24    2    4    4    0    0 -0.13247180083E+03 -0.58805913617E+02  0.68375978630E+03  0.70361472404E+03  0.80866068498E+02 0.  0.
         13    1    3    3    0    0 -0.23171855447E+03 -0.71092407842E+02  0.89786179204E+03  0.93000183685E+03  0.00000000000E+00 0.  1.
        -13    1    3    3    0    0 -0.16943865024E+03 -0.70380921789E+02  0.43753928724E+03  0.47445079642E+03  0.00000000000E+00 0. -1.
          4    1    6    6  502    0 -0.39443282687E+02 -0.10048881876E+02  0.70338610012E+02  0.81266676040E+02  0.00000000000E+00 0. -1.
          3    1    5    5  503    0  0.40667192811E+02  0.37418734455E+02  0.65357839883E+01  0.55647989467E+02  0.00000000000E+00 0. -1.
         -4    1    5    5    0  503  0.49296181272E+03  0.16286050879E+03  0.16732861785E+03  0.54546655303E+03  0.00000000000E+00 0.  1.
         -3    1    6    6    0  502 -0.93028518139E+02 -0.48757031740E+02  0.61342117629E+03  0.62234804800E+03  0.00000000000E+00 0.  1.
<mgrwt>
<rscale>  0 0.15906938E+04</rscale>
<asrwt>0</asrwt>
<pdfrwt beam="1">  1        1 0.37709284E+00 0.15906938E+04</pdfrwt>
<pdfrwt beam="2">  1       -1 0.39704358E-01 0.15906938E+04</pdfrwt>
<totfact> 0.87002287E+00</totfact>
</mgrwt>
</event>
<event>
12    1  0.1097093E-007  0.1781474E+04  0.7818608E-02  0.8716214E-01
          1   -1    0    0  501    0  0.00000000000E+00  0.00000000000E+00  0.18520946336E+04  0.18520946336E+04  0.00000000000E+00 0. -1.
         -1   -1    0    0    0  501 -0.00000000000E+00 -0.00000000000E+00 -0.42838657944E+03  0.42838657944E+03  0.00000000000E+00 0.  1.
         23    2    1    2    0    0 -0.29857032755E+03  0.54439559886E+03  0.24967456353E+03  0.67515702918E+03  0.89380187034E+02 0.  0.
        254    2    1    2    0    0  0.29857032755E+03 -0.54439559886E+03  0.11740334907E+04  0.16053241839E+04  0.90177618602E+03 0.  0.
        -24    2    4    4    0    0 -0.71554972289E+02 -0.45724816556E+03  0.12393520450E+03  0.48577406719E+03  0.80128087888E+02 0.  0.
         24    2    4    4    0    0  0.37012529984E+03 -0.87147433297E+02  0.10500982862E+04  0.11195501167E+04  0.78093793128E+02 0.  0.
         13    1    3    3    0    0 -0.29081408663E+02  0.78146929002E+02  0.46631430921E+01  0.83512967530E+02  0.00000000000E+00 0.  1.
        -13    1    3    3    0    0 -0.26948891889E+03  0.46624866985E+03  0.24501142044E+03  0.59164406165E+03  0.00000000000E+00 0. -1.
          2    1    6    6  502    0  0.12553650378E+03 -0.67176604773E+02  0.36134884262E+03  0.38838781659E+03  0.00000000000E+00 0. -1.
          3    1    5    5  503    0 -0.30271693624E+02 -0.11129430931E+03 -0.18567158170E+01  0.11535270310E+03  0.00000000000E+00 0. -1.
         -4    1    5    5    0  503 -0.41283278666E+02 -0.34595385625E+03  0.12579192032E+03  0.37042136408E+03  0.00000000000E+00 0.  1.
         -1    1    6    6    0  502  0.24458879606E+03 -0.19970828523E+02  0.68874944353E+03  0.73116230012E+03  0.00000000000E+00 0.  1.
<mgrwt>
<rscale>  0 0.17814741E+04</rscale>
<asrwt>0</asrwt>
<pdfrwt beam="1">  1        1 0.28493763E+00 0.17814741E+04</pdfrwt>
<pdfrwt beam="2">  1       -1 0.65905628E-01 0.17814741E+04</pdfrwt>
<totfact> 0.82812004E+00</totfact>
</mgrwt>
</event>
<event>
12    1  0.1097093E-007  0.2687684E+04  0.7818608E-02  0.8339012E-01
          2   -1    0    0  501    0  0.00000000000E+00  0.00000000000E+00  0.18225630301E+04  0.18225630301E+04  0.00000000000E+00 0. -1.
         -2   -1    0    0    0  501 -0.00000000000E+00 -0.00000000000E+00 -0.99086383375E+03  0.99086383375E+03  0.00000000000E+00 0.  1.
         23    2    1    2    0    0 -0.11164732289E+04  0.17829825979E+02  0.79906953290E+03  0.13761488490E+04  0.91886682531E+02 0.  0.
        254    2    1    2    0    0  0.11164732289E+04 -0.17829825979E+02  0.32629663410E+02  0.14372780149E+04  0.90436332489E+03 0.  0.
        -24    2    4    4    0    0  0.11244299033E+04 -0.22995836865E+03  0.18221386563E+03  0.11648298171E+04  0.80019691833E+02 0.  0.
         24    2    4    4    0    0 -0.79566744072E+01  0.21212854267E+03 -0.14958420222E+03  0.27244819777E+03  0.82406065521E+02 0.  0.
         11    1    3    3    0    0 -0.50792583612E+03  0.83168682787E+01  0.41997393610E+03  0.65911754058E+03  0.00000000000E+00 0.  1.
        -11    1    3    3    0    0 -0.60854739282E+03  0.95129577001E+01  0.37909559680E+03  0.71703130838E+03  0.00000000000E+00 0. -1.
          4    1    6    6  502    0 -0.20914986363E+02  0.13767821106E+03 -0.13789660638E+03  0.19598010232E+03  0.00000000000E+00 0. -1.
          1    1    5    5  503    0  0.26985169849E+03 -0.21478418944E+02  0.35076602797E+02  0.27296818445E+03  0.00000000000E+00 0. -1.
         -2    1    5    5    0  503  0.85457820486E+03 -0.20847994970E+03  0.14713726283E+03  0.89186163264E+03  0.00000000000E+00 0.  1.
         -3    1    6    6    0  502  0.12958311956E+02  0.74450331609E+02 -0.11687595837E+02  0.76468095451E+02  0.00000000000E+00 0.  1.
<mgrwt>
<rscale>  0 0.26876843E+04</rscale>
<asrwt>0</asrwt>
<pdfrwt beam="1">  1        2 0.28039431E+00 0.26876843E+04</pdfrwt>
<pdfrwt beam="2">  1       -2 0.15244059E+00 0.26876843E+04</pdfrwt>
<totfact> 0.21134257E+00</totfact>
</mgrwt>
</event>
<event>
12    1  0.1097093E-007  0.3109341E+04  0.7818608E-02  0.8213179E-01
          2   -1    0    0  501    0  0.00000000000E+00  0.00000000000E+00  0.16537084168E+04  0.16537084168E+04  0.00000000000E+00 0. -1.
         -2   -1    0    0    0  501 -0.00000000000E+00 -0.00000000000E+00 -0.14615636337E+04  0.14615636337E+04  0.00000000000E+00 0.  1.
         23    2    1    2    0    0 -0.10914471825E+04 -0.44956072420E+03  0.88466655452E+03  0.14772063318E+04  0.78369872929E+02 0.  0.
        254    2    1    2    0    0  0.10914471825E+04  0.44956072420E+03 -0.69252177141E+03  0.16380657187E+04  0.90017281551E+03 0.  0.
        -24    2    4    4    0    0  0.35504879436E+03  0.45557002398E+03 -0.68252114449E+03  0.89754456914E+03  0.78405661729E+02 0.  0.
         24    2    4    4    0    0  0.73639838819E+03 -0.60092997791E+01 -0.10000626926E+02  0.74052114954E+03  0.77154796138E+02 0.  0.
         11    1    3    3    0    0 -0.51562463001E+03 -0.21374639238E+03  0.46726391487E+03  0.72793670430E+03  0.00000000000E+00 0.  1.
        -11    1    3    3    0    0 -0.57582255254E+03 -0.23581433182E+03  0.41740263965E+03  0.74926962750E+03  0.00000000000E+00 0. -1.
          4    1    6    6  502    0  0.12877376541E+03  0.27449033984E+02  0.54566542820E+01  0.13177976780E+03  0.00000000000E+00 0. -1.
          3    1    5    5  503    0  0.91981016521E+02  0.15800548959E+03 -0.25779529133E+03  0.31604533594E+03  0.00000000000E+00 0. -1.
         -4    1    5    5    0  503  0.26306777784E+03  0.29756453439E+03 -0.42472585316E+03  0.58149923320E+03  0.00000000000E+00 0.  1.
         -3    1    6    6    0  502  0.60762462278E+03 -0.33458333764E+02 -0.15457281208E+02  0.60874138174E+03  0.00000000000E+00 0.  1.
<mgrwt>
<rscale>  0 0.31093408E+04</rscale>
<asrwt>0</asrwt>
<pdfrwt beam="1">  1        2 0.25441668E+00 0.31093408E+04</pdfrwt>
<pdfrwt beam="2">  1       -2 0.22485594E+00 0.31093408E+04</pdfrwt>
<totfact> 0.81318199E-01</totfact>
</mgrwt>
</event>
<event>
12    1  0.1097093E-007  0.2263724E+04  0.7818608E-02  0.8492363E-01
         -2   -1    0    0    0  501 -0.00000000000E+00  0.00000000000E+00  0.13509029188E+04  0.13509029188E+04  0.00000000000E+00 0.  1.
          2   -1    0    0  501    0  0.00000000000E+00 -0.00000000000E+00 -0.94833720102E+03  0.94833720102E+03  0.00000000000E+00 0. -1.
         23    2    1    2    0    0  0.17928526273E+03  0.66458970861E+03 -0.48653870302E+03  0.84760493415E+03  0.88834276257E+02 0.  0.
        254    2    1    2    0    0 -0.17928526273E+03 -0.66458970861E+03  0.88910442075E+03  0.14516351856E+04  0.91810421790E+03 0.  0.
        -24    2    4    4    0    0 -0.44733531207E+03 -0.56883922453E+03  0.28995012134E+03  0.78342828918E+03  0.77471715044E+02 0.  0.
         24    2    4    4    0    0  0.26805004934E+03 -0.95750484074E+02  0.59915429941E+03  0.66820689645E+03  0.80595271591E+02 0.  0.
         11    1    3    3    0    0  0.78528739082E+02  0.28277480091E+03 -0.26161293085E+03  0.39315350244E+03  0.00000000000E+00 0.  1.
        -11    1    3    3    0    0  0.10075652365E+03  0.38181490770E+03 -0.22492577217E+03  0.45445143171E+03  0.00000000000E+00 0. -1.
          2    1    6    6  502    0  0.17703144478E+03 -0.99023954979E+02  0.44709596519E+03  0.49095893738E+03  0.00000000000E+00 0. -1.
          3    1    5    5  503    0 -0.16940312703E+03 -0.22381990943E+03  0.72558248451E+02  0.28992666439E+03  0.00000000000E+00 0. -1.
         -4    1    5    5    0  503 -0.27793218505E+03 -0.34501931510E+03  0.21739187289E+03  0.49350162479E+03  0.00000000000E+00 0.  1.
         -1    1    6    6    0  502  0.91018604564E+02  0.32734709048E+01  0.15205833422E+03  0.17724795907E+03  0.00000000000E+00 0.  1.
<mgrwt>
<rscale>  0 0.22637239E+04</rscale>
<asrwt>0</asrwt>
<pdfrwt beam="1">  1        2 0.14589803E+00 0.22637239E+04</pdfrwt>
<pdfrwt beam="2">  1       -2 0.20783122E+00 0.22637239E+04</pdfrwt>
<totfact> 0.29260109E+00</totfact>
</mgrwt>
</event>
<event>
12    1  0.1097093E-007  0.1385158E+04  0.7818608E-02  0.8964632E-01
          1   -1    0    0  501    0  0.00000000000E+00  0.00000000000E+00  0.14190407435E+04  0.14190407435E+04  0.00000000000E+00 0. -1.
         -1   -1    0    0    0  501 -0.00000000000E+00 -0.00000000000E+00 -0.33802114457E+03  0.33802114457E+03  0.00000000000E+00 0.  1.
         23    2    1    2    0    0 -0.30970211766E+03  0.20773284654E+03  0.45491193245E+03  0.59525281431E+03  0.91174061249E+02 0.  0.
        254    2    1    2    0    0  0.30970211766E+03 -0.20773284654E+03  0.62610766652E+03  0.11618090738E+04  0.90483212623E+03 0.  0.
        -24    2    4    4    0    0  0.29210339021E+03 -0.51987454184E+03  0.21401398383E+03  0.63865066955E+03  0.80490761047E+02 0.  0.
         24    2    4    4    0    0  0.17598727448E+02  0.31214169530E+03  0.41209368269E+03  0.52315840424E+03  0.78302997794E+02 0.  0.
         13    1    3    3    0    0 -0.14275734593E+03  0.74599812707E+02  0.13263092130E+03  0.20865223018E+03  0.00000000000E+00 0. -1.
        -13    1    3    3    0    0 -0.16694477173E+03  0.13313303383E+03  0.32228101115E+03  0.38660058413E+03  0.00000000000E+00 0.  1.
          2    1    6    6  502    0 -0.13493866446E+01  0.71561347157E+01  0.44726544586E+02  0.45315503959E+02  0.00000000000E+00 0. -1.
          3    1    5    5  503    0  0.13746021082E+02 -0.38096753002E+02  0.36741028052E+02  0.54682893369E+02  0.00000000000E+00 0. -1.
         -4    1    5    5    0  503  0.27835736913E+03 -0.48177778884E+03  0.17727295578E+03  0.58396777618E+03  0.00000000000E+00 0.  1.
         -3    1    6    6    0  502  0.18948114093E+02  0.30498556059E+03  0.36736713810E+03  0.47784290028E+03  0.00000000000E+00 0.  1.
<mgrwt>
<rscale>  0 0.13851582E+04</rscale>
<asrwt>0</asrwt>
<pdfrwt beam="1">  1        1 0.21831396E+00 0.13851582E+04</pdfrwt>
<pdfrwt beam="2">  1       -1 0.52003254E-01 0.13851582E+04</pdfrwt>
<totfact> 0.27073417E+01</totfact>
</mgrwt>
</event>
<event>
12    1  0.1097093E-007  0.1281056E+04  0.7818608E-02  0.9044724E-01
          2   -1    0    0  501    0  0.00000000000E+00  0.00000000000E+00  0.14362891538E+04  0.14362891538E+04  0.00000000000E+00 0. -1.
         -2   -1    0    0    0  501 -0.00000000000E+00 -0.00000000000E+00 -0.28565013442E+03  0.28565013442E+03  0.00000000000E+00 0.  1.
         23    2    1    2    0    0  0.80715848240E+02 -0.93314033547E+02 -0.93279408119E+02  0.18101218042E+03  0.94030869758E+02 0.  0.
        254    2    1    2    0    0 -0.80715848240E+02  0.93314033547E+02  0.12439184275E+04  0.15409271078E+04  0.90105534805E+03 0.  0.
        -24    2    4    4    0    0 -0.78064401623E+01  0.48258503683E+03  0.53285779777E+03  0.72318962387E+03  0.78208318912E+02 0.  0.
         24    2    4    4    0    0 -0.72909408078E+02 -0.38927100328E+03  0.71106062970E+03  0.81773748390E+03  0.78991630500E+02 0.  0.
         11    1    3    3    0    0  0.94891119846E+02 -0.63661548635E+02 -0.94263741223E+02  0.14813092287E+03  0.00000000000E+00 0.  1.
        -11    1    3    3    0    0 -0.14175271606E+02 -0.29652484913E+02  0.98433310386E+00  0.32881257553E+02  0.00000000000E+00 0. -1.
          2    1    6    6  502    0 -0.11748057210E+02 -0.10158851075E+03  0.12090585731E+03  0.15835551363E+03  0.00000000000E+00 0. -1.
          1    1    5    5  503    0 -0.30357294823E+02  0.77618641250E+02  0.89511781438E+02  0.12230526495E+03  0.00000000000E+00 0. -1.
         -2    1    5    5    0  503  0.22550854661E+02  0.40496639558E+03  0.44334601633E+03  0.60088435892E+03  0.00000000000E+00 0.  1.
         -1    1    6    6    0  502 -0.61161350868E+02 -0.28768249253E+03  0.59015477239E+03  0.65938197027E+03  0.00000000000E+00 0.  1.
<mgrwt>
<rscale>  0 0.12810561E+04</rscale>
<asrwt>0</asrwt>
<pdfrwt beam="1">  1        2 0.22096756E+00 0.12810561E+04</pdfrwt>
<pdfrwt beam="2">  1       -2 0.43946176E-01 0.12810561E+04</pdfrwt>
<totfact> 0.66457447E+01</totfact>
</mgrwt>
</event>
<event>
12    1  0.1097093E-007  0.2281086E+04  0.7818608E-02  0.8485416E-01
         -4   -1    0    0    0  501 -0.00000000000E+00  0.00000000000E+00  0.22259901859E+04  0.22259901859E+04  0.00000000000E+00 0.  1.
          4   -1    0    0  501    0  0.00000000000E+00 -0.00000000000E+00 -0.58438645577E+03  0.58438645577E+03  0.00000000000E+00 0. -1.
         23    2    1    2    0    0 -0.73961092715E+03  0.77739916230E+02  0.14446777074E+04  0.16273579395E+04  0.90179636002E+02 0.  0.
        254    2    1    2    0    0  0.73961092715E+03 -0.77739916230E+02  0.19692602269E+03  0.11830187022E+04  0.89871328750E+03 0.  0.
        -24    2    4    4    0    0  0.82496303970E+03 -0.29945022207E+03  0.26799364499E+03  0.92109969540E+03  0.79809790969E+02 0.  0.
         24    2    4    4    0    0 -0.85352112553E+02  0.22171030584E+03 -0.71067622297E+02  0.26191900677E+03  0.84323877612E+02 0.  0.
         13    1    3    3    0    0 -0.66185538085E+03  0.96742549495E+02  0.13016121650E+04  0.14634226642E+04  0.00000000000E+00 0.  1.
        -13    1    3    3    0    0 -0.77755546302E+02 -0.19002633265E+02  0.14306554237E+03  0.16393527523E+03  0.00000000000E+00 0. -1.
          4    1    6    6  502    0 -0.18191020606E+02 -0.21694156272E+01 -0.40126555253E+01  0.18754226170E+02  0.00000000000E+00 0. -1.
          3    1    5    5  503    0  0.23286212529E+03 -0.88685364542E+02  0.39129975124E+02  0.25223207217E+03  0.00000000000E+00 0. -1.
         -4    1    5    5    0  503  0.59210091441E+03 -0.21076485753E+03  0.22886366986E+03  0.66886762322E+03  0.00000000000E+00 0.  1.
         -3    1    6    6    0  502 -0.67161091946E+02  0.22387972146E+03 -0.67054966772E+02  0.24316478060E+03  0.00000000000E+00 0.  1.
<mgrwt>
<rscale>  0 0.22810862E+04</rscale>
<asrwt>0</asrwt>
<pdfrwt beam="1">  1        4 0.89905610E-01 0.22810862E+04</pdfrwt>
<pdfrwt beam="2">  1       -4 0.34246002E+00 0.22810862E+04</pdfrwt>
<totfact> 0.31989901E-02</totfact>
</mgrwt>
</event>
<event>
12    1  0.1097093E-007  0.1475057E+04  0.7818608E-02  0.8901211E-01
          1   -1    0    0  501    0  0.00000000000E+00  0.00000000000E+00  0.12201737815E+04  0.12201737815E+04  0.00000000000E+00 0. -1.
         -1   -1    0    0    0  501 -0.00000000000E+00 -0.00000000000E+00 -0.44579597181E+03  0.44579597181E+03  0.00000000000E+00 0.  1.
         23    2    1    2    0    0  0.54003089984E+02 -0.13566847106E+01 -0.26521821928E+03  0.28592975193E+03  0.92178874394E+02 0.  0.
        254    2    1    2    0    0 -0.54003089984E+02  0.13566847106E+01  0.10395960290E+04  0.13800400014E+04  0.90599797332E+03 0.  0.
        -24    2    4    4    0    0  0.30738905524E+03  0.28628520812E+03  0.61473115005E+03  0.74860307093E+03  0.77877591770E+02 0.  0.
         24    2    4    4    0    0 -0.36139214522E+03 -0.28492852341E+03  0.42486487896E+03  0.63143693049E+03  0.80086738784E+02 0.  0.
         13    1    3    3    0    0 -0.23721514599E+01  0.37788727754E+02 -0.10553691100E+03  0.11212339021E+03  0.00000000000E+00 0. -1.
        -13    1    3    3    0    0  0.56375241443E+02 -0.39145412464E+02 -0.15968130827E+03  0.17380636173E+03  0.00000000000E+00 0.  1.
          2    1    6    6  502    0 -0.14704227622E+03 -0.90822652000E+02  0.11497468735E+03  0.20757977706E+03  0.00000000000E+00 0. -1.
          3    1    5    5  503    0  0.58528352369E+02  0.56123414028E+02  0.17928538777E+03  0.19677056665E+03  0.00000000000E+00 0. -1.
         -4    1    5    5    0  503  0.24886070287E+03  0.23016179409E+03  0.43544576228E+03  0.55183250428E+03  0.00000000000E+00 0.  1.
         -1    1    6    6    0  502 -0.21434986900E+03 -0.19410587141E+03  0.30989019161E+03  0.42385715342E+03  0.00000000000E+00 0.  1.
<mgrwt>
<rscale>  0 0.14750574E+04</rscale>
<asrwt>0</asrwt>
<pdfrwt beam="1">  1        1 0.18771904E+00 0.14750574E+04</pdfrwt>
<pdfrwt beam="2">  1       -1 0.68583996E-01 0.14750574E+04</pdfrwt>
<totfact> 0.21542506E+01</totfact>
</mgrwt>
</event>
<event>
12    1  0.1097093E-007  0.1555056E+04  0.7818608E-02  0.8848645E-01
          2   -1    0    0  501    0  0.00000000000E+00  0.00000000000E+00  0.20342482442E+04  0.20342482442E+04  0.00000000000E+00 0. -1.
         -2   -1    0    0    0  501 -0.00000000000E+00 -0.00000000000E+00 -0.29718570184E+03  0.29718570184E+03  0.00000000000E+00 0.  1.
         23    2    1    2    0    0 -0.11575436286E+03 -0.36105904127E+03  0.11242112905E+04  0.11899722830E+04  0.91762217895E+02 0.  0.
        254    2    1    2    0    0  0.11575436286E+03  0.36105904127E+03  0.61285125181E+03  0.11414616631E+04  0.88520357411E+03 0.  0.
        -24    2    4    4    0    0  0.13296928026E+02  0.20023521067E+03  0.82047520749E+03  0.84861444663E+03  0.81828876512E+02 0.  0.
         24    2    4    4    0    0  0.10245743484E+03  0.16082383060E+03 -0.20762395567E+03  0.29284721645E+03  0.79309235106E+02 0.  0.
         11    1    3    3    0    0 -0.55556863879E+02 -0.29704140200E+03  0.86383244367E+03  0.91516482142E+03  0.00000000000E+00 0. -1.
        -11    1    3    3    0    0 -0.60197498983E+02 -0.64017639268E+02  0.26037884688E+03  0.27480746155E+03  0.00000000000E+00 0.  1.
          2    1    6    6  502    0  0.79355476972E+02  0.74407594174E+02 -0.15402604973E+03  0.18856777507E+03  0.00000000000E+00 0. -1.
          3    1    5    5  503    0 -0.25110503849E+01  0.11028388638E+03  0.59856491042E+03  0.60864504677E+03  0.00000000000E+00 0. -1.
         -4    1    5    5    0  503  0.15807978411E+02  0.89951324290E+02  0.22191029707E+03  0.23996939986E+03  0.00000000000E+00 0.  1.
         -1    1    6    6    0  502  0.23101957864E+02  0.86416236426E+02 -0.53597905938E+02  0.10427944139E+03  0.00000000000E+00 0.  1.
<mgrwt>
<rscale>  0 0.15550556E+04</rscale>
<asrwt>0</asrwt>
<pdfrwt beam="1">  1        2 0.31296126E+00 0.15550556E+04</pdfrwt>
<pdfrwt beam="2">  1       -2 0.45720879E-01 0.15550556E+04</pdfrwt>
<totfact> 0.27919312E+01</totfact>
</mgrwt>
</event>
<event>
12    1  0.1097093E-007  0.1178916E+04  0.7818608E-02  0.9131515E-01
          2   -1    0    0  501    0  0.00000000000E+00  0.00000000000E+00  0.36083988490E+04  0.36083988490E+04  0.00000000000E+00 0. -1.
         -2   -1    0    0    0  501 -0.00000000000E+00 -0.00000000000E+00 -0.96292138514E+02  0.96292138514E+02  0.00000000000E+00 0.  1.
         23    2    1    2    0    0  0.14904584909E+03 -0.26674584613E+02  0.12671051099E+04  0.12794216218E+04  0.91859285373E+02 0.  0.
        254    2    1    2    0    0 -0.14904584909E+03  0.26674584613E+02  0.22450016006E+04  0.24252693657E+04  0.90497133150E+03 0.  0.
        -24    2    4    4    0    0 -0.52003907804E+03 -0.83843818556E+01  0.11162042484E+04  0.12340045488E+04  0.79651501465E+02 0.  0.
         24    2    4    4    0    0  0.37099322895E+03  0.35058966469E+02  0.11287973521E+04  0.11912648169E+04  0.77867160212E+02 0.  0.
         13    1    3    3    0    0  0.38807897987E+02 -0.17431696709E+02  0.71936828541E+03  0.72062517792E+03  0.00000000000E+00 0. -1.
        -13    1    3    3    0    0  0.11023795110E+03 -0.92428879043E+01  0.54773682447E+03  0.55879644391E+03  0.00000000000E+00 0.  1.
          4    1    6    6  502    0  0.43019430497E+02 -0.18883019752E+02  0.17572383035E+03  0.18189586139E+03  0.00000000000E+00 0. -1.
          1    1    5    5  503    0 -0.76625364767E+02  0.27237815881E+02  0.17459208409E+03  0.19260254662E+03  0.00000000000E+00 0. -1.
         -2    1    5    5    0  503 -0.44341371327E+03 -0.35622197736E+02  0.94161216436E+03  0.10414020022E+04  0.00000000000E+00 0.  1.
         -3    1    6    6    0  502  0.32797379845E+03  0.53941986221E+02  0.95307352178E+03  0.10093689555E+04  0.00000000000E+00 0.  1.
<mgrwt>
<rscale>  0 0.11789155E+04</rscale>
<asrwt>0</asrwt>
<pdfrwt beam="1">  1        2 0.55513818E+00 0.11789155E+04</pdfrwt>
<pdfrwt beam="2">  1       -2 0.14814178E-01 0.11789155E+04</pdfrwt>
<totfact> 0.24858554E+01</totfact>
</mgrwt>
</event>
<event>
12    1  0.1097093E-007  0.3657632E+04  0.7818608E-02  0.8077416E-01
         -2   -1    0    0    0  501 -0.00000000000E+00  0.00000000000E+00  0.89219346019E+03  0.89219346019E+03  0.00000000000E+00 0.  1.
          2   -1    0    0  501    0  0.00000000000E+00 -0.00000000000E+00 -0.37487031559E+04  0.37487031559E+04  0.00000000000E+00 0. -1.
         23    2    1    2    0    0 -0.28594786987E+03 -0.52824568039E+03  0.68829671048E+03  0.91799840011E+03  0.90327281678E+02 0.  0.
        254    2    1    2    0    0  0.28594786987E+03  0.52824568039E+03 -0.35448064062E+04  0.37228982160E+04  0.96618268772E+03 0.  0.
        -24    2    4    4    0    0  0.30107957875E+03 -0.22010910345E+03 -0.10655633387E+04  0.11318867387E+04  0.81519508675E+02 0.  0.
         24    2    4    4    0    0 -0.15131708880E+02  0.74835478384E+03 -0.24792430675E+04  0.25910114773E+04  0.80190003199E+02 0.  0.
         13    1    3    3    0    0 -0.23791387647E+03 -0.36109346087E+03  0.46552482937E+03  0.63537773557E+03  0.00000000000E+00 0.  1.
        -13    1    3    3    0    0 -0.48033993407E+02 -0.16715221952E+03  0.22277188111E+03  0.28262066454E+03  0.00000000000E+00 0. -1.
          2    1    6    6  502    0 -0.13501604832E+02  0.43108102899E+03 -0.12909044599E+04  0.13610464619E+04  0.00000000000E+00 0. -1.
          1    1    5    5  503    0  0.19409844946E+03 -0.17569393537E+03 -0.81092935148E+03  0.85214375554E+03  0.00000000000E+00 0. -1.
         -2    1    5    5    0  503  0.10698112930E+03 -0.44415168084E+02 -0.25463398725E+03  0.27974298319E+03  0.00000000000E+00 0.  1.
         -1    1    6    6    0  502 -0.16301040487E+01  0.31727375484E+03 -0.11883386076E+04  0.12299650154E+04  0.00000000000E+00 0.  1.
<mgrwt>
<rscale>  0 0.36576323E+04</rscale>
<asrwt>0</asrwt>
<pdfrwt beam="1">  1        2 0.57672356E+00 0.36576323E+04</pdfrwt>
<pdfrwt beam="2">  1       -2 0.13726053E+00 0.36576323E+04</pdfrwt>
<totfact> 0.16428623E-01</totfact>
</mgrwt>
</event>
<event>
12    1  0.1097093E-007  0.4308972E+04  0.7818608E-02  0.7944961E-01
         -2   -1    0    0    0  501 -0.00000000000E+00  0.00000000000E+00  0.15209035698E+04  0.15209035698E+04  0.00000000000E+00 0.  1.
          2   -1    0    0  501    0  0.00000000000E+00 -0.00000000000E+00 -0.30520085718E+04  0.30520085718E+04  0.00000000000E+00 0. -1.
         23    2    1    2    0    0 -0.15320063638E+04  0.12859060399E+04 -0.21027890035E+03  0.20132157520E+04  0.90678586450E+02 0.  0.
        254    2    1    2    0    0  0.15320063638E+04 -0.12859060399E+04 -0.13208261016E+04  0.25596963896E+04  0.89825729836E+03 0.  0.
        -24    2    4    4    0    0  0.14185456367E+03 -0.61813742750E+03 -0.49527102093E+03  0.80857609152E+03  0.79279979163E+02 0.  0.
         24    2    4    4    0    0  0.13901518001E+04 -0.66776861235E+03 -0.82555508069E+03  0.17511202981E+04  0.80275525273E+02 0.  0.
         13    1    3    3    0    0 -0.12185134147E+04  0.10579287588E+04 -0.14572445458E+03  0.16202542445E+04  0.00000000000E+00 0. -1.
        -13    1    3    3    0    0 -0.31349294915E+03  0.22797728110E+03 -0.64554445768E+02  0.39296150745E+03  0.00000000000E+00 0.  1.
          4    1    6    6  502    0  0.12352890467E+04 -0.58893302349E+03 -0.76017066877E+03  0.15654521969E+04  0.00000000000E+00 0. -1.
          3    1    5    5  503    0  0.73507367540E+02 -0.47332065181E+03 -0.37331693703E+03  0.60729013493E+03  0.00000000000E+00 0. -1.
         -4    1    5    5    0  503  0.68347196130E+02 -0.14481677569E+03 -0.12195408390E+03  0.20128595659E+03  0.00000000000E+00 0.  1.
         -3    1    6    6    0  502  0.15486275348E+03 -0.78835588865E+02 -0.65384411918E+02  0.18566810121E+03  0.00000000000E+00 0.  1.
<mgrwt>
<rscale>  0 0.43089724E+04</rscale>
<asrwt>0</asrwt>
<pdfrwt beam="1">  1        2 0.46953978E+00 0.43089724E+04</pdfrwt>
<pdfrwt beam="2">  1       -2 0.23398517E+00 0.43089724E+04</pdfrwt>
<totfact> 0.10023347E-01</totfact>
</mgrwt>
</event>
<event>
12    1  0.1097093E-007  0.1290056E+04  0.7818608E-02  0.9037489E-01
         -3   -1    0    0    0  501 -0.00000000000E+00  0.00000000000E+00  0.13073341972E+03  0.13073341972E+03  0.00000000000E+00 0.  1.
          3   -1    0    0  501    0  0.00000000000E+00 -0.00000000000E+00 -0.31825134144E+04  0.31825134144E+04  0.00000000000E+00 0. -1.
         23    2    1    2    0    0  0.17369556136E+03 -0.26041755467E+03 -0.10569729066E+04  0.11060435411E+04  0.90294731850E+02 0.  0.
        254    2    1    2    0    0 -0.17369556136E+03  0.26041755467E+03 -0.19948070880E+04  0.22072032930E+04  0.89134931844E+03 0.  0.
        -24    2    4    4    0    0 -0.33472300882E+03  0.52015006558E+03 -0.12047210886E+04  0.13563089939E+04  0.75004015186E+02 0.  0.
         24    2    4    4    0    0  0.16102744745E+03 -0.25973251091E+03 -0.79008599946E+03  0.85089429914E+03  0.79965028103E+02 0.  0.
         13    1    3    3    0    0  0.46715787807E+02 -0.61654376108E+02 -0.14833931229E+03  0.16729667808E+03  0.00000000000E+00 0. -1.
        -13    1    3    3    0    0  0.12697977356E+03 -0.19876317856E+03 -0.90863359434E+03  0.93874686301E+03  0.00000000000E+00 0.  1.
          2    1    6    6  502    0  0.48662775164E+02 -0.14928225909E+03 -0.43313754556E+03  0.46071834339E+03  0.00000000000E+00 0. -1.
          3    1    5    5  503    0 -0.29988739265E+03  0.43190112879E+03 -0.10602523410E+04  0.11834720360E+04  0.00000000000E+00 0. -1.
         -4    1    5    5    0  503 -0.34835616164E+02  0.88248936786E+02 -0.14446874759E+03  0.17283695793E+03  0.00000000000E+00 0.  1.
         -3    1    6    6    0  502  0.11236467229E+03 -0.11045025182E+03 -0.35694845390E+03  0.39017595575E+03  0.00000000000E+00 0.  1.
<mgrwt>
<rscale>  0 0.12900556E+04</rscale>
<asrwt>0</asrwt>
<pdfrwt beam="1">  1        3 0.48961740E+00 0.12900556E+04</pdfrwt>
<pdfrwt beam="2">  1       -3 0.20112836E-01 0.12900556E+04</pdfrwt>
<totfact> 0.22996611E-01</totfact>
</mgrwt>
</event>
<event>
12    1  0.1097093E-007  0.1993047E+04  0.7818608E-02  0.8609878E-01
          1   -1    0    0  501    0  0.00000000000E+00  0.00000000000E+00  0.11170244080E+04  0.11170244080E+04  0.00000000000E+00 0. -1.
         -1   -1    0    0    0  501 -0.00000000000E+00 -0.00000000000E+00 -0.88902206021E+03  0.88902206021E+03  0.00000000000E+00 0.  1.
         23    2    1    2    0    0 -0.30339685036E+03 -0.69946978114E+03  0.31213125299E+03  0.82903895978E+03  0.92585388709E+02 0.  0.
        254    2    1    2    0    0  0.30339685036E+03  0.69946978114E+03 -0.84128905174E+02  0.11770075085E+04  0.89272693403E+03 0.  0.
        -24    2    4    4    0    0  0.34609721492E+03  0.66141107810E+03 -0.39659147841E+03  0.84910587165E+03  0.80299963358E+02 0.  0.
         24    2    4    4    0    0 -0.42700364554E+02  0.38058703040E+02  0.31246257324E+03  0.32790163681E+03  0.81331652726E+02 0.  0.
         11    1    3    3    0    0 -0.21670241449E+02 -0.39494661302E+02  0.44051860640E+02  0.63007888884E+02  0.00000000000E+00 0.  1.
        -11    1    3    3    0    0 -0.28172660891E+03 -0.65997511984E+03  0.26807939235E+03  0.76603107090E+03  0.00000000000E+00 0. -1.
          4    1    6    6  502    0 -0.64623287799E+02  0.16107049690E+02  0.24017031690E+03  0.24923360025E+03  0.00000000000E+00 0. -1.
          3    1    5    5  503    0  0.23493696843E+03  0.44296831407E+03 -0.22304321200E+03  0.54878463975E+03  0.00000000000E+00 0. -1.
         -4    1    5    5    0  503  0.11116024648E+03  0.21844276403E+03 -0.17354826641E+03  0.30032123190E+03  0.00000000000E+00 0.  1.
         -3    1    6    6    0  502  0.21922923245E+02  0.21951653351E+02  0.72292256337E+02  0.78668036551E+02  0.00000000000E+00 0.  1.
<mgrwt>
<rscale>  0 0.19930473E+04</rscale>
<asrwt>0</asrwt>
<pdfrwt beam="1">  1        1 0.17184991E+00 0.19930473E+04</pdfrwt>
<pdfrwt beam="2">  1       -1 0.13677263E+00 0.19930473E+04</pdfrwt>
<totfact> 0.50902228E+00</totfact>
</mgrwt>
</event>
<event>
12    1  0.1097093E-007  0.1750763E+04  0.7818608E-02  0.8732931E-01
         -1   -1    0    0    0  501 -0.00000000000E+00  0.00000000000E+00  0.42595943493E+03  0.42595943493E+03  0.00000000000E+00 0.  1.
          1   -1    0    0  501    0  0.00000000000E+00 -0.00000000000E+00 -0.17989798326E+04  0.17989798326E+04  0.00000000000E+00 0. -1.
         23    2    1    2    0    0 -0.43018438841E+03 -0.76775898869E+01  0.78584526578E+02  0.44693813885E+03  0.91981621668E+02 0.  0.
        254    2    1    2    0    0  0.43018438841E+03  0.76775898869E+01 -0.14516049242E+04  0.17780011286E+04  0.93220899159E+03 0.  0.
        -24    2    4    4    0    0  0.63286928891E+03 -0.19904871660E+03 -0.69551850157E+03  0.96448081500E+03  0.79582209341E+02 0.  0.
         24    2    4    4    0    0 -0.20268490050E+03  0.20672630649E+03 -0.75608642264E+03  0.81352031364E+03  0.79571901522E+02 0.  0.
         13    1    3    3    0    0 -0.39474273851E+03  0.13701756251E+02  0.87597767310E+02  0.40457747907E+03  0.00000000000E+00 0.  1.
        -13    1    3    3    0    0 -0.35441649904E+02 -0.21379346138E+02 -0.90132407322E+01  0.42360659788E+02  0.00000000000E+00 0. -1.
          2    1    6    6  502    0 -0.20734510825E+02  0.16971162705E+02 -0.15728284017E+03  0.15954883928E+03  0.00000000000E+00 0. -1.
          3    1    5    5  503    0  0.24734390299E+02 -0.24614844264E+02 -0.27543230521E+02  0.44455710198E+02  0.00000000000E+00 0. -1.
         -4    1    5    5    0  503  0.60813489861E+03 -0.17443387233E+03 -0.66797527105E+03  0.92002510480E+03  0.00000000000E+00 0.  1.
         -1    1    6    6    0  502 -0.18195038968E+03  0.18975514378E+03 -0.59880358247E+03  0.65397147436E+03  0.00000000000E+00 0.  1.
<mgrwt>
<rscale>  0 0.17507626E+04</rscale>
<asrwt>0</asrwt>
<pdfrwt beam="1">  1        1 0.27676613E+00 0.17507626E+04</pdfrwt>
<pdfrwt beam="2">  1       -1 0.65532220E-01 0.17507626E+04</pdfrwt>
<totfact> 0.91267405E+00</totfact>
</mgrwt>
</event>
<event>
12    1  0.1097093E-007  0.1695422E+04  0.7818608E-02  0.8763979E-01
          2   -1    0    0  501    0  0.00000000000E+00  0.00000000000E+00  0.14964137861E+04  0.14964137861E+04  0.00000000000E+00 0. -1.
         -2   -1    0    0    0  501 -0.00000000000E+00 -0.00000000000E+00 -0.48022430220E+03  0.48022430220E+03  0.00000000000E+00 0.  1.
         23    2    1    2    0    0 -0.64930290331E+02 -0.41827731335E+03  0.86999855380E+03  0.97173786267E+03  0.90582209351E+02 0.  0.
        254    2    1    2    0    0  0.64930290331E+02  0.41827731335E+03  0.14619093008E+03  0.10049002256E+04  0.89960036790E+03 0.  0.
        -24    2    4    4    0    0 -0.22738262551E+03  0.36708516809E+03  0.40922424616E+03  0.60022102560E+03  0.79664401777E+02 0.  0.
         24    2    4    4    0    0  0.29231291585E+03  0.51192145261E+02 -0.26303331608E+03  0.40467920001E+03  0.80692335713E+02 0.  0.
         13    1    3    3    0    0 -0.61693197885E+02 -0.42241535917E+03  0.86434993593E+03  0.96402365017E+03  0.00000000000E+00 0. -1.
        -13    1    3    3    0    0 -0.32370924454E+01  0.41380458168E+01  0.56486178692E+01  0.77142125013E+01  0.00000000000E+00 0.  1.
          2    1    6    6  502    0  0.26613461916E+03  0.20101907301E+02 -0.22842151746E+03  0.35129490721E+03  0.00000000000E+00 0. -1.
          3    1    5    5  503    0 -0.10145148669E+03  0.14905034821E+03  0.11916576209E+03  0.21612239427E+03  0.00000000000E+00 0. -1.
         -4    1    5    5    0  503 -0.12593113883E+03  0.21803481989E+03  0.29005848407E+03  0.38409863133E+03  0.00000000000E+00 0.  1.
         -1    1    6    6    0  502  0.26178296689E+02  0.31090237960E+02 -0.34611798620E+02  0.53384292799E+02  0.00000000000E+00 0.  1.
<mgrwt>
<rscale>  0 0.16954224E+04</rscale>
<asrwt>0</asrwt>
<pdfrwt beam="1">  1        2 0.23021750E+00 0.16954224E+04</pdfrwt>
<pdfrwt beam="2">  1       -2 0.73880663E-01 0.16954224E+04</pdfrwt>
<totfact> 0.20040627E+01</totfact>
</mgrwt>
</event>
<event>
12    1  0.1097093E-007  0.2204714E+04  0.7818608E-02  0.8516469E-01
         -2   -1    0    0    0  501 -0.00000000000E+00  0.00000000000E+00  0.14425110250E+04  0.14425110250E+04  0.00000000000E+00 0.  1.
          2   -1    0    0  501    0  0.00000000000E+00 -0.00000000000E+00 -0.84241353821E+03  0.84241353821E+03  0.00000000000E+00 0. -1.
         23    2    1    2    0    0 -0.87202807960E+02 -0.83549965854E+03  0.63343530613E+03  0.10560303727E+04  0.91081567379E+02 0.  0.
        254    2    1    2    0    0  0.87202807960E+02  0.83549965854E+03 -0.33337819377E+02  0.12288941905E+04  0.89632890839E+03 0.  0.
        -24    2    4    4    0    0  0.34977614811E+03  0.79275592565E+03  0.16738226986E+03  0.88641532150E+03  0.83126328467E+02 0.  0.
         24    2    4    4    0    0 -0.26257334015E+03  0.42743732888E+02 -0.20072008924E+03  0.34247886896E+03  0.78939443900E+02 0.  0.
         13    1    3    3    0    0 -0.68683043051E+02 -0.36694505507E+03  0.32308543543E+03  0.49371067685E+03  0.00000000000E+00 0. -1.
        -13    1    3    3    0    0 -0.18519764909E+02 -0.46855460347E+03  0.31034987070E+03  0.56231969587E+03  0.00000000000E+00 0.  1.
          2    1    6    6  502    0 -0.67513467979E+02  0.41986524891E+02 -0.36448311607E+02  0.87460940139E+02  0.00000000000E+00 0. -1.
          3    1    5    5  503    0  0.18596612539E+02  0.94372873734E+02  0.31963514566E+01  0.96240791546E+02  0.00000000000E+00 0. -1.
         -4    1    5    5    0  503  0.33117953557E+03  0.69838305192E+03  0.16418591840E+03  0.79017452995E+03  0.00000000000E+00 0.  1.
         -1    1    6    6    0  502 -0.19505987217E+03  0.75720799634E+00 -0.16427177763E+03  0.25501792882E+03  0.00000000000E+00 0.  1.
<mgrwt>
<rscale>  0 0.22047139E+04</rscale>
<asrwt>0</asrwt>
<pdfrwt beam="1">  1        2 0.12960208E+00 0.22047139E+04</pdfrwt>
<pdfrwt beam="2">  1       -2 0.22192477E+00 0.22047139E+04</pdfrwt>
<totfact> 0.28201788E+00</totfact>
</mgrwt>
</event>
<event>
12    1  0.1097093E-007  0.3029659E+04  0.7818608E-02  0.8235312E-01
          2   -1    0    0  501    0  0.00000000000E+00  0.00000000000E+00  0.16385648500E+04  0.16385648500E+04  0.00000000000E+00 0.  1.
         -2   -1    0    0    0  501 -0.00000000000E+00 -0.00000000000E+00 -0.14004376341E+04  0.14004376341E+04  0.00000000000E+00 0. -1.
         23    2    1    2    0    0  0.75990997015E+03  0.79219498603E+03  0.94562780662E+03  0.14517354974E+04  0.91038162699E+02 0.  0.
        254    2    1    2    0    0 -0.75990997015E+03 -0.79219498603E+03 -0.70750059071E+03  0.15872669867E+04  0.90212157869E+03 0.  0.
        -24    2    4    4    0    0 -0.49541903260E+03 -0.95033619607E+03 -0.67556409320E+03  0.12696643273E+04  0.84153173935E+02 0.  0.
         24    2    4    4    0    0 -0.26449093755E+03  0.15814121005E+03 -0.31936497515E+02  0.31760265940E+03  0.69910020921E+02 0.  0.
         13    1    3    3    0    0  0.24749907547E+03  0.23114498846E+03  0.34223406961E+03  0.48146438752E+03  0.00000000000E+00 0. -1.
        -13    1    3    3    0    0  0.51241089469E+03  0.56104999756E+03  0.60339373701E+03  0.97027110985E+03  0.00000000000E+00 0.  1.
          2    1    6    6  502    0 -0.13794882159E+03  0.10486638199E+03  0.11316066339E+02  0.17365163059E+03  0.00000000000E+00 0. -1.
          3    1    5    5  503    0 -0.49578559010E+03 -0.93391741162E+03 -0.67208185162E+03  0.12528763300E+04  0.00000000000E+00 0. -1.
         -4    1    5    5    0  503  0.36655749880E+00 -0.16418784455E+02 -0.34822415753E+01  0.16787997313E+02  0.00000000000E+00 0.  1.
         -1    1    6    6    0  502 -0.12654211596E+03  0.53274828059E+02 -0.43252563854E+02  0.14395102881E+03  0.00000000000E+00 0.  1.
<mgrwt>
<rscale>  0 0.30296586E+04</rscale>
<asrwt>0</asrwt>
<pdfrwt beam="1">  1        2 0.25208690E+00 0.30296586E+04</pdfrwt>
<pdfrwt beam="2">  1       -2 0.21545194E+00 0.30296586E+04</pdfrwt>
<totfact> 0.95741888E-01</totfact>
</mgrwt>
</event>
<event>
12    1  0.1164070E-007  0.2211770E+04  0.7818608E-02  0.8513545E-01
          2   -1    0    0  501    0  0.00000000000E+00  0.00000000000E+00  0.15952412231E+04  0.15952412231E+04  0.00000000000E+00 0. -1.
         -2   -1    0    0    0  501 -0.00000000000E+00 -0.00000000000E+00 -0.76664354652E+03  0.76664354652E+03  0.00000000000E+00 0.  1.
         23    2    1    2    0    0  0.15347789332E+03 -0.79703563135E+03 -0.11935727071E+03  0.82558436332E+03  0.92315337335E+02 0.  0.
        254    2    1    2    0    0 -0.15347789332E+03  0.79703563135E+03  0.94795494726E+03  0.15363004063E+04  0.89597940543E+03 0.  0.
        -24    2    4    4    0    0  0.18913176147E+03  0.74207558371E+02  0.63801780356E+03  0.67418008993E+03  0.78577929967E+02 0.  0.
         24    2    4    4    0    0 -0.34260965479E+03  0.72282807298E+03  0.30993714370E+03  0.86212031636E+03  0.85607290577E+02 0.  0.
         13    1    3    3    0    0  0.23090955931E+02 -0.33388895721E+03 -0.69811479317E+02  0.34188985161E+03  0.00000000000E+00 0. -1.
        -13    1    3    3    0    0  0.13038693739E+03 -0.46314667414E+03 -0.49545791389E+02  0.48369451170E+03  0.00000000000E+00 0.  1.
          4    1    6    6  502    0 -0.74485479032E+02  0.19904028413E+03  0.47185821843E+02  0.21769617148E+03  0.00000000000E+00 0. -1.
          1    1    5    5  503    0  0.38047644407E+01  0.26036090456E+02  0.73104775955E+02  0.77695961968E+02  0.00000000000E+00 0. -1.
         -2    1    5    5    0  503  0.18532699703E+03  0.48171467915E+02  0.56491302761E+03  0.59648412796E+03  0.00000000000E+00 0.  1.
         -3    1    6    6    0  502 -0.26812417576E+03  0.52378778884E+03  0.26275132186E+03  0.64442414488E+03  0.00000000000E+00 0.  1.
<mgrwt>
<rscale>  0 0.22117698E+04</rscale>
<asrwt>0</asrwt>
<pdfrwt beam="1">  1        2 0.24542173E+00 0.22117698E+04</pdfrwt>
<pdfrwt beam="2">  1       -2 0.11794516E+00 0.22117698E+04</pdfrwt>
<totfact> 0.56794683E+00</totfact>
</mgrwt>
</event>
<event>
12    1  0.1097093E-007  0.2361708E+04  0.7818608E-02  0.8453980E-01
          2   -1    0    0  501    0  0.00000000000E+00  0.00000000000E+00  0.99683908395E+03  0.99683908395E+03  0.00000000000E+00 0. -1.
         -2   -1    0    0    0  501 -0.00000000000E+00 -0.00000000000E+00 -0.13988377681E+04  0.13988377681E+04  0.00000000000E+00 0.  1.
         23    2    1    2    0    0  0.58178290985E+03 -0.14455273210E+03  0.64808024421E+03  0.88748438868E+03  0.90849824821E+02 0.  0.
        254    2    1    2    0    0 -0.58178290985E+03  0.14455273210E+03 -0.10500789284E+04  0.15081924634E+04  0.90144989003E+03 0.  0.
        -24    2    4    4    0    0  0.94538045925E+02 -0.18128557011E+03 -0.63314933677E+01  0.22000869777E+03  0.81005180265E+02 0.  0.
         24    2    4    4    0    0 -0.67632095578E+03  0.32583830220E+03 -0.10437474350E+04  0.12881837656E+04  0.80175254892E+02 0.  0.
         13    1    3    3    0    0  0.27776365608E+03 -0.52956879263E+02  0.24331478401E+03  0.37304043187E+03  0.00000000000E+00 0.  1.
        -13    1    3    3    0    0  0.30401925378E+03 -0.91595852833E+02  0.40476546020E+03  0.51444395681E+03  0.00000000000E+00 0. -1.
          4    1    6    6  502    0 -0.24323663799E+03  0.14107261564E+03 -0.44636588215E+03  0.52754909316E+03  0.00000000000E+00 0. -1.
          1    1    5    5  503    0  0.47903118116E+02 -0.14937348934E+03  0.19130324484E+02  0.15802884976E+03  0.00000000000E+00 0. -1.
         -2    1    5    5    0  503  0.46634927808E+02 -0.31912080769E+02 -0.25461817852E+02  0.61979848008E+02  0.00000000000E+00 0.  1.
         -3    1    6    6    0  502 -0.43308431779E+03  0.18476568656E+03 -0.59738155284E+03  0.76063467244E+03  0.00000000000E+00 0.  1.
<mgrwt>
<rscale>  0 0.23617080E+04</rscale>
<asrwt>0</asrwt>
<pdfrwt beam="1">  1        2 0.15335986E+00 0.23617080E+04</pdfrwt>
<pdfrwt beam="2">  1       -2 0.21520581E+00 0.23617080E+04</pdfrwt>
<totfact> 0.24199273E+00</totfact>
</mgrwt>
</event>
<event>
12    1  0.1097093E-007  0.1437507E+04  0.7818608E-02  0.8927108E-01
         -1   -1    0    0    0  501 -0.00000000000E+00  0.00000000000E+00  0.53577085049E+03  0.53577085049E+03  0.00000000000E+00 0.  1.
          1   -1    0    0  501    0  0.00000000000E+00 -0.00000000000E+00 -0.96423097261E+03  0.96423097261E+03  0.00000000000E+00 0. -1.
         23    2    1    2    0    0  0.88711508760E+02  0.32971713825E+03  0.14754143997E+03  0.37957078444E+03  0.75646419927E+02 0.  0.
        254    2    1    2    0    0 -0.88711508760E+02 -0.32971713825E+03 -0.57600156209E+03  0.11204310387E+04  0.89833445321E+03 0.  0.
        -24    2    4    4    0    0  0.34123775369E+02  0.27517094711E+03 -0.36005449167E+03  0.46140123672E+03  0.79802143457E+02 0.  0.
         24    2    4    4    0    0 -0.12283528413E+03 -0.60488808536E+03 -0.21594707042E+03  0.65902980194E+03  0.81908728373E+02 0.  0.
         11    1    3    3    0    0 -0.24862334661E+01  0.10371678914E+03  0.64215604986E+02  0.12201228475E+03  0.00000000000E+00 0.  1.
        -11    1    3    3    0    0  0.91197742226E+02  0.22600034911E+03  0.83325834982E+02  0.25755849969E+03  0.00000000000E+00 0. -1.
          2    1    6    6  502    0 -0.11236940578E+03 -0.58438525742E+03 -0.22212625430E+03  0.63519531271E+03  0.00000000000E+00 0. -1.
          1    1    5    5  503    0  0.16843977603E+02  0.16234936631E+03 -0.27212529660E+03  0.31732193963E+03  0.00000000000E+00 0. -1.
         -2    1    5    5    0  503  0.17279797766E+02  0.11282158080E+03 -0.87929195072E+02  0.14407929709E+03  0.00000000000E+00 0.  1.
         -1    1    6    6    0  502 -0.10465878346E+02 -0.20502827942E+02  0.61791838826E+01  0.23834489225E+02  0.00000000000E+00 0.  1.
<mgrwt>
<rscale>  0 0.14375074E+04</rscale>
<asrwt>0</asrwt>
<pdfrwt beam="1">  1        1 0.14834323E+00 0.14375074E+04</pdfrwt>
<pdfrwt beam="2">  1       -1 0.82426285E-01 0.14375074E+04</pdfrwt>
<totfact> 0.22975186E+01</totfact>
</mgrwt>
</event>
<event>
12    1  0.1097093E-007  0.1319179E+04  0.7818608E-02  0.9014493E-01
          2   -1    0    0  501    0  0.00000000000E+00  0.00000000000E+00  0.52637658508E+04  0.52637658508E+04  0.00000000000E+00 0.  1.
         -2   -1    0    0    0  501 -0.00000000000E+00 -0.00000000000E+00 -0.82651540151E+02  0.82651540151E+02  0.00000000000E+00 0. -1.
         23    2    1    2    0    0 -0.12836113064E+03  0.31525114860E+03  0.15348622047E+04  0.15749078697E+04  0.93128642292E+02 0.  0.
        254    2    1    2    0    0  0.12836113064E+03 -0.31525114860E+03  0.36462521059E+04  0.37715095213E+04  0.90181471619E+03 0.  0.
        -24    2    4    4    0    0  0.43772202464E+03  0.55191337280E+02  0.21877833000E+04  0.22332179647E+04  0.78867329384E+02 0.  0.
         24    2    4    4    0    0 -0.30936089399E+03 -0.37044248588E+03  0.14584688060E+04  0.15382915566E+04  0.79232928386E+02 0.  0.
         11    1    3    3    0    0 -0.13629851152E+03  0.30032873330E+03  0.13681535778E+04  0.14073446077E+04  0.00000000000E+00 0. -1.
        -11    1    3    3    0    0  0.79373808729E+01  0.14922415299E+02  0.16670862690E+03  0.16756326201E+03  0.00000000000E+00 0.  1.
          4    1    6    6  502    0 -0.30809949470E+03 -0.34796374561E+03  0.13579160490E+04  0.14352491293E+04  0.00000000000E+00 0. -1.
          1    1    5    5  503    0  0.39326832224E+03  0.63644729896E+02  0.18493715383E+04  0.18917943100E+04  0.00000000000E+00 0. -1.
         -2    1    5    5    0  503  0.44453702393E+02 -0.84533926160E+01  0.33841176169E+03  0.34142365465E+03  0.00000000000E+00 0.  1.
         -3    1    6    6    0  502 -0.12613992957E+01 -0.22478740273E+02  0.10055275698E+03  0.10304242733E+03  0.00000000000E+00 0.  1.
<mgrwt>
<rscale>  0 0.13191791E+04</rscale>
<asrwt>0</asrwt>
<pdfrwt beam="1">  1        2 0.80980987E+00 0.13191791E+04</pdfrwt>
<pdfrwt beam="2">  1       -2 0.12715626E-01 0.13191791E+04</pdfrwt>
<totfact> 0.72959393E-01</totfact>
</mgrwt>
</event>
<event>
12    1  0.1097093E-007  0.1849922E+04  0.7818608E-02  0.8680193E-01
          1   -1    0    0  501    0  0.00000000000E+00  0.00000000000E+00  0.44392515087E+04  0.44392515087E+04  0.00000000000E+00 0. -1.
         -1   -1    0    0    0  501 -0.00000000000E+00 -0.00000000000E+00 -0.19272461794E+03  0.19272461794E+03  0.00000000000E+00 0.  1.
         23    2    1    2    0    0 -0.38573733935E+03 -0.95107820636E+02  0.30766833748E+04  0.31035641403E+04  0.91054880268E+02 0.  0.
        254    2    1    2    0    0  0.38573733935E+03  0.95107820636E+02  0.11698435159E+04  0.15284119864E+04  0.89981695685E+03 0.  0.
        -24    2    4    4    0    0  0.48450105520E+03  0.74979133147E+02  0.12716050415E+04  0.13652295767E+04  0.80680062545E+02 0.  0.
         24    2    4    4    0    0 -0.98763715847E+02  0.20128687489E+02 -0.10176152564E+03  0.16318240967E+03  0.78189865708E+02 0.  0.
         13    1    3    3    0    0 -0.28317985601E+03 -0.70561840904E+02  0.25322759970E+04  0.25490373730E+04  0.00000000000E+00 0. -1.
        -13    1    3    3    0    0 -0.10255748334E+03 -0.24545979732E+02  0.54440737788E+03  0.55452676726E+03  0.00000000000E+00 0.  1.
          4    1    6    6  502    0 -0.10510468019E+03  0.88838200188E+01 -0.10605467991E+03  0.14957777639E+03  0.00000000000E+00 0. -1.
          1    1    5    5  503    0  0.47987722540E+03  0.83512084433E+02  0.12497193568E+04  0.13412885188E+04  0.00000000000E+00 0. -1.
         -2    1    5    5    0  503  0.46238297927E+01 -0.85329512866E+01  0.21885684718E+02  0.23941057938E+02  0.00000000000E+00 0.  1.
         -3    1    6    6    0  502  0.63409643457E+01  0.11244867471E+02  0.42931542792E+01  0.13604633289E+02  0.00000000000E+00 0.  1.
<mgrwt>
<rscale>  0 0.18499222E+04</rscale>
<asrwt>0</asrwt>
<pdfrwt beam="1">  1        1 0.68296169E+00 0.18499222E+04</pdfrwt>
<pdfrwt beam="2">  1       -1 0.29649945E-01 0.18499222E+04</pdfrwt>
<totfact> 0.36944193E-01</totfact>
</mgrwt>
</event>
<event>
12    1  0.1097093E-007  0.2060794E+04  0.7818608E-02  0.8578713E-01
          2   -1    0    0  501    0  0.00000000000E+00  0.00000000000E+00  0.60278376835E+03  0.60278376835E+03  0.00000000000E+00 0. -1.
         -2   -1    0    0    0  501 -0.00000000000E+00 -0.00000000000E+00 -0.17613579265E+04  0.17613579265E+04  0.00000000000E+00 0.  1.
         23    2    1    2    0    0  0.68519648404E+03  0.80403171598E+02  0.62421515332E+02  0.69868483739E+03  0.91132676226E+02 0.  0.
        254    2    1    2    0    0 -0.68519648404E+03 -0.80403171598E+02 -0.12209956735E+04  0.16654568575E+04  0.89830797487E+03 0.  0.
        -24    2    4    4    0    0 -0.64050709219E+03 -0.29593132981E+03 -0.12421816546E+04  0.14307592339E+04  0.78943241000E+02 0.  0.
         24    2    4    4    0    0 -0.44689391856E+02  0.21552815821E+03  0.21185981060E+02  0.23469762361E+03  0.78642227882E+02 0.  0.
         11    1    3    3    0    0  0.61953780378E+03  0.70865957099E+02  0.28647112245E+02  0.62423531719E+03  0.00000000000E+00 0. -1.
        -11    1    3    3    0    0  0.65658680268E+02  0.95372144990E+01  0.33774403087E+02  0.74449520206E+02  0.00000000000E+00 0.  1.
          4    1    6    6  502    0 -0.43950562185E+01  0.12657251129E+03  0.44602367760E+02  0.13427318549E+03  0.00000000000E+00 0. -1.
          3    1    5    5  503    0 -0.26776038912E+03 -0.10071747733E+03 -0.43797966784E+03  0.52313079212E+03  0.00000000000E+00 0. -1.
         -4    1    5    5    0  503 -0.37274670307E+03 -0.19521385248E+03 -0.80420198674E+03  0.90762844178E+03  0.00000000000E+00 0.  1.
         -3    1    6    6    0  502 -0.40294335637E+02  0.88955646925E+02 -0.23416386700E+02  0.10042443811E+03  0.00000000000E+00 0.  1.
<mgrwt>
<rscale>  0 0.20607940E+04</rscale>
<asrwt>0</asrwt>
<pdfrwt beam="1">  1        2 0.92735966E-01 0.20607940E+04</pdfrwt>
<pdfrwt beam="2">  1       -2 0.27097814E+00 0.20607940E+04</pdfrwt>
<totfact> 0.21800476E+00</totfact>
</mgrwt>
</event>
<event>
12    1  0.1097093E-007  0.2475038E+04  0.7818608E-02  0.8411933E-01
          2   -1    0    0  501    0  0.00000000000E+00  0.00000000000E+00  0.84242922237E+03  0.84242922237E+03  0.00000000000E+00 0. -1.
         -2   -1    0    0    0  501 -0.00000000000E+00 -0.00000000000E+00 -0.18179012452E+04  0.18179012452E+04  0.00000000000E+00 0.  1.
         23    2    1    2    0    0  0.36892330418E+03  0.14428542498E+03  0.64616541287E+03  0.76350927448E+03  0.92162808074E+02 0.  0.
        254    2    1    2    0    0 -0.36892330418E+03 -0.14428542498E+03 -0.16216374357E+04  0.18968211931E+04  0.90072192014E+03 0.  0.
        -24    2    4    4    0    0 -0.21519016993E+03  0.36857468920E+03 -0.83987362688E+03  0.94560086847E+03  0.81358358890E+02 0.  0.
         24    2    4    4    0    0 -0.15373313425E+03 -0.51286011419E+03 -0.78176380883E+03  0.95122032462E+03  0.83702329026E+02 0.  0.
         11    1    3    3    0    0  0.18004012736E+03  0.36996119654E+02  0.36029138087E+03  0.40446636381E+03  0.00000000000E+00 0. -1.
        -11    1    3    3    0    0  0.18888317682E+03  0.10728930533E+03  0.28587403201E+03  0.35904291067E+03  0.00000000000E+00 0.  1.
          4    1    6    6  502    0 -0.95490876830E+02 -0.41913867614E+03 -0.65092457686E+03  0.78006316549E+03  0.00000000000E+00 0. -1.
          1    1    5    5  503    0 -0.14637812417E+03  0.23084668875E+03 -0.45113879554E+03  0.52748740439E+03  0.00000000000E+00 0. -1.
         -2    1    5    5    0  503 -0.68812045757E+02  0.13772800045E+03 -0.38873483134E+03  0.41811346408E+03  0.00000000000E+00 0.  1.
         -3    1    6    6    0  502 -0.58242257420E+02 -0.93721438048E+02 -0.13083923197E+03  0.17115715913E+03  0.00000000000E+00 0.  1.
<mgrwt>
<rscale>  0 0.24750379E+04</rscale>
<asrwt>0</asrwt>
<pdfrwt beam="1">  1        2 0.12960450E+00 0.24750379E+04</pdfrwt>
<pdfrwt beam="2">  1       -2 0.27967711E+00 0.24750379E+04</pdfrwt>
<totfact> 0.12147487E+00</totfact>
</mgrwt>
</event>
<event>
12    1  0.1097093E-007  0.2913039E+04  0.7818608E-02  0.8269009E-01
          2   -1    0    0  501    0  0.00000000000E+00  0.00000000000E+00  0.21621960374E+04  0.21621960374E+04  0.00000000000E+00 0. -1.
         -2   -1    0    0    0  501 -0.00000000000E+00 -0.00000000000E+00 -0.98115484719E+03  0.98115484719E+03  0.00000000000E+00 0.  1.
         23    2    1    2    0    0  0.99507712262E+03 -0.82264235034E+03  0.26052677210E+03  0.13203094193E+04  0.91781519296E+02 0.  0.
        254    2    1    2    0    0 -0.99507712262E+03  0.82264235034E+03  0.92051441807E+03  0.18230414652E+04  0.89956349050E+03 0.  0.
        -24    2    4    4    0    0 -0.95449061128E+03  0.99535658623E+03  0.81152424155E+03  0.16019545149E+04  0.76808935437E+02 0.  0.
         24    2    4    4    0    0 -0.40586511344E+02 -0.17271423589E+03  0.10899017653E+03  0.22108695026E+03  0.74317621151E+02 0.  0.
         13    1    3    3    0    0  0.30388326926E+02 -0.10553014909E+02 -0.21633650898E+01  0.32241226489E+02  0.00000000000E+00 0. -1.
        -13    1    3    3    0    0  0.96468879570E+03 -0.81208933543E+03  0.26269013719E+03  0.12880681929E+04  0.00000000000E+00 0.  1.
          4    1    6    6  502    0 -0.59560011265E+02 -0.93641031486E+02  0.65623605917E+02  0.12892825669E+03  0.00000000000E+00 0. -1.
          3    1    5    5  503    0 -0.54126976554E+03  0.57498136410E+03  0.42123725650E+03  0.89499572871E+03  0.00000000000E+00 0. -1.
         -4    1    5    5    0  503 -0.41322084574E+03  0.42037522213E+03  0.39028698505E+03  0.70695878623E+03  0.00000000000E+00 0.  1.
         -3    1    6    6    0  502  0.18973499920E+02 -0.79073204405E+02  0.43366570612E+02  0.92158693571E+02  0.00000000000E+00 0.  1.
<mgrwt>
<rscale>  0 0.29130390E+04</rscale>
<asrwt>0</asrwt>
<pdfrwt beam="1">  1        2 0.33264554E+00 0.29130390E+04</pdfrwt>
<pdfrwt beam="2">  1       -2 0.15094690E+00 0.29130390E+04</pdfrwt>
<totfact> 0.13775524E+00</totfact>
</mgrwt>
</event>
<event>
12    1  0.1097093E-007  0.3250118E+04  0.7818608E-02  0.8175705E-01
         -1   -1    0    0    0  501 -0.00000000000E+00  0.00000000000E+00  0.82459993079E+03  0.82459993079E+03  0.00000000000E+00 0.  1.
          1   -1    0    0  501    0  0.00000000000E+00 -0.00000000000E+00 -0.32025428413E+04  0.32025428413E+04  0.00000000000E+00 0. -1.
         23    2    1    2    0    0  0.13532549059E+04 -0.21400593501E+03 -0.34929549368E+03  0.14167502997E+04  0.89870402010E+02 0.  0.
        254    2    1    2    0    0 -0.13532549059E+04  0.21400593501E+03 -0.20286474168E+04  0.26103924724E+04  0.90644422764E+03 0.  0.
        -24    2    4    4    0    0 -0.86271821013E+03 -0.28755774838E+03 -0.13611973303E+04  0.16389458446E+04  0.79455275687E+02 0.  0.
         24    2    4    4    0    0 -0.49053669575E+03  0.50156368339E+03 -0.66745008649E+03  0.97144662778E+03  0.77630884951E+02 0.  0.
         13    1    3    3    0    0  0.86119602038E+03 -0.10745371631E+03 -0.18717559168E+03  0.88782858075E+03  0.00000000000E+00 0. -1.
        -13    1    3    3    0    0  0.49205888550E+03 -0.10655221870E+03 -0.16211990200E+03  0.52892171891E+03  0.00000000000E+00 0.  1.
          4    1    6    6  502    0 -0.19058711163E+03  0.22278027412E+03 -0.23364598804E+03  0.37489324532E+03  0.00000000000E+00 0. -1.
          3    1    5    5  503    0 -0.35359165816E+03 -0.77866981593E+02 -0.55518164638E+03  0.66280991847E+03  0.00000000000E+00 0. -1.
         -4    1    5    5    0  503 -0.50912655197E+03 -0.20969076679E+03 -0.80601568393E+03  0.97613592616E+03  0.00000000000E+00 0.  1.
         -3    1    6    6    0  502 -0.29994958412E+03  0.27878340927E+03 -0.43380409845E+03  0.59655338247E+03  0.00000000000E+00 0.  1.
<mgrwt>
<rscale>  0 0.32501179E+04</rscale>
<asrwt>0</asrwt>
<pdfrwt beam="1">  1        1 0.49269891E+00 0.32501179E+04</pdfrwt>
<pdfrwt beam="2">  1       -1 0.12686152E+00 0.32501179E+04</pdfrwt>
<totfact> 0.18995462E-01</totfact>
</mgrwt>
</event>
<event>
12    1  0.1097093E-007  0.1335382E+04  0.7818608E-02  0.9001968E-01
         -4   -1    0    0    0  501 -0.00000000000E+00  0.00000000000E+00  0.29421851898E+03  0.29421851898E+03  0.00000000000E+00 0.  1.
          4   -1    0    0  501    0  0.00000000000E+00 -0.00000000000E+00 -0.15152396210E+04  0.15152396210E+04  0.00000000000E+00 0. -1.
         23    2    1    2    0    0  0.95728703091E+02 -0.33713827268E+03 -0.41422457887E+03  0.55019782212E+03  0.91156141971E+02 0.  0.
        254    2    1    2    0    0 -0.95728703091E+02  0.33713827268E+03 -0.80679652314E+03  0.12592603179E+04  0.90110472138E+03 0.  0.
        -24    2    4    4    0    0 -0.47141564782E+02  0.45893912093E+03 -0.31214971597E+02  0.46870757872E+03  0.76583131635E+02 0.  0.
         24    2    4    4    0    0 -0.48587138308E+02 -0.12180084825E+03 -0.77558155154E+03  0.79055273914E+03  0.79061581228E+02 0.  0.
         11    1    3    3    0    0  0.82993379450E+02 -0.31000656323E+03 -0.32788255897E+03  0.45880163770E+03  0.00000000000E+00 0. -1.
        -11    1    3    3    0    0  0.12735323641E+02 -0.27131709457E+02 -0.86342019900E+02  0.91396184421E+02  0.00000000000E+00 0.  1.
          2    1    6    6  502    0 -0.37236025279E+02 -0.17113056596E+02 -0.33820448546E+03  0.34067822394E+03  0.00000000000E+00 0. -1.
          1    1    5    5  503    0  0.34110640647E+01  0.27929038258E+03  0.10495492837E+01  0.27931318392E+03  0.00000000000E+00 0. -1.
         -2    1    5    5    0  503 -0.50552628847E+02  0.17964873835E+03 -0.32264520881E+02  0.18939439480E+03  0.00000000000E+00 0.  1.
         -1    1    6    6    0  502 -0.11351113029E+02 -0.10468779165E+03 -0.43737706608E+03  0.44987451519E+03  0.00000000000E+00 0.  1.
<mgrwt>
<rscale>  0 0.13353824E+04</rscale>
<asrwt>0</asrwt>
<pdfrwt beam="1">  1        4 0.23311379E+00 0.13353824E+04</pdfrwt>
<pdfrwt beam="2">  1       -4 0.45264387E-01 0.13353824E+04</pdfrwt>
<totfact> 0.74820786E-01</totfact>
</mgrwt>
</event>
<event>
12    1  0.1097093E-007  0.1683449E+04  0.7818608E-02  0.8770861E-01
         -2   -1    0    0    0  501 -0.00000000000E+00  0.00000000000E+00  0.11843914778E+04  0.11843914778E+04  0.00000000000E+00 0.  1.
          2   -1    0    0  501    0  0.00000000000E+00 -0.00000000000E+00 -0.59819756460E+03  0.59819756460E+03  0.00000000000E+00 0. -1.
         23    2    1    2    0    0 -0.13852981240E+03 -0.38809558098E+03 -0.24410465135E+03  0.48765198290E+03  0.91698891571E+02 0.  0.
        254    2    1    2    0    0  0.13852981240E+03  0.38809558098E+03  0.83029856455E+03  0.12949370595E+04  0.90424421085E+03 0.  0.
        -24    2    4    4    0    0  0.12397131342E+03  0.32218056516E+03  0.10196471963E+04  0.10795194041E+04  0.80700283693E+02 0.  0.
         24    2    4    4    0    0  0.14558498983E+02  0.65915015819E+02 -0.18934863170E+03  0.21541765544E+03  0.77428177979E+02 0.  0.
         13    1    3    3    0    0  0.84588424326E+01 -0.98676581956E+01  0.18775501359E+01  0.13131941520E+02  0.00000000000E+00 0.  1.
        -13    1    3    3    0    0 -0.14698865483E+03 -0.37822792278E+03 -0.24598220149E+03  0.47452004138E+03  0.00000000000E+00 0. -1.
          2    1    6    6  502    0  0.40147100123E+02  0.54562508530E+02 -0.16482004784E+03  0.17819793814E+03  0.00000000000E+00 0. -1.
          3    1    5    5  503    0  0.48634146983E+01  0.94399591637E+02  0.33979751391E+03  0.35269999456E+03  0.00000000000E+00 0. -1.
         -4    1    5    5    0  503  0.11910789872E+03  0.22778097352E+03  0.67984968234E+03  0.72681940950E+03  0.00000000000E+00 0.  1.
         -1    1    6    6    0  502 -0.25588601140E+02  0.11352507290E+02 -0.24528583862E+02  0.37219717306E+02  0.00000000000E+00 0.  1.
<mgrwt>
<rscale>  0 0.16834490E+04</rscale>
<asrwt>0</asrwt>
<pdfrwt beam="1">  1        2 0.92030395E-01 0.16834490E+04</pdfrwt>
<pdfrwt beam="2">  1       -2 0.18221407E+00 0.16834490E+04</pdfrwt>
<totfact> 0.82952707E+00</totfact>
</mgrwt>
</event>
<event>
12    1  0.1097093E-007  0.1072786E+04  0.7818608E-02  0.9232130E-01
          2   -1    0    0  501    0  0.00000000000E+00  0.00000000000E+00  0.70131678886E+03  0.70131678886E+03  0.00000000000E+00 0. -1.
         -2   -1    0    0    0  501 -0.00000000000E+00 -0.00000000000E+00 -0.41025295771E+03  0.41025295771E+03  0.00000000000E+00 0.  1.
         23    2    1    2    0    0 -0.11259702375E+03  0.65131885845E+02 -0.66193488406E+01  0.15951826358E+03  0.92097819337E+02 0.  0.
        254    2    1    2    0    0  0.11259702375E+03 -0.65131885845E+02  0.29768317999E+03  0.95205148298E+03  0.89491144718E+03 0.  0.
        -24    2    4    4    0    0 -0.28612796008E+03  0.11873189361E+02  0.42542016704E+03  0.51893135285E+03  0.79355203258E+02 0.  0.
         24    2    4    4    0    0  0.39872498382E+03 -0.77005075206E+02 -0.12773698705E+03  0.43312013013E+03  0.79780416991E+02 0.  0.
         11    1    3    3    0    0 -0.30202505084E+02 -0.17744092585E+02  0.19041049719E+02  0.39869859661E+02  0.00000000000E+00 0. -1.
        -11    1    3    3    0    0 -0.82394518664E+02  0.82875978430E+02 -0.25660398560E+02  0.11964840392E+03  0.00000000000E+00 0.  1.
          4    1    6    6  502    0  0.31946900088E+03 -0.91641502285E+02 -0.91267977528E+02  0.34465700514E+03  0.00000000000E+00 0. -1.
          1    1    5    5  503    0 -0.26469633079E+03  0.12738549278E+02  0.42031774869E+03  0.49688371681E+03  0.00000000000E+00 0. -1.
         -2    1    5    5    0  503 -0.21431629291E+02 -0.86535991745E+00  0.51024183489E+01  0.22047636038E+02  0.00000000000E+00 0.  1.
         -3    1    6    6    0  502  0.79255982940E+02  0.14636427079E+02 -0.36469009517E+02  0.88463124999E+02  0.00000000000E+00 0.  1.
<mgrwt>
<rscale>  0 0.10727857E+04</rscale>
<asrwt>0</asrwt>
<pdfrwt beam="1">  1        2 0.10789489E+00 0.10727857E+04</pdfrwt>
<pdfrwt beam="2">  1       -2 0.63115840E-01 0.10727857E+04</pdfrwt>
<totfact> 0.94572940E+01</totfact>
</mgrwt>
</event>
<event>
12    1  0.1097093E-007  0.3686380E+04  0.7818608E-02  0.8070987E-01
          2   -1    0    0  501    0  0.00000000000E+00  0.00000000000E+00  0.19982179324E+04  0.19982179324E+04  0.00000000000E+00 0. -1.
         -2   -1    0    0    0  501 -0.00000000000E+00 -0.00000000000E+00 -0.17001898569E+04  0.17001898569E+04  0.00000000000E+00 0.  1.
         23    2    1    2    0    0 -0.13862631361E+04 -0.82504531554E+03 -0.49431110116E+03  0.16899001484E+04  0.94835602166E+02 0.  0.
        254    2    1    2    0    0  0.13862631361E+04  0.82504531554E+03  0.79233917673E+03  0.20085076409E+04  0.89659149967E+03 0.  0.
        -24    2    4    4    0    0  0.18759831186E+01  0.35814136572E+03  0.53762646669E+02  0.36950120552E+03  0.73293666502E+02 0.  0.
         24    2    4    4    0    0  0.13843871530E+04  0.46690394982E+03  0.73857653006E+03  0.16390064354E+04  0.79496645666E+02 0.  0.
         11    1    3    3    0    0 -0.35734703861E+03 -0.24606500668E+03 -0.10091192474E+03  0.44545270239E+03  0.00000000000E+00 0.  1.
        -11    1    3    3    0    0 -0.10289160975E+04 -0.57898030886E+03 -0.39339917642E+03  0.12444474460E+04  0.00000000000E+00 0. -1.
          4    1    6    6  502    0  0.47580699447E+02  0.46786844121E+01  0.14356426775E+02  0.49919134983E+02  0.00000000000E+00 0. -1.
          1    1    5    5  503    0  0.35111110440E+02  0.16796569458E+03  0.12267085684E+02  0.17203414202E+03  0.00000000000E+00 0. -1.
         -2    1    5    5    0  503 -0.33235127322E+02  0.19017567115E+03  0.41495560985E+02  0.19746706350E+03  0.00000000000E+00 0.  1.
         -3    1    6    6    0  502  0.13368064536E+04  0.46222526541E+03  0.72422010328E+03  0.15890873004E+04  0.00000000000E+00 0.  1.
<mgrwt>
<rscale>  0 0.36863803E+04</rscale>
<asrwt>0</asrwt>
<pdfrwt beam="1">  1        2 0.30741814E+00 0.36863803E+04</pdfrwt>
<pdfrwt beam="2">  1       -2 0.26156767E+00 0.36863803E+04</pdfrwt>
<totfact> 0.29578162E-01</totfact>
</mgrwt>
</event>
<event>
12    1  0.1097093E-007  0.2208231E+04  0.7818608E-02  0.8515010E-01
         -2   -1    0    0    0  501 -0.00000000000E+00  0.00000000000E+00  0.63430834879E+03  0.63430834879E+03  0.00000000000E+00 0. -1.
          2   -1    0    0  501    0  0.00000000000E+00 -0.00000000000E+00 -0.19218899572E+04  0.19218899572E+04  0.00000000000E+00 0.  1.
         23    2    1    2    0    0 -0.72799719929E+03  0.42417684921E+03 -0.95652724422E+03  0.12780208218E+04  0.92124537488E+02 0.  0.
        254    2    1    2    0    0  0.72799719929E+03 -0.42417684921E+03 -0.33105436424E+03  0.12781774843E+04  0.90234958169E+03 0.  0.
        -24    2    4    4    0    0 -0.27109275306E+02  0.16137481734E+03 -0.25857380233E+03  0.31634585661E+03  0.80234314768E+02 0.  0.
         24    2    4    4    0    0  0.75510647460E+03 -0.58555166655E+03 -0.72480561915E+02  0.96183162764E+03  0.82523365791E+02 0.  0.
         13    1    3    3    0    0 -0.10730507303E+03  0.59698801183E+02 -0.19254252681E+03  0.22836582536E+03  0.00000000000E+00 0. -1.
        -13    1    3    3    0    0 -0.62069212626E+03  0.36447804802E+03 -0.76398471741E+03  0.10496549964E+04  0.00000000000E+00 0.  1.
          4    1    6    6  502    0  0.78916703272E+02 -0.62249634606E+02 -0.33367136921E+02  0.10590669899E+03  0.00000000000E+00 0. -1.
          1    1    5    5  503    0 -0.23624456835E+02  0.70737402036E+02 -0.18529242501E+03  0.19973777252E+03  0.00000000000E+00 0. -1.
         -2    1    5    5    0  503 -0.34848184713E+01  0.90637415303E+02 -0.73281377318E+02  0.11660808409E+03  0.00000000000E+00 0.  1.
         -3    1    6    6    0  502  0.67618977133E+03 -0.52330203194E+03 -0.39113424994E+02  0.85592492865E+03  0.00000000000E+00 0.  1.
<mgrwt>
<rscale>  0 0.22082308E+04</rscale>
<asrwt>0</asrwt>
<pdfrwt beam="1">  1        2 0.29567537E+00 0.22082308E+04</pdfrwt>
<pdfrwt beam="2">  1       -2 0.97585902E-01 0.22082308E+04</pdfrwt>
<totfact> 0.59017811E+00</totfact>
</mgrwt>
</event>
<event>
12    1  0.1097093E-007  0.2199076E+04  0.7818608E-02  0.8518813E-01
         -2   -1    0    0    0  501 -0.00000000000E+00  0.00000000000E+00  0.87295392096E+03  0.87295392096E+03  0.00000000000E+00 0.  1.
          2   -1    0    0  501    0  0.00000000000E+00 -0.00000000000E+00 -0.13849344389E+04  0.13849344389E+04  0.00000000000E+00 0. -1.
         23    2    1    2    0    0  0.16629426006E+03  0.32874372416E+03 -0.10671386189E+04  0.11326126463E+04  0.91106297981E+02 0.  0.
        254    2    1    2    0    0 -0.16629426006E+03 -0.32874372416E+03  0.55515810103E+03  0.11252757135E+04  0.90681789635E+03 0.  0.
        -24    2    4    4    0    0 -0.83419559627E+02 -0.57283294584E+03  0.94496517839E+02  0.59202916906E+03  0.80452087403E+02 0.  0.
         24    2    4    4    0    0 -0.82874700436E+02  0.24408922168E+03  0.46066158319E+03  0.53324654443E+03  0.75465348382E+02 0.  0.
         11    1    3    3    0    0  0.12835369270E+03  0.23582161917E+03 -0.88273573516E+03  0.92266401503E+03  0.00000000000E+00 0. -1.
        -11    1    3    3    0    0  0.37940567361E+02  0.92922104989E+02 -0.18440288378E+03  0.20994863132E+03  0.00000000000E+00 0.  1.
          2    1    6    6  502    0 -0.17795577956E+02  0.15311375788E+03  0.30274480977E+03  0.33972772229E+03  0.00000000000E+00 0. -1.
          3    1    5    5  503    0 -0.46740925435E+02 -0.43487177250E+03  0.39904732982E+02  0.43919307866E+03  0.00000000000E+00 0. -1.
         -4    1    5    5    0  503 -0.36678634192E+02 -0.13796117334E+03  0.54591784856E+02  0.15283609040E+03  0.00000000000E+00 0.  1.
         -1    1    6    6    0  502 -0.65079122480E+02  0.90975463803E+02  0.15791677342E+03  0.19351882214E+03  0.00000000000E+00 0.  1.
<mgrwt>
<rscale>  0 0.21990761E+04</rscale>
<asrwt>0</asrwt>
<pdfrwt beam="1">  1        2 0.21306684E+00 0.21990761E+04</pdfrwt>
<pdfrwt beam="2">  1       -2 0.13430060E+00 0.21990761E+04</pdfrwt>
<totfact> 0.53955626E+00</totfact>
</mgrwt>
</event>
<event>
12    1  0.1097093E-007  0.1873850E+04  0.7818608E-02  0.8667984E-01
         -2   -1    0    0    0  501 -0.00000000000E+00  0.00000000000E+00  0.55625473606E+03  0.55625473606E+03  0.00000000000E+00 0.  1.
          2   -1    0    0  501    0  0.00000000000E+00 -0.00000000000E+00 -0.15781043255E+04  0.15781043255E+04  0.00000000000E+00 0. -1.
         23    2    1    2    0    0 -0.42201401696E+03 -0.21390432917E+03 -0.99298347557E+03  0.11036561299E+04  0.90497391103E+02 0.  0.
        254    2    1    2    0    0  0.42201401696E+03  0.21390432917E+03 -0.28866113884E+02  0.10307029317E+04  0.91524007138E+03 0.  0.
        -24    2    4    4    0    0  0.39425131903E+03 -0.23809613116E+03 -0.23910371016E+03  0.52509355688E+03  0.80179729598E+02 0.  0.
         24    2    4    4    0    0  0.27762697928E+02  0.45200046033E+03  0.21023759628E+03  0.50560937478E+03  0.79786022852E+02 0.  0.
         11    1    3    3    0    0 -0.14501031168E+02  0.70826044694E+01 -0.18655362843E+02  0.24667098610E+02  0.00000000000E+00 0.  1.
        -11    1    3    3    0    0 -0.40751298579E+03 -0.22098693364E+03 -0.97432811273E+03  0.10789890313E+04  0.00000000000E+00 0. -1.
          2    1    6    6  502    0  0.48673704074E+02  0.27705701508E+03  0.10423718113E+03  0.29999184823E+03  0.00000000000E+00 0. -1.
          1    1    5    5  503    0  0.12614658932E+03 -0.10615021376E+03 -0.11765060803E+03  0.20254010825E+03  0.00000000000E+00 0. -1.
         -2    1    5    5    0  503  0.26810472971E+03 -0.13194591739E+03 -0.12145310213E+03  0.32255344863E+03  0.00000000000E+00 0.  1.
         -1    1    6    6    0  502 -0.20911006146E+02  0.17494344524E+03  0.10600041515E+03  0.20561752655E+03  0.00000000000E+00 0.  1.
<mgrwt>
<rscale>  0 0.18738495E+04</rscale>
<asrwt>0</asrwt>
<pdfrwt beam="1">  1        2 0.24278528E+00 0.18738495E+04</pdfrwt>
<pdfrwt beam="2">  1       -2 0.85577653E-01 0.18738495E+04</pdfrwt>
<totfact> 0.12773446E+01</totfact>
</mgrwt>
</event>
<event>
12    1  0.1097093E-007  0.1643443E+04  0.7818608E-02  0.8794295E-01
          1   -1    0    0  501    0  0.00000000000E+00  0.00000000000E+00  0.11367107402E+04  0.11367107402E+04  0.00000000000E+00 0.  1.
         -1   -1    0    0    0  501 -0.00000000000E+00 -0.00000000000E+00 -0.59401785993E+03  0.59401785993E+03  0.00000000000E+00 0. -1.
         23    2    1    2    0    0  0.39701619358E+03 -0.15066030987E+03 -0.20945500956E+03  0.48233477802E+03  0.91951346466E+02 0.  0.
        254    2    1    2    0    0 -0.39701619358E+03  0.15066030987E+03  0.75214788987E+03  0.12483938222E+04  0.90135470267E+03 0.  0.
        -24    2    4    4    0    0  0.19356063168E+03  0.29087891568E+03  0.14614269102E+03  0.38732520632E+03  0.81159519381E+02 0.  0.
         24    2    4    4    0    0 -0.59057682526E+03 -0.14021860581E+03  0.60600519885E+03  0.86106861583E+03  0.75859186613E+02 0.  0.
         11    1    3    3    0    0  0.24721983922E+03 -0.10668288970E+03 -0.17885418530E+03  0.32324558382E+03  0.00000000000E+00 0. -1.
        -11    1    3    3    0    0  0.14979635436E+03 -0.43977420168E+02 -0.30600824262E+02  0.15908919420E+03  0.00000000000E+00 0.  1.
          4    1    6    6  502    0 -0.24014691765E+02  0.92987673941E+01  0.26220035567E+02  0.36751364067E+02  0.00000000000E+00 0. -1.
          3    1    5    5  503    0  0.78478697676E+02  0.55736528284E+02  0.49714359346E+02  0.10833736243E+03  0.00000000000E+00 0. -1.
         -4    1    5    5    0  503  0.11508193400E+03  0.23514238740E+03  0.96428331676E+02  0.27898784388E+03  0.00000000000E+00 0.  1.
         -3    1    6    6    0  502 -0.56656213349E+03 -0.14951737321E+03  0.57978516328E+03  0.82431725177E+03  0.00000000000E+00 0.  1.
<mgrwt>
<rscale>  0 0.16434433E+04</rscale>
<asrwt>0</asrwt>
<pdfrwt beam="1">  1        1 0.17487857E+00 0.16434433E+04</pdfrwt>
<pdfrwt beam="2">  1       -1 0.91387364E-01 0.16434433E+04</pdfrwt>
<totfact> 0.13287638E+01</totfact>
</mgrwt>
</event>
<event>
12    1  0.1097093E-007  0.1975783E+04  0.7818608E-02  0.8618027E-01
          2   -1    0    0  501    0  0.00000000000E+00  0.00000000000E+00  0.17063086111E+04  0.17063086111E+04  0.00000000000E+00 0.  1.
         -2   -1    0    0    0  501 -0.00000000000E+00 -0.00000000000E+00 -0.57195361236E+03  0.57195361236E+03  0.00000000000E+00 0. -1.
         23    2    1    2    0    0 -0.26532308410E+03 -0.59522787322E+03 -0.48437942609E+02  0.65972062220E+03  0.90512457996E+02 0.  0.
        254    2    1    2    0    0  0.26532308410E+03  0.59522787322E+03  0.11827929413E+04  0.16185416012E+04  0.89218003390E+03 0.  0.
        -24    2    4    4    0    0 -0.30463220613E+03  0.22302862633E+03  0.62683650040E+03  0.73603723313E+03  0.79273331853E+02 0.  0.
         24    2    4    4    0    0  0.56995529023E+03  0.37219924689E+03  0.55595644089E+03  0.88250436809E+03  0.79656031036E+02 0.  0.
         11    1    3    3    0    0 -0.26910004157E+03 -0.56919154700E+03 -0.56696967798E+02  0.63214586585E+03  0.00000000000E+00 0. -1.
        -11    1    3    3    0    0  0.37769574676E+01 -0.26036326219E+02  0.82590251884E+01  0.27574756350E+02  0.00000000000E+00 0.  1.
          4    1    6    6  502    0  0.62172570291E+02  0.17582964237E+02  0.70016365302E+02  0.95272664170E+02  0.00000000000E+00 0. -1.
          1    1    5    5  503    0 -0.91368879200E+02  0.11447340423E+03  0.23515588663E+03  0.27703920910E+03  0.00000000000E+00 0. -1.
         -2    1    5    5    0  503 -0.21326332693E+03  0.10855522210E+03  0.39168061378E+03  0.45899802404E+03  0.00000000000E+00 0.  1.
         -3    1    6    6    0  502  0.50778271994E+03  0.35461628265E+03  0.48594007559E+03  0.78723170392E+03  0.00000000000E+00 0.  1.
<mgrwt>
<rscale>  0 0.19757828E+04</rscale>
<asrwt>0</asrwt>
<pdfrwt beam="1">  1        2 0.26250902E+00 0.19757828E+04</pdfrwt>
<pdfrwt beam="2">  1       -2 0.87992864E-01 0.19757828E+04</pdfrwt>
<totfact> 0.10080119E+01</totfact>
</mgrwt>
</event>
<event>
12    1  0.1097093E-007  0.1933705E+04  0.7818608E-02  0.8638259E-01
          2   -1    0    0  501    0  0.00000000000E+00  0.00000000000E+00  0.59433598563E+03  0.59433598563E+03  0.00000000000E+00 0. -1.
         -2   -1    0    0    0  501 -0.00000000000E+00 -0.00000000000E+00 -0.15728542429E+04  0.15728542429E+04  0.00000000000E+00 0.  1.
         23    2    1    2    0    0 -0.25607612899E+03 -0.15030636712E+03  0.40278493752E+03  0.50898261233E+03  0.93062376555E+02 0.  0.
        254    2    1    2    0    0  0.25607612899E+03  0.15030636712E+03 -0.13813031948E+04  0.16582076162E+04  0.86803628650E+03 0.  0.
        -24    2    4    4    0    0  0.52891707256E+03  0.10900275132E+03 -0.11993242696E+04  0.13177896240E+04  0.80968635506E+02 0.  0.
         24    2    4    4    0    0 -0.27284094357E+03  0.41303615797E+02 -0.18197892521E+03  0.34041799226E+03  0.81362835928E+02 0.  0.
         13    1    3    3    0    0 -0.12490326310E+03 -0.54192563611E+02  0.25582040840E+03  0.28979603248E+03  0.00000000000E+00 0. -1.
        -13    1    3    3    0    0 -0.13117286589E+03 -0.96113803510E+02  0.14696452911E+03  0.21918657986E+03  0.00000000000E+00 0.  1.
          2    1    6    6  502    0  0.25824414592E+01 -0.30508505758E+01 -0.14485446353E+02  0.15026804357E+02  0.00000000000E+00 0. -1.
          3    1    5    5  503    0  0.27508752388E+03  0.73582460708E+02 -0.71966160616E+03  0.77395113005E+03  0.00000000000E+00 0. -1.
         -2    1    5    5    0  503  0.25382954868E+03  0.35420290616E+02 -0.47966266347E+03  0.54383849394E+03  0.00000000000E+00 0.  1.
         -1    1    6    6    0  502 -0.27542338503E+03  0.44354466373E+02 -0.16749347885E+03  0.32539118790E+03  0.00000000000E+00 0.  1.
<mgrwt>
<rscale>  0 0.19337051E+04</rscale>
<asrwt>0</asrwt>
<pdfrwt beam="1">  1        2 0.91436307E-01 0.19337051E+04</pdfrwt>
<pdfrwt beam="2">  1       -2 0.24197757E+00 0.19337051E+04</pdfrwt>
<totfact> 0.33736198E+00</totfact>
</mgrwt>
</event>
<event>
12    1  0.1097093E-007  0.1201897E+04  0.7818608E-02  0.9111198E-01
         -1   -1    0    0    0  501 -0.00000000000E+00  0.00000000000E+00  0.16245679908E+03  0.16245679908E+03  0.00000000000E+00 0.  1.
          1   -1    0    0  501    0  0.00000000000E+00 -0.00000000000E+00 -0.22229863129E+04  0.22229863129E+04  0.00000000000E+00 0. -1.
         23    2    1    2    0    0 -0.17128761143E+03  0.10901411921E+03 -0.25127098080E+03  0.34202900935E+03  0.11235307482E+03 0.  0.
        254    2    1    2    0    0  0.17128761143E+03 -0.10901411921E+03 -0.18092585330E+04  0.20434141026E+04  0.92784763377E+03 0.  0.
        -24    2    4    4    0    0  0.46768729838E+03  0.59243901019E+02 -0.51597315906E+03  0.70350718434E+03  0.80329376225E+02 0.  0.
         24    2    4    4    0    0 -0.29639968694E+03 -0.16825802023E+03 -0.12932853740E+04  0.13399069183E+04  0.81240109357E+02 0.  0.
         13    1    3    3    0    0 -0.81325649394E+02 -0.10845034134E+02 -0.83280859742E+02  0.11690670474E+03  0.00000000000E+00 0. -1.
        -13    1    3    3    0    0 -0.89961962040E+02  0.11985915335E+03 -0.16799012106E+03  0.22512230460E+03  0.00000000000E+00 0.  1.
          4    1    6    6  502    0 -0.50302220330E+02 -0.67354691683E+02 -0.28634876582E+03  0.29843354964E+03  0.00000000000E+00 0. -1.
          1    1    5    5  503    0  0.39747739659E+03  0.71902354181E+02 -0.40827377020E+03  0.57432194871E+03  0.00000000000E+00 0. -1.
         -2    1    5    5    0  503  0.70209901785E+02 -0.12658453162E+02 -0.10769938886E+03  0.12918523563E+03  0.00000000000E+00 0.  1.
         -3    1    6    6    0  502 -0.24609746661E+03 -0.10090332855E+03 -0.10069366081E+04  0.10414733686E+04  0.00000000000E+00 0.  1.
<mgrwt>
<rscale>  0 0.12018972E+04</rscale>
<asrwt>0</asrwt>
<pdfrwt beam="1">  1        1 0.34199789E+00 0.12018972E+04</pdfrwt>
<pdfrwt beam="2">  1       -1 0.24993354E-01 0.12018972E+04</pdfrwt>
<totfact> 0.29243616E+01</totfact>
</mgrwt>
</event>
<event>
12    1  0.1097093E-007  0.1543081E+04  0.7818608E-02  0.8856299E-01
         -2   -1    0    0    0  501 -0.00000000000E+00  0.00000000000E+00  0.69232384427E+03  0.69232384427E+03  0.00000000000E+00 0.  1.
          2   -1    0    0  501    0  0.00000000000E+00 -0.00000000000E+00 -0.85982159110E+03  0.85982159110E+03  0.00000000000E+00 0. -1.
         23    2    1    2    0    0  0.15721907042E+03 -0.25798271394E+03 -0.47499992876E+03  0.57015087601E+03  0.90411129233E+02 0.  0.
        254    2    1    2    0    0 -0.15721907042E+03  0.25798271394E+03  0.30750218193E+03  0.98199455936E+03  0.88231672653E+03 0.  0.
        -24    2    4    4    0    0 -0.45884929031E+03  0.37611356185E+03  0.20625738137E+03  0.63327414002E+03  0.80560203703E+02 0.  0.
         24    2    4    4    0    0  0.30163021989E+03 -0.11813084791E+03  0.10124480056E+03  0.34872041934E+03  0.80123245341E+02 0.  0.
         11    1    3    3    0    0  0.26044075675E+02 -0.72889443838E+01 -0.17449243648E+02  0.32185380095E+02  0.00000000000E+00 0.  1.
        -11    1    3    3    0    0  0.13117499475E+03 -0.25069376955E+03 -0.45755068512E+03  0.53796549591E+03  0.00000000000E+00 0. -1.
          2    1    6    6  502    0  0.10043284104E+03 -0.67576774796E+02  0.67326705215E+02  0.13851448042E+03  0.00000000000E+00 0. -1.
          1    1    5    5  503    0 -0.35636034054E+03  0.29039848290E+03  0.12308259478E+03  0.47589210576E+03  0.00000000000E+00 0. -1.
         -2    1    5    5    0  503 -0.10248894977E+03  0.85715078941E+02  0.83174786598E+02  0.15738203426E+03  0.00000000000E+00 0.  1.
         -1    1    6    6    0  502  0.20119737885E+03 -0.50554073114E+02  0.33918095345E+02  0.21020593891E+03  0.00000000000E+00 0.  1.
<mgrwt>
<rscale>  0 0.15430813E+04</rscale>
<asrwt>0</asrwt>
<pdfrwt beam="1">  1        2 0.13228024E+00 0.15430813E+04</pdfrwt>
<pdfrwt beam="2">  1       -2 0.10651136E+00 0.15430813E+04</pdfrwt>
<totfact> 0.21373428E+01</totfact>
</mgrwt>
</event>
<event>
12    1  0.1097093E-007  0.1567704E+04  0.7818608E-02  0.8840638E-01
         -2   -1    0    0    0  501 -0.00000000000E+00  0.00000000000E+00  0.67309760763E+03  0.67309760763E+03  0.00000000000E+00 0.  1.
          2   -1    0    0  501    0  0.00000000000E+00 -0.00000000000E+00 -0.91283002848E+03  0.91283002848E+03  0.00000000000E+00 0. -1.
         23    2    1    2    0    0 -0.33708707644E+03 -0.28526168612E+03  0.19707621894E+03  0.49267047099E+03  0.94250889882E+02 0.  0.
        254    2    1    2    0    0  0.33708707644E+03  0.28526168612E+03 -0.43680863978E+03  0.10932571651E+04  0.89967078124E+03 0.  0.
        -24    2    4    4    0    0  0.45848443094E+03 -0.15575512809E+03 -0.38928357584E+03  0.62611159167E+03  0.77500899715E+02 0.  0.
         24    2    4    4    0    0 -0.12139735450E+03  0.44101681420E+03 -0.47525063942E+02  0.46714557345E+03  0.82056121056E+02 0.  0.
         11    1    3    3    0    0 -0.10643829295E+03 -0.12475290322E+03  0.11373738177E+03  0.19957101262E+03  0.00000000000E+00 0.  1.
        -11    1    3    3    0    0 -0.23064878350E+03 -0.16050878290E+03  0.83338837170E+02  0.29309945837E+03  0.00000000000E+00 0. -1.
          4    1    6    6  502    0 -0.45625126428E+02  0.78027705148E+02  0.13350577493E+02  0.91368555049E+02  0.00000000000E+00 0. -1.
          3    1    5    5  503    0  0.17897835067E+03 -0.28418587253E+02 -0.17226987149E+03  0.25003554694E+03  0.00000000000E+00 0. -1.
         -4    1    5    5    0  503  0.27950608027E+03 -0.12733654083E+03 -0.21701370435E+03  0.37607604472E+03  0.00000000000E+00 0.  1.
         -3    1    6    6    0  502 -0.75772228073E+02  0.36298910906E+03 -0.60875641435E+02  0.37577701840E+03  0.00000000000E+00 0.  1.
<mgrwt>
<rscale>  0 0.15677037E+04</rscale>
<asrwt>0</asrwt>
<pdfrwt beam="1">  1        2 0.14043539E+00 0.15677037E+04</pdfrwt>
<pdfrwt beam="2">  1       -2 0.10355348E+00 0.15677037E+04</pdfrwt>
<totfact> 0.21001259E+01</totfact>
</mgrwt>
</event>
<event>
12    1  0.1097093E-007  0.2043624E+04  0.7818608E-02  0.8586493E-01
         -2   -1    0    0    0  501 -0.00000000000E+00  0.00000000000E+00  0.43675392042E+03  0.43675392042E+03  0.00000000000E+00 0.  1.
          2   -1    0    0  501    0  0.00000000000E+00 -0.00000000000E+00 -0.23905894767E+04  0.23905894767E+04  0.00000000000E+00 0. -1.
         23    2    1    2    0    0 -0.52354088048E+03 -0.62770001242E+03 -0.72584493407E+03  0.10968119501E+04  0.89684036508E+02 0.  0.
        254    2    1    2    0    0  0.52354088048E+03  0.62770001242E+03 -0.12279906222E+04  0.17305314470E+04  0.90480703015E+03 0.  0.
        -24    2    4    4    0    0  0.29306959814E+03  0.83005304018E+03 -0.76556834042E+03  0.11693181414E+04  0.79575078411E+02 0.  0.
         24    2    4    4    0    0  0.23047128234E+03 -0.20235302776E+03 -0.46242228173E+03  0.56121330558E+03  0.84037181601E+02 0.  0.
         13    1    3    3    0    0 -0.30226742150E+03 -0.32358606678E+03 -0.34270427383E+03  0.55992834901E+03  0.00000000000E+00 0. -1.
        -13    1    3    3    0    0 -0.22127345898E+03 -0.30411394563E+03 -0.38314066024E+03  0.53688360108E+03  0.00000000000E+00 0.  1.
          4    1    6    6  502    0  0.11303220646E+03 -0.15182167587E+03 -0.29617724273E+03  0.35149261738E+03  0.00000000000E+00 0. -1.
          1    1    5    5  503    0  0.26662709151E+03  0.66096047672E+03 -0.61662662639E+03  0.94243681703E+03  0.00000000000E+00 0. -1.
         -2    1    5    5    0  503  0.26442506624E+02  0.16909256346E+03 -0.14894171403E+03  0.22688132438E+03  0.00000000000E+00 0.  1.
         -3    1    6    6    0  502  0.11743907588E+03 -0.50531351898E+02 -0.16624503900E+03  0.20972068820E+03  0.00000000000E+00 0.  1.
<mgrwt>
<rscale>  0 0.20436236E+04</rscale>
<asrwt>0</asrwt>
<pdfrwt beam="1">  1        2 0.36778300E+00 0.20436236E+04</pdfrwt>
<pdfrwt beam="2">  1       -2 0.67192910E-01 0.20436236E+04</pdfrwt>
<totfact> 0.75744412E+00</totfact>
</mgrwt>
</event>
<event>
12    1  0.1097093E-007  0.1798031E+04  0.7818608E-02  0.8707347E-01
          1   -1    0    0  501    0  0.00000000000E+00  0.00000000000E+00  0.17906560358E+04  0.17906560358E+04  0.00000000000E+00 0. -1.
         -1   -1    0    0    0  501 -0.00000000000E+00 -0.00000000000E+00 -0.45135904528E+03  0.45135904528E+03  0.00000000000E+00 0.  1.
         23    2    1    2    0    0 -0.40025084844E+03  0.91516588979E+02 -0.15355682963E+03  0.44766563925E+03  0.90822887552E+02 0.  0.
        254    2    1    2    0    0  0.40025084844E+03 -0.91516588979E+02  0.14928538201E+04  0.17943494418E+04  0.90691860899E+03 0.  0.
        -24    2    4    4    0    0  0.19679082556E+03  0.89394187496E+02  0.14926286846E+04  0.15101849083E+04  0.77460423075E+02 0.  0.
         24    2    4    4    0    0  0.20346002288E+03 -0.18091077647E+03  0.22513550227E+00  0.28416453356E+03  0.81392514979E+02 0.  0.
         13    1    3    3    0    0 -0.20672992193E+03  0.12654687302E+02 -0.10879639926E+03  0.23395311117E+03  0.00000000000E+00 0. -1.
        -13    1    3    3    0    0 -0.19352092651E+03  0.78861901677E+02 -0.44760430373E+02  0.21371252808E+03  0.00000000000E+00 0.  1.
          2    1    6    6  502    0  0.20892728416E+03 -0.16715876924E+03 -0.70780335405E+01  0.26766165724E+03  0.00000000000E+00 0. -1.
          1    1    5    5  503    0  0.17842829566E+03  0.95651874102E+02  0.14386762177E+04  0.14528507139E+04  0.00000000000E+00 0. -1.
         -2    1    5    5    0  503  0.18362529901E+02 -0.62576866056E+01  0.53952466974E+02  0.57334194323E+02  0.00000000000E+00 0.  1.
         -1    1    6    6    0  502 -0.54672612760E+01 -0.13752007233E+02  0.73031690428E+01  0.16502876321E+02  0.00000000000E+00 0.  1.
<mgrwt>
<rscale>  0 0.17980309E+04</rscale>
<asrwt>0</asrwt>
<pdfrwt beam="1">  1        1 0.27548554E+00 0.17980309E+04</pdfrwt>
<pdfrwt beam="2">  1       -1 0.69439854E-01 0.17980309E+04</pdfrwt>
<totfact> 0.81836244E+00</totfact>
</mgrwt>
</event>
<event>
12    1  0.1097093E-007  0.1720713E+04  0.7818608E-02  0.8749639E-01
          2   -1    0    0  501    0  0.00000000000E+00  0.00000000000E+00  0.73465840856E+03  0.73465840856E+03  0.00000000000E+00 0. -1.
         -2   -1    0    0    0  501 -0.00000000000E+00 -0.00000000000E+00 -0.10075606271E+04  0.10075606271E+04  0.00000000000E+00 0.  1.
         23    2    1    2    0    0  0.32878849652E+03  0.92521514708E+02  0.42587456823E+03  0.55392069267E+03  0.93791682863E+02 0.  0.
        254    2    1    2    0    0 -0.32878849652E+03 -0.92521514708E+02 -0.69877678680E+03  0.11882983430E+04  0.89838847284E+03 0.  0.
        -24    2    4    4    0    0 -0.33690554451E+03 -0.10135104053E+03 -0.90091226718E+03  0.97042905279E+03  0.79449694790E+02 0.  0.
         24    2    4    4    0    0  0.81170479842E+01  0.88295258263E+01  0.20213548038E+03  0.21786929023E+03  0.80401667918E+02 0.  0.
         11    1    3    3    0    0  0.30284317281E+03  0.63739784362E+02  0.40560891872E+03  0.51019147619E+03  0.00000000000E+00 0. -1.
        -11    1    3    3    0    0  0.25945323711E+02  0.28781730346E+02  0.20265649509E+02  0.43729216482E+02  0.00000000000E+00 0.  1.
          2    1    6    6  502    0 -0.10140220274E+02  0.13900122860E+02  0.25586136348E+01  0.17394941404E+02  0.00000000000E+00 0. -1.
          3    1    5    5  503    0 -0.22190628511E+03 -0.31892373438E+02 -0.61316549750E+03  0.65286403652E+03  0.00000000000E+00 0. -1.
         -4    1    5    5    0  503 -0.11499925940E+03 -0.69458667096E+02 -0.28774676968E+03  0.31756501627E+03  0.00000000000E+00 0.  1.
         -1    1    6    6    0  502  0.18257268258E+02 -0.50705970335E+01  0.19957686675E+03  0.20047434883E+03  0.00000000000E+00 0.  1.
<mgrwt>
<rscale>  0 0.17207125E+04</rscale>
<asrwt>0</asrwt>
<pdfrwt beam="1">  1        2 0.11302437E+00 0.17207125E+04</pdfrwt>
<pdfrwt beam="2">  1       -2 0.15500933E+00 0.17207125E+04</pdfrwt>
<totfact> 0.10038145E+01</totfact>
</mgrwt>
</event>
<event>
12    1  0.1097093E-007  0.2104249E+04  0.7818608E-02  0.8559374E-01
         -1   -1    0    0    0  501 -0.00000000000E+00  0.00000000000E+00  0.14141855169E+04  0.14141855169E+04  0.00000000000E+00 0.  1.
          1   -1    0    0  501    0  0.00000000000E+00 -0.00000000000E+00 -0.78275844388E+03  0.78275844388E+03  0.00000000000E+00 0. -1.
         23    2    1    2    0    0  0.52995923374E+03 -0.40130087074E+02  0.96029307590E+03  0.11013111267E+04  0.90863594719E+02 0.  0.
        254    2    1    2    0    0 -0.52995923374E+03  0.40130087074E+02 -0.32886600289E+03  0.10956328341E+04  0.89988401804E+03 0.  0.
        -24    2    4    4    0    0 -0.43263961620E+03  0.44187570799E+03 -0.19522741940E+03  0.65333134870E+03  0.79353179422E+02 0.  0.
         24    2    4    4    0    0 -0.97319617542E+02 -0.40174562092E+03 -0.13363858349E+03  0.44230148538E+03  0.83070338169E+02 0.  0.
         11    1    3    3    0    0  0.31158898862E+03  0.11327726320E+02  0.61521002017E+03  0.68970963755E+03  0.00000000000E+00 0. -1.
        -11    1    3    3    0    0  0.21837024513E+03 -0.51457813394E+02  0.34508305572E+03  0.41160148914E+03  0.00000000000E+00 0.  1.
          4    1    6    6  502    0 -0.31494671973E+02 -0.27518226862E+03 -0.10836406546E+03  0.29742220161E+03  0.00000000000E+00 0. -1.
          1    1    5    5  503    0 -0.27124018125E+03  0.29964339062E+03 -0.91035436424E+02  0.41430043223E+03  0.00000000000E+00 0. -1.
         -2    1    5    5    0  503 -0.16139943495E+03  0.14223231738E+03 -0.10419198298E+03  0.23903091647E+03  0.00000000000E+00 0.  1.
         -3    1    6    6    0  502 -0.65824945569E+02 -0.12656335230E+03 -0.25274518032E+02  0.14487928377E+03  0.00000000000E+00 0.  1.
<mgrwt>
<rscale>  0 0.21042487E+04</rscale>
<asrwt>0</asrwt>
<pdfrwt beam="1">  1        1 0.12042438E+00 0.21042487E+04</pdfrwt>
<pdfrwt beam="2">  1       -1 0.21756700E+00 0.21042487E+04</pdfrwt>
<totfact> 0.24048530E+00</totfact>
</mgrwt>
</event>
<event>
12    1  0.1097093E-007  0.2115759E+04  0.7818608E-02  0.8554333E-01
          1   -1    0    0  501    0  0.00000000000E+00  0.00000000000E+00  0.17028930974E+04  0.17028930974E+04  0.00000000000E+00 0. -1.
         -1   -1    0    0    0  501 -0.00000000000E+00 -0.00000000000E+00 -0.65718112732E+03  0.65718112732E+03  0.00000000000E+00 0.  1.
         23    2    1    2    0    0  0.47690422532E+03 -0.92012356624E+02  0.12227364577E+04  0.13187961001E+04  0.90745770591E+02 0.  0.
        254    2    1    2    0    0 -0.47690422532E+03  0.92012356624E+02 -0.17702448764E+03  0.10412781245E+04  0.90389078406E+03 0.  0.
        -24    2    4    4    0    0 -0.58073724306E+03  0.38561014104E+03 -0.87684932413E+02  0.70728572303E+03  0.81323553027E+02 0.  0.
         24    2    4    4    0    0  0.10383301775E+03 -0.29359778441E+03 -0.89339555232E+02  0.33399240151E+03  0.81169043043E+02 0.  0.
         11    1    3    3    0    0  0.10769974006E+02 -0.19609576514E+02  0.53850553648E+02  0.58313034215E+02  0.00000000000E+00 0.  1.
        -11    1    3    3    0    0  0.46613425131E+03 -0.72402780110E+02  0.11688859040E+04  0.12604830659E+04  0.00000000000E+00 0. -1.
          4    1    6    6  502    0  0.70286658646E+02 -0.21050032459E+03 -0.10062383573E+03  0.24367141267E+03  0.00000000000E+00 0. -1.
          3    1    5    5  503    0 -0.45419866799E+03  0.25918599724E+03 -0.63654186781E+02  0.52680704880E+03  0.00000000000E+00 0. -1.
         -4    1    5    5    0  503 -0.12653857508E+03  0.12642414380E+03 -0.24030745632E+02  0.18047867423E+03  0.00000000000E+00 0.  1.
         -3    1    6    6    0  502  0.33546359100E+02 -0.83097459819E+02  0.11284280498E+02  0.90320988832E+02  0.00000000000E+00 0.  1.
<mgrwt>
<rscale>  0 0.21157592E+04</rscale>
<asrwt>0</asrwt>
<pdfrwt beam="1">  1        1 0.26198355E+00 0.21157592E+04</pdfrwt>
<pdfrwt beam="2">  1       -1 0.10110479E+00 0.21157592E+04</pdfrwt>
<totfact> 0.40490684E+00</totfact>
</mgrwt>
</event>
<event>
12    1  0.1097093E-007  0.1428639E+04  0.7818608E-02  0.8933345E-01
          2   -1    0    0  501    0  0.00000000000E+00  0.00000000000E+00  0.31682114914E+04  0.31682114914E+04  0.00000000000E+00 0. -1.
         -2   -1    0    0    0  501 -0.00000000000E+00 -0.00000000000E+00 -0.16105370413E+03  0.16105370413E+03  0.00000000000E+00 0.  1.
         23    2    1    2    0    0  0.16577617690E+03 -0.40101622032E+03  0.10494715062E+04  0.11393357887E+04  0.91650680647E+02 0.  0.
        254    2    1    2    0    0 -0.16577617690E+03  0.40101622032E+03  0.19576862811E+04  0.21899294068E+04  0.88031783015E+03 0.  0.
        -24    2    4    4    0    0 -0.30039124030E+03 -0.19291479016E+03  0.80293771020E+03  0.88199776134E+03  0.75895131916E+02 0.  0.
         24    2    4    4    0    0  0.13461506340E+03  0.59393101048E+03  0.11547485709E+04  0.13079316455E+04  0.79785129299E+02 0.  0.
         13    1    3    3    0    0 -0.76015918229E+01 -0.20884904481E+02  0.92552673728E+02  0.95183826607E+02  0.00000000000E+00 0. -1.
        -13    1    3    3    0    0  0.17337776872E+03 -0.38013131584E+03  0.95691883248E+03  0.10441519621E+04  0.00000000000E+00 0.  1.
          2    1    6    6  502    0  0.57331799936E+02  0.11251879262E+03  0.22032957679E+03  0.25395380759E+03  0.00000000000E+00 0. -1.
          3    1    5    5  503    0 -0.31498806817E+01  0.62722131182E+01  0.19287730718E+02  0.20525081290E+02  0.00000000000E+00 0. -1.
         -4    1    5    5    0  503 -0.29724135962E+03 -0.19918700328E+03  0.78364997948E+03  0.86147268005E+03  0.00000000000E+00 0.  1.
         -1    1    6    6    0  502  0.77283263468E+02  0.48141221786E+03  0.93441899407E+03  0.10539778379E+04  0.00000000000E+00 0.  1.
<mgrwt>
<rscale>  0 0.14286388E+04</rscale>
<asrwt>0</asrwt>
<pdfrwt beam="1">  1        2 0.48741711E+00 0.14286388E+04</pdfrwt>
<pdfrwt beam="2">  1       -2 0.24777495E-01 0.14286388E+04</pdfrwt>
<totfact> 0.19472209E+01</totfact>
</mgrwt>
</event>
<event>
12    1  0.1097093E-007  0.1189744E+04  0.7818608E-02  0.9121882E-01
         -2   -1    0    0    0  501 -0.00000000000E+00  0.00000000000E+00  0.22447026650E+03  0.22447026650E+03  0.00000000000E+00 0.  1.
          2   -1    0    0  501    0  0.00000000000E+00 -0.00000000000E+00 -0.15764779857E+04  0.15764779857E+04  0.00000000000E+00 0. -1.
         23    2    1    2    0    0  0.89061653504E+02 -0.19881638950E+03 -0.13180112877E+03  0.27058582265E+03  0.91570819657E+02 0.  0.
        254    2    1    2    0    0 -0.89061653504E+02  0.19881638950E+03 -0.12202065905E+04  0.15303624296E+04  0.89757735469E+03 0.  0.
        -24    2    4    4    0    0 -0.41072383680E+03 -0.13301211117E+03 -0.72867548570E+03  0.85114144466E+03  0.84187312154E+02 0.  0.
         24    2    4    4    0    0  0.32166218330E+03  0.33182850067E+03 -0.49153110477E+03  0.67922098494E+03  0.78495894173E+02 0.  0.
         13    1    3    3    0    0  0.74102600889E+02 -0.19292097482E+03 -0.89275061229E+02  0.22512159946E+03  0.00000000000E+00 0.  1.
        -13    1    3    3    0    0  0.14959052614E+02 -0.58954146758E+01 -0.42526067542E+02  0.45464223186E+02  0.00000000000E+00 0. -1.
          4    1    6    6  502    0  0.22703019410E+03  0.27697002728E+03 -0.35480415639E+03  0.50412408634E+03  0.00000000000E+00 0. -1.
          1    1    5    5  503    0 -0.26600076091E+03 -0.96636588671E+02 -0.54837559123E+03  0.61709871506E+03  0.00000000000E+00 0. -1.
         -2    1    5    5    0  503 -0.14472307590E+03 -0.36375522498E+02 -0.18029989447E+03  0.23404272960E+03  0.00000000000E+00 0.  1.
         -3    1    6    6    0  502  0.94631989202E+02  0.54858473392E+02 -0.13672694839E+03  0.17509689860E+03  0.00000000000E+00 0.  1.
<mgrwt>
<rscale>  0 0.11897436E+04</rscale>
<asrwt>0</asrwt>
<pdfrwt beam="1">  1        2 0.24253508E+00 0.11897436E+04</pdfrwt>
<pdfrwt beam="2">  1       -2 0.34533886E-01 0.11897436E+04</pdfrwt>
<totfact> 0.89173192E+01</totfact>
</mgrwt>
</event>
<event>
12    1  0.1097093E-007  0.1638870E+04  0.7818608E-02  0.8797018E-01
          2   -1    0    0  501    0  0.00000000000E+00  0.00000000000E+00  0.68137588398E+03  0.68137588398E+03  0.00000000000E+00 0. -1.
         -2   -1    0    0    0  501 -0.00000000000E+00 -0.00000000000E+00 -0.98546692410E+03  0.98546692410E+03  0.00000000000E+00 0.  1.
         23    2    1    2    0    0 -0.55718030587E+03 -0.59271036271E+02 -0.15986543665E+03  0.59130080367E+03  0.10058197451E+03 0.  0.
        254    2    1    2    0    0  0.55718030587E+03  0.59271036271E+02 -0.14422560347E+03  0.10755420044E+04  0.90665684223E+03 0.  0.
        -24    2    4    4    0    0  0.63884081429E+03  0.16611302017E+03  0.20261220222E+03  0.69485939234E+03  0.77889339181E+02 0.  0.
         24    2    4    4    0    0 -0.81660508418E+02 -0.10684198390E+03 -0.34683780569E+03  0.38068261207E+03  0.80864946154E+02 0.  0.
         11    1    3    3    0    0 -0.40053905438E+02 -0.31798725161E+02 -0.19767814675E+02  0.54829196234E+02  0.00000000000E+00 0. -1.
        -11    1    3    3    0    0 -0.51712640043E+03 -0.27472311111E+02 -0.14009762198E+03  0.53647160744E+03  0.00000000000E+00 0.  1.
          2    1    6    6  502    0 -0.19299904459E+02 -0.12063669850E+01 -0.13101432700E+03  0.13243374009E+03  0.00000000000E+00 0. -1.
          1    1    5    5  503    0  0.53421571557E+03  0.10942738953E+03  0.17503625660E+03  0.57271151155E+03  0.00000000000E+00 0. -1.
         -2    1    5    5    0  503  0.10462509872E+03  0.56685630641E+02  0.27575945621E+02  0.12214788079E+03  0.00000000000E+00 0.  1.
         -1    1    6    6    0  502 -0.62360603958E+02 -0.10563561692E+03 -0.21582347869E+03  0.24824887198E+03  0.00000000000E+00 0.  1.
<mgrwt>
<rscale>  0 0.16388696E+04</rscale>
<asrwt>0</asrwt>
<pdfrwt beam="1">  1        2 0.10482706E+00 0.16388696E+04</pdfrwt>
<pdfrwt beam="2">  1       -2 0.15161030E+00 0.16388696E+04</pdfrwt>
<totfact> 0.11796678E+01</totfact>
</mgrwt>
</event>
<event>
12    1  0.1097093E-007  0.1519513E+04  0.7818608E-02  0.8871580E-01
          1   -1    0    0  501    0  0.00000000000E+00  0.00000000000E+00  0.19608817890E+04  0.19608817890E+04  0.00000000000E+00 0. -1.
         -1   -1    0    0    0  501 -0.00000000000E+00 -0.00000000000E+00 -0.29437271688E+03  0.29437271688E+03  0.00000000000E+00 0.  1.
         23    2    1    2    0    0 -0.58459820687E+02 -0.39348053457E+03  0.98401101764E+03  0.10653772846E+04  0.92231198862E+02 0.  0.
        254    2    1    2    0    0  0.58459820687E+02  0.39348053457E+03  0.68249805449E+03  0.11898772213E+04  0.88980881405E+03 0.  0.
        -24    2    4    4    0    0  0.17036210119E+03  0.65198911059E+03  0.52217469526E+03  0.85608392721E+03  0.78103983320E+02 0.  0.
         24    2    4    4    0    0 -0.11190228050E+03 -0.25850857601E+03  0.16032335923E+03  0.33379329405E+03  0.79784581085E+02 0.  0.
         11    1    3    3    0    0  0.25298955939E+02 -0.83069234438E+02  0.20780767797E+03  0.22522114889E+03  0.00000000000E+00 0.  1.
        -11    1    3    3    0    0 -0.83758776626E+02 -0.31041130014E+03  0.77620333967E+03  0.84015613574E+03  0.00000000000E+00 0. -1.
          4    1    6    6  502    0 -0.97043927156E+02 -0.24951568666E+03  0.12722502777E+03  0.29641492772E+03  0.00000000000E+00 0. -1.
          3    1    5    5  503    0  0.46501044111E+02  0.27484185503E+03  0.25317556166E+03  0.37656109386E+03  0.00000000000E+00 0. -1.
         -2    1    5    5    0  503  0.12386105708E+03  0.37714725556E+03  0.26899913360E+03  0.47952283336E+03  0.00000000000E+00 0.  1.
         -3    1    6    6    0  502 -0.14858353348E+02 -0.89928893563E+01  0.33098331465E+02  0.37378366322E+02  0.00000000000E+00 0.  1.
<mgrwt>
<rscale>  0 0.15195132E+04</rscale>
<asrwt>0</asrwt>
<pdfrwt beam="1">  1        1 0.30167411E+00 0.15195132E+04</pdfrwt>
<pdfrwt beam="2">  1       -1 0.45288112E-01 0.15195132E+04</pdfrwt>
<totfact> 0.14813471E+01</totfact>
</mgrwt>
</event>
<event>
12    1  0.1097093E-007  0.3207229E+04  0.7818608E-02  0.8186911E-01
         -2   -1    0    0    0  501 -0.00000000000E+00  0.00000000000E+00  0.81157471154E+03  0.81157471154E+03  0.00000000000E+00 0. -1.
          2   -1    0    0  501    0  0.00000000000E+00 -0.00000000000E+00 -0.31686289676E+04  0.31686289676E+04  0.00000000000E+00 0.  1.
         23    2    1    2    0    0 -0.13947952471E+04 -0.42253032678E+03 -0.81985862167E+03  0.16747172148E+04  0.92325141320E+02 0.  0.
        254    2    1    2    0    0  0.13947952471E+04  0.42253032678E+03 -0.15371956343E+04  0.23054864643E+04  0.91011634453E+03 0.  0.
        -24    2    4    4    0    0 -0.29698511754E+02 -0.15505166441E+03 -0.20189648410E+03  0.26760242240E+03  0.76979516413E+02 0.  0.
         24    2    4    4    0    0  0.14244937588E+04  0.57758199119E+03 -0.13352991502E+04  0.20378840419E+04  0.84641137477E+02 0.  0.
         13    1    3    3    0    0 -0.37270996940E+03 -0.83423587920E+02 -0.24851241671E+03  0.45566504976E+03  0.00000000000E+00 0. -1.
        -13    1    3    3    0    0 -0.10220852777E+04 -0.33910673886E+03 -0.57134620496E+03  0.12190521650E+04  0.00000000000E+00 0.  1.
          2    1    6    6  502    0  0.11701893410E+04  0.43886320923E+03 -0.10864864724E+04  0.16560183770E+04  0.00000000000E+00 0. -1.
          1    1    5    5  503    0 -0.14835940831E+02 -0.30843892026E+02 -0.53763706972E+01  0.34646156750E+02  0.00000000000E+00 0. -1.
         -2    1    5    5    0  503 -0.14862570923E+02 -0.12420777238E+03 -0.19652011341E+03  0.23295626565E+03  0.00000000000E+00 0.  1.
         -1    1    6    6    0  502  0.25430441785E+03  0.13871878195E+03 -0.24881267780E+03  0.38186566491E+03  0.00000000000E+00 0.  1.
<mgrwt>
<rscale>  0 0.32072288E+04</rscale>
<asrwt>0</asrwt>
<pdfrwt beam="1">  1        2 0.48748137E+00 0.32072288E+04</pdfrwt>
<pdfrwt beam="2">  1       -2 0.12485765E+00 0.32072288E+04</pdfrwt>
<totfact> 0.54952068E-01</totfact>
</mgrwt>
</event>
<event>
12    1  0.1097093E-007  0.1666409E+04  0.7818608E-02  0.8780758E-01
          2   -1    0    0  501    0  0.00000000000E+00  0.00000000000E+00  0.41291549115E+03  0.41291549115E+03  0.00000000000E+00 0. -1.
         -2   -1    0    0    0  501 -0.00000000000E+00 -0.00000000000E+00 -0.16812884654E+04  0.16812884654E+04  0.00000000000E+00 0.  1.
         23    2    1    2    0    0 -0.24942381635E+03  0.25622567420E+03 -0.10329552609E+04  0.10969826786E+04  0.92252858787E+02 0.  0.
        254    2    1    2    0    0  0.24942381635E+03 -0.25622567420E+03 -0.23541771333E+03  0.99722127788E+03  0.90064695693E+03 0.  0.
        -24    2    4    4    0    0  0.37037681904E+03  0.18319448984E+03  0.90638955579E+02  0.42984628993E+03  0.76244367062E+02 0.  0.
         24    2    4    4    0    0 -0.12095300269E+03 -0.43942016405E+03 -0.32605666891E+03  0.56737498795E+03  0.88779030046E+02 0.  0.
         11    1    3    3    0    0 -0.21179429509E+02 -0.25234985082E+01 -0.34166621116E+02  0.40277714403E+02  0.00000000000E+00 0. -1.
        -11    1    3    3    0    0 -0.22824438684E+03  0.25874917271E+03 -0.99878863975E+03  0.10567049642E+04  0.00000000000E+00 0.  1.
          4    1    6    6  502    0 -0.11400253493E+03 -0.44075306435E+03 -0.31284562680E+03  0.55238775141E+03  0.00000000000E+00 0. -1.
          3    1    5    5  503    0  0.28360900104E+03  0.13516485425E+03  0.34957688434E+02  0.31611017585E+03  0.00000000000E+00 0. -1.
         -4    1    5    5    0  503  0.86767818005E+02  0.48029635598E+02  0.55681267145E+02  0.11373611409E+03  0.00000000000E+00 0.  1.
         -3    1    6    6    0  502 -0.69504677671E+01  0.13329002988E+01 -0.13211042111E+02  0.14987236538E+02  0.00000000000E+00 0.  1.
<mgrwt>
<rscale>  0 0.16664094E+04</rscale>
<asrwt>0</asrwt>
<pdfrwt beam="1">  1        2 0.63525460E-01 0.16664094E+04</pdfrwt>
<pdfrwt beam="2">  1       -2 0.25865976E+00 0.16664094E+04</pdfrwt>
<totfact> 0.41629923E+00</totfact>
</mgrwt>
</event>
<event>
12    1  0.1097093E-007  0.3073935E+04  0.7818608E-02  0.8222928E-01
         -1   -1    0    0    0  501 -0.00000000000E+00  0.00000000000E+00  0.13075911569E+04  0.13075911569E+04  0.00000000000E+00 0.  1.
          1   -1    0    0  501    0  0.00000000000E+00 -0.00000000000E+00 -0.18065805004E+04  0.18065805004E+04  0.00000000000E+00 0. -1.
         23    2    1    2    0    0  0.85664507502E+03 -0.74355113100E+03  0.61704426423E+03  0.12944883883E+04  0.90815717183E+02 0.  0.
        254    2    1    2    0    0 -0.85664507502E+03  0.74355113100E+03 -0.11160336078E+04  0.18196832690E+04  0.88261379822E+03 0.  0.
        -24    2    4    4    0    0 -0.86701802901E+03  0.20957280386E+03 -0.65397369256E+03  0.11088559056E+04  0.78986113420E+02 0.  0.
         24    2    4    4    0    0  0.10372953987E+02  0.53397832714E+03 -0.46205991521E+03  0.71082736338E+03  0.80843820154E+02 0.  0.
         11    1    3    3    0    0  0.73902935829E+03 -0.67094495143E+03  0.56364918547E+03  0.11463123154E+04  0.00000000000E+00 0. -1.
        -11    1    3    3    0    0  0.11761571673E+03 -0.72606179570E+02  0.53395078757E+02  0.14817607287E+03  0.00000000000E+00 0.  1.
          2    1    6    6  502    0  0.67487907286E+01  0.21416136163E+01 -0.14064515735E+01  0.72187804516E+01  0.00000000000E+00 0. -1.
          1    1    5    5  503    0 -0.23956926512E+03  0.69892650503E+02 -0.22538401530E+03  0.33626830022E+03  0.00000000000E+00 0. -1.
         -2    1    5    5    0  503 -0.62744876389E+03  0.13968015336E+03 -0.42858967727E+03  0.77258760539E+03  0.00000000000E+00 0.  1.
         -1    1    6    6    0  502  0.36241632587E+01  0.53183671352E+03 -0.46065346364E+03  0.70360858293E+03  0.00000000000E+00 0.  1.
<mgrwt>
<rscale>  0 0.30739347E+04</rscale>
<asrwt>0</asrwt>
<pdfrwt beam="1">  1        1 0.27793546E+00 0.30739347E+04</pdfrwt>
<pdfrwt beam="2">  1       -1 0.20116787E+00 0.30739347E+04</pdfrwt>
<totfact> 0.50383050E-01</totfact>
</mgrwt>
</event>
<event>
12    1  0.1097093E-007  0.2300202E+04  0.7818608E-02  0.8477842E-01
          1   -1    0    0  501    0  0.00000000000E+00  0.00000000000E+00  0.12513189865E+04  0.12513189865E+04  0.00000000000E+00 0. -1.
         -1   -1    0    0    0  501 -0.00000000000E+00 -0.00000000000E+00 -0.10570702283E+04  0.10570702283E+04  0.00000000000E+00 0.  1.
         23    2    1    2    0    0  0.34042266366E+03 -0.37809341101E+03  0.91849590462E+03  0.10538756013E+04  0.90425874373E+02 0.  0.
        254    2    1    2    0    0 -0.34042266366E+03  0.37809341101E+03 -0.72424714642E+03  0.12545136135E+04  0.88906032418E+03 0.  0.
        -24    2    4    4    0    0  0.23205153370E+02  0.58490488276E+03 -0.49711761346E+03  0.77197051823E+03  0.78487950593E+02 0.  0.
         24    2    4    4    0    0 -0.36362781703E+03 -0.20681147174E+03 -0.22712953296E+03  0.48254309529E+03  0.79144424377E+02 0.  0.
         11    1    3    3    0    0  0.73097268868E+02 -0.12484675697E+03  0.31978394111E+03  0.35098674111E+03  0.00000000000E+00 0.  1.
        -11    1    3    3    0    0  0.26732539479E+03 -0.25324665404E+03  0.59871196350E+03  0.70288886015E+03  0.00000000000E+00 0. -1.
          4    1    6    6  502    0 -0.53702916983E+02 -0.44385269309E+02 -0.70700110881E+02  0.99260068017E+02  0.00000000000E+00 0. -1.
          1    1    5    5  503    0  0.30431428522E+02  0.13512438818E+03 -0.14667786108E+03  0.20174009778E+03  0.00000000000E+00 0. -1.
         -2    1    5    5    0  503 -0.72262751518E+01  0.44978049458E+03 -0.35043975239E+03  0.57023042045E+03  0.00000000000E+00 0.  1.
         -3    1    6    6    0  502 -0.30992490004E+03 -0.16242620243E+03 -0.15642942208E+03  0.38328302727E+03  0.00000000000E+00 0.  1.
<mgrwt>
<rscale>  0 0.23002018E+04</rscale>
<asrwt>0</asrwt>
<pdfrwt beam="1">  1        1 0.19251061E+00 0.23002018E+04</pdfrwt>
<pdfrwt beam="2">  1       -1 0.16262619E+00 0.23002018E+04</pdfrwt>
<totfact> 0.24745757E+00</totfact>
</mgrwt>
</event>
<event>
12    1  0.1097093E-007  0.1492431E+04  0.7818608E-02  0.8889502E-01
          2   -1    0    0  501    0  0.00000000000E+00  0.00000000000E+00  0.22732981072E+04  0.22732981072E+04  0.00000000000E+00 0. -1.
         -2   -1    0    0    0  501 -0.00000000000E+00 -0.00000000000E+00 -0.24494689927E+03  0.24494689927E+03  0.00000000000E+00 0.  1.
         23    2    1    2    0    0  0.36285078810E+03  0.25556891286E+02  0.10696315835E+04  0.11332286236E+04  0.88213036175E+02 0.  0.
        254    2    1    2    0    0 -0.36285078810E+03 -0.25556891286E+02  0.95871962442E+03  0.13850163829E+04  0.93102804120E+03 0.  0.
        -24    2    4    4    0    0 -0.47030874042E+03  0.15438005965E+03  0.10336956909E+04  0.11487731273E+04  0.78290501073E+02 0.  0.
         24    2    4    4    0    0  0.10745795231E+03 -0.17993695094E+03 -0.74976066460E+02  0.23624325557E+03  0.79151420929E+02 0.  0.
         13    1    3    3    0    0  0.36291992505E+02  0.98522567681E+01  0.50654242761E+02  0.63087463042E+02  0.00000000000E+00 0.  1.
        -13    1    3    3    0    0  0.32655879560E+03  0.15704634518E+02  0.10189773408E+04  0.10701411606E+04  0.00000000000E+00 0. -1.
          2    1    6    6  502    0  0.46013961678E+01  0.53462985665E+01  0.61195211026E+01  0.93383239171E+01  0.00000000000E+00 0. -1.
          1    1    5    5  503    0 -0.40116651261E+02  0.33242779497E+02  0.14396491255E+03  0.15310233226E+03  0.00000000000E+00 0. -1.
         -2    1    5    5    0  503 -0.43019208916E+03  0.12113728015E+03  0.88973077833E+03  0.99567079505E+03  0.00000000000E+00 0.  1.
         -1    1    6    6    0  502  0.10285655615E+03 -0.18528324950E+03 -0.81095587563E+02  0.22690493166E+03  0.00000000000E+00 0.  1.
<mgrwt>
<rscale>  0 0.14924307E+04</rscale>
<asrwt>0</asrwt>
<pdfrwt beam="1">  1        2 0.34973816E+00 0.14924307E+04</pdfrwt>
<pdfrwt beam="2">  1       -2 0.37684140E-01 0.14924307E+04</pdfrwt>
<totfact> 0.30195743E+01</totfact>
</mgrwt>
</event>
<event>
12    1  0.1097093E-007  0.1906977E+04  0.7818608E-02  0.8651391E-01
          2   -1    0    0  501    0  0.00000000000E+00  0.00000000000E+00  0.68748764851E+03  0.68748764851E+03  0.00000000000E+00 0.  1.
         -2   -1    0    0    0  501 -0.00000000000E+00 -0.00000000000E+00 -0.13224094897E+04  0.13224094897E+04  0.00000000000E+00 0. -1.
         23    2    1    2    0    0  0.31063253900E+03  0.49813607991E+02  0.46146064837E+03  0.56668388041E+03  0.95972498599E+02 0.  0.
        254    2    1    2    0    0 -0.31063253900E+03 -0.49813607991E+02 -0.10963824895E+04  0.14432132578E+04  0.88421489142E+03 0.  0.
        -24    2    4    4    0    0 -0.28086985176E+03  0.21124587826E+03 -0.11130607528E+04  0.11699802457E+04  0.80229926261E+02 0.  0.
         24    2    4    4    0    0 -0.29762687241E+02 -0.26105948625E+03  0.16678263317E+02  0.27323301207E+03  0.73076956040E+02 0.  0.
         11    1    3    3    0    0  0.58114854283E+02  0.36499222507E+02  0.15397584938E+03  0.16857666423E+03  0.00000000000E+00 0. -1.
        -11    1    3    3    0    0  0.25251768472E+03  0.13314385484E+02  0.30748479899E+03  0.39810721618E+03  0.00000000000E+00 0.  1.
          4    1    6    6  502    0 -0.53835383027E+02 -0.15948000369E+03  0.92092317616E+01  0.16857321849E+03  0.00000000000E+00 0. -1.
          3    1    5    5  503    0 -0.14867229788E+03  0.14143472255E+03 -0.74428306472E+03  0.77205214418E+03  0.00000000000E+00 0. -1.
         -4    1    5    5    0  503 -0.13219755388E+03  0.69811155719E+02 -0.36877768813E+03  0.39792810151E+03  0.00000000000E+00 0.  1.
         -3    1    6    6    0  502  0.24072695785E+02 -0.10157948256E+03  0.74690315555E+01  0.10465979358E+03  0.00000000000E+00 0.  1.
<mgrwt>
<rscale>  0 0.19069769E+04</rscale>
<asrwt>0</asrwt>
<pdfrwt beam="1">  1        2 0.10576733E+00 0.19069769E+04</pdfrwt>
<pdfrwt beam="2">  1       -2 0.20344761E+00 0.19069769E+04</pdfrwt>
<totfact> 0.49509173E+00</totfact>
</mgrwt>
</event>
<event>
12    1  0.1097093E-007  0.1627548E+04  0.7818608E-02  0.8803801E-01
         -2   -1    0    0    0  501 -0.00000000000E+00  0.00000000000E+00  0.59082982212E+03  0.59082982212E+03  0.00000000000E+00 0.  1.
          2   -1    0    0  501    0  0.00000000000E+00 -0.00000000000E+00 -0.11208438481E+04  0.11208438481E+04  0.00000000000E+00 0. -1.
         23    2    1    2    0    0 -0.21276040497E+03  0.49463641963E+03 -0.35051720200E+03  0.64813753800E+03  0.85368505490E+02 0.  0.
        254    2    1    2    0    0  0.21276040497E+03 -0.49463641963E+03 -0.17949682399E+03  0.10635361322E+04  0.89942082320E+03 0.  0.
        -24    2    4    4    0    0 -0.10961835674E+03 -0.15087606897E+03  0.31465394807E+03  0.37615264863E+03  0.87772066791E+02 0.  0.
         24    2    4    4    0    0  0.32237876171E+03 -0.34376035066E+03 -0.49415077207E+03  0.68738348361E+03  0.78815121125E+02 0.  0.
         11    1    3    3    0    0 -0.10244213335E+03  0.24306222468E+03 -0.12110495504E+03  0.29024135799E+03  0.00000000000E+00 0. -1.
        -11    1    3    3    0    0 -0.11031827161E+03  0.25157419495E+03 -0.22941224695E+03  0.35789618001E+03  0.00000000000E+00 0.  1.
          2    1    6    6  502    0  0.24770478755E+03 -0.30100382741E+03 -0.42744991764E+03  0.57851049946E+03  0.00000000000E+00 0. -1.
          3    1    5    5  503    0 -0.60807899364E+02 -0.14354931886E+03  0.22360756130E+03  0.27258824083E+03  0.00000000000E+00 0. -1.
         -4    1    5    5    0  503 -0.48810457379E+02 -0.73267501030E+01  0.91046386777E+02  0.10356440779E+03  0.00000000000E+00 0.  1.
         -1    1    6    6    0  502  0.74673974158E+02 -0.42756523251E+02 -0.66700854423E+02  0.10887298415E+03  0.00000000000E+00 0.  1.
<mgrwt>
<rscale>  0 0.16275478E+04</rscale>
<asrwt>0</asrwt>
<pdfrwt beam="1">  1        2 0.17243751E+00 0.16275478E+04</pdfrwt>
<pdfrwt beam="2">  1       -2 0.90896897E-01 0.16275478E+04</pdfrwt>
<totfact> 0.20909247E+01</totfact>
</mgrwt>
</event>
<event>
12    1  0.1097093E-007  0.2171690E+04  0.7818608E-02  0.8530305E-01
          2   -1    0    0  501    0  0.00000000000E+00  0.00000000000E+00  0.12813202742E+04  0.12813202742E+04  0.00000000000E+00 0. -1.
         -2   -1    0    0    0  501 -0.00000000000E+00 -0.00000000000E+00 -0.92019101293E+03  0.92019101293E+03  0.00000000000E+00 0.  1.
         23    2    1    2    0    0 -0.50914955681E+03 -0.77530684621E+01 -0.59511421816E+03  0.78842985485E+03  0.90373237703E+02 0.  0.
        254    2    1    2    0    0  0.50914955681E+03  0.77530684621E+01  0.95624347946E+03  0.14130814323E+04  0.90725088100E+03 0.  0.
        -24    2    4    4    0    0 -0.43149256018E+02 -0.34332443656E+02  0.83468689899E+03  0.84048492889E+03  0.81683054272E+02 0.  0.
         24    2    4    4    0    0  0.55229881283E+03  0.42085512118E+02  0.12155658047E+03  0.57259650343E+03  0.79281678204E+02 0.  0.
         13    1    3    3    0    0 -0.31910366235E+02 -0.49836096809E+01 -0.10955338182E+02  0.34104651785E+02  0.00000000000E+00 0. -1.
        -13    1    3    3    0    0 -0.47723919058E+03 -0.27694587812E+01 -0.58415887998E+03  0.75432520306E+03  0.00000000000E+00 0.  1.
          4    1    6    6  502    0  0.19691466634E+03  0.16922243483E+02  0.48689920156E+01  0.19770041787E+03  0.00000000000E+00 0. -1.
          1    1    5    5  503    0  0.39780324045E+01 -0.47476782094E+02  0.49590844325E+03  0.49819178402E+03  0.00000000000E+00 0. -1.
         -2    1    5    5    0  503 -0.47127288423E+02  0.13144338439E+02  0.33877845574E+03  0.34229314486E+03  0.00000000000E+00 0.  1.
         -3    1    6    6    0  502  0.35538414649E+03  0.25163268635E+02  0.11668758845E+03  0.37489608556E+03  0.00000000000E+00 0.  1.
<mgrwt>
<rscale>  0 0.21716900E+04</rscale>
<asrwt>0</asrwt>
<pdfrwt beam="1">  1        2 0.19712620E+00 0.21716900E+04</pdfrwt>
<pdfrwt beam="2">  1       -2 0.14156785E+00 0.21716900E+04</pdfrwt>
<totfact> 0.54195733E+00</totfact>
</mgrwt>
</event>
<event>
12    1  0.1097093E-007  0.3199607E+04  0.7818608E-02  0.8188921E-01
          2   -1    0    0  501    0  0.00000000000E+00  0.00000000000E+00  0.49187531237E+04  0.49187531237E+04  0.00000000000E+00 0. -1.
         -2   -1    0    0    0  501 -0.00000000000E+00 -0.00000000000E+00 -0.52032933081E+03  0.52032933081E+03  0.00000000000E+00 0.  1.
         23    2    1    2    0    0 -0.63484103628E+03  0.46862161413E+03 -0.85392440598E+02  0.79892974795E+03  0.91474120172E+02 0.  0.
        254    2    1    2    0    0  0.63484103628E+03 -0.46862161413E+03  0.44838162335E+04  0.46401527066E+04  0.89653765452E+03 0.  0.
        -24    2    4    4    0    0 -0.15862737035E+02 -0.52081415177E+03  0.17110205086E+04  0.17904267357E+04  0.80856093092E+02 0.  0.
         24    2    4    4    0    0  0.65070377332E+03  0.52192537642E+02  0.27727957249E+04  0.28497259709E+04  0.80015721692E+02 0.  0.
         13    1    3    3    0    0 -0.23985063435E+03  0.20173651779E+03  0.63747765054E+01  0.31347501843E+03  0.00000000000E+00 0.  1.
        -13    1    3    3    0    0 -0.39499040194E+03  0.26688509635E+03 -0.91767217103E+02  0.48545472951E+03  0.00000000000E+00 0. -1.
          2    1    6    6  502    0  0.67692179572E+02 -0.13526024804E+02  0.23082059920E+03  0.24092184114E+03  0.00000000000E+00 0. -1.
          3    1    5    5  503    0  0.89544224206E+01 -0.12613004430E+02  0.93426775420E+02  0.94698637409E+02  0.00000000000E+00 0. -1.
         -2    1    5    5    0  503 -0.24817159455E+02 -0.50820114735E+03  0.16175937332E+04  0.16957280983E+04  0.00000000000E+00 0.  1.
         -1    1    6    6    0  502  0.58301159374E+03  0.65718562446E+02  0.25419751257E+04  0.26088041298E+04  0.00000000000E+00 0.  1.
<mgrwt>
<rscale>  0 0.31996072E+04</rscale>
<asrwt>0</asrwt>
<pdfrwt beam="1">  1        2 0.75673122E+00 0.31996072E+04</pdfrwt>
<pdfrwt beam="2">  1       -2 0.80050670E-01 0.31996072E+04</pdfrwt>
<totfact> 0.50096539E-02</totfact>
</mgrwt>
</event>
<event>
12    1  0.1097093E-007  0.1782728E+04  0.7818608E-02  0.8715539E-01
         -2   -1    0    0    0  501 -0.00000000000E+00  0.00000000000E+00  0.73172173063E+03  0.73172173063E+03  0.00000000000E+00 0.  1.
          2   -1    0    0  501    0  0.00000000000E+00 -0.00000000000E+00 -0.10858359579E+04  0.10858359579E+04  0.00000000000E+00 0. -1.
         23    2    1    2    0    0  0.53417861833E+03 -0.30427966795E+03 -0.38741537401E+03  0.73219167554E+03  0.89894744599E+02 0.  0.
        254    2    1    2    0    0 -0.53417861833E+03  0.30427966795E+03  0.33301146717E+02  0.10853660130E+04  0.89385541517E+03 0.  0.
        -24    2    4    4    0    0 -0.14953670661E+03  0.45975286791E+03 -0.27549734332E+03  0.56205669018E+03  0.79214964635E+02 0.  0.
         24    2    4    4    0    0 -0.38464191172E+03 -0.15547319996E+03  0.30879849003E+03  0.52330932284E+03  0.79842493526E+02 0.  0.
         13    1    3    3    0    0  0.24709637106E+03 -0.10749194151E+03 -0.12934744311E+03  0.29890114607E+03  0.00000000000E+00 0. -1.
        -13    1    3    3    0    0  0.28708224726E+03 -0.19678772644E+03 -0.25806793090E+03  0.43329052947E+03  0.00000000000E+00 0.  1.
          2    1    6    6  502    0 -0.93126625160E+02 -0.64897461760E+02  0.54080267137E+02  0.12573354425E+03  0.00000000000E+00 0. -1.
          3    1    5    5  503    0 -0.60527509486E+02  0.23753086569E+03 -0.97733889741E+02  0.26388710610E+03  0.00000000000E+00 0. -1.
         -4    1    5    5    0  503 -0.89009197126E+02  0.22222200222E+03 -0.17776345357E+03  0.29816958408E+03  0.00000000000E+00 0.  1.
         -3    1    6    6    0  502 -0.29151528656E+03 -0.90575738201E+02  0.25471822290E+03  0.39757577859E+03  0.00000000000E+00 0.  1.
<mgrwt>
<rscale>  0 0.17827280E+04</rscale>
<asrwt>0</asrwt>
<pdfrwt beam="1">  1        2 0.16705169E+00 0.17827280E+04</pdfrwt>
<pdfrwt beam="2">  1       -2 0.11257257E+00 0.17827280E+04</pdfrwt>
<totfact> 0.13056027E+01</totfact>
</mgrwt>
</event>
<event>
12    1  0.1097093E-007  0.1711280E+04  0.7818608E-02  0.8754957E-01
          2   -1    0    0  501    0  0.00000000000E+00  0.00000000000E+00  0.13733305360E+04  0.13733305360E+04  0.00000000000E+00 0. -1.
         -2   -1    0    0    0  501 -0.00000000000E+00 -0.00000000000E+00 -0.53309804525E+03  0.53309804525E+03  0.00000000000E+00 0.  1.
         23    2    1    2    0    0  0.26890567732E+02  0.17000321639E+02 -0.37756236050E+03  0.39053203059E+03  0.94603473978E+02 0.  0.
        254    2    1    2    0    0 -0.26890567732E+02 -0.17000321639E+02  0.12177948513E+04  0.15158965507E+04  0.90216735643E+03 0.  0.
        -24    2    4    4    0    0  0.16526305242E+03 -0.31665696367E+02 -0.79244877153E+02  0.20225863032E+03  0.79462004506E+02 0.  0.
         24    2    4    4    0    0 -0.19215362016E+03  0.14665374728E+02  0.12970397284E+04  0.13136379203E+04  0.78704775935E+02 0.  0.
         13    1    3    3    0    0  0.61480135524E+02  0.27548298834E+01 -0.20922348167E+03  0.21808682086E+03  0.00000000000E+00 0.  1.
        -13    1    3    3    0    0 -0.34589567792E+02  0.14245491756E+02 -0.16833887883E+03  0.17244520973E+03  0.00000000000E+00 0. -1.
          4    1    6    6  502    0 -0.14766810092E+03 -0.23270752806E+02  0.90531704681E+03  0.91757634625E+03  0.00000000000E+00 0. -1.
          1    1    5    5  503    0  0.11147169539E+03  0.17909390083E+02 -0.50001767498E+02  0.12347818382E+03  0.00000000000E+00 0. -1.
         -2    1    5    5    0  503  0.53791357030E+02 -0.49575086450E+02 -0.29243109656E+02  0.78780446496E+02  0.00000000000E+00 0.  1.
         -3    1    6    6    0  502 -0.44485519238E+02  0.37936127534E+02  0.39172268160E+03  0.39606157409E+03  0.00000000000E+00 0.  1.
<mgrwt>
<rscale>  0 0.17112800E+04</rscale>
<asrwt>0</asrwt>
<pdfrwt beam="1">  1        2 0.21128162E+00 0.17112800E+04</pdfrwt>
<pdfrwt beam="2">  1       -2 0.82015085E-01 0.17112800E+04</pdfrwt>
<totfact> 0.18624739E+01</totfact>
</mgrwt>
</event>
<event>
12    1  0.1097093E-007  0.1907890E+04  0.7818608E-02  0.8650939E-01
         -2   -1    0    0    0  501 -0.00000000000E+00  0.00000000000E+00  0.62531491964E+03  0.62531491964E+03  0.00000000000E+00 0.  1.
          2   -1    0    0  501    0  0.00000000000E+00 -0.00000000000E+00 -0.14552842958E+04  0.14552842958E+04  0.00000000000E+00 0. -1.
         23    2    1    2    0    0 -0.26367382937E+03  0.54558050350E+03 -0.79047930166E+03  0.10001025245E+04  0.90363483105E+02 0.  0.
        254    2    1    2    0    0  0.26367382937E+03 -0.54558050350E+03 -0.39490074525E+02  0.10804966910E+04  0.89371788562E+03 0.  0.
        -24    2    4    4    0    0 -0.26044428291E+03 -0.21463556435E+03 -0.24250403122E+03  0.42334234576E+03  0.80690064898E+02 0.  0.
         24    2    4    4    0    0  0.52411811228E+03 -0.33094493916E+03  0.20301395669E+03  0.65715434520E+03  0.80080075106E+02 0.  0.
         11    1    3    3    0    0 -0.25768144512E+03  0.53834048737E+03 -0.79074482902E+03  0.99070055623E+03  0.00000000000E+00 0. -1.
        -11    1    3    3    0    0 -0.59923842506E+01  0.72400161372E+01  0.26552736201E+00  0.94019682755E+01  0.00000000000E+00 0.  1.
          4    1    6    6  502    0  0.42132619178E+03 -0.24266509480E+03  0.13025218564E+03  0.50335647406E+03  0.00000000000E+00 0. -1.
          3    1    5    5  503    0 -0.23812335857E+03 -0.16492801556E+03 -0.18284090423E+03  0.34254164779E+03  0.00000000000E+00 0. -1.
         -4    1    5    5    0  503 -0.22320924340E+02 -0.49707548787E+02 -0.59663126991E+02  0.80800697969E+02  0.00000000000E+00 0.  1.
         -3    1    6    6    0  502  0.10279192049E+03 -0.88279844358E+02  0.72761771056E+02  0.15379787114E+03  0.00000000000E+00 0.  1.
<mgrwt>
<rscale>  0 0.19078899E+04</rscale>
<asrwt>0</asrwt>
<pdfrwt beam="1">  1        2 0.22388989E+00 0.19078899E+04</pdfrwt>
<pdfrwt beam="2">  1       -2 0.96202296E-01 0.19078899E+04</pdfrwt>
<totfact> 0.11399071E+01</totfact>
</mgrwt>
</event>
<event>
12    1  0.1097093E-007  0.1366739E+04  0.7818608E-02  0.8978253E-01
         -2   -1    0    0    0  501 -0.00000000000E+00  0.00000000000E+00  0.31463875199E+03  0.31463875199E+03  0.00000000000E+00 0. -1.
          2   -1    0    0  501    0  0.00000000000E+00 -0.00000000000E+00 -0.14842230140E+04  0.14842230140E+04  0.00000000000E+00 0.  1.
         23    2    1    2    0    0 -0.15727920091E+02 -0.37814621937E+03 -0.40378991212E+03  0.56092609291E+03  0.91377556782E+02 0.  0.
        254    2    1    2    0    0  0.15727920091E+02  0.37814621937E+03 -0.76579434991E+03  0.12379356731E+04  0.89599208351E+03 0.  0.
        -24    2    4    4    0    0 -0.13677113357E+03  0.24753330127E+03 -0.92421486626E+03  0.96981803213E+03  0.79967607234E+02 0.  0.
         24    2    4    4    0    0  0.15249905366E+03  0.13061291810E+03  0.15842051635E+03  0.26811764099E+03  0.80463119909E+02 0.  0.
         13    1    3    3    0    0 -0.11001123468E+02 -0.81322953708E+02 -0.14725853765E+03  0.16858091360E+03  0.00000000000E+00 0. -1.
        -13    1    3    3    0    0 -0.47267966223E+01 -0.29682326566E+03 -0.25653137446E+03  0.39234517931E+03  0.00000000000E+00 0.  1.
          2    1    6    6  502    0  0.16010534546E+03  0.13320527806E+03  0.15273647070E+03  0.25827465465E+03  0.00000000000E+00 0. -1.
          1    1    5    5  503    0 -0.47121393631E+02  0.16157847922E+03 -0.48462669897E+03  0.51302150836E+03  0.00000000000E+00 0. -1.
         -2    1    5    5    0  503 -0.89649739939E+02  0.85954822049E+02 -0.43958816729E+03  0.45679652377E+03  0.00000000000E+00 0.  1.
         -3    1    6    6    0  502 -0.76062918031E+01 -0.25923599627E+01  0.56840456433E+01  0.98429863378E+01  0.00000000000E+00 0.  1.
<mgrwt>
<rscale>  0 0.13667393E+04</rscale>
<asrwt>0</asrwt>
<pdfrwt beam="1">  1        2 0.22834200E+00 0.13667393E+04</pdfrwt>
<pdfrwt beam="2">  1       -2 0.48405962E-01 0.13667393E+04</pdfrwt>
<totfact> 0.51088820E+01</totfact>
</mgrwt>
</event>
<event>
12    1  0.1097093E-007  0.1819943E+04  0.7818608E-02  0.8695765E-01
         -3   -1    0    0    0  501 -0.00000000000E+00  0.00000000000E+00  0.11042658995E+04  0.11042658995E+04  0.00000000000E+00 0.  1.
          3   -1    0    0  501    0  0.00000000000E+00 -0.00000000000E+00 -0.74986319923E+03  0.74986319923E+03  0.00000000000E+00 0. -1.
         23    2    1    2    0    0 -0.31719901009E+03 -0.11677916425E+03 -0.47242250681E+03  0.58486668805E+03  0.68069322392E+02 0.  0.
        254    2    1    2    0    0  0.31719901009E+03  0.11677916425E+03  0.82682520707E+03  0.12692624107E+04  0.90173974011E+03 0.  0.
        -24    2    4    4    0    0  0.13637403532E+03 -0.58079347694E+02 -0.16910228848E+03  0.23913874852E+03  0.81367493134E+02 0.  0.
         24    2    4    4    0    0  0.18082497477E+03  0.17485851194E+03  0.99592749555E+03  0.10301236621E+04  0.77524268637E+02 0.  0.
         11    1    3    3    0    0 -0.26373783041E+03 -0.12061922121E+03 -0.41526906604E+03  0.50651262267E+03  0.00000000000E+00 0. -1.
        -11    1    3    3    0    0 -0.53461179681E+02  0.38400569641E+01 -0.57153440767E+02  0.78354065382E+02  0.00000000000E+00 0.  1.
          4    1    6    6  502    0  0.28991986681E+02  0.23385186492E+02  0.28866642079E+03  0.29105962402E+03  0.00000000000E+00 0. -1.
          3    1    5    5  503    0  0.35998493178E+02  0.16523980955E+02 -0.19507613450E+02  0.44152921083E+02  0.00000000000E+00 0. -1.
         -4    1    5    5    0  503  0.10037554214E+03 -0.74603328649E+02 -0.14959467503E+03  0.19498582744E+03  0.00000000000E+00 0.  1.
         -3    1    6    6    0  502  0.15183298809E+03  0.15147332545E+03  0.70726107475E+03  0.73906403813E+03  0.00000000000E+00 0.  1.
<mgrwt>
<rscale>  0 0.18199433E+04</rscale>
<asrwt>0</asrwt>
<pdfrwt beam="1">  1        3 0.11536357E+00 0.18199433E+04</pdfrwt>
<pdfrwt beam="2">  1       -3 0.16988706E+00 0.18199433E+04</pdfrwt>
<totfact> 0.35596239E-01</totfact>
</mgrwt>
</event>
<event>
12    1  0.1097093E-007  0.1187382E+04  0.7818608E-02  0.9123974E-01
          2   -1    0    0  501    0  0.00000000000E+00  0.00000000000E+00  0.16039454176E+03  0.16039454176E+03  0.00000000000E+00 0.  1.
         -2   -1    0    0    0  501 -0.00000000000E+00 -0.00000000000E+00 -0.21975110431E+04  0.21975110431E+04  0.00000000000E+00 0. -1.
         23    2    1    2    0    0  0.51515585789E+01  0.21249992930E+03 -0.22913295555E+03  0.32595743799E+03  0.92539621503E+02 0.  0.
        254    2    1    2    0    0 -0.51515585789E+01 -0.21249992930E+03 -0.18079835458E+04  0.20319481469E+04  0.90267713564E+03 0.  0.
        -24    2    4    4    0    0  0.40645302292E+03  0.63553821801E+00 -0.11546513296E+04  0.12266488069E+04  0.79013535214E+02 0.  0.
         24    2    4    4    0    0 -0.41160458150E+03 -0.21313546752E+03 -0.65333221623E+03  0.80529934001E+03  0.82577135062E+02 0.  0.
         13    1    3    3    0    0  0.18032474763E+02 -0.37428409667E+00 -0.12356375074E+02  0.21862987894E+02  0.00000000000E+00 0. -1.
        -13    1    3    3    0    0 -0.12880916185E+02  0.21287421340E+03 -0.21677658048E+03  0.30409445009E+03  0.00000000000E+00 0.  1.
          4    1    6    6  502    0 -0.21853025630E+03 -0.13995125967E+03 -0.30591732882E+03  0.40115737570E+03  0.00000000000E+00 0. -1.
          1    1    5    5  503    0  0.40901415730E+03  0.27352352904E+01 -0.11518305652E+04  0.12222985369E+04  0.00000000000E+00 0. -1.
         -2    1    5    5    0  503 -0.25611343714E+01 -0.20996970724E+01 -0.28207643508E+01  0.43502699441E+01  0.00000000000E+00 0.  1.
         -3    1    6    6    0  502 -0.19307432520E+03 -0.73184207854E+02 -0.34741488740E+03  0.40414196431E+03  0.00000000000E+00 0.  1.
<mgrwt>
<rscale>  0 0.11873816E+04</rscale>
<asrwt>0</asrwt>
<pdfrwt beam="1">  1        2 0.24676084E-01 0.11873816E+04</pdfrwt>
<pdfrwt beam="2">  1       -2 0.33807861E+00 0.11873816E+04</pdfrwt>
<totfact> 0.41209852E+00</totfact>
</mgrwt>
</event>
<event>
12    1  0.1147067E-007  0.2335454E+04  0.7818608E-02  0.8464072E-01
          1   -1    0    0  501    0  0.00000000000E+00  0.00000000000E+00  0.23028449390E+04  0.23028449390E+04  0.00000000000E+00 0. -1.
         -1   -1    0    0    0  501 -0.00000000000E+00 -0.00000000000E+00 -0.59213126607E+03  0.59213126607E+03  0.00000000000E+00 0.  1.
         23    2    1    2    0    0 -0.78772783238E+03 -0.43977085956E+03  0.21743406667E+03  0.93239428641E+03  0.90376906120E+02 0.  0.
        254    2    1    2    0    0  0.78772783238E+03  0.43977085956E+03  0.14932796063E+04  0.19625819187E+04  0.89884940796E+03 0.  0.
        -24    2    4    4    0    0  0.28097777584E+03  0.17843799225E+03 -0.20993622674E+02  0.34254572991E+03  0.78155084886E+02 0.  0.
         24    2    4    4    0    0  0.50675005653E+03  0.26133286731E+03  0.15142732290E+04  0.16200361888E+04  0.80020957540E+02 0.  0.
         11    1    3    3    0    0 -0.43770340562E+02 -0.32531153459E+01  0.15089170332E+02  0.46412374791E+02  0.00000000000E+00 0. -1.
        -11    1    3    3    0    0 -0.74395749181E+03 -0.43651774421E+03  0.20234489634E+03  0.88598191162E+03  0.00000000000E+00 0.  1.
          2    1    6    6  502    0  0.38002458372E+02  0.30077379176E+01  0.68770861846E+02  0.78629922859E+02  0.00000000000E+00 0. -1.
          3    1    5    5  503    0  0.12464019213E+03  0.56597996618E+02  0.24798486021E+02  0.13911676975E+03  0.00000000000E+00 0. -1.
         -4    1    5    5    0  503  0.15633758371E+03  0.12183999563E+03 -0.45792108695E+02  0.20342896017E+03  0.00000000000E+00 0.  1.
         -1    1    6    6    0  502  0.46874759816E+03  0.25832512939E+03  0.14455023671E+04  0.15414062659E+04  0.00000000000E+00 0.  1.
<mgrwt>
<rscale>  0 0.23354541E+04</rscale>
<asrwt>0</asrwt>
<pdfrwt beam="1">  1        1 0.35428383E+00 0.23354541E+04</pdfrwt>
<pdfrwt beam="2">  1       -1 0.91097119E-01 0.23354541E+04</pdfrwt>
<totfact> 0.19629826E+00</totfact>
</mgrwt>
</event>
<event>
12    1  0.1097093E-007  0.1733535E+04  0.7818608E-02  0.8742466E-01
         -2   -1    0    0    0  501 -0.00000000000E+00  0.00000000000E+00  0.84825419493E+03  0.84825419493E+03  0.00000000000E+00 0.  1.
          2   -1    0    0  501    0  0.00000000000E+00 -0.00000000000E+00 -0.88568529955E+03  0.88568529955E+03  0.00000000000E+00 0. -1.
         23    2    1    2    0    0 -0.52727363705E+03  0.17646517466E+03 -0.28879413862E+03  0.63327684099E+03  0.92087223012E+02 0.  0.
        254    2    1    2    0    0  0.52727363705E+03 -0.17646517466E+03  0.25136303400E+03  0.11006626535E+04  0.91603354508E+03 0.  0.
        -24    2    4    4    0    0  0.43134085315E+03  0.18335115542E+03 -0.19517714254E+03  0.51383173874E+03  0.79097161616E+02 0.  0.
         24    2    4    4    0    0  0.95932783902E+02 -0.35981633007E+03  0.44654017654E+03  0.58683091475E+03  0.79382005656E+02 0.  0.
         13    1    3    3    0    0 -0.12161396602E+03  0.64696716890E+02 -0.10916674274E+03  0.17576404532E+03  0.00000000000E+00 0.  1.
        -13    1    3    3    0    0 -0.40565967103E+03  0.11176845777E+03 -0.17962739588E+03  0.45751279567E+03  0.00000000000E+00 0. -1.
          2    1    6    6  502    0  0.58758208921E+01 -0.30135452947E+02  0.97227425784E+01  0.32205628681E+02  0.00000000000E+00 0. -1.
          1    1    5    5  503    0  0.34671418811E+02  0.29888901989E+02  0.21548307403E+00  0.45776633531E+02  0.00000000000E+00 0. -1.
         -2    1    5    5    0  503  0.39666943434E+03  0.15346225343E+03 -0.19539262562E+03  0.46805510521E+03  0.00000000000E+00 0.  1.
         -1    1    6    6    0  502  0.90056963010E+02 -0.32968087713E+03  0.43681743396E+03  0.55462528607E+03  0.00000000000E+00 0.  1.
<mgrwt>
<rscale>  0 0.17335354E+04</rscale>
<asrwt>0</asrwt>
<pdfrwt beam="1">  1        2 0.13625928E+00 0.17335354E+04</pdfrwt>
<pdfrwt beam="2">  1       -2 0.13050065E+00 0.17335354E+04</pdfrwt>
<totfact> 0.12238592E+01</totfact>
</mgrwt>
</event>
<event>
12    1  0.1097093E-007  0.1154026E+04  0.7818608E-02  0.9154077E-01
         -3   -1    0    0    0  501 -0.00000000000E+00  0.00000000000E+00  0.10338715819E+03  0.10338715819E+03  0.00000000000E+00 0.  1.
          3   -1    0    0  501    0  0.00000000000E+00 -0.00000000000E+00 -0.32203638435E+04  0.32203638435E+04  0.00000000000E+00 0. -1.
         23    2    1    2    0    0 -0.12105862627E+03  0.54842047470E+02 -0.15367483124E+03  0.22315700652E+03  0.92305225388E+02 0.  0.
        254    2    1    2    0    0  0.12105862627E+03 -0.54842047470E+02 -0.29633018540E+04  0.31005939951E+04  0.90269729334E+03 0.  0.
        -24    2    4    4    0    0 -0.24025554723E+03  0.22571424685E+03 -0.20288244523E+04  0.20569792188E+04  0.79782196892E+02 0.  0.
         24    2    4    4    0    0  0.36131417350E+03 -0.28055629432E+03 -0.93447740172E+03  0.10436147764E+04  0.81388088032E+02 0.  0.
         11    1    3    3    0    0 -0.73720507912E+02  0.24552707183E+02 -0.23196328271E+02  0.81090186595E+02  0.00000000000E+00 0.  1.
        -11    1    3    3    0    0 -0.47338118363E+02  0.30289340288E+02 -0.13047850297E+03  0.14206681992E+03  0.00000000000E+00 0. -1.
          2    1    6    6  502    0  0.25886645055E+03 -0.15714465280E+03 -0.57138424935E+03  0.64667321077E+03  0.00000000000E+00 0. -1.
          1    1    5    5  503    0 -0.19594442936E+03  0.13452682472E+03 -0.14453149111E+04  0.14647275781E+04  0.00000000000E+00 0. -1.
         -2    1    5    5    0  503 -0.44311117868E+02  0.91187422125E+02 -0.58350954126E+03  0.59225164066E+03  0.00000000000E+00 0.  1.
         -1    1    6    6    0  502  0.10244772295E+03 -0.12341164152E+03 -0.36309315237E+03  0.39694156559E+03  0.00000000000E+00 0.  1.
<mgrwt>
<rscale>  0 0.11540265E+04</rscale>
<asrwt>0</asrwt>
<pdfrwt beam="1">  1        3 0.49544066E+00 0.11540265E+04</pdfrwt>
<pdfrwt beam="2">  1       -3 0.15905714E-01 0.11540265E+04</pdfrwt>
<totfact> 0.33231596E-01</totfact>
</mgrwt>
</event>
<event>
12    1  0.1097093E-007  0.2528606E+04  0.7818608E-02  0.8392865E-01
          2   -1    0    0  501    0  0.00000000000E+00  0.00000000000E+00  0.16592050988E+04  0.16592050988E+04  0.00000000000E+00 0. -1.
         -2   -1    0    0    0  501 -0.00000000000E+00 -0.00000000000E+00 -0.96339044048E+03  0.96339044048E+03  0.00000000000E+00 0.  1.
         23    2    1    2    0    0 -0.45123431677E+03 -0.93269306178E+03 -0.13598724914E+00  0.10401959387E+04  0.92080487728E+02 0.  0.
        254    2    1    2    0    0  0.45123431677E+03  0.93269306178E+03  0.69595064560E+03  0.15823996006E+04  0.97268311326E+03 0.  0.
        -24    2    4    4    0    0  0.65413478647E+03  0.53480987026E+03  0.13253708658E+03  0.85896653681E+03  0.79646191649E+02 0.  0.
         24    2    4    4    0    0 -0.20290046971E+03  0.39788319152E+03  0.56341355901E+03  0.72343306381E+03  0.80255371363E+02 0.  0.
         11    1    3    3    0    0 -0.41690529834E+01 -0.44301905921E+02 -0.10006050238E+02  0.45608781089E+02  0.00000000000E+00 0. -1.
        -11    1    3    3    0    0 -0.44706526378E+03 -0.88839115586E+03  0.98700629884E+01  0.99458715759E+03  0.00000000000E+00 0.  1.
          2    1    6    6  502    0 -0.94608777629E+02  0.25328499971E+03  0.37606960779E+03  0.46317649097E+03  0.00000000000E+00 0. -1.
          1    1    5    5  503    0  0.73344230704E+02  0.71690891735E+02 -0.83217392207E+01  0.10289903536E+03  0.00000000000E+00 0. -1.
         -2    1    5    5    0  503  0.58079055577E+03  0.46311897853E+03  0.14085882580E+03  0.75606750145E+03  0.00000000000E+00 0.  1.
         -1    1    6    6    0  502 -0.10829169208E+03  0.14459819181E+03  0.18734395123E+03  0.26025657285E+03  0.00000000000E+00 0.  1.
<mgrwt>
<rscale>  0 0.25286062E+04</rscale>
<asrwt>0</asrwt>
<pdfrwt beam="1">  1        2 0.25526232E+00 0.25286062E+04</pdfrwt>
<pdfrwt beam="2">  1       -2 0.14821391E+00 0.25286062E+04</pdfrwt>
<totfact> 0.28442539E+00</totfact>
</mgrwt>
</event>
<event>
12    1  0.1097093E-007  0.1609442E+04  0.7818608E-02  0.8814769E-01
         -1   -1    0    0    0  501 -0.00000000000E+00  0.00000000000E+00  0.72290885647E+03  0.72290885647E+03  0.00000000000E+00 0.  1.
          1   -1    0    0  501    0  0.00000000000E+00 -0.00000000000E+00 -0.89579143437E+03  0.89579143437E+03  0.00000000000E+00 0. -1.
         23    2    1    2    0    0 -0.17614042541E+03 -0.98910477901E+02 -0.57334424149E+03  0.61444620972E+03  0.89508621286E+02 0.  0.
        254    2    1    2    0    0  0.17614042541E+03  0.98910477901E+02  0.40046166359E+03  0.10042540811E+04  0.89852544947E+03 0.  0.
        -24    2    4    4    0    0  0.37762011005E+03 -0.25559180470E+03  0.60657306807E+02  0.46717778485E+03  0.81557682935E+02 0.  0.
         24    2    4    4    0    0 -0.20147968464E+03  0.35450228260E+03  0.33980435678E+03  0.53707629627E+03  0.81963500631E+02 0.  0.
         13    1    3    3    0    0 -0.18205365332E+03 -0.10401349374E+03 -0.52240243178E+03  0.56290908706E+03  0.00000000000E+00 0. -1.
        -13    1    3    3    0    0  0.59132279112E+01  0.51030158418E+01 -0.50941809712E+02  0.51537122657E+02  0.00000000000E+00 0.  1.
          4    1    6    6  502    0 -0.20786760615E+03  0.32546677565E+03  0.31538870994E+03  0.49860565791E+03  0.00000000000E+00 0. -1.
          1    1    5    5  503    0  0.26005578721E+03 -0.20106863366E+03  0.12602378192E+02  0.32896265417E+03  0.00000000000E+00 0. -1.
         -2    1    5    5    0  503  0.11756432284E+03 -0.54523171046E+02  0.48054928615E+02  0.13821513068E+03  0.00000000000E+00 0.  1.
         -3    1    6    6    0  502  0.63879215170E+01  0.29035506954E+02  0.24415646839E+02  0.38470638362E+02  0.00000000000E+00 0.  1.
<mgrwt>
<rscale>  0 0.16094416E+04</rscale>
<asrwt>0</asrwt>
<pdfrwt beam="1">  1        1 0.13781407E+00 0.16094416E+04</pdfrwt>
<pdfrwt beam="2">  1       -1 0.11121675E+00 0.16094416E+04</pdfrwt>
<totfact> 0.13079320E+01</totfact>
</mgrwt>
</event>
<event>
12    1  0.1097093E-007  0.3029953E+04  0.7818608E-02  0.8235229E-01
          1   -1    0    0  501    0  0.00000000000E+00  0.00000000000E+00  0.22848099239E+04  0.22848099239E+04  0.00000000000E+00 0.  1.
         -1   -1    0    0    0  501 -0.00000000000E+00 -0.00000000000E+00 -0.10045272874E+04  0.10045272874E+04  0.00000000000E+00 0. -1.
         23    2    1    2    0    0  0.10955794463E+04  0.83680191359E+03  0.61991373859E+03  0.15140232399E+04  0.86264488342E+02 0.  0.
        254    2    1    2    0    0 -0.10955794463E+04 -0.83680191359E+03  0.66036889787E+03  0.17753139714E+04  0.90284043440E+03 0.  0.
        -24    2    4    4    0    0 -0.28870324848E+03 -0.16549352424E+03  0.63618467131E+03  0.72255086427E+03  0.81308936766E+02 0.  0.
         24    2    4    4    0    0 -0.80687619779E+03 -0.67130838935E+03  0.24184226560E+02  0.10527631071E+04  0.77595945062E+02 0.  0.
         13    1    3    3    0    0  0.21549918748E+03  0.17441689590E+03  0.16229732333E+03  0.32125001874E+03  0.00000000000E+00 0. -1.
        -13    1    3    3    0    0  0.88008025879E+03  0.66238501769E+03  0.45761641526E+03  0.11927732211E+04  0.00000000000E+00 0.  1.
          2    1    6    6  502    0 -0.65706424983E+03 -0.54763605537E+03  0.49854696959E+02  0.85681046233E+03  0.00000000000E+00 0. -1.
          1    1    5    5  503    0 -0.25682050898E+03 -0.11478413094E+03  0.49834234642E+03  0.57225629292E+03  0.00000000000E+00 0. -1.
         -2    1    5    5    0  503 -0.31882739499E+02 -0.50709393294E+02  0.13784232488E+03  0.15029457134E+03  0.00000000000E+00 0.  1.
         -3    1    6    6    0  502 -0.14981194796E+03 -0.12367233398E+03 -0.25670470399E+02  0.19595264478E+03  0.00000000000E+00 0.  1.
<mgrwt>
<rscale>  0 0.30299531E+04</rscale>
<asrwt>0</asrwt>
<pdfrwt beam="1">  1        1 0.35150922E+00 0.30299531E+04</pdfrwt>
<pdfrwt beam="2">  1       -1 0.15454266E+00 0.30299531E+04</pdfrwt>
<totfact> 0.52051140E-01</totfact>
</mgrwt>
</event>
<event>
12    1  0.1097093E-007  0.2052317E+04  0.7818608E-02  0.8582544E-01
          2   -1    0    0  501    0  0.00000000000E+00  0.00000000000E+00  0.14569395063E+04  0.14569395063E+04  0.00000000000E+00 0. -1.
         -2   -1    0    0    0  501 -0.00000000000E+00 -0.00000000000E+00 -0.72274908729E+03  0.72274908729E+03  0.00000000000E+00 0.  1.
         23    2    1    2    0    0  0.50301807379E+03  0.60042010255E+03  0.55541531376E+03  0.96460375637E+03  0.91884459758E+02 0.  0.
        254    2    1    2    0    0 -0.50301807379E+03 -0.60042010255E+03  0.17877510524E+03  0.12150848372E+04  0.91155863292E+03 0.  0.
        -24    2    4    4    0    0 -0.93625763618E+02 -0.74493218217E+03  0.55836344974E+02  0.75723079639E+03  0.81185232267E+02 0.  0.
         24    2    4    4    0    0 -0.40939231018E+03  0.14451207962E+03  0.12293876027E+03  0.45785404082E+03  0.77656803489E+02 0.  0.
         13    1    3    3    0    0  0.48829673113E+03  0.59663313868E+03  0.55391438546E+03  0.94932920856E+03  0.00000000000E+00 0. -1.
        -13    1    3    3    0    0  0.14721342667E+02  0.37869638692E+01  0.15009282996E+01  0.15274547818E+02  0.00000000000E+00 0.  1.
          2    1    6    6  502    0 -0.33935039332E+03  0.14540500105E+03  0.87798746941E+02  0.37948639467E+03  0.00000000000E+00 0. -1.
          3    1    5    5  503    0 -0.73823764874E+02 -0.30757778435E+03  0.36993987939E+01  0.31633483405E+03  0.00000000000E+00 0. -1.
         -4    1    5    5    0  503 -0.19801998744E+02 -0.43735439782E+03  0.52136946180E+02  0.44089596234E+03  0.00000000000E+00 0.  1.
         -1    1    6    6    0  502 -0.70041916855E+02 -0.89292142834E+00  0.35140013329E+02  0.78367646144E+02  0.00000000000E+00 0.  1.
<mgrwt>
<rscale>  0 0.20523174E+04</rscale>
<asrwt>0</asrwt>
<pdfrwt beam="1">  1        2 0.22414454E+00 0.20523174E+04</pdfrwt>
<pdfrwt beam="2">  1       -2 0.11119217E+00 0.20523174E+04</pdfrwt>
<totfact> 0.79522015E+00</totfact>
</mgrwt>
</event>
<event>
12    1  0.1097093E-007  0.2076742E+04  0.7818608E-02  0.8571559E-01
          1   -1    0    0  501    0  0.00000000000E+00  0.00000000000E+00  0.18933055709E+04  0.18933055709E+04  0.00000000000E+00 0. -1.
         -1   -1    0    0    0  501 -0.00000000000E+00 -0.00000000000E+00 -0.56948765518E+03  0.56948765518E+03  0.00000000000E+00 0.  1.
         23    2    1    2    0    0 -0.49618027290E+02  0.15703869465E+03 -0.43969961109E+03  0.47812450666E+03  0.90245197251E+02 0.  0.
        254    2    1    2    0    0  0.49618027290E+02 -0.15703869465E+03  0.17635175269E+04  0.19846687195E+04  0.89542881249E+03 0.  0.
        -24    2    4    4    0    0  0.23468183810E+03 -0.17224550206E+03  0.17560679760E+04  0.17817506179E+04  0.78207736040E+02 0.  0.
         24    2    4    4    0    0 -0.18506381081E+03  0.15206807418E+02  0.74495508916E+01  0.20291810159E+03  0.81488643881E+02 0.  0.
         11    1    3    3    0    0  0.15238849241E+02  0.56920920375E+02 -0.22417071404E+03  0.23178594163E+03  0.00000000000E+00 0.  1.
        -11    1    3    3    0    0 -0.64856876531E+02  0.10011777427E+03 -0.21552889704E+03  0.24633856503E+03  0.00000000000E+00 0. -1.
          2    1    6    6  502    0 -0.18805884550E+03  0.17535451078E+02  0.19883425956E+02  0.18991832993E+03  0.00000000000E+00 0. -1.
          3    1    5    5  503    0  0.21321641660E+03 -0.13047730412E+03  0.13472073790E+04  0.13702019155E+04  0.00000000000E+00 0. -1.
         -4    1    5    5    0  503  0.21465421496E+02 -0.41768197944E+02  0.40886059694E+03  0.41154870235E+03  0.00000000000E+00 0.  1.
         -1    1    6    6    0  502  0.29950346921E+01 -0.23286436599E+01 -0.12433875065E+02  0.12999771661E+02  0.00000000000E+00 0.  1.
<mgrwt>
<rscale>  0 0.20767418E+04</rscale>
<asrwt>0</asrwt>
<pdfrwt beam="1">  1        1 0.29127778E+00 0.20767418E+04</pdfrwt>
<pdfrwt beam="2">  1       -1 0.87613487E-01 0.20767418E+04</pdfrwt>
<totfact> 0.41574447E+00</totfact>
</mgrwt>
</event>
<event>
12    1  0.1097093E-007  0.2156273E+04  0.7818608E-02  0.8536852E-01
         -2   -1    0    0    0  501 -0.00000000000E+00  0.00000000000E+00  0.70726982879E+03  0.70726982879E+03  0.00000000000E+00 0.  1.
          2   -1    0    0  501    0  0.00000000000E+00 -0.00000000000E+00 -0.16434721675E+04  0.16434721675E+04  0.00000000000E+00 0. -1.
         23    2    1    2    0    0  0.66535964821E+02 -0.19612479267E+03 -0.13341213961E+04  0.13530123484E+04  0.88716101487E+02 0.  0.
        254    2    1    2    0    0 -0.66535964821E+02  0.19612479267E+03  0.39791905734E+03  0.99772964788E+03  0.89119745575E+03 0.  0.
        -24    2    4    4    0    0 -0.44524131391E+03  0.12019095290E+03  0.37867318923E+03  0.60252870867E+03  0.83437208528E+02 0.  0.
         24    2    4    4    0    0  0.37870534909E+03  0.75933839768E+02  0.19245868115E+02  0.39520093920E+03  0.81422905005E+02 0.  0.
         11    1    3    3    0    0  0.35156420961E+02 -0.18213658171E+03 -0.12134092783E+04  0.12275063279E+04  0.00000000000E+00 0. -1.
        -11    1    3    3    0    0  0.31379543860E+02 -0.13988210956E+02 -0.12071211773E+03  0.12550602052E+03  0.00000000000E+00 0.  1.
          2    1    6    6  502    0  0.67670538573E+02 -0.56181619634E+01  0.28204019805E+02  0.73527765284E+02  0.00000000000E+00 0. -1.
          3    1    5    5  503    0 -0.78089807517E+02  0.97124233513E+01  0.29789769129E+02  0.84141425887E+02  0.00000000000E+00 0. -1.
         -4    1    5    5    0  503 -0.36715150639E+03  0.11047852955E+03  0.34888342010E+03  0.51838728279E+03  0.00000000000E+00 0.  1.
         -1    1    6    6    0  502  0.31103481051E+03  0.81552001731E+02 -0.89581516896E+01  0.32167317392E+03  0.00000000000E+00 0.  1.
<mgrwt>
<rscale>  0 0.21562730E+04</rscale>
<asrwt>0</asrwt>
<pdfrwt beam="1">  1        2 0.25284187E+00 0.21562730E+04</pdfrwt>
<pdfrwt beam="2">  1       -2 0.10881074E+00 0.21562730E+04</pdfrwt>
<totfact> 0.65255532E+00</totfact>
</mgrwt>
</event>
<event>
12    1  0.1097093E-007  0.2337068E+04  0.7818608E-02  0.8463447E-01
          2   -1    0    0  501    0  0.00000000000E+00  0.00000000000E+00  0.21931749218E+04  0.21931749218E+04  0.00000000000E+00 0.  1.
         -2   -1    0    0    0  501 -0.00000000000E+00 -0.00000000000E+00 -0.62260053884E+03  0.62260053884E+03  0.00000000000E+00 0. -1.
         23    2    1    2    0    0 -0.15064562042E+03 -0.33862044020E+03 -0.43628310658E+03  0.57883172750E+03  0.85704808456E+02 0.  0.
        254    2    1    2    0    0  0.15064562042E+03  0.33862044020E+03  0.20068574895E+04  0.22369437331E+04  0.91601439751E+03 0.  0.
        -24    2    4    4    0    0  0.15565723504E+03  0.54881058965E+01 -0.25260628119E+02  0.17613031736E+03  0.78259154308E+02 0.  0.
         24    2    4    4    0    0 -0.50116146254E+01  0.33313233431E+03  0.20321181176E+04  0.20608134157E+04  0.80284631942E+02 0.  0.
         11    1    3    3    0    0 -0.14788926803E+03 -0.32668962565E+03 -0.38513336946E+03  0.52623669520E+03  0.00000000000E+00 0. -1.
        -11    1    3    3    0    0 -0.27563523863E+01 -0.11930814557E+02 -0.51149737124E+02  0.52595032297E+02  0.00000000000E+00 0.  1.
          2    1    6    6  502    0 -0.72232864388E+01  0.30677435048E+01  0.13251307531E+03  0.13274525244E+03  0.00000000000E+00 0. -1.
          3    1    5    5  503    0  0.98383690657E+02 -0.34647881565E+02 -0.17499987941E+02  0.10576424662E+03  0.00000000000E+00 0. -1.
         -4    1    5    5    0  503  0.57273544384E+02  0.40135987462E+02 -0.77606401780E+01  0.70366070743E+02  0.00000000000E+00 0.  1.
         -1    1    6    6    0  502  0.22116718134E+01  0.33006459080E+03  0.18996050423E+04  0.19280681633E+04  0.00000000000E+00 0.  1.
<mgrwt>
<rscale>  0 0.23370682E+04</rscale>
<asrwt>0</asrwt>
<pdfrwt beam="1">  1        2 0.33741152E+00 0.23370682E+04</pdfrwt>
<pdfrwt beam="2">  1       -2 0.95784699E-01 0.23370682E+04</pdfrwt>
<totfact> 0.43044612E+00</totfact>
</mgrwt>
</event>
<event>
12    1  0.1097093E-007  0.1450256E+04  0.7818608E-02  0.8918223E-01
          2   -1    0    0  501    0  0.00000000000E+00  0.00000000000E+00  0.27729486075E+03  0.27729486075E+03  0.00000000000E+00 0.  1.
         -2   -1    0    0    0  501 -0.00000000000E+00 -0.00000000000E+00 -0.18962153892E+04  0.18962153892E+04  0.00000000000E+00 0. -1.
         23    2    1    2    0    0  0.24528289827E+03 -0.19526507796E+03 -0.89611093550E+03  0.95415345305E+03  0.95403628885E+02 0.  0.
        254    2    1    2    0    0 -0.24528289827E+03  0.19526507796E+03 -0.72280959297E+03  0.12193567969E+04  0.93063695371E+03 0.  0.
        -24    2    4    4    0    0 -0.10481293625E+03  0.16398624679E+01  0.21238812366E+03  0.24988872508E+03  0.79669436407E+02 0.  0.
         24    2    4    4    0    0 -0.14046996203E+03  0.19362521549E+03 -0.93519771663E+03  0.96946807182E+03  0.89727580895E+02 0.  0.
         11    1    3    3    0    0  0.50023528111E+02 -0.92476002322E+02 -0.24290689038E+03  0.26468457032E+03  0.00000000000E+00 0.  1.
        -11    1    3    3    0    0  0.19525937016E+03 -0.10278907564E+03 -0.65320404512E+03  0.68946888274E+03  0.00000000000E+00 0. -1.
          4    1    6    6  502    0 -0.10092758842E+03  0.11717438157E+03 -0.74230384339E+03  0.75824218408E+03  0.00000000000E+00 0. -1.
          3    1    5    5  503    0 -0.86918114111E+02  0.34413144969E+02  0.16394473764E+03  0.18872440252E+03  0.00000000000E+00 0. -1.
         -4    1    5    5    0  503 -0.17894822135E+02 -0.32773282501E+02  0.48443386023E+02  0.61164322562E+02  0.00000000000E+00 0.  1.
         -3    1    6    6    0  502 -0.39542373601E+02  0.76450833923E+02 -0.19289387324E+03  0.21122588774E+03  0.00000000000E+00 0.  1.
<mgrwt>
<rscale>  0 0.14502562E+04</rscale>
<asrwt>0</asrwt>
<pdfrwt beam="1">  1        2 0.42660748E-01 0.14502562E+04</pdfrwt>
<pdfrwt beam="2">  1       -2 0.29172545E+00 0.14502562E+04</pdfrwt>
<totfact> 0.41664882E+00</totfact>
</mgrwt>
</event>
<event>
12    1  0.1097093E-007  0.2191178E+04  0.7818608E-02  0.8522109E-01
          2   -1    0    0  501    0  0.00000000000E+00  0.00000000000E+00  0.26116440315E+04  0.26116440315E+04  0.00000000000E+00 0.  1.
         -2   -1    0    0    0  501 -0.00000000000E+00 -0.00000000000E+00 -0.45960155537E+03  0.45960155537E+03  0.00000000000E+00 0. -1.
         23    2    1    2    0    0 -0.16309829735E+03  0.73083785131E+03  0.16350123608E+04  0.18005968163E+04  0.90324168748E+02 0.  0.
        254    2    1    2    0    0  0.16309829735E+03 -0.73083785131E+03  0.51703011536E+03  0.12706487706E+04  0.88685012177E+03 0.  0.
        -24    2    4    4    0    0 -0.28493791324E+03 -0.58113341088E+03  0.43682987250E+03  0.78488770968E+03  0.79515556166E+02 0.  0.
         24    2    4    4    0    0  0.44803621059E+03 -0.14970444044E+03  0.80200242868E+02  0.48576106090E+03  0.79899085393E+02 0.  0.
         11    1    3    3    0    0 -0.24532486310E+02  0.29746212552E+03  0.68814626750E+03  0.75008722458E+03  0.00000000000E+00 0. -1.
        -11    1    3    3    0    0 -0.13856581104E+03  0.43337572579E+03  0.94686609328E+03  0.10505095917E+04  0.00000000000E+00 0.  1.
          4    1    6    6  502    0  0.22055028856E+02 -0.66622503510E+01  0.23384024406E+02  0.32827160630E+02  0.00000000000E+00 0. -1.
          3    1    5    5  503    0 -0.22020816134E+02 -0.72906424582E+02  0.26011779827E+02  0.80479039373E+02  0.00000000000E+00 0. -1.
         -4    1    5    5    0  503 -0.26291709711E+03 -0.50822698629E+03  0.41081809267E+03  0.70440867031E+03  0.00000000000E+00 0.  1.
         -3    1    6    6    0  502  0.42598118173E+03 -0.14304219008E+03  0.56816218461E+02  0.45293390027E+03  0.00000000000E+00 0.  1.
<mgrwt>
<rscale>  0 0.21911784E+04</rscale>
<asrwt>0</asrwt>
<pdfrwt beam="1">  1        2 0.40179138E+00 0.21911784E+04</pdfrwt>
<pdfrwt beam="2">  1       -2 0.70707933E-01 0.21911784E+04</pdfrwt>
<totfact> 0.49840926E+00</totfact>
</mgrwt>
</event>
<event>
12    1  0.1097093E-007  0.2699087E+04  0.7818608E-02  0.8335301E-01
          2   -1    0    0  501    0  0.00000000000E+00  0.00000000000E+00  0.10629685588E+04  0.10629685588E+04  0.00000000000E+00 0. -1.
         -2   -1    0    0    0  501 -0.00000000000E+00 -0.00000000000E+00 -0.17133785478E+04  0.17133785478E+04  0.00000000000E+00 0.  1.
         23    2    1    2    0    0 -0.32052019081E+03  0.87067548131E+03  0.45625337659E+03  0.10379176552E+04  0.91087478632E+02 0.  0.
        254    2    1    2    0    0  0.32052019081E+03 -0.87067548131E+03 -0.11066633656E+04  0.17384294514E+04  0.96779345238E+03 0.  0.
        -24    2    4    4    0    0 -0.25733715996E+03 -0.95929315296E+02 -0.26744696756E+02  0.28708499708E+03  0.79231744356E+02 0.  0.
         24    2    4    4    0    0  0.57785735076E+03 -0.77474616601E+03 -0.10799186688E+04  0.14513444544E+04  0.77625088559E+02 0.  0.
         13    1    3    3    0    0 -0.11490958125E+03  0.19984121985E+03  0.10633331334E+03  0.25386511879E+03  0.00000000000E+00 0.  1.
        -13    1    3    3    0    0 -0.20561060956E+03  0.67083426146E+03  0.34992006325E+03  0.78405253636E+03  0.00000000000E+00 0. -1.
          2    1    6    6  502    0 -0.11898450128E+01 -0.10449273086E+02 -0.15282959633E+02  0.18551870373E+02  0.00000000000E+00 0. -1.
          1    1    5    5  503    0 -0.41361436706E+02  0.95457390850E+01  0.10835783294E+02  0.43809859400E+02  0.00000000000E+00 0. -1.
         -2    1    5    5    0  503 -0.21597572325E+03 -0.10547505438E+03 -0.37580480050E+02  0.24327513768E+03  0.00000000000E+00 0.  1.
         -1    1    6    6    0  502  0.57904719578E+03 -0.76429689293E+03 -0.10646357092E+04  0.14327925840E+04  0.00000000000E+00 0.  1.
<mgrwt>
<rscale>  0 0.26990869E+04</rscale>
<asrwt>0</asrwt>
<pdfrwt beam="1">  1        2 0.16353363E+00 0.26990869E+04</pdfrwt>
<pdfrwt beam="2">  1       -2 0.26359670E+00 0.26990869E+04</pdfrwt>
<totfact> 0.10689616E+00</totfact>
</mgrwt>
</event>
<event>
12    1  0.1097093E-007  0.1169045E+04  0.7818608E-02  0.9140391E-01
         -2   -1    0    0    0  501 -0.00000000000E+00  0.00000000000E+00  0.10195368858E+03  0.10195368858E+03  0.00000000000E+00 0. -1.
          2   -1    0    0  501    0  0.00000000000E+00 -0.00000000000E+00 -0.33511947919E+04  0.33511947919E+04  0.00000000000E+00 0.  1.
         23    2    1    2    0    0 -0.46114990128E+02 -0.11203783605E+03 -0.12972532256E+03  0.19994287125E+03  0.92029470431E+02 0.  0.
        254    2    1    2    0    0  0.46114990128E+02  0.11203783605E+03 -0.31195157808E+04  0.32532056093E+04  0.91503495042E+03 0.  0.
        -24    2    4    4    0    0 -0.12526788753E+03  0.20610756446E+03 -0.19280507907E+03  0.31892108828E+03  0.79777755432E+02 0.  0.
         24    2    4    4    0    0  0.17138287766E+03 -0.94069728407E+02 -0.29267107017E+04  0.29342845210E+04  0.78542433862E+02 0.  0.
         11    1    3    3    0    0 -0.62025060665E+02 -0.11757600117E+03 -0.10222881956E+03  0.16769602187E+03  0.00000000000E+00 0. -1.
        -11    1    3    3    0    0  0.15910070538E+02  0.55381651229E+01 -0.27496503005E+02  0.32246849380E+02  0.00000000000E+00 0.  1.
          2    1    6    6  502    0  0.31307191644E+02  0.12390522257E+02 -0.58966976587E+03  0.59063025496E+03  0.00000000000E+00 0. -1.
          1    1    5    5  503    0 -0.50843053094E+01  0.46714275931E+02 -0.70767904391E+02  0.84948043110E+02  0.00000000000E+00 0. -1.
         -2    1    5    5    0  503 -0.12018358222E+03  0.15939328852E+03 -0.12203717468E+03  0.23397304517E+03  0.00000000000E+00 0.  1.
         -1    1    6    6    0  502  0.14007568602E+03 -0.10646025066E+03 -0.23370409359E+04  0.23436542660E+04  0.00000000000E+00 0.  1.
<mgrwt>
<rscale>  0 0.11690452E+04</rscale>
<asrwt>0</asrwt>
<pdfrwt beam="1">  1        2 0.51556835E+00 0.11690452E+04</pdfrwt>
<pdfrwt beam="2">  1       -2 0.15685185E-01 0.11690452E+04</pdfrwt>
<totfact> 0.33909506E+01</totfact>
</mgrwt>
</event>
<event>
12    1  0.1097093E-007  0.2040539E+04  0.7818608E-02  0.8587899E-01
          2   -1    0    0  501    0  0.00000000000E+00  0.00000000000E+00  0.20907912963E+04  0.20907912963E+04  0.00000000000E+00 0. -1.
         -2   -1    0    0    0  501 -0.00000000000E+00 -0.00000000000E+00 -0.49787347413E+03  0.49787347413E+03  0.00000000000E+00 0.  1.
         23    2    1    2    0    0 -0.67108958992E+03  0.29197560122E+03  0.11076939308E+04  0.13306341566E+04  0.89389177768E+02 0.  0.
        254    2    1    2    0    0  0.67108958992E+03 -0.29197560122E+03  0.48522389144E+03  0.12580306138E+04  0.90088168544E+03 0.  0.
        -24    2    4    4    0    0  0.56724752279E+03  0.21934595419E+03  0.14628825162E+03  0.63070673274E+03  0.80674224046E+02 0.  0.
         24    2    4    4    0    0  0.10384206712E+03 -0.51132155542E+03  0.33893563982E+03  0.62732388111E+03  0.80155947583E+02 0.  0.
         13    1    3    3    0    0 -0.73592828074E+02  0.62165305776E+02  0.12496899750E+03  0.15778998676E+03  0.00000000000E+00 0.  1.
        -13    1    3    3    0    0 -0.59749676184E+03  0.22981029545E+03  0.98272493327E+03  0.11728441699E+04  0.00000000000E+00 0. -1.
          4    1    6    6  502    0  0.84084235573E+02 -0.41569877041E+03  0.31048685470E+03  0.52562126416E+03  0.00000000000E+00 0. -1.
          3    1    5    5  503    0  0.50664619510E+03  0.16844145529E+03  0.11921753575E+03  0.54706097621E+03  0.00000000000E+00 0. -1.
         -4    1    5    5    0  503  0.60601327697E+02  0.50904498902E+02  0.27070715867E+02  0.83645756525E+02  0.00000000000E+00 0.  1.
         -3    1    6    6    0  502  0.19757831551E+02 -0.95622785007E+02  0.28448785114E+02  0.10170261695E+03  0.00000000000E+00 0.  1.
<mgrwt>
<rscale>  0 0.20405387E+04</rscale>
<asrwt>0</asrwt>
<pdfrwt beam="1">  1        2 0.32166019E+00 0.20405387E+04</pdfrwt>
<pdfrwt beam="2">  1       -2 0.76595920E-01 0.20405387E+04</pdfrwt>
<totfact> 0.83891435E+00</totfact>
</mgrwt>
</event>
<event>
12    1  0.1097093E-007  0.1946316E+04  0.7818608E-02  0.8632139E-01
          2   -1    0    0  501    0  0.00000000000E+00  0.00000000000E+00  0.10562083288E+04  0.10562083288E+04  0.00000000000E+00 0. -1.
         -2   -1    0    0    0  501 -0.00000000000E+00 -0.00000000000E+00 -0.89663840214E+03  0.89663840214E+03  0.00000000000E+00 0.  1.
         23    2    1    2    0    0  0.28692521630E+03  0.66149400452E+03  0.28361305426E+03  0.78019566211E+03  0.91479554327E+02 0.  0.
        254    2    1    2    0    0 -0.28692521630E+03 -0.66149400452E+03 -0.12404312760E+03  0.11726510688E+04  0.91641880924E+03 0.  0.
        -24    2    4    4    0    0  0.32697066179E+03 -0.25415232780E+03 -0.45110251335E+01  0.42212078671E+03  0.81623463731E+02 0.  0.
         24    2    4    4    0    0 -0.61389587809E+03 -0.40734167672E+03 -0.11953210247E+03  0.75053028211E+03  0.78818716753E+02 0.  0.
         11    1    3    3    0    0  0.43387781495E+02  0.20050634378E+03  0.69873306442E+02  0.21672003237E+03  0.00000000000E+00 0.  1.
        -11    1    3    3    0    0  0.24353743481E+03  0.46098766074E+03  0.21373974782E+03  0.56347562973E+03  0.00000000000E+00 0. -1.
          2    1    6    6  502    0 -0.58098289610E+03 -0.38665816486E+03 -0.13084181472E+03  0.71004594393E+03  0.00000000000E+00 0. -1.
          1    1    5    5  503    0  0.14021410299E+03 -0.70554537287E+02  0.23591372237E+02  0.15872772364E+03  0.00000000000E+00 0. -1.
         -2    1    5    5    0  503  0.18675655880E+03 -0.18359779051E+03 -0.28102397371E+02  0.26339306307E+03  0.00000000000E+00 0.  1.
         -3    1    6    6    0  502 -0.32912981990E+02 -0.20683511866E+02  0.11309712252E+02  0.40484338180E+02  0.00000000000E+00 0.  1.
<mgrwt>
<rscale>  0 0.19463165E+04</rscale>
<asrwt>0</asrwt>
<pdfrwt beam="1">  1        2 0.16249359E+00 0.19463165E+04</pdfrwt>
<pdfrwt beam="2">  1       -2 0.13794437E+00 0.19463165E+04</pdfrwt>
<totfact> 0.80789724E+00</totfact>
</mgrwt>
</event>
<event>
12    1  0.1097093E-007  0.1266435E+04  0.7818608E-02  0.9056615E-01
          2   -1    0    0  501    0  0.00000000000E+00  0.00000000000E+00  0.52274587597E+03  0.52274587597E+03  0.00000000000E+00 0.  1.
         -2   -1    0    0    0  501 -0.00000000000E+00 -0.00000000000E+00 -0.76703452343E+03  0.76703452343E+03  0.00000000000E+00 0. -1.
         23    2    1    2    0    0  0.58689233823E+02 -0.37427668103E+02  0.22884399196E+03  0.25937572679E+03  0.10030422966E+03 0.  0.
        254    2    1    2    0    0 -0.58689233823E+02  0.37427668103E+02 -0.47313263941E+03  0.10304046726E+04  0.91270698383E+03 0.  0.
        -24    2    4    4    0    0 -0.42184586150E+01 -0.11766775684E+03 -0.71354190821E+03  0.72757209200E+03  0.79722003826E+02 0.  0.
         24    2    4    4    0    0 -0.54470775208E+02  0.15509542495E+03  0.24040926880E+03  0.30283258060E+03  0.83001802124E+02 0.  0.
         13    1    3    3    0    0  0.21687412732E+02  0.33606560604E+02  0.55376024092E+02  0.68309946793E+02  0.00000000000E+00 0. -1.
        -13    1    3    3    0    0  0.37001821091E+02 -0.71034228707E+02  0.17346796786E+03  0.19106578000E+03  0.00000000000E+00 0.  1.
          2    1    6    6  502    0  0.18524125122E+02  0.33627461543E+02  0.80363612033E+02  0.89063233269E+02  0.00000000000E+00 0. -1.
          1    1    5    5  503    0  0.12586634856E+02  0.82604192760E+01 -0.67814145096E+02  0.69465215602E+02  0.00000000000E+00 0. -1.
         -2    1    5    5    0  503 -0.16805093472E+02 -0.12592817612E+03 -0.64572776312E+03  0.65810687640E+03  0.00000000000E+00 0.  1.
         -1    1    6    6    0  502 -0.72994900330E+02  0.12146796341E+03  0.16004565676E+03  0.21376934733E+03  0.00000000000E+00 0.  1.
<mgrwt>
<rscale>  0 0.12664346E+04</rscale>
<asrwt>0</asrwt>
<pdfrwt beam="1">  1        2 0.80422443E-01 0.12664346E+04</pdfrwt>
<pdfrwt beam="2">  1       -2 0.11800531E+00 0.12664346E+04</pdfrwt>
<totfact> 0.31781420E+01</totfact>
</mgrwt>
</event>
<event>
12    1  0.1097093E-007  0.2381929E+04  0.7818608E-02  0.8446300E-01
          2   -1    0    0  501    0  0.00000000000E+00  0.00000000000E+00  0.27130596068E+04  0.27130596068E+04  0.00000000000E+00 0. -1.
         -2   -1    0    0    0  501 -0.00000000000E+00 -0.00000000000E+00 -0.52280335155E+03  0.52280335155E+03  0.00000000000E+00 0.  1.
         23    2    1    2    0    0 -0.73913637003E+03 -0.10422050870E+03  0.19278455618E+04  0.20692732904E+04  0.90105228165E+02 0.  0.
        254    2    1    2    0    0  0.73913637003E+03  0.10422050870E+03  0.26241069347E+03  0.11665896680E+04  0.85725585067E+03 0.  0.
        -24    2    4    4    0    0  0.53604047059E+03  0.39825566708E+01 -0.25294484496E+03  0.59814301727E+03  0.80241682743E+02 0.  0.
         24    2    4    4    0    0  0.20309589944E+03  0.10023795203E+03  0.51535553843E+03  0.56844665073E+03  0.79023239277E+02 0.  0.
         11    1    3    3    0    0 -0.15762300242E+03 -0.37863108364E+02  0.51775774173E+03  0.54254189238E+03  0.00000000000E+00 0.  1.
        -11    1    3    3    0    0 -0.58151336761E+03 -0.66357400339E+02  0.14100878201E+04  0.15267313980E+04  0.00000000000E+00 0. -1.
          4    1    6    6  502    0  0.12496006244E+03  0.24000893667E+02  0.32481482560E+03  0.34884915226E+03  0.00000000000E+00 0. -1.
          1    1    5    5  503    0  0.33915279735E+03  0.37126447303E+02 -0.17854847504E+03  0.38507473428E+03  0.00000000000E+00 0. -1.
         -2    1    5    5    0  503  0.19688767324E+03 -0.33143890632E+02 -0.74396369916E+02  0.21306828299E+03  0.00000000000E+00 0.  1.
         -3    1    6    6    0  502  0.78135836998E+02  0.76237058366E+02  0.19054071283E+03  0.21959749848E+03  0.00000000000E+00 0.  1.
<mgrwt>
<rscale>  0 0.23819292E+04</rscale>
<asrwt>0</asrwt>
<pdfrwt beam="1">  1        2 0.41739378E+00 0.23819292E+04</pdfrwt>
<pdfrwt beam="2">  1       -2 0.80431286E-01 0.23819292E+04</pdfrwt>
<totfact> 0.32080456E+00</totfact>
</mgrwt>
</event>
<event>
12    1  0.1097093E-007  0.1525762E+04  0.7818608E-02  0.8867500E-01
         -2   -1    0    0    0  501 -0.00000000000E+00  0.00000000000E+00  0.43445281767E+03  0.43445281767E+03  0.00000000000E+00 0.  1.
          2   -1    0    0  501    0  0.00000000000E+00 -0.00000000000E+00 -0.13395869088E+04  0.13395869088E+04  0.00000000000E+00 0. -1.
         23    2    1    2    0    0 -0.20712376125E+03  0.30635776643E+03 -0.71729963788E+03  0.81222280443E+03  0.91824724327E+02 0.  0.
        254    2    1    2    0    0  0.20712376125E+03 -0.30635776643E+03 -0.18783445321E+03  0.96181692201E+03  0.86778722975E+03 0.  0.
        -24    2    4    4    0    0  0.26094879735E+03 -0.23233540232E+03  0.29461621771E+03  0.46382782639E+03  0.79142420889E+02 0.  0.
         24    2    4    4    0    0 -0.53825036108E+02 -0.74022364111E+02 -0.48245067092E+03  0.49798909562E+03  0.82813311630E+02 0.  0.
         13    1    3    3    0    0 -0.20342810527E+03  0.30383275608E+03 -0.65811886757E+03  0.75287301820E+03  0.00000000000E+00 0. -1.
        -13    1    3    3    0    0 -0.36956559723E+01  0.25250103542E+01 -0.59180770314E+02  0.59349786228E+02  0.00000000000E+00 0.  1.
          2    1    6    6  502    0 -0.17619665474E+02  0.17510229110E+02 -0.10757418788E+03  0.11040501182E+03  0.00000000000E+00 0. -1.
          1    1    5    5  503    0  0.14732613247E+03 -0.14676888638E+03  0.12567535476E+03  0.24298228353E+03  0.00000000000E+00 0. -1.
         -2    1    5    5    0  503  0.11362266489E+03 -0.85566515945E+02  0.16894086294E+03  0.22084554285E+03  0.00000000000E+00 0.  1.
         -1    1    6    6    0  502 -0.36205370634E+02 -0.91532593221E+02 -0.37487648304E+03  0.38758408380E+03  0.00000000000E+00 0.  1.
<mgrwt>
<rscale>  0 0.15257619E+04</rscale>
<asrwt>0</asrwt>
<pdfrwt beam="1">  1        2 0.20609029E+00 0.15257619E+04</pdfrwt>
<pdfrwt beam="2">  1       -2 0.66838896E-01 0.15257619E+04</pdfrwt>
<totfact> 0.31076391E+01</totfact>
</mgrwt>
</event>
<event>
12    1  0.1097093E-007  0.2366487E+04  0.7818608E-02  0.8452158E-01
         -1   -1    0    0    0  501 -0.00000000000E+00  0.00000000000E+00  0.18904114468E+04  0.18904114468E+04  0.00000000000E+00 0.  1.
          1   -1    0    0  501    0  0.00000000000E+00 -0.00000000000E+00 -0.74061401866E+03  0.74061401866E+03  0.00000000000E+00 0. -1.
         23    2    1    2    0    0 -0.76799600232E+03  0.49318145507E+03  0.13687921444E+02  0.91734914572E+03  0.91083965443E+02 0.  0.
        254    2    1    2    0    0  0.76799600232E+03 -0.49318145507E+03  0.11361095067E+04  0.17136763198E+04  0.90160740373E+03 0.  0.
        -24    2    4    4    0    0 -0.26918180462E+02 -0.13317207072E+03 -0.10857819535E+03  0.19131388449E+03  0.79701875983E+02 0.  0.
         24    2    4    4    0    0  0.79491418278E+03 -0.36000938435E+03  0.12446877021E+04  0.15223624353E+04  0.82732060673E+02 0.  0.
         11    1    3    3    0    0 -0.70320320791E+03  0.45608471286E+03 -0.12435597649E+02  0.83824976052E+03  0.00000000000E+00 0. -1.
        -11    1    3    3    0    0 -0.64792794403E+02  0.37096742210E+02  0.26123519092E+02  0.79099385200E+02  0.00000000000E+00 0.  1.
          2    1    6    6  502    0  0.67880744748E+03 -0.28839634489E+03  0.10051972502E+04  0.12467451682E+04  0.00000000000E+00 0. -1.
          3    1    5    5  503    0 -0.46051260890E+02 -0.99899684161E+02 -0.10613141138E+03  0.15285464339E+03  0.00000000000E+00 0. -1.
         -4    1    5    5    0  503  0.19133080428E+02 -0.33272386559E+02 -0.24467839627E+01  0.38459241097E+02  0.00000000000E+00 0.  1.
         -1    1    6    6    0  502  0.11610673530E+03 -0.71613039461E+02  0.23949045185E+03  0.27561726711E+03  0.00000000000E+00 0.  1.
<mgrwt>
<rscale>  0 0.23664870E+04</rscale>
<asrwt>0</asrwt>
<pdfrwt beam="1">  1        1 0.11394062E+00 0.23664870E+04</pdfrwt>
<pdfrwt beam="2">  1       -1 0.29083253E+00 0.23664870E+04</pdfrwt>
<totfact> 0.85018043E-01</totfact>
</mgrwt>
</event>
<event>
12    1  0.1097093E-007  0.2180739E+04  0.7818608E-02  0.8526488E-01
         -1   -1    0    0    0  501 -0.00000000000E+00  0.00000000000E+00  0.10220063323E+04  0.10220063323E+04  0.00000000000E+00 0.  1.
          1   -1    0    0  501    0  0.00000000000E+00 -0.00000000000E+00 -0.11633050601E+04  0.11633050601E+04  0.00000000000E+00 0. -1.
         23    2    1    2    0    0  0.85144912811E+03  0.90491959488E+02 -0.33514481897E+03  0.92423523548E+03  0.93457521488E+02 0.  0.
        254    2    1    2    0    0 -0.85144912811E+03 -0.90491959488E+02  0.19384609108E+03  0.12610761569E+04  0.90530787804E+03 0.  0.
        -24    2    4    4    0    0  0.97500261202E+02 -0.14252392093E+03 -0.15543498207E+03  0.24538650394E+03  0.78962862766E+02 0.  0.
         24    2    4    4    0    0 -0.94894938931E+03  0.52031961437E+02  0.34928107315E+03  0.10156896530E+04  0.80099529499E+02 0.  0.
         11    1    3    3    0    0  0.17132065172E+03  0.28402981610E+02 -0.30093934555E+02  0.17624738287E+03  0.00000000000E+00 0. -1.
        -11    1    3    3    0    0  0.68012847639E+03  0.62088977877E+02 -0.30505088441E+03  0.74798785261E+03  0.00000000000E+00 0.  1.
          4    1    6    6  502    0 -0.72786447993E+03  0.73768912334E+02  0.26763069056E+03  0.77900881902E+03  0.00000000000E+00 0. -1.
          1    1    5    5  503    0  0.87703896907E+02 -0.59464268502E+02 -0.93488805148E+02  0.14130863190E+03  0.00000000000E+00 0. -1.
         -2    1    5    5    0  503  0.97963642946E+01 -0.83059652423E+02 -0.61946176921E+02  0.10407787204E+03  0.00000000000E+00 0.  1.
         -3    1    6    6    0  502 -0.22108490938E+03 -0.21736950897E+02  0.81650382593E+02  0.23668083397E+03  0.00000000000E+00 0.  1.
<mgrwt>
<rscale>  0 0.21807385E+04</rscale>
<asrwt>0</asrwt>
<pdfrwt beam="1">  1        1 0.17897001E+00 0.21807385E+04</pdfrwt>
<pdfrwt beam="2">  1       -1 0.15723174E+00 0.21807385E+04</pdfrwt>
<totfact> 0.31860934E+00</totfact>
</mgrwt>
</event>
<event>
12    1  0.1097093E-007  0.1443659E+04  0.7818608E-02  0.8922808E-01
          1   -1    0    0  501    0  0.00000000000E+00  0.00000000000E+00  0.12495933450E+04  0.12495933450E+04  0.00000000000E+00 0. -1.
         -1   -1    0    0    0  501 -0.00000000000E+00 -0.00000000000E+00 -0.41696608282E+03  0.41696608282E+03  0.00000000000E+00 0.  1.
         23    2    1    2    0    0 -0.17605208913E+03 -0.14353652570E+03 -0.17270278194E+03  0.29933040082E+03  0.90417728695E+02 0.  0.
        254    2    1    2    0    0  0.17605208913E+03  0.14353652570E+03  0.10053300441E+04  0.13672290270E+04  0.89834828565E+03 0.  0.
        -24    2    4    4    0    0  0.14210616855E+03 -0.13341741099E+03 -0.93926102627E+02  0.23042678829E+03  0.79246598116E+02 0.  0.
         24    2    4    4    0    0  0.33945920588E+02  0.27695393669E+03  0.10992561467E+04  0.11368022387E+04  0.78098944834E+02 0.  0.
         13    1    3    3    0    0 -0.48187073607E+02 -0.86737110513E+00 -0.60352874052E+02  0.77234809521E+02  0.00000000000E+00 0. -1.
        -13    1    3    3    0    0 -0.12786501553E+03 -0.14266915460E+03 -0.11234990789E+03  0.22209559130E+03  0.00000000000E+00 0.  1.
          4    1    6    6  502    0  0.12714921047E+02  0.18204948349E+03  0.56420292475E+03  0.59298281927E+03  0.00000000000E+00 0. -1.
          3    1    5    5  503    0  0.10529753871E+03 -0.10951453681E+03 -0.10559045519E+03  0.18501445797E+03  0.00000000000E+00 0. -1.
         -4    1    5    5    0  503  0.36808629835E+02 -0.23902874173E+02  0.11664352561E+02  0.45412330316E+02  0.00000000000E+00 0.  1.
         -3    1    6    6    0  502  0.21230999540E+02  0.94904453196E+02  0.53505322199E+03  0.54381941942E+03  0.00000000000E+00 0.  1.
<mgrwt>
<rscale>  0 0.14436593E+04</rscale>
<asrwt>0</asrwt>
<pdfrwt beam="1">  1        1 0.19224513E+00 0.14436593E+04</pdfrwt>
<pdfrwt beam="2">  1       -1 0.64148629E-01 0.14436593E+04</pdfrwt>
<totfact> 0.23547614E+01</totfact>
</mgrwt>
</event>
<event>
12    1  0.1097093E-007  0.1084698E+04  0.7818608E-02  0.9220236E-01
         -2   -1    0    0    0  501 -0.00000000000E+00  0.00000000000E+00  0.14878850584E+03  0.14878850584E+03  0.00000000000E+00 0.  1.
          2   -1    0    0  501    0  0.00000000000E+00 -0.00000000000E+00 -0.19769176227E+04  0.19769176227E+04  0.00000000000E+00 0. -1.
         23    2    1    2    0    0  0.57885351029E+02 -0.80050662988E+02 -0.81292018424E+02  0.15744054976E+03  0.91762257721E+02 0.  0.
        254    2    1    2    0    0 -0.57885351029E+02  0.80050662988E+02 -0.17468370985E+04  0.19682655788E+04  0.90159343256E+03 0.  0.
        -24    2    4    4    0    0  0.25098410759E+03 -0.27116887394E+03 -0.45172598363E+03  0.58902001565E+03  0.79766121216E+02 0.  0.
         24    2    4    4    0    0 -0.30886945862E+03  0.35121953692E+03 -0.12951111149E+04  0.13792455632E+04  0.79057056226E+02 0.  0.
         13    1    3    3    0    0  0.76877234549E+02 -0.55724075200E+02 -0.33767986448E+02  0.10077479178E+03  0.00000000000E+00 0.  1.
        -13    1    3    3    0    0 -0.18991883521E+02 -0.24326587788E+02 -0.47524031976E+02  0.56665757988E+02  0.00000000000E+00 0. -1.
          4    1    6    6  502    0 -0.84114251150E+02  0.67356832815E+02 -0.22352111829E+03  0.24814076750E+03  0.00000000000E+00 0. -1.
          1    1    5    5  503    0  0.22305765890E+03 -0.21475504776E+03 -0.40880774964E+03  0.51283352650E+03  0.00000000000E+00 0. -1.
         -2    1    5    5    0  503  0.27926448684E+02 -0.56413826181E+02 -0.42918233987E+02  0.76186489151E+02  0.00000000000E+00 0.  1.
         -3    1    6    6    0  502 -0.22475520747E+03  0.28386270411E+03 -0.10715899966E+04  0.11311047957E+04  0.00000000000E+00 0.  1.
<mgrwt>
<rscale>  0 0.10846983E+04</rscale>
<asrwt>0</asrwt>
<pdfrwt beam="1">  1        2 0.30414118E+00 0.10846983E+04</pdfrwt>
<pdfrwt beam="2">  1       -2 0.22890539E-01 0.10846983E+04</pdfrwt>
<totfact> 0.11526652E+02</totfact>
</mgrwt>
</event>
<event>
12    1  0.1097093E-007  0.1595735E+04  0.7818608E-02  0.8823173E-01
          2   -1    0    0  501    0  0.00000000000E+00  0.00000000000E+00  0.10587916057E+04  0.10587916057E+04  0.00000000000E+00 0. -1.
         -2   -1    0    0    0  501 -0.00000000000E+00 -0.00000000000E+00 -0.60124433962E+03  0.60124433962E+03  0.00000000000E+00 0.  1.
         23    2    1    2    0    0  0.39900622437E+03  0.18687265589E+03  0.51977538184E+03  0.68737039886E+03  0.90466905840E+02 0.  0.
        254    2    1    2    0    0 -0.39900622437E+03 -0.18687265589E+03 -0.62228115719E+02  0.97266554651E+03  0.86491535446E+03 0.  0.
        -24    2    4    4    0    0  0.13708454495E+03  0.14726952054E+03  0.19075614829E+03  0.28782067237E+03  0.77280962661E+02 0.  0.
         24    2    4    4    0    0 -0.53609076933E+03 -0.33414217643E+03 -0.25298426400E+03  0.68484487414E+03  0.77247373954E+02 0.  0.
         11    1    3    3    0    0  0.25177071526E+03  0.69033761430E+02  0.31027899686E+03  0.40549625050E+03  0.00000000000E+00 0. -1.
        -11    1    3    3    0    0  0.14723550912E+03  0.11783889446E+03  0.20949638497E+03  0.28187414835E+03  0.00000000000E+00 0.  1.
          4    1    6    6  502    0 -0.32369192251E+02 -0.43508214387E+01 -0.24671862133E+02  0.40931589698E+02  0.00000000000E+00 0. -1.
          1    1    5    5  503    0  0.10092938405E+02  0.17448894895E+02  0.62023954758E+02  0.65217346638E+02  0.00000000000E+00 0. -1.
         -2    1    5    5    0  503  0.12699160655E+03  0.12982062564E+03  0.12873219353E+03  0.22260332573E+03  0.00000000000E+00 0.  1.
         -3    1    6    6    0  502 -0.50372157707E+03 -0.32979135499E+03 -0.22831240187E+03  0.64391328444E+03  0.00000000000E+00 0.  1.
<mgrwt>
<rscale>  0 0.15957349E+04</rscale>
<asrwt>0</asrwt>
<pdfrwt beam="1">  1        2 0.16289102E+00 0.15957349E+04</pdfrwt>
<pdfrwt beam="2">  1       -2 0.92499129E-01 0.15957349E+04</pdfrwt>
<totfact> 0.21993662E+01</totfact>
</mgrwt>
</event>
<event>
12    1  0.1097093E-007  0.1641661E+04  0.7818608E-02  0.8795355E-01
         -1   -1    0    0    0  501 -0.00000000000E+00  0.00000000000E+00  0.46468936730E+03  0.46468936730E+03  0.00000000000E+00 0.  1.
          1   -1    0    0  501    0  0.00000000000E+00 -0.00000000000E+00 -0.14499202317E+04  0.14499202317E+04  0.00000000000E+00 0. -1.
         23    2    1    2    0    0  0.45272012637E+03  0.29666741059E+03 -0.23161873315E+03  0.59545270899E+03  0.89160673903E+02 0.  0.
        254    2    1    2    0    0 -0.45272012637E+03 -0.29666741059E+03 -0.75361213125E+03  0.13191568900E+04  0.93769749428E+03 0.  0.
        -24    2    4    4    0    0 -0.47748438713E+02 -0.43526718296E+03  0.40431891321E+01  0.44445435867E+03  0.76065074776E+02 0.  0.
         24    2    4    4    0    0 -0.40497168766E+03  0.13859977237E+03 -0.75765532038E+03  0.87470253135E+03  0.88605694702E+02 0.  0.
         13    1    3    3    0    0  0.30004865352E+03  0.20893492344E+03 -0.11131730348E+03  0.38219698948E+03  0.00000000000E+00 0. -1.
        -13    1    3    3    0    0  0.15267147285E+03  0.87732487148E+02 -0.12030142967E+03  0.21325571951E+03  0.00000000000E+00 0.  1.
          4    1    6    6  502    0 -0.69616948252E+02  0.51364073072E+02 -0.10768669401E+03  0.13813475867E+03  0.00000000000E+00 0. -1.
          1    1    5    5  503    0  0.40403759756E+00 -0.23502789654E+03 -0.25463865176E+02  0.23640364597E+03  0.00000000000E+00 0. -1.
         -2    1    5    5    0  503 -0.48152476311E+02 -0.20023928642E+03  0.29507054308E+02  0.20805071270E+03  0.00000000000E+00 0.  1.
         -3    1    6    6    0  502 -0.33535473940E+03  0.87235699300E+02 -0.64996862637E+03  0.73656777267E+03  0.00000000000E+00 0.  1.
<mgrwt>
<rscale>  0 0.16416608E+04</rscale>
<asrwt>0</asrwt>
<pdfrwt beam="1">  1        1 0.22306465E+00 0.16416608E+04</pdfrwt>
<pdfrwt beam="2">  1       -1 0.71490671E-01 0.16416608E+04</pdfrwt>
<totfact> 0.13389666E+01</totfact>
</mgrwt>
</event>
<event>
12    1  0.1097093E-007  0.2111938E+04  0.7818608E-02  0.8556003E-01
          2   -1    0    0  501    0  0.00000000000E+00  0.00000000000E+00  0.27504593669E+04  0.27504593669E+04  0.00000000000E+00 0. -1.
         -2   -1    0    0    0  501 -0.00000000000E+00 -0.00000000000E+00 -0.40541245604E+03  0.40541245604E+03  0.00000000000E+00 0.  1.
         23    2    1    2    0    0 -0.58482225250E+03 -0.12925269110E+03  0.18686107675E+04  0.19642700117E+04  0.89034562349E+02 0.  0.
        254    2    1    2    0    0  0.58482225250E+03  0.12925269110E+03  0.47643614334E+03  0.11916018112E+04  0.91334558227E+03 0.  0.
        -24    2    4    4    0    0  0.32861153060E+03 -0.42403016569E+02 -0.23340963581E+03  0.41326501479E+03  0.80773513592E+02 0.  0.
         24    2    4    4    0    0  0.25621072189E+03  0.17165570767E+03  0.70984577916E+03  0.77833679644E+03  0.82568290022E+02 0.  0.
         11    1    3    3    0    0 -0.21779408115E+03 -0.16704636611E+02  0.77713175760E+03  0.80724660132E+03  0.00000000000E+00 0. -1.
        -11    1    3    3    0    0 -0.36702817135E+03 -0.11254805449E+03  0.10914790099E+04  0.11570234104E+04  0.00000000000E+00 0.  1.
          4    1    6    6  502    0  0.15348491333E+03  0.58058809052E+02  0.41053386169E+03  0.44211592996E+03  0.00000000000E+00 0. -1.
          1    1    5    5  503    0  0.59613448300E+02 -0.66746881832E+01 -0.84813676536E+02  0.10388298421E+03  0.00000000000E+00 0. -1.
         -2    1    5    5    0  503  0.26899808230E+03 -0.35728328386E+02 -0.14859595928E+03  0.30938203058E+03  0.00000000000E+00 0.  1.
         -3    1    6    6    0  502  0.10272580857E+03  0.11359689861E+03  0.29931191746E+03  0.33622086648E+03  0.00000000000E+00 0.  1.
<mgrwt>
<rscale>  0 0.21119380E+04</rscale>
<asrwt>0</asrwt>
<pdfrwt beam="1">  1        2 0.42314758E+00 0.21119380E+04</pdfrwt>
<pdfrwt beam="2">  1       -2 0.62371149E-01 0.21119380E+04</pdfrwt>
<totfact> 0.54441246E+00</totfact>
</mgrwt>
</event>
<event>
12    1  0.1097093E-007  0.1392268E+04  0.7818608E-02  0.8959434E-01
         -2   -1    0    0    0  501 -0.00000000000E+00  0.00000000000E+00  0.53452734621E+03  0.53452734621E+03  0.00000000000E+00 0.  1.
          2   -1    0    0  501    0  0.00000000000E+00 -0.00000000000E+00 -0.90660023960E+03  0.90660023960E+03  0.00000000000E+00 0. -1.
         23    2    1    2    0    0  0.22488511902E+02 -0.39234833559E+03 -0.93116032929E+02  0.41348610692E+03  0.88640935350E+02 0.  0.
        254    2    1    2    0    0 -0.22488511902E+02  0.39234833559E+03 -0.27895686046E+03  0.10276414789E+04  0.90762719744E+03 0.  0.
        -24    2    4    4    0    0  0.98012831863E+02 -0.14188250386E+03  0.21365545594E+03  0.28652452519E+03  0.81917577887E+02 0.  0.
         24    2    4    4    0    0 -0.12050134377E+03  0.53423083946E+03 -0.49261231640E+03  0.74111695371E+03  0.81635048359E+02 0.  0.
         11    1    3    3    0    0 -0.10353763778E+01 -0.29302815440E+03 -0.10377512387E+03  0.31086306891E+03  0.00000000000E+00 0. -1.
        -11    1    3    3    0    0  0.23523888280E+02 -0.99320181194E+02  0.10659090943E+02  0.10262303802E+03  0.00000000000E+00 0.  1.
          4    1    6    6  502    0 -0.10124042697E+03  0.27594233330E+03 -0.24232877904E+03  0.38094229551E+03  0.00000000000E+00 0. -1.
          3    1    5    5  503    0  0.46888441572E+02 -0.65781433219E+02  0.16266467031E+03  0.18161915613E+03  0.00000000000E+00 0. -1.
         -4    1    5    5    0  503  0.51124390291E+02 -0.76101070645E+02  0.50990785635E+02  0.10490536905E+03  0.00000000000E+00 0.  1.
         -3    1    6    6    0  502 -0.19260916799E+02  0.25828850615E+03 -0.25028353737E+03  0.36017465819E+03  0.00000000000E+00 0.  1.
<mgrwt>
<rscale>  0 0.13922681E+04</rscale>
<asrwt>0</asrwt>
<pdfrwt beam="1">  1        2 0.13947696E+00 0.13922681E+04</pdfrwt>
<pdfrwt beam="2">  1       -2 0.82234977E-01 0.13922681E+04</pdfrwt>
<totfact> 0.36722591E+01</totfact>
</mgrwt>
</event>
<event>
12    1  0.1097093E-007  0.1826803E+04  0.7818608E-02  0.8692175E-01
          1   -1    0    0  501    0  0.00000000000E+00  0.00000000000E+00  0.22958801128E+04  0.22958801128E+04  0.00000000000E+00 0. -1.
         -1   -1    0    0    0  501 -0.00000000000E+00 -0.00000000000E+00 -0.36339087007E+03  0.36339087007E+03  0.00000000000E+00 0.  1.
         23    2    1    2    0    0 -0.34396397973E+03  0.34347813031E+03  0.97571587463E+02  0.50445058432E+03  0.93068426395E+02 0.  0.
        254    2    1    2    0    0  0.34396397973E+03 -0.34347813031E+03  0.18349176553E+04  0.21548203985E+04  0.10198233685E+04 0.  0.
        -24    2    4    4    0    0  0.69373562543E+03 -0.14708918109E+03  0.10531520043E+04  0.12722834468E+04  0.81680350597E+02 0.  0.
         24    2    4    4    0    0 -0.34977164570E+03 -0.19638894922E+03  0.78176565097E+03  0.88253695174E+03  0.82493118685E+02 0.  0.
         11    1    3    3    0    0 -0.51401062530E+02  0.28862927650E+02 -0.13972638948E+02  0.60583598943E+02  0.00000000000E+00 0. -1.
        -11    1    3    3    0    0 -0.29256291720E+03  0.31461520266E+03  0.11154422641E+03  0.44386698538E+03  0.00000000000E+00 0.  1.
          2    1    6    6  502    0 -0.34659970655E+03 -0.19511953507E+03  0.78352028104E+03  0.87869620481E+03  0.00000000000E+00 0. -1.
          3    1    5    5  503    0  0.25827145141E+03 -0.36401134342E+02  0.32578277726E+03  0.41732913049E+03  0.00000000000E+00 0. -1.
         -4    1    5    5    0  503  0.43546417402E+03 -0.11068804675E+03  0.72736922703E+03  0.85495431631E+03  0.00000000000E+00 0.  1.
         -1    1    6    6    0  502 -0.31719391487E+01 -0.12694141483E+01 -0.17546300712E+01  0.38407469234E+01  0.00000000000E+00 0.  1.
<mgrwt>
<rscale>  0 0.18268025E+04</rscale>
<asrwt>0</asrwt>
<pdfrwt beam="1">  1        1 0.35321232E+00 0.18268025E+04</pdfrwt>
<pdfrwt beam="2">  1       -1 0.55906289E-01 0.18268025E+04</pdfrwt>
<totfact> 0.57107526E+00</totfact>
</mgrwt>
</event>
<event>
12    1  0.1326013E-007  0.2137072E+04  0.7818608E-02  0.8545086E-01
         -2   -1    0    0    0  501 -0.00000000000E+00  0.00000000000E+00  0.98430869946E+03  0.98430869946E+03  0.00000000000E+00 0.  1.
          2   -1    0    0  501    0  0.00000000000E+00 -0.00000000000E+00 -0.11599707523E+04  0.11599707523E+04  0.00000000000E+00 0. -1.
         23    2    1    2    0    0  0.46463897177E+03 -0.58395043929E+03 -0.53871840557E+03  0.92478810439E+03  0.90155576029E+02 0.  0.
        254    2    1    2    0    0 -0.46463897177E+03  0.58395043929E+03  0.36305635274E+03  0.12194913474E+04  0.89356686456E+03 0.  0.
        -24    2    4    4    0    0 -0.63417217845E+03  0.53643472027E+03  0.30828540326E+02  0.83504245293E+03  0.80055844687E+02 0.  0.
         24    2    4    4    0    0  0.16953320668E+03  0.47515719019E+02  0.33222781241E+03  0.38444889445E+03  0.80164714071E+02 0.  0.
         11    1    3    3    0    0  0.38457025250E+03 -0.44571829612E+03 -0.45760085777E+03  0.74562565919E+03  0.00000000000E+00 0. -1.
        -11    1    3    3    0    0  0.80068719261E+02 -0.13823214317E+03 -0.81117547803E+02  0.17916244520E+03  0.00000000000E+00 0.  1.
          2    1    6    6  502    0  0.16680038028E+03  0.26475894502E+02  0.31373284516E+03  0.35630273362E+03  0.00000000000E+00 0. -1.
          3    1    5    5  503    0 -0.62791304638E+03  0.53017137487E+03  0.39364921913E+02  0.82274302041E+03  0.00000000000E+00 0. -1.
         -4    1    5    5    0  503 -0.62591320649E+01  0.62633453971E+01 -0.85363815872E+01  0.12299432522E+02  0.00000000000E+00 0.  1.
         -1    1    6    6    0  502  0.27328263997E+01  0.21039824517E+02  0.18494967247E+02  0.28146160827E+02  0.00000000000E+00 0.  1.
<mgrwt>
<rscale>  0 0.21370721E+04</rscale>
<asrwt>0</asrwt>
<pdfrwt beam="1">  1        2 0.17845704E+00 0.21370721E+04</pdfrwt>
<pdfrwt beam="2">  1       -2 0.15143211E+00 0.21370721E+04</pdfrwt>
<totfact> 0.53743334E+00</totfact>
</mgrwt>
</event>
<event>
12    1  0.1097093E-007  0.1475466E+04  0.7818608E-02  0.8900934E-01
          1   -1    0    0  501    0  0.00000000000E+00  0.00000000000E+00  0.12364754001E+04  0.12364754001E+04  0.00000000000E+00 0. -1.
         -1   -1    0    0    0  501 -0.00000000000E+00 -0.00000000000E+00 -0.44016235448E+03  0.44016235448E+03  0.00000000000E+00 0.  1.
         23    2    1    2    0    0 -0.34616211515E+03 -0.28315159123E+03  0.15379800695E+03  0.48121960991E+03  0.88968828485E+02 0.  0.
        254    2    1    2    0    0  0.34616211515E+03  0.28315159123E+03  0.64251503872E+03  0.11954181447E+04  0.90343562701E+03 0.  0.
        -24    2    4    4    0    0  0.45393513589E+03  0.35917658824E+03  0.78781412442E+03  0.98059590981E+03  0.76500421994E+02 0.  0.
         24    2    4    4    0    0 -0.10777302074E+03 -0.76024997005E+02 -0.14529908570E+03  0.21482223491E+03  0.87418213986E+02 0.  0.
         13    1    3    3    0    0 -0.26124108914E+03 -0.24724620012E+03  0.14764648444E+03  0.38881496177E+03  0.00000000000E+00 0.  1.
        -13    1    3    3    0    0 -0.84921026006E+02 -0.35905391113E+02  0.61515225063E+01  0.92404648141E+02  0.00000000000E+00 0. -1.
          2    1    6    6  502    0 -0.11910809893E+03 -0.77009964457E+02 -0.11546393127E+03  0.18289120613E+03  0.00000000000E+00 0. -1.
          1    1    5    5  503    0  0.42327431807E+03  0.35163221276E+03  0.72388469395E+03  0.90929390822E+03  0.00000000000E+00 0. -1.
         -2    1    5    5    0  503  0.30660817823E+02  0.75443754801E+01  0.63929430470E+02  0.71302001593E+02  0.00000000000E+00 0.  1.
         -1    1    6    6    0  502  0.11335078195E+02  0.98496745207E+00 -0.29835154430E+02  0.31931028772E+02  0.00000000000E+00 0.  1.
<mgrwt>
<rscale>  0 0.14754659E+04</rscale>
<asrwt>0</asrwt>
<pdfrwt beam="1">  1        1 0.19022698E+00 0.14754659E+04</pdfrwt>
<pdfrwt beam="2">  1       -1 0.67717286E-01 0.14754659E+04</pdfrwt>
<totfact> 0.21513445E+01</totfact>
</mgrwt>
</event>
<event>
12    1  0.1097093E-007  0.1497905E+04  0.7818608E-02  0.8885848E-01
         -2   -1    0    0    0  501 -0.00000000000E+00  0.00000000000E+00  0.17944202243E+04  0.17944202243E+04  0.00000000000E+00 0.  1.
          2   -1    0    0  501    0  0.00000000000E+00 -0.00000000000E+00 -0.31259649958E+03  0.31259649958E+03  0.00000000000E+00 0. -1.
         23    2    1    2    0    0  0.24838035996E+03  0.24054970669E+03  0.23679554115E+02  0.35869174974E+03  0.92423403129E+02 0.  0.
        254    2    1    2    0    0 -0.24838035996E+03 -0.24054970669E+03  0.14581441706E+04  0.17483249742E+04  0.90049921064E+03 0.  0.
        -24    2    4    4    0    0 -0.15266542092E+03  0.27217492005E+03  0.19192096555E+03  0.37674710607E+03  0.87856741747E+02 0.  0.
         24    2    4    4    0    0 -0.95714939043E+02 -0.51272462674E+03  0.12662232051E+04  0.13715778681E+04  0.76529411016E+02 0.  0.
         13    1    3    3    0    0  0.25283673980E+03  0.21789092779E+03  0.28889078787E+02  0.33501858497E+03  0.00000000000E+00 0. -1.
        -13    1    3    3    0    0 -0.44563798404E+01  0.22658778908E+02 -0.52095246723E+01  0.23673164769E+02  0.00000000000E+00 0.  1.
          2    1    6    6  502    0 -0.62922427367E+02 -0.46498056546E+03  0.11313790099E+04  0.12248202407E+04  0.00000000000E+00 0. -1.
          3    1    5    5  503    0 -0.15313282215E+03  0.21656447358E+03  0.17797281517E+03  0.31941220292E+03  0.00000000000E+00 0. -1.
         -4    1    5    5    0  503  0.46740122938E+00  0.55610446470E+02  0.13948150376E+02  0.57334903152E+02  0.00000000000E+00 0.  1.
         -3    1    6    6    0  502 -0.32792511676E+02 -0.47744061280E+02  0.13484419523E+03  0.14675762738E+03  0.00000000000E+00 0.  1.
<mgrwt>
<rscale>  0 0.14979045E+04</rscale>
<asrwt>0</asrwt>
<pdfrwt beam="1">  1        2 0.48091770E-01 0.14979045E+04</pdfrwt>
<pdfrwt beam="2">  1       -2 0.27606464E+00 0.14979045E+04</pdfrwt>
<totfact> 0.45196080E+00</totfact>
</mgrwt>
</event>
<event>
12    1  0.1097093E-007  0.3816090E+04  0.7818608E-02  0.8042711E-01
          2   -1    0    0  501    0  0.00000000000E+00  0.00000000000E+00  0.36717943820E+04  0.36717943820E+04  0.00000000000E+00 0. -1.
         -2   -1    0    0    0  501 -0.00000000000E+00 -0.00000000000E+00 -0.99151404124E+03  0.99151404124E+03  0.00000000000E+00 0.  1.
         23    2    1    2    0    0  0.54865682192E+03 -0.18008892746E+03  0.33499563639E+04  0.34006861946E+04  0.94882159799E+02 0.  0.
        254    2    1    2    0    0 -0.54865682192E+03  0.18008892746E+03 -0.66967602311E+03  0.12626222286E+04  0.90127275911E+03 0.  0.
        -24    2    4    4    0    0 -0.68825230848E+03  0.28125337267E+03 -0.74590044190E+03  0.10561180846E+04  0.78887511858E+02 0.  0.
         24    2    4    4    0    0  0.13959548656E+03 -0.10116444520E+03  0.76224418792E+02  0.20650414410E+03  0.84336555951E+02 0.  0.
         11    1    3    3    0    0  0.55029291925E+03 -0.17226152057E+03  0.33187751294E+04  0.33684959088E+04  0.00000000000E+00 0. -1.
        -11    1    3    3    0    0 -0.16360973267E+01 -0.78274068921E+01  0.31181234514E+02  0.32190285785E+02  0.00000000000E+00 0.  1.
          2    1    6    6  502    0  0.17560881742E+02  0.15100836714E+02  0.61359274862E+01  0.23959746308E+02  0.00000000000E+00 0. -1.
          3    1    5    5  503    0 -0.14252433296E+03  0.51151668187E+02 -0.11020354495E+03  0.18728187303E+03  0.00000000000E+00 0. -1.
         -4    1    5    5    0  503 -0.54572797552E+03  0.23010170448E+03 -0.63569689695E+03  0.86883621153E+03  0.00000000000E+00 0.  1.
         -1    1    6    6    0  502  0.12203460481E+03 -0.11626528192E+03  0.70088491306E+02  0.18254439779E+03  0.00000000000E+00 0.  1.
<mgrwt>
<rscale>  0 0.38160900E+04</rscale>
<asrwt>0</asrwt>
<pdfrwt beam="1">  1        2 0.56489144E+00 0.38160900E+04</pdfrwt>
<pdfrwt beam="2">  1       -2 0.15254062E+00 0.38160900E+04</pdfrwt>
<totfact> 0.14016219E-01</totfact>
</mgrwt>
</event>
<event>
12    1  0.1097093E-007  0.1376277E+04  0.7818608E-02  0.8971171E-01
         -2   -1    0    0    0  501 -0.00000000000E+00  0.00000000000E+00  0.19683267253E+03  0.19683267253E+03  0.00000000000E+00 0.  1.
          2   -1    0    0  501    0  0.00000000000E+00 -0.00000000000E+00 -0.24057736696E+04  0.24057736696E+04  0.00000000000E+00 0. -1.
         23    2    1    2    0    0 -0.19664778781E+03 -0.28698879114E+03 -0.31679707463E+03  0.47762931568E+03  0.82075928364E+02 0.  0.
        254    2    1    2    0    0  0.19664778781E+03  0.28698879114E+03 -0.18921439225E+04  0.21249770265E+04  0.90237787039E+03 0.  0.
        -24    2    4    4    0    0 -0.20003277108E+03  0.36489919460E+03 -0.42146326025E+03  0.59800794489E+03  0.82569308399E+02 0.  0.
         24    2    4    4    0    0  0.39668055889E+03 -0.77910403454E+02 -0.14706806622E+04  0.15269690816E+04  0.72852378698E+02 0.  0.
         13    1    3    3    0    0 -0.48429614765E+02 -0.54887814913E+02 -0.27446168635E+02  0.78175392451E+02  0.00000000000E+00 0. -1.
        -13    1    3    3    0    0 -0.14821817304E+03 -0.23210097623E+03 -0.28935090599E+03  0.39945392323E+03  0.00000000000E+00 0.  1.
          4    1    6    6  502    0  0.28737352535E+03 -0.75302046343E+02 -0.11665020673E+04  0.12037362727E+04  0.00000000000E+00 0. -1.
          1    1    5    5  503    0 -0.19177917697E+03  0.36430126884E+03 -0.42219849388E+03  0.58970012331E+03  0.00000000000E+00 0. -1.
         -2    1    5    5    0  503 -0.82535941083E+01  0.59792575858E+00  0.73523363200E+00  0.83078215803E+01  0.00000000000E+00 0.  1.
         -3    1    6    6    0  502  0.10930703354E+03 -0.26083571103E+01 -0.30417859491E+03  0.32323280883E+03  0.00000000000E+00 0.  1.
<mgrwt>
<rscale>  0 0.13762774E+04</rscale>
<asrwt>0</asrwt>
<pdfrwt beam="1">  1        2 0.37011901E+00 0.13762774E+04</pdfrwt>
<pdfrwt beam="2">  1       -2 0.30281951E-01 0.13762774E+04</pdfrwt>
<totfact> 0.38880815E+01</totfact>
</mgrwt>
</event>
<event>
12    1  0.1097093E-007  0.1729492E+04  0.7818608E-02  0.8744720E-01
          1   -1    0    0  501    0  0.00000000000E+00  0.00000000000E+00  0.15858780322E+04  0.15858780322E+04  0.00000000000E+00 0. -1.
         -1   -1    0    0    0  501 -0.00000000000E+00 -0.00000000000E+00 -0.47152803021E+03  0.47152803021E+03  0.00000000000E+00 0.  1.
         23    2    1    2    0    0 -0.57446986951E+03  0.19895960933E+02  0.92847211502E+02  0.58949559987E+03  0.92048776993E+02 0.  0.
        254    2    1    2    0    0  0.57446986951E+03 -0.19895960933E+02  0.10215027905E+04  0.14679104625E+04  0.88367510705E+03 0.  0.
        -24    2    4    4    0    0  0.37523507074E+03 -0.62925092732E+02 -0.33643180922E+02  0.39031064419E+03  0.80309462315E+02 0.  0.
         24    2    4    4    0    0  0.19923479877E+03  0.43029131799E+02  0.10551459714E+04  0.10775998183E+04  0.79638786444E+02 0.  0.
         11    1    3    3    0    0 -0.23808865610E+02 -0.10642693860E+02 -0.10986589048E+02  0.28299013289E+02  0.00000000000E+00 0. -1.
        -11    1    3    3    0    0 -0.55066100390E+03  0.30538654794E+02  0.10383380055E+03  0.56119658658E+03  0.00000000000E+00 0.  1.
          2    1    6    6  502    0  0.12230445664E+03  0.29247409384E+02  0.44359950105E+03  0.46107950334E+03  0.00000000000E+00 0. -1.
          3    1    5    5  503    0  0.28384007839E+03 -0.80093935751E+02 -0.37126818146E+02  0.29725179439E+03  0.00000000000E+00 0. -1.
         -4    1    5    5    0  503  0.91394992350E+02  0.17168843018E+02  0.34836372239E+01  0.93058849797E+02  0.00000000000E+00 0.  1.
         -1    1    6    6    0  502  0.76930342135E+02  0.13781722415E+02  0.61154647034E+03  0.61652031499E+03  0.00000000000E+00 0.  1.
<mgrwt>
<rscale>  0 0.17294923E+04</rscale>
<asrwt>0</asrwt>
<pdfrwt beam="1">  1        1 0.24398123E+00 0.17294923E+04</pdfrwt>
<pdfrwt beam="2">  1       -1 0.72542775E-01 0.17294923E+04</pdfrwt>
<totfact> 0.10380921E+01</totfact>
</mgrwt>
</event>
<event>
12    1  0.1097093E-007  0.1551328E+04  0.7818608E-02  0.8851020E-01
          2   -1    0    0  501    0  0.00000000000E+00  0.00000000000E+00  0.90902230442E+03  0.90902230442E+03  0.00000000000E+00 0. -1.
         -2   -1    0    0    0  501 -0.00000000000E+00 -0.00000000000E+00 -0.66187027512E+03  0.66187027512E+03  0.00000000000E+00 0.  1.
         23    2    1    2    0    0 -0.43279012392E+03 -0.27265116472E+03  0.32615443235E+02  0.52055254566E+03  0.90913347038E+02 0.  0.
        254    2    1    2    0    0  0.43279012392E+03  0.27265116472E+03  0.21453658607E+03  0.10503400339E+04  0.89193177487E+03 0.  0.
        -24    2    4    4    0    0  0.60805985235E+03 -0.24306628571E+02 -0.39458007319E+02  0.61505802779E+03  0.80074009343E+02 0.  0.
         24    2    4    4    0    0 -0.17526972843E+03  0.29695779329E+03  0.25399459339E+03  0.43528200609E+03  0.77805929461E+02 0.  0.
         11    1    3    3    0    0 -0.32701302028E+03 -0.24604768204E+03  0.11163588087E+02  0.40939174755E+03  0.00000000000E+00 0.  1.
        -11    1    3    3    0    0 -0.10577710364E+03 -0.26603482680E+02  0.21451855148E+02  0.11116079811E+03  0.00000000000E+00 0. -1.
          2    1    6    6  502    0 -0.50699783707E+02  0.13241073020E+03  0.67136366927E+02  0.15687689857E+03  0.00000000000E+00 0. -1.
          1    1    5    5  503    0  0.15754576801E+03 -0.36446765995E+02 -0.28820660747E+02  0.16425488198E+03  0.00000000000E+00 0. -1.
         -2    1    5    5    0  503  0.45051408434E+03  0.12140137424E+02 -0.10637346572E+02  0.45080314581E+03  0.00000000000E+00 0.  1.
         -1    1    6    6    0  502 -0.12456994472E+03  0.16454706308E+03  0.18685822646E+03  0.27840510752E+03  0.00000000000E+00 0.  1.
<mgrwt>
<rscale>  0 0.15513283E+04</rscale>
<asrwt>0</asrwt>
<pdfrwt beam="1">  1        2 0.13984958E+00 0.15513283E+04</pdfrwt>
<pdfrwt beam="2">  1       -2 0.10182620E+00 0.15513283E+04</pdfrwt>
<totfact> 0.22020403E+01</totfact>
</mgrwt>
</event>
<event>
12    1  0.1097093E-007  0.1620317E+04  0.7818608E-02  0.8808163E-01
          1   -1    0    0  501    0  0.00000000000E+00  0.00000000000E+00  0.22141886025E+04  0.22141886025E+04  0.00000000000E+00 0. -1.
         -1   -1    0    0    0  501 -0.00000000000E+00 -0.00000000000E+00 -0.29643222659E+03  0.29643222659E+03  0.00000000000E+00 0.  1.
         23    2    1    2    0    0 -0.20056541054E+03  0.15205437153E+02  0.15366415106E+04  0.15520182631E+04  0.83880079401E+02 0.  0.
        254    2    1    2    0    0  0.20056541054E+03 -0.15205437153E+02  0.38111486536E+03  0.95860256603E+03  0.85627837166E+03 0.  0.
        -24    2    4    4    0    0  0.46341904634E+03  0.86187510237E+02  0.45171458900E+03  0.65788597866E+03  0.81131939229E+02 0.  0.
         24    2    4    4    0    0 -0.26285363580E+03 -0.10139294739E+03 -0.70599723645E+02  0.30071658737E+03  0.77933184874E+02 0.  0.
         13    1    3    3    0    0 -0.42439594124E+02  0.26573456556E+02  0.59706368460E+03  0.59915967089E+03  0.00000000000E+00 0. -1.
        -13    1    3    3    0    0 -0.15812581642E+03 -0.11368019403E+02  0.93957782595E+03  0.95285859219E+03  0.00000000000E+00 0.  1.
          2    1    6    6  502    0 -0.26355338377E+03 -0.10792277861E+03 -0.65074419520E+02  0.29213420258E+03  0.00000000000E+00 0. -1.
          1    1    5    5  503    0  0.40001891598E+03  0.45820649506E+02  0.39131361084E+03  0.56146327314E+03  0.00000000000E+00 0. -1.
         -2    1    5    5    0  503  0.63400130366E+02  0.40366860732E+02  0.60400978162E+02  0.96422705514E+02  0.00000000000E+00 0.  1.
         -1    1    6    6    0  502  0.69974797130E+00  0.65298312194E+01 -0.55253041246E+01  0.85823847878E+01  0.00000000000E+00 0.  1.
<mgrwt>
<rscale>  0 0.16203171E+04</rscale>
<asrwt>0</asrwt>
<pdfrwt beam="1">  1        1 0.34064439E+00 0.16203171E+04</pdfrwt>
<pdfrwt beam="2">  1       -1 0.45604959E-01 0.16203171E+04</pdfrwt>
<totfact> 0.97570002E+00</totfact>
</mgrwt>
</event>
<event>
12    1  0.1097093E-007  0.1330886E+04  0.7818608E-02  0.9005424E-01
          1   -1    0    0  501    0  0.00000000000E+00  0.00000000000E+00  0.24251282957E+03  0.24251282957E+03  0.00000000000E+00 0. -1.
         -1   -1    0    0    0  501 -0.00000000000E+00 -0.00000000000E+00 -0.18259431060E+04  0.18259431060E+04  0.00000000000E+00 0.  1.
         23    2    1    2    0    0 -0.25217179084E+03 -0.16019468565E+03 -0.27658537025E+03  0.41745791976E+03  0.92296794790E+02 0.  0.
        254    2    1    2    0    0  0.25217179084E+03  0.16019468565E+03 -0.13068449062E+04  0.16509980158E+04  0.96368972703E+03 0.  0.
        -24    2    4    4    0    0  0.33570622255E+03  0.62525942371E+02 -0.14193467019E+04  0.14619815197E+04  0.78973050106E+02 0.  0.
         24    2    4    4    0    0 -0.83534431706E+02  0.97668743278E+02  0.11250179566E+03  0.18901649609E+03  0.80953054747E+02 0.  0.
         13    1    3    3    0    0 -0.20211789737E+03 -0.16098277738E+03 -0.20366712663E+03  0.32900972253E+03  0.00000000000E+00 0.  1.
        -13    1    3    3    0    0 -0.50053893473E+02  0.78809173340E+00 -0.72918243626E+02  0.88448197234E+02  0.00000000000E+00 0. -1.
          4    1    6    6  502    0 -0.10072562001E+02  0.57983936031E+02  0.15165285241E+02  0.60774823894E+02  0.00000000000E+00 0. -1.
          1    1    5    5  503    0  0.24997451969E+03  0.24650096788E+02 -0.90735747738E+03  0.94148418973E+03  0.00000000000E+00 0. -1.
         -2    1    5    5    0  503  0.85731702856E+02  0.37875845582E+02 -0.51198922447E+03  0.52049732999E+03  0.00000000000E+00 0.  1.
         -3    1    6    6    0  502 -0.73461869705E+02  0.39684807248E+02  0.97336510417E+02  0.12824167219E+03  0.00000000000E+00 0.  1.
<mgrwt>
<rscale>  0 0.13308864E+04</rscale>
<asrwt>0</asrwt>
<pdfrwt beam="1">  1        1 0.37309666E-01 0.13308864E+04</pdfrwt>
<pdfrwt beam="2">  1       -1 0.28091433E+00 0.13308864E+04</pdfrwt>
<totfact> 0.49947821E+00</totfact>
</mgrwt>
</event>
<event>
12    1  0.1097093E-007  0.1987015E+04  0.7818608E-02  0.8612715E-01
          2   -1    0    0  501    0  0.00000000000E+00  0.00000000000E+00  0.94152090600E+03  0.94152090600E+03  0.00000000000E+00 0. -1.
         -2   -1    0    0    0  501 -0.00000000000E+00 -0.00000000000E+00 -0.10483650857E+04  0.10483650857E+04  0.00000000000E+00 0.  1.
         23    2    1    2    0    0  0.78115834992E+03 -0.50961141087E+02  0.42223813514E+02  0.79053644823E+03  0.10178221850E+03 0.  0.
        254    2    1    2    0    0 -0.78115834992E+03  0.50961141087E+02 -0.14906799318E+03  0.11993495434E+04  0.89633289309E+03 0.  0.
        -24    2    4    4    0    0 -0.68675053611E+02  0.16160383635E+03  0.29256988097E+03  0.35012708947E+03  0.78484269885E+02 0.  0.
         24    2    4    4    0    0 -0.71248329631E+03 -0.11064269526E+03 -0.44163787415E+03  0.84922245398E+03  0.79123390544E+02 0.  0.
         13    1    3    3    0    0  0.33375766190E+03  0.63208894789E+00 -0.27142522837E+02  0.33486010953E+03  0.00000000000E+00 0. -1.
        -13    1    3    3    0    0  0.44740068802E+03 -0.51593230035E+02  0.69366336351E+02  0.45567633869E+03  0.00000000000E+00 0.  1.
          2    1    6    6  502    0 -0.14367560859E+03 -0.13808601508E+02 -0.12567845108E+03  0.19138555600E+03  0.00000000000E+00 0. -1.
          1    1    5    5  503    0  0.83034245632E+01  0.53433651147E+02  0.50240218046E+02  0.73811797456E+02  0.00000000000E+00 0. -1.
         -2    1    5    5    0  503 -0.76978478174E+02  0.10817018520E+03  0.24232966292E+03  0.27631529201E+03  0.00000000000E+00 0.  1.
         -1    1    6    6    0  502 -0.56880768772E+03 -0.96834093756E+02 -0.31595942307E+03  0.65783689798E+03  0.00000000000E+00 0.  1.
<mgrwt>
<rscale>  0 0.19870155E+04</rscale>
<asrwt>0</asrwt>
<pdfrwt beam="1">  1        2 0.14484937E+00 0.19870155E+04</pdfrwt>
<pdfrwt beam="2">  1       -2 0.16128694E+00 0.19870155E+04</pdfrwt>
<totfact> 0.63021235E+00</totfact>
</mgrwt>
</event>
<event>
12    1  0.1097093E-007  0.1714932E+04  0.7818608E-02  0.8752894E-01
         -2   -1    0    0    0  501 -0.00000000000E+00  0.00000000000E+00  0.22487490936E+03  0.22487490936E+03  0.00000000000E+00 0.  1.
          2   -1    0    0  501    0  0.00000000000E+00 -0.00000000000E+00 -0.32695857302E+04  0.32695857302E+04  0.00000000000E+00 0. -1.
         23    2    1    2    0    0  0.33585952978E+02 -0.21010685102E+03  0.75767508814E+02  0.24363917351E+03  0.91358778434E+02 0.  0.
        254    2    1    2    0    0 -0.33585952978E+02  0.21010685102E+03 -0.31204783297E+04  0.32508214661E+04  0.88610512536E+03 0.  0.
        -24    2    4    4    0    0 -0.25289335097E+03  0.41283756733E+03 -0.25946498980E+04  0.26406836004E+04  0.81313469695E+02 0.  0.
         24    2    4    4    0    0  0.21930739799E+03 -0.20273071631E+03 -0.52582843172E+03  0.61013786570E+03  0.81099922326E+02 0.  0.
         13    1    3    3    0    0  0.29385539097E+02 -0.34847591119E+02  0.47909328370E+02  0.66129934672E+02  0.00000000000E+00 0. -1.
        -13    1    3    3    0    0  0.42004138813E+01 -0.17525925990E+03  0.27858180444E+02  0.17750923884E+03  0.00000000000E+00 0.  1.
          2    1    6    6  502    0  0.21398931368E+03 -0.20994861616E+03 -0.50227653518E+03  0.58493723218E+03  0.00000000000E+00 0. -1.
          1    1    5    5  503    0 -0.13795678306E+03  0.28522513885E+03 -0.18019547933E+04  0.18295973685E+04  0.00000000000E+00 0. -1.
         -2    1    5    5    0  503 -0.11493656791E+03  0.12761242848E+03 -0.79269510471E+03  0.81108623189E+03  0.00000000000E+00 0.  1.
         -1    1    6    6    0  502  0.53180843091E+01  0.72178998498E+01 -0.23551896543E+02  0.25200633518E+02  0.00000000000E+00 0.  1.
<mgrwt>
<rscale>  0 0.17149318E+04</rscale>
<asrwt>0</asrwt>
<pdfrwt beam="1">  1        2 0.50301318E+00 0.17149318E+04</pdfrwt>
<pdfrwt beam="2">  1       -2 0.34596141E-01 0.17149318E+04</pdfrwt>
<totfact> 0.87500654E+00</totfact>
</mgrwt>
</event>
<event>
12    1  0.1097093E-007  0.2156632E+04  0.7818608E-02  0.8536699E-01
         -2   -1    0    0    0  501 -0.00000000000E+00  0.00000000000E+00  0.19073921045E+04  0.19073921045E+04  0.00000000000E+00 0.  1.
          2   -1    0    0  501    0  0.00000000000E+00 -0.00000000000E+00 -0.60960986910E+03  0.60960986910E+03  0.00000000000E+00 0. -1.
         23    2    1    2    0    0 -0.15185190770E+03 -0.50077834785E+03  0.13785893849E+04  0.14773397207E+04  0.90476532408E+02 0.  0.
        254    2    1    2    0    0  0.15185190770E+03  0.50077834785E+03 -0.80807149484E+02  0.10396622528E+04  0.89472333656E+03 0.  0.
        -24    2    4    4    0    0  0.25667202927E+03  0.66019376691E+03  0.15162942927E+03  0.72870810286E+03  0.79294860293E+02 0.  0.
         24    2    4    4    0    0 -0.10482012157E+03 -0.15941541906E+03 -0.23243657876E+03  0.31095414996E+03  0.79152931175E+02 0.  0.
         11    1    3    3    0    0 -0.15234941414E+03 -0.39374493677E+03  0.10475824899E+04  0.11294576098E+04  0.00000000000E+00 0.  1.
        -11    1    3    3    0    0  0.49750644060E+00 -0.10703341108E+03  0.33100689496E+03  0.34788211094E+03  0.00000000000E+00 0. -1.
          4    1    6    6  502    0 -0.66759769619E+02 -0.59955663896E+02 -0.15565797942E+03  0.17966901522E+03  0.00000000000E+00 0. -1.
          3    1    5    5  503    0  0.10738304802E+03  0.18117075367E+03  0.56101919247E+02  0.21794812761E+03  0.00000000000E+00 0. -1.
         -4    1    5    5    0  503  0.14928898125E+03  0.47902301324E+03  0.95527510027E+02  0.51075997525E+03  0.00000000000E+00 0.  1.
         -3    1    6    6    0  502 -0.38060351955E+02 -0.99459755164E+02 -0.76778599336E+02  0.13128513474E+03  0.00000000000E+00 0.  1.
<mgrwt>
<rscale>  0 0.21566317E+04</rscale>
<asrwt>0</asrwt>
<pdfrwt beam="1">  1        2 0.93786134E-01 0.21566317E+04</pdfrwt>
<pdfrwt beam="2">  1       -2 0.29344494E+00 0.21566317E+04</pdfrwt>
<totfact> 0.15563407E+00</totfact>
</mgrwt>
</event>
<event>
12    1  0.1097093E-007  0.1519174E+04  0.7818608E-02  0.8871802E-01
          2   -1    0    0  501    0  0.00000000000E+00  0.00000000000E+00  0.77948709376E+03  0.77948709376E+03  0.00000000000E+00 0. -1.
         -2   -1    0    0    0  501 -0.00000000000E+00 -0.00000000000E+00 -0.74019446861E+03  0.74019446861E+03  0.00000000000E+00 0.  1.
         23    2    1    2    0    0  0.75706282775E+02 -0.27534772972E+02  0.50125791278E+03  0.51924298050E+03  0.10892278322E+03 0.  0.
        254    2    1    2    0    0 -0.75706282775E+02  0.27534772972E+02 -0.46196528763E+03  0.10004385819E+04  0.88372836559E+03 0.  0.
        -24    2    4    4    0    0 -0.21694803925E+03  0.29064093041E+03  0.76594569913E+02  0.37932506840E+03  0.80511969342E+02 0.  0.
         24    2    4    4    0    0  0.14124175648E+03 -0.26310615744E+03 -0.53855985754E+03  0.62111351347E+03  0.81001188908E+02 0.  0.
         11    1    3    3    0    0  0.92117245544E+02 -0.38063250223E+02  0.28155244250E+03  0.29867402938E+03  0.00000000000E+00 0. -1.
        -11    1    3    3    0    0 -0.16410962769E+02  0.10528477250E+02  0.21970547028E+03  0.22056895113E+03  0.00000000000E+00 0.  1.
          4    1    6    6  502    0  0.60476030996E+02 -0.16520072219E+03 -0.24816970432E+03  0.30419867041E+03  0.00000000000E+00 0. -1.
          1    1    5    5  503    0 -0.66330098152E+02  0.14985728286E+03  0.17258091207E+02  0.16478691956E+03  0.00000000000E+00 0. -1.
         -2    1    5    5    0  503 -0.15061794110E+03  0.14078364755E+03  0.59336478706E+02  0.21453814884E+03  0.00000000000E+00 0.  1.
         -3    1    6    6    0  502  0.80765725483E+02 -0.97905435251E+02 -0.29039015321E+03  0.31691484305E+03  0.00000000000E+00 0.  1.
<mgrwt>
<rscale>  0 0.15191735E+04</rscale>
<asrwt>0</asrwt>
<pdfrwt beam="1">  1        2 0.11992109E+00 0.15191735E+04</pdfrwt>
<pdfrwt beam="2">  1       -2 0.11387607E+00 0.15191735E+04</pdfrwt>
<totfact> 0.20775974E+01</totfact>
</mgrwt>
</event>
<event>
12    1  0.1202992E-007  0.1571409E+04  0.7818608E-02  0.8838308E-01
         -2   -1    0    0    0  501 -0.00000000000E+00  0.00000000000E+00  0.48997771755E+03  0.48997771755E+03  0.00000000000E+00 0.  1.
          2   -1    0    0  501    0  0.00000000000E+00 -0.00000000000E+00 -0.12599175277E+04  0.12599175277E+04  0.00000000000E+00 0. -1.
         23    2    1    2    0    0  0.13177352451E+03  0.41191589632E+03 -0.66609552908E+03  0.79942519301E+03  0.91424383826E+02 0.  0.
        254    2    1    2    0    0 -0.13177352451E+03 -0.41191589632E+03 -0.10384428107E+03  0.95047005223E+03  0.83998257010E+03 0.  0.
        -24    2    4    4    0    0  0.26777332922E+02 -0.57335268453E+03 -0.28864358437E+03  0.64766542663E+03  0.81884428522E+02 0.  0.
         24    2    4    4    0    0 -0.15855085743E+03  0.16143678821E+03  0.18479930330E+03  0.30280462560E+03  0.79621905309E+02 0.  0.
         13    1    3    3    0    0  0.23601523687E+01  0.28989156701E+01 -0.41629286149E+02  0.41796788113E+02  0.00000000000E+00 0.  1.
        -13    1    3    3    0    0  0.12941337214E+03  0.40901698065E+03 -0.62446624293E+03  0.75762840490E+03  0.00000000000E+00 0. -1.
          2    1    6    6  502    0 -0.10451678064E+03  0.15277228642E+03  0.14008804653E+03  0.23213743712E+03  0.00000000000E+00 0. -1.
          1    1    5    5  503    0  0.18268895502E+02 -0.55964349416E+03 -0.29150886316E+03  0.63127807692E+03  0.00000000000E+00 0. -1.
         -2    1    5    5    0  503  0.85084374197E+01 -0.13709190373E+02  0.28652787890E+01  0.16387349711E+02  0.00000000000E+00 0.  1.
         -1    1    6    6    0  502 -0.54034076787E+02  0.86645017959E+01  0.44711256777E+02  0.70667188483E+02  0.00000000000E+00 0.  1.
<mgrwt>
<rscale>  0 0.15714089E+04</rscale>
<asrwt>0</asrwt>
<pdfrwt beam="1">  1        2 0.19383346E+00 0.15714089E+04</pdfrwt>
<pdfrwt beam="2">  1       -2 0.75381189E-01 0.15714089E+04</pdfrwt>
<totfact> 0.26481923E+01</totfact>
</mgrwt>
</event>
<event>
12    1  0.1097093E-007  0.1215146E+04  0.7818608E-02  0.9099702E-01
         -2   -1    0    0    0  501 -0.00000000000E+00  0.00000000000E+00  0.23305488349E+03  0.23305488349E+03  0.00000000000E+00 0.  1.
          2   -1    0    0  501    0  0.00000000000E+00 -0.00000000000E+00 -0.15839387453E+04  0.15839387453E+04  0.00000000000E+00 0. -1.
         23    2    1    2    0    0  0.14047635205E+03 -0.70114559147E+01 -0.63829138454E+03  0.66056519908E+03  0.95643738221E+02 0.  0.
        254    2    1    2    0    0 -0.14047635205E+03  0.70114559147E+01 -0.71259247727E+03  0.11564284297E+04  0.89986438334E+03 0.  0.
        -24    2    4    4    0    0 -0.43270274444E+03  0.18700840173E+03 -0.16562069625E+03  0.50562632429E+03  0.77614157343E+02 0.  0.
         24    2    4    4    0    0  0.29222639240E+03 -0.17999694582E+03 -0.54697178102E+03  0.65080210543E+03  0.81056068731E+02 0.  0.
         13    1    3    3    0    0  0.11711377831E+03 -0.24382752843E+02 -0.33201188813E+03  0.35290515662E+03  0.00000000000E+00 0. -1.
        -13    1    3    3    0    0  0.23362573734E+02  0.17371296928E+02 -0.30627949640E+03  0.30766004246E+03  0.00000000000E+00 0.  1.
          4    1    6    6  502    0  0.27195403280E+03 -0.13765991439E+03 -0.48883681348E+03  0.57608218008E+03  0.00000000000E+00 0. -1.
          1    1    5    5  503    0 -0.43109115380E+03  0.19095315340E+03 -0.15866829129E+03  0.49747192518E+03  0.00000000000E+00 0. -1.
         -2    1    5    5    0  503 -0.16115906399E+01 -0.39447516688E+01 -0.69524049573E+01  0.81543991078E+01  0.00000000000E+00 0.  1.
         -3    1    6    6    0  502  0.20272359597E+02 -0.42337031427E+02 -0.58134967538E+02  0.74719925350E+02  0.00000000000E+00 0.  1.
<mgrwt>
<rscale>  0 0.12151455E+04</rscale>
<asrwt>0</asrwt>
<pdfrwt beam="1">  1        2 0.24368289E+00 0.12151455E+04</pdfrwt>
<pdfrwt beam="2">  1       -2 0.35854597E-01 0.12151455E+04</pdfrwt>
<totfact> 0.82054215E+01</totfact>
</mgrwt>
</event>
<event>
12    1  0.1097093E-007  0.1756041E+04  0.7818608E-02  0.8730032E-01
         -1   -1    0    0    0  501 -0.00000000000E+00  0.00000000000E+00  0.67443356187E+03  0.67443356187E+03  0.00000000000E+00 0.  1.
          1   -1    0    0  501    0  0.00000000000E+00 -0.00000000000E+00 -0.11430624578E+04  0.11430624578E+04  0.00000000000E+00 0. -1.
         23    2    1    2    0    0 -0.16567641876E+03 -0.52735260617E+03  0.16671220791E+03  0.58454861718E+03  0.91403931087E+02 0.  0.
        254    2    1    2    0    0  0.16567641876E+03  0.52735260617E+03 -0.63534110383E+03  0.12329474025E+04  0.90052847379E+03 0.  0.
        -24    2    4    4    0    0  0.14693965905E+03  0.48938117135E+03  0.70472417811E+02  0.52138971802E+03  0.76129377480E+02 0.  0.
         24    2    4    4    0    0  0.18736759708E+02  0.37971434817E+02 -0.70581352164E+03  0.71155768446E+03  0.79678823744E+02 0.  0.
         13    1    3    3    0    0 -0.16801164776E+02 -0.91477299702E+02 -0.46051837054E+01  0.93121335984E+02  0.00000000000E+00 0. -1.
        -13    1    3    3    0    0 -0.14887525399E+03 -0.43587530646E+03  0.17131739161E+03  0.49142728120E+03  0.00000000000E+00 0.  1.
          2    1    6    6  502    0  0.20918092811E+02  0.41082670391E+02 -0.70623187327E+03  0.70773498659E+03  0.00000000000E+00 0. -1.
          1    1    5    5  503    0  0.12705021317E+03  0.43621673718E+03  0.37840156370E+02  0.45591520692E+03  0.00000000000E+00 0. -1.
         -2    1    5    5    0  503  0.19889445888E+02  0.53164434165E+02  0.32632261442E+02  0.65474511106E+02  0.00000000000E+00 0.  1.
         -1    1    6    6    0  502 -0.21813331034E+01 -0.31112355738E+01  0.41835163391E+00  0.38226978684E+01  0.00000000000E+00 0.  1.
<mgrwt>
<rscale>  0 0.17560406E+04</rscale>
<asrwt>0</asrwt>
<pdfrwt beam="1">  1        1 0.17585576E+00 0.17560406E+04</pdfrwt>
<pdfrwt beam="2">  1       -1 0.10375901E+00 0.17560406E+04</pdfrwt>
<totfact> 0.97595850E+00</totfact>
</mgrwt>
</event>
<event>
12    1  0.1097093E-007  0.1353635E+04  0.7818608E-02  0.8988081E-01
          2   -1    0    0  501    0  0.00000000000E+00  0.00000000000E+00  0.91732161030E+03  0.91732161030E+03  0.00000000000E+00 0. -1.
         -2   -1    0    0    0  501 -0.00000000000E+00 -0.00000000000E+00 -0.49936859279E+03  0.49936859279E+03  0.00000000000E+00 0.  1.
         23    2    1    2    0    0 -0.93153673176E+02  0.31281083678E+03  0.30027402635E+03  0.45454844493E+03  0.99607085351E+02 0.  0.
        254    2    1    2    0    0  0.93153673176E+02 -0.31281083678E+03  0.11767899116E+03  0.96214175816E+03  0.89740748348E+03 0.  0.
        -24    2    4    4    0    0  0.89567611029E+02  0.29553295883E+03 -0.50474783318E+02  0.32548293701E+03  0.89606650600E+02 0.  0.
         24    2    4    4    0    0  0.35860621474E+01 -0.60834379561E+03  0.16815377448E+03  0.63665882115E+03  0.83448961475E+02 0.  0.
         13    1    3    3    0    0 -0.16731599848E+02  0.84725776816E+02  0.26997267430E+02  0.90483457821E+02  0.00000000000E+00 0.  1.
        -13    1    3    3    0    0 -0.76422073329E+02  0.22808505996E+03  0.27327675892E+03  0.36406498711E+03  0.00000000000E+00 0. -1.
          2    1    6    6  502    0  0.39815776151E+02 -0.42295287970E+03  0.12600352641E+03  0.44311547382E+03  0.00000000000E+00 0. -1.
          3    1    5    5  503    0  0.10234401661E+03  0.26748206414E+03 -0.28875621824E+02  0.28784501717E+03  0.00000000000E+00 0. -1.
         -4    1    5    5    0  503 -0.12776405585E+02  0.28050894693E+02 -0.21599161494E+02  0.37637919841E+02  0.00000000000E+00 0.  1.
         -1    1    6    6    0  502 -0.36229714004E+02 -0.18539091592E+03  0.42150248065E+02  0.19354334732E+03  0.00000000000E+00 0.  1.
<mgrwt>
<rscale>  0 0.13536345E+04</rscale>
<asrwt>0</asrwt>
<pdfrwt beam="1">  1        2 0.14112640E+00 0.13536345E+04</pdfrwt>
<pdfrwt beam="2">  1       -2 0.76825938E-01 0.13536345E+04</pdfrwt>
<totfact> 0.42202330E+01</totfact>
</mgrwt>
</event>
<event>
12    1  0.1097093E-007  0.1514028E+04  0.7818608E-02  0.8875178E-01
          2   -1    0    0  501    0  0.00000000000E+00  0.00000000000E+00  0.64314718467E+03  0.64314718467E+03  0.00000000000E+00 0. -1.
         -2   -1    0    0    0  501 -0.00000000000E+00 -0.00000000000E+00 -0.89104021418E+03  0.89104021418E+03  0.00000000000E+00 0.  1.
         23    2    1    2    0    0  0.16990720998E+03 -0.21657664141E+03  0.32153084475E+03  0.43297082230E+03  0.91146844322E+02 0.  0.
        254    2    1    2    0    0 -0.16990720998E+03  0.21657664141E+03 -0.56942387425E+03  0.11012165765E+04  0.90147684290E+03 0.  0.
        -24    2    4    4    0    0 -0.23737796598E+03  0.17625206247E+01  0.18378082527E+03  0.31107496746E+03  0.81491339614E+02 0.  0.
         24    2    4    4    0    0  0.67470756003E+02  0.21481412079E+03 -0.75320469952E+03  0.79014160909E+03  0.79429425398E+02 0.  0.
         13    1    3    3    0    0  0.17108098895E+03 -0.16764027204E+03  0.28241872451E+03  0.37031378795E+03  0.00000000000E+00 0. -1.
        -13    1    3    3    0    0 -0.11737789666E+01 -0.48936369376E+02  0.39112120237E+02  0.62657034355E+02  0.00000000000E+00 0.  1.
          2    1    6    6  502    0 -0.51168299026E+01 -0.48007610110E+01 -0.15234572862E+02  0.16772640365E+02  0.00000000000E+00 0. -1.
          3    1    5    5  503    0 -0.15278469779E+02 -0.49832497513E+01 -0.76368122776E+01  0.17792844591E+02  0.00000000000E+00 0. -1.
         -4    1    5    5    0  503 -0.22209949620E+03  0.67457703760E+01  0.19141763755E+03  0.29328212287E+03  0.00000000000E+00 0.  1.
         -1    1    6    6    0  502  0.72587585905E+02  0.21961488180E+03 -0.73797012666E+03  0.77336896872E+03  0.00000000000E+00 0.  1.
<mgrwt>
<rscale>  0 0.15140277E+04</rscale>
<asrwt>0</asrwt>
<pdfrwt beam="1">  1        2 0.98945721E-01 0.15140277E+04</pdfrwt>
<pdfrwt beam="2">  1       -2 0.13708311E+00 0.15140277E+04</pdfrwt>
<totfact> 0.16670356E+01</totfact>
</mgrwt>
</event>
<event>
12    1  0.1097093E-007  0.1434442E+04  0.7818608E-02  0.8929258E-01
         -1   -1    0    0    0  501 -0.00000000000E+00  0.00000000000E+00  0.38895583791E+03  0.38895583791E+03  0.00000000000E+00 0.  1.
          1   -1    0    0  501    0  0.00000000000E+00 -0.00000000000E+00 -0.13225307088E+04  0.13225307088E+04  0.00000000000E+00 0. -1.
         23    2    1    2    0    0 -0.24561246285E+03  0.21820022292E+03 -0.61356378639E+03  0.70115222180E+03  0.84953510674E+02 0.  0.
        254    2    1    2    0    0  0.24561246285E+03 -0.21820022292E+03 -0.32001108447E+03  0.10103343249E+04  0.90023970956E+03 0.  0.
        -24    2    4    4    0    0  0.35554740793E+03 -0.24291396219E+03 -0.57345196412E+03  0.72166160569E+03  0.80790876167E+02 0.  0.
         24    2    4    4    0    0 -0.10993494508E+03  0.24713739268E+02  0.25344087965E+03  0.28867271919E+03  0.80019986676E+02 0.  0.
         13    1    3    3    0    0 -0.17903691274E+03  0.18714281799E+03 -0.52994798798E+03  0.58984872672E+03  0.00000000000E+00 0.  1.
        -13    1    3    3    0    0 -0.66575550106E+02  0.31057404934E+02 -0.83615798405E+02  0.11130349508E+03  0.00000000000E+00 0. -1.
          2    1    6    6  502    0 -0.21858539379E+02 -0.24492619542E+02  0.98076290907E+02  0.10342457635E+03  0.00000000000E+00 0. -1.
          3    1    5    5  503    0  0.12056066958E+03 -0.38595690155E+02 -0.17407701371E+03  0.21523779652E+03  0.00000000000E+00 0. -1.
         -4    1    5    5    0  503  0.23498673835E+03 -0.20431827203E+03 -0.39937495040E+03  0.50642380917E+03  0.00000000000E+00 0.  1.
         -1    1    6    6    0  502 -0.88076405701E+02  0.49206358810E+02  0.15536458874E+03  0.18524814284E+03  0.00000000000E+00 0.  1.
<mgrwt>
<rscale>  0 0.14344421E+04</rscale>
<asrwt>0</asrwt>
<pdfrwt beam="1">  1        1 0.20346626E+00 0.14344421E+04</pdfrwt>
<pdfrwt beam="2">  1       -1 0.59839360E-01 0.14344421E+04</pdfrwt>
<totfact> 0.23999545E+01</totfact>
</mgrwt>
</event>
<event>
12    1  0.1097093E-007  0.1608550E+04  0.7818608E-02  0.8815313E-01
          2   -1    0    0  501    0  0.00000000000E+00  0.00000000000E+00  0.10887128943E+04  0.10887128943E+04  0.00000000000E+00 0. -1.
         -2   -1    0    0    0  501 -0.00000000000E+00 -0.00000000000E+00 -0.59414938173E+03  0.59414938173E+03  0.00000000000E+00 0.  1.
         23    2    1    2    0    0 -0.23898462977E+03 -0.12270972671E+03  0.70572498165E+03  0.76058262194E+03  0.90922190786E+02 0.  0.
        254    2    1    2    0    0  0.23898462977E+03  0.12270972671E+03 -0.21116146905E+03  0.92227965412E+03  0.85664418757E+03 0.  0.
        -24    2    4    4    0    0 -0.37372702141E+02 -0.21357337170E+02 -0.48871526343E+03  0.49739650009E+03  0.81901250763E+02 0.  0.
         24    2    4    4    0    0  0.27635733192E+03  0.14406706388E+03  0.27755379438E+03  0.42488315403E+03  0.79755200483E+02 0.  0.
         11    1    3    3    0    0 -0.14124213912E+03 -0.97030959592E+02  0.33437792708E+03  0.37572988582E+03  0.00000000000E+00 0.  1.
        -11    1    3    3    0    0 -0.97742490656E+02 -0.25678767117E+02  0.37134705457E+03  0.38485273612E+03  0.00000000000E+00 0. -1.
          2    1    6    6  502    0  0.97113491480E+02  0.19984102906E+02  0.12130502114E+03  0.15666940591E+03  0.00000000000E+00 0. -1.
          1    1    5    5  503    0 -0.60102995199E+02  0.90296663136E+00 -0.29169643349E+03  0.29782544333E+03  0.00000000000E+00 0. -1.
         -2    1    5    5    0  503  0.22730293057E+02 -0.22260303801E+02 -0.19701882994E+03  0.19957105676E+03  0.00000000000E+00 0.  1.
         -1    1    6    6    0  502  0.17924384044E+03  0.12408296097E+03  0.15624877325E+03  0.26821374812E+03  0.00000000000E+00 0.  1.
<mgrwt>
<rscale>  0 0.16085498E+04</rscale>
<asrwt>0</asrwt>
<pdfrwt beam="1">  1        2 0.16749429E+00 0.16085498E+04</pdfrwt>
<pdfrwt beam="2">  1       -2 0.91407597E-01 0.16085498E+04</pdfrwt>
<totfact> 0.21635295E+01</totfact>
</mgrwt>
</event>
<event>
12    1  0.1097093E-007  0.2124231E+04  0.7818608E-02  0.8550644E-01
          2   -1    0    0  501    0  0.00000000000E+00  0.00000000000E+00  0.76909858903E+03  0.76909858903E+03  0.00000000000E+00 0. -1.
         -2   -1    0    0    0  501 -0.00000000000E+00 -0.00000000000E+00 -0.14667679641E+04  0.14667679641E+04  0.00000000000E+00 0.  1.
         23    2    1    2    0    0  0.77625845002E+03 -0.92611407341E+02 -0.69145311228E+03  0.10477172213E+04  0.91923421505E+02 0.  0.
        254    2    1    2    0    0 -0.77625845002E+03  0.92611407341E+02 -0.62162628225E+01  0.11881493318E+04  0.89471008646E+03 0.  0.
        -24    2    4    4    0    0 -0.53132944651E+03  0.60684953948E+02 -0.43004716281E+03  0.69121097928E+03  0.82694686997E+02 0.  0.
         24    2    4    4    0    0 -0.24492900350E+03  0.31926453393E+02  0.42383089999E+03  0.49693835255E+03  0.79407677641E+02 0.  0.
         11    1    3    3    0    0  0.63459798430E+03 -0.66808850672E+02 -0.60748681400E+03  0.88103249281E+03  0.00000000000E+00 0.  1.
        -11    1    3    3    0    0  0.14166046572E+03 -0.25802556669E+02 -0.83966298275E+02  0.16668472853E+03  0.00000000000E+00 0. -1.
          2    1    6    6  502    0 -0.21641709385E+03  0.39407363010E+02  0.40789295775E+03  0.46342848828E+03  0.00000000000E+00 0. -1.
          1    1    5    5  503    0 -0.43965536384E+03  0.40457977458E+02 -0.39019002942E+03  0.58922147445E+03  0.00000000000E+00 0. -1.
         -2    1    5    5    0  503 -0.91674082677E+02  0.20226976490E+02 -0.39857133392E+02  0.10198950483E+03  0.00000000000E+00 0.  1.
         -1    1    6    6    0  502 -0.28511909648E+02 -0.74809096168E+01  0.15937942243E+02  0.33509864270E+02  0.00000000000E+00 0.  1.
<mgrwt>
<rscale>  0 0.21242308E+04</rscale>
<asrwt>0</asrwt>
<pdfrwt beam="1">  1        2 0.11832286E+00 0.21242308E+04</pdfrwt>
<pdfrwt beam="2">  1       -2 0.22565661E+00 0.21242308E+04</pdfrwt>
<totfact> 0.30370885E+00</totfact>
</mgrwt>
</event>
<event>
12    1  0.1097093E-007  0.1309065E+04  0.7818608E-02  0.9022407E-01
         -1   -1    0    0    0  501 -0.00000000000E+00  0.00000000000E+00  0.14138352198E+04  0.14138352198E+04  0.00000000000E+00 0.  1.
          1   -1    0    0  501    0  0.00000000000E+00 -0.00000000000E+00 -0.30301454034E+03  0.30301454034E+03  0.00000000000E+00 0. -1.
         23    2    1    2    0    0  0.47827384949E+02 -0.35536251346E+03  0.33161361310E+03  0.49695842882E+03  0.91815667820E+02 0.  0.
        254    2    1    2    0    0 -0.47827384949E+02  0.35536251346E+03  0.77920706639E+03  0.12198913314E+04  0.86741064859E+03 0.  0.
        -24    2    4    4    0    0  0.36542844714E+03  0.97520045473E+02  0.55782993317E+03  0.67882276965E+03  0.81104925878E+02 0.  0.
         24    2    4    4    0    0 -0.41325583209E+03  0.25784246799E+03  0.22137713322E+03  0.54106856171E+03  0.80524731050E+02 0.  0.
         11    1    3    3    0    0  0.10524037647E+02 -0.25737913480E+03  0.27872710467E+03  0.37953072771E+03  0.00000000000E+00 0. -1.
        -11    1    3    3    0    0  0.37303347302E+02 -0.97983378663E+02  0.52886508431E+02  0.11742770111E+03  0.00000000000E+00 0.  1.
          4    1    6    6  502    0 -0.61365508811E+01 -0.19492188602E+01  0.14137109050E+02  0.15534302790E+02  0.00000000000E+00 0. -1.
          3    1    5    5  503    0  0.29501468540E+03  0.45518872221E+02  0.41272589924E+03  0.50936067794E+03  0.00000000000E+00 0. -1.
         -4    1    5    5    0  503  0.70413761739E+02  0.52001173253E+02  0.14510403394E+03  0.16946209171E+03  0.00000000000E+00 0.  1.
         -3    1    6    6    0  502 -0.40711928121E+03  0.25979168685E+03  0.20724002417E+03  0.52553425892E+03  0.00000000000E+00 0.  1.
<mgrwt>
<rscale>  0 0.13090647E+04</rscale>
<asrwt>0</asrwt>
<pdfrwt beam="1">  1        1 0.46617622E-01 0.13090647E+04</pdfrwt>
<pdfrwt beam="2">  1       -1 0.21751311E+00 0.13090647E+04</pdfrwt>
<totfact> 0.97207272E+00</totfact>
</mgrwt>
</event>
<event>
12    1  0.1097093E-007  0.2688121E+04  0.7818608E-02  0.8338870E-01
          2   -1    0    0  501    0  0.00000000000E+00  0.00000000000E+00  0.28467062165E+04  0.28467062165E+04  0.00000000000E+00 0. -1.
         -2   -1    0    0    0  501 -0.00000000000E+00 -0.00000000000E+00 -0.63459245279E+03  0.63459245279E+03  0.00000000000E+00 0.  1.
         23    2    1    2    0    0 -0.43868493334E+03 -0.51539388995E+03  0.22533025109E+04  0.23546374042E+04  0.94179439731E+02 0.  0.
        254    2    1    2    0    0  0.43868493334E+03  0.51539388995E+03 -0.41188747163E+02  0.11266612652E+04  0.89977428336E+03 0.  0.
        -24    2    4    4    0    0  0.53188772361E+03  0.31176918692E+03 -0.36796033195E+03  0.72257343572E+03  0.81320278412E+02 0.  0.
         24    2    4    4    0    0 -0.93202790265E+02  0.20362470303E+03  0.32677158479E+03  0.40408782945E+03  0.79734092386E+02 0.  0.
         11    1    3    3    0    0 -0.13715699054E+03 -0.17398945521E+03  0.59475751298E+03  0.63468170749E+03  0.00000000000E+00 0.  1.
        -11    1    3    3    0    0 -0.30152794280E+03 -0.34140443474E+03  0.16585449979E+04  0.17199556967E+04  0.00000000000E+00 0. -1.
          2    1    6    6  502    0 -0.82579928610E+02  0.96948096297E+02  0.14434842052E+03  0.19249634929E+03  0.00000000000E+00 0. -1.
          3    1    5    5  503    0  0.14335238056E+03  0.68698423615E+02 -0.57635687723E+02  0.16908947607E+03  0.00000000000E+00 0. -1.
         -4    1    5    5    0  503  0.38853534305E+03  0.24307076331E+03 -0.31032464423E+03  0.55348395964E+03  0.00000000000E+00 0.  1.
         -3    1    6    6    0  502 -0.10622861656E+02  0.10667660673E+03  0.18242316427E+03  0.21159148016E+03  0.00000000000E+00 0.  1.
<mgrwt>
<rscale>  0 0.26881207E+04</rscale>
<asrwt>0</asrwt>
<pdfrwt beam="1">  1        2 0.43795480E+00 0.26881207E+04</pdfrwt>
<pdfrwt beam="2">  1       -2 0.97629609E-01 0.26881207E+04</pdfrwt>
<totfact> 0.16622561E+00</totfact>
</mgrwt>
</event>
<event>
12    1  0.1097093E-007  0.1878317E+04  0.7818608E-02  0.8665725E-01
          2   -1    0    0  501    0  0.00000000000E+00  0.00000000000E+00  0.14746287597E+04  0.14746287597E+04  0.00000000000E+00 0. -1.
         -2   -1    0    0    0  501 -0.00000000000E+00 -0.00000000000E+00 -0.59812919517E+03  0.59812919517E+03  0.00000000000E+00 0.  1.
         23    2    1    2    0    0 -0.19521733626E+03 -0.63394652146E+03  0.60420931740E+03  0.90206210148E+03  0.93000727104E+02 0.  0.
        254    2    1    2    0    0  0.19521733626E+03  0.63394652146E+03  0.27229024715E+03  0.11706958534E+04  0.92541277388E+03 0.  0.
        -24    2    4    4    0    0 -0.30749294593E+03  0.10638599451E+03 -0.98139484844E+02  0.34920495919E+03  0.80267386944E+02 0.  0.
         24    2    4    4    0    0  0.50271028220E+03  0.52756052695E+03  0.37042973199E+03  0.82149089422E+03  0.81187225152E+02 0.  0.
         11    1    3    3    0    0 -0.15245730930E+03 -0.33803377873E+03  0.33354638060E+03  0.49876172139E+03  0.00000000000E+00 0. -1.
        -11    1    3    3    0    0 -0.42760026969E+02 -0.29591274273E+03  0.27066293680E+03  0.40330038008E+03  0.00000000000E+00 0.  1.
          2    1    6    6  502    0  0.46399046165E+03  0.50840302078E+03  0.33438324983E+03  0.76522737654E+03  0.00000000000E+00 0. -1.
          3    1    5    5  503    0 -0.25986769659E+03  0.62593835508E+02 -0.97428959509E+02  0.28450239037E+03  0.00000000000E+00 0. -1.
         -4    1    5    5    0  503 -0.47625249344E+02  0.43792159002E+02 -0.71052533428E+00  0.64702568816E+02  0.00000000000E+00 0.  1.
         -1    1    6    6    0  502  0.38719820546E+02  0.19157506167E+02  0.36046482161E+02  0.56263517681E+02  0.00000000000E+00 0.  1.
<mgrwt>
<rscale>  0 0.18783168E+04</rscale>
<asrwt>0</asrwt>
<pdfrwt beam="1">  1        2 0.22686596E+00 0.18783168E+04</pdfrwt>
<pdfrwt beam="2">  1       -2 0.92019876E-01 0.18783168E+04</pdfrwt>
<totfact> 0.12358135E+01</totfact>
</mgrwt>
</event>
<event>
12    1  0.1097093E-007  0.2443669E+04  0.7818608E-02  0.8423333E-01
          1   -1    0    0  501    0  0.00000000000E+00  0.00000000000E+00  0.17049631985E+04  0.17049631985E+04  0.00000000000E+00 0. -1.
         -1   -1    0    0    0  501 -0.00000000000E+00 -0.00000000000E+00 -0.87560823581E+03  0.87560823581E+03  0.00000000000E+00 0.  1.
         23    2    1    2    0    0  0.14317488291E+03 -0.36432477982E+03 -0.67212477798E+03  0.78357391689E+03  0.94893486390E+02 0.  0.
        254    2    1    2    0    0 -0.14317488291E+03  0.36432477982E+03  0.15014797407E+04  0.17969975174E+04  0.90638130703E+03 0.  0.
        -24    2    4    4    0    0 -0.24863006165E+03  0.57919775306E+03  0.64922240965E+03  0.90836151093E+03  0.79648933723E+02 0.  0.
         24    2    4    4    0    0  0.10545517874E+03 -0.21487297324E+03  0.85225733104E+03  0.88863600652E+03  0.77718752057E+02 0.  0.
         13    1    3    3    0    0  0.15288786411E+03 -0.29323696894E+03 -0.56421451624E+03  0.65398825622E+03  0.00000000000E+00 0.  1.
        -13    1    3    3    0    0 -0.97129812018E+01 -0.71087810876E+02 -0.10791026175E+03  0.12958566066E+03  0.00000000000E+00 0. -1.
          4    1    6    6  502    0  0.18379096547E+02 -0.12348319356E+03  0.45399848372E+03  0.47085083997E+03  0.00000000000E+00 0. -1.
          3    1    5    5  503    0 -0.22640077551E+03  0.48956145117E+03  0.58598830450E+03  0.79643582204E+03  0.00000000000E+00 0. -1.
         -4    1    5    5    0  503 -0.22229286135E+02  0.89636301890E+02  0.63234105152E+02  0.11192568889E+03  0.00000000000E+00 0.  1.
         -1    1    6    6    0  502  0.87076082194E+02 -0.91389779685E+02  0.39825884732E+03  0.41778516655E+03  0.00000000000E+00 0.  1.
<mgrwt>
<rscale>  0 0.24436692E+04</rscale>
<asrwt>0</asrwt>
<pdfrwt beam="1">  1        1 0.26230203E+00 0.24436692E+04</pdfrwt>
<pdfrwt beam="2">  1       -1 0.13470896E+00 0.24436692E+04</pdfrwt>
<totfact> 0.19554373E+00</totfact>
</mgrwt>
</event>
<event>
12    1  0.1097093E-007  0.1177900E+04  0.7818608E-02  0.9132423E-01
          2   -1    0    0  501    0  0.00000000000E+00  0.00000000000E+00  0.92774646733E+03  0.92774646733E+03  0.00000000000E+00 0. -1.
         -2   -1    0    0    0  501 -0.00000000000E+00 -0.00000000000E+00 -0.37387622490E+03  0.37387622490E+03  0.00000000000E+00 0.  1.
         23    2    1    2    0    0 -0.33190194162E+01 -0.74883588761E+02  0.28402671943E+03  0.30810548839E+03  0.92947549035E+02 0.  0.
        254    2    1    2    0    0  0.33190194162E+01  0.74883588761E+02  0.26984352301E+03  0.99351720384E+03  0.95322732843E+03 0.  0.
        -24    2    4    4    0    0  0.20184143364E+03  0.46172234368E+03  0.18952865909E+03  0.54425558631E+03  0.79784357045E+02 0.  0.
         24    2    4    4    0    0 -0.19852241422E+03 -0.38683875492E+03  0.80314863919E+02  0.44926161753E+03  0.79562254625E+02 0.  0.
         13    1    3    3    0    0 -0.17635490673E+01  0.21175392992E+02  0.76920594143E+02  0.79801536182E+02  0.00000000000E+00 0.  1.
        -13    1    3    3    0    0 -0.15554703489E+01 -0.96058981753E+02  0.20710612529E+03  0.22830395221E+03  0.00000000000E+00 0. -1.
          2    1    6    6  502    0 -0.10950027430E+03 -0.22518729051E+03  0.64413895024E+01  0.25048177055E+03  0.00000000000E+00 0. -1.
          1    1    5    5  503    0 -0.29269435206E+01  0.35396472195E+02  0.25276829251E+02  0.43593524052E+02  0.00000000000E+00 0. -1.
         -2    1    5    5    0  503  0.20476837716E+03  0.42632587148E+03  0.16425182984E+03  0.50066206226E+03  0.00000000000E+00 0.  1.
         -1    1    6    6    0  502 -0.89022139923E+02 -0.16165146441E+03  0.73873474417E+02  0.19877984697E+03  0.00000000000E+00 0.  1.
<mgrwt>
<rscale>  0 0.11779004E+04</rscale>
<asrwt>0</asrwt>
<pdfrwt beam="1">  1        2 0.14273022E+00 0.11779004E+04</pdfrwt>
<pdfrwt beam="2">  1       -2 0.57519420E-01 0.11779004E+04</pdfrwt>
<totfact> 0.78587070E+01</totfact>
</mgrwt>
</event>
<event>
12    1  0.1097093E-007  0.1142675E+04  0.7818608E-02  0.9164568E-01
          1   -1    0    0  501    0  0.00000000000E+00  0.00000000000E+00  0.10405494144E+04  0.10405494144E+04  0.00000000000E+00 0. -1.
         -1   -1    0    0    0  501 -0.00000000000E+00 -0.00000000000E+00 -0.31370578325E+03  0.31370578325E+03  0.00000000000E+00 0.  1.
         23    2    1    2    0    0  0.63433480939E+01  0.11429271160E+03 -0.47898424745E+02  0.15386192478E+03  0.90973462134E+02 0.  0.
        254    2    1    2    0    0 -0.63433480939E+01 -0.11429271160E+03  0.77474205592E+03  0.12003932729E+04  0.90973385913E+03 0.  0.
        -24    2    4    4    0    0  0.29396123651E+03 -0.34737407328E+03  0.19442225409E+03  0.50158942668E+03  0.81914496374E+02 0.  0.
         24    2    4    4    0    0 -0.30030458460E+03  0.23308136168E+03  0.58031980183E+03  0.69880384623E+03  0.83940326460E+02 0.  0.
         11    1    3    3    0    0  0.69517920881E+01  0.29772920847E+02  0.27105815606E+02  0.40859264171E+02  0.00000000000E+00 0. -1.
        -11    1    3    3    0    0 -0.60844399426E+00  0.84519790753E+02 -0.75004240350E+02  0.11300266060E+03  0.00000000000E+00 0.  1.
          2    1    6    6  502    0 -0.20740631233E+03  0.10987268671E+03  0.36309897237E+03  0.43235431005E+03  0.00000000000E+00 0. -1.
          3    1    5    5  503    0  0.23126696483E+03 -0.21488239782E+03  0.13789848278E+03  0.34449215589E+03  0.00000000000E+00 0. -1.
         -4    1    5    5    0  503  0.62694271676E+02 -0.13249167546E+03  0.56523771314E+02  0.15709727080E+03  0.00000000000E+00 0.  1.
         -1    1    6    6    0  502 -0.92898272277E+02  0.12320867497E+03  0.21722082946E+03  0.26644953618E+03  0.00000000000E+00 0.  1.
<mgrwt>
<rscale>  0 0.11426747E+04</rscale>
<asrwt>0</asrwt>
<pdfrwt beam="1">  1        1 0.16008452E+00 0.11426747E+04</pdfrwt>
<pdfrwt beam="2">  1       -1 0.48262429E-01 0.11426747E+04</pdfrwt>
<totfact> 0.60007543E+01</totfact>
</mgrwt>
</event>
<event>
12    1  0.1097093E-007  0.1716741E+04  0.7818608E-02  0.8751873E-01
          2   -1    0    0  501    0  0.00000000000E+00  0.00000000000E+00  0.19498702099E+04  0.19498702099E+04  0.00000000000E+00 0. -1.
         -2   -1    0    0    0  501 -0.00000000000E+00 -0.00000000000E+00 -0.37787138622E+03  0.37787138622E+03  0.00000000000E+00 0.  1.
         23    2    1    2    0    0 -0.10412875074E+03  0.28325941561E+03 -0.16143983260E+03  0.35390245350E+03  0.90030182604E+02 0.  0.
        254    2    1    2    0    0  0.10412875074E+03 -0.28325941561E+03  0.17334386563E+04  0.19738391426E+04  0.89451254467E+03 0.  0.
        -24    2    4    4    0    0 -0.50557315788E+02  0.17844527474E+03  0.13038746800E+04  0.13194131162E+04  0.79768614538E+02 0.  0.
         24    2    4    4    0    0  0.15468606652E+03 -0.46170469035E+03  0.42956397633E+03  0.65442602644E+03  0.81542713078E+02 0.  0.
         11    1    3    3    0    0 -0.39064981941E+02  0.22044736263E+03 -0.10482532145E+03  0.24720732295E+03  0.00000000000E+00 0.  1.
        -11    1    3    3    0    0 -0.65063768795E+02  0.62812052984E+02 -0.56614511142E+02  0.10669513054E+03  0.00000000000E+00 0. -1.
          4    1    6    6  502    0  0.27638808127E+01 -0.10328876606E+03  0.72872045828E+02  0.12643790292E+03  0.00000000000E+00 0. -1.
          3    1    5    5  503    0  0.20952281320E+02  0.29669494845E+02  0.20134183613E+03  0.20459181801E+03  0.00000000000E+00 0. -1.
         -4    1    5    5    0  503 -0.71509597107E+02  0.14877577989E+03  0.11025328438E+04  0.11148212982E+04  0.00000000000E+00 0.  1.
         -3    1    6    6    0  502  0.15192218571E+03 -0.35841592429E+03  0.35669193050E+03  0.52798812352E+03  0.00000000000E+00 0.  1.
<mgrwt>
<rscale>  0 0.17167413E+04</rscale>
<asrwt>0</asrwt>
<pdfrwt beam="1">  1        2 0.29998003E+00 0.17167413E+04</pdfrwt>
<pdfrwt beam="2">  1       -2 0.58134061E-01 0.17167413E+04</pdfrwt>
<totfact> 0.18743661E+01</totfact>
</mgrwt>
</event>
<event>
12    1  0.1097093E-007  0.1935143E+04  0.7818608E-02  0.8637559E-01
         -1   -1    0    0    0  501 -0.00000000000E+00  0.00000000000E+00  0.88838176836E+03  0.88838176836E+03  0.00000000000E+00 0.  1.
          1   -1    0    0  501    0  0.00000000000E+00 -0.00000000000E+00 -0.10538199667E+04  0.10538199667E+04  0.00000000000E+00 0. -1.
         23    2    1    2    0    0  0.49499473639E+03 -0.39973159418E+02 -0.63602760348E+03  0.81206501517E+03  0.91108912557E+02 0.  0.
        254    2    1    2    0    0 -0.49499473639E+03  0.39973159418E+02  0.47058940513E+03  0.11301367199E+04  0.89952041383E+03 0.  0.
        -24    2    4    4    0    0 -0.60763077582E+03 -0.10589099946E+03  0.58737824384E+01  0.62214383029E+03  0.81242727443E+02 0.  0.
         24    2    4    4    0    0  0.11263603943E+03  0.14586415888E+03  0.46471562270E+03  0.50799288960E+03  0.90182790387E+02 0.  0.
         11    1    3    3    0    0  0.39078648040E+03 -0.33303175301E+02 -0.55644324739E+03  0.68077328261E+03  0.00000000000E+00 0. -1.
        -11    1    3    3    0    0  0.10420825599E+03 -0.66699841168E+01 -0.79584356089E+02  0.13129173256E+03  0.00000000000E+00 0.  1.
          2    1    6    6  502    0  0.11035689853E+03  0.94797145241E+02  0.27024470148E+03  0.30691585569E+03  0.00000000000E+00 0. -1.
          1    1    5    5  503    0 -0.56090122726E+03 -0.74682179597E+02  0.26290806098E+01  0.56585733781E+03  0.00000000000E+00 0. -1.
         -2    1    5    5    0  503 -0.46729548564E+02 -0.31208819866E+02  0.32447018286E+01  0.56286492486E+02  0.00000000000E+00 0.  1.
         -1    1    6    6    0  502  0.22791409005E+01  0.51067013640E+02  0.19447092122E+03  0.20107703391E+03  0.00000000000E+00 0.  1.
<mgrwt>
<rscale>  0 0.19351428E+04</rscale>
<asrwt>0</asrwt>
<pdfrwt beam="1">  1        1 0.16212615E+00 0.19351428E+04</pdfrwt>
<pdfrwt beam="2">  1       -1 0.13667412E+00 0.19351428E+04</pdfrwt>
<totfact> 0.57228599E+00</totfact>
</mgrwt>
</event>
<event>
12    1  0.1097093E-007  0.2108340E+04  0.7818608E-02  0.8557578E-01
          1   -1    0    0  501    0  0.00000000000E+00  0.00000000000E+00  0.65045036298E+03  0.65045036298E+03  0.00000000000E+00 0. -1.
         -1   -1    0    0    0  501 -0.00000000000E+00 -0.00000000000E+00 -0.17084697142E+04  0.17084697142E+04  0.00000000000E+00 0.  1.
         23    2    1    2    0    0 -0.30010409440E+03 -0.59372399498E+03  0.17496964068E+03  0.69396161332E+03  0.91638943158E+02 0.  0.
        254    2    1    2    0    0  0.30010409440E+03  0.59372399498E+03 -0.12329889919E+04  0.16649584638E+04  0.89958556154E+03 0.  0.
        -24    2    4    4    0    0 -0.15839312139E+03  0.62746529970E+03 -0.73793347039E+03  0.98461637199E+03  0.78246469837E+02 0.  0.
         24    2    4    4    0    0  0.45849721579E+03 -0.33741304723E+02 -0.49505552148E+03  0.68034209184E+03  0.80169944803E+02 0.  0.
         11    1    3    3    0    0 -0.28142813465E+03 -0.55125992900E+03  0.13678175898E+03  0.63387581898E+03  0.00000000000E+00 0. -1.
        -11    1    3    3    0    0 -0.18675959759E+02 -0.42464065975E+02  0.38187881707E+02  0.60085794339E+02  0.00000000000E+00 0.  1.
          2    1    6    6  502    0  0.22753531044E+03 -0.38798051326E+02 -0.19856812390E+03  0.30447808807E+03  0.00000000000E+00 0. -1.
          1    1    5    5  503    0 -0.69894208359E+02  0.33777647917E+03 -0.44711282303E+03  0.56470171485E+03  0.00000000000E+00 0. -1.
         -2    1    5    5    0  503 -0.88498913028E+02  0.28968882053E+03 -0.29082064736E+03  0.41991465714E+03  0.00000000000E+00 0.  1.
         -1    1    6    6    0  502  0.23096190535E+03  0.50567466032E+01 -0.29648739758E+03  0.37586400378E+03  0.00000000000E+00 0.  1.
<mgrwt>
<rscale>  0 0.21083403E+04</rscale>
<asrwt>0</asrwt>
<pdfrwt beam="1">  1        1 0.10006929E+00 0.21083403E+04</pdfrwt>
<pdfrwt beam="2">  1       -1 0.26284149E+00 0.21083403E+04</pdfrwt>
<totfact> 0.16079845E+00</totfact>
</mgrwt>
</event>
<event>
12    1  0.1097093E-007  0.1278772E+04  0.7818608E-02  0.9046570E-01
         -2   -1    0    0    0  501 -0.00000000000E+00  0.00000000000E+00  0.17545973742E+03  0.17545973742E+03  0.00000000000E+00 0.  1.
          2   -1    0    0  501    0  0.00000000000E+00 -0.00000000000E+00 -0.23299631819E+04  0.23299631819E+04  0.00000000000E+00 0. -1.
         23    2    1    2    0    0 -0.12604684709E+03  0.93242499095E+00  0.10432314694E+02  0.15704036580E+03  0.93081503131E+02 0.  0.
        254    2    1    2    0    0  0.12604684709E+03 -0.93242499095E+00 -0.21649357592E+04  0.23483825535E+04  0.90114654703E+03 0.  0.
        -24    2    4    4    0    0  0.10464674929E+02 -0.32801245793E+03 -0.30642510789E+03  0.45598188229E+03  0.79507535810E+02 0.  0.
         24    2    4    4    0    0  0.11558217216E+03  0.32708003294E+03 -0.18585106513E+04  0.18924006712E+04  0.82327838874E+02 0.  0.
         11    1    3    3    0    0 -0.16413586235E+02 -0.36867002724E+02 -0.20259220414E+01  0.40406510157E+02  0.00000000000E+00 0. -1.
        -11    1    3    3    0    0 -0.10963326085E+03  0.37799427715E+02  0.12458236736E+02  0.11663385565E+03  0.00000000000E+00 0.  1.
          4    1    6    6  502    0  0.57855694078E+01  0.10358746598E+03 -0.68019756620E+03  0.68806436108E+03  0.00000000000E+00 0. -1.
          3    1    5    5  503    0 -0.10196230748E+02 -0.91474602321E+01 -0.31893605263E+02  0.34710822619E+02  0.00000000000E+00 0. -1.
         -4    1    5    5    0  503  0.20660905677E+02 -0.31886499770E+03 -0.27453150262E+03  0.42127105967E+03  0.00000000000E+00 0.  1.
         -1    1    6    6    0  502  0.10979660275E+03  0.22349256696E+03 -0.11783130851E+04  0.12043363101E+04  0.00000000000E+00 0.  1.
<mgrwt>
<rscale>  0 0.12787724E+04</rscale>
<asrwt>0</asrwt>
<pdfrwt beam="1">  1        2 0.35845587E+00 0.12787724E+04</pdfrwt>
<pdfrwt beam="2">  1       -2 0.26993806E-01 0.12787724E+04</pdfrwt>
<totfact> 0.53538941E+01</totfact>
</mgrwt>
</event>
<event>
12    1  0.1097093E-007  0.2108409E+04  0.7818608E-02  0.8557548E-01
          2   -1    0    0  501    0  0.00000000000E+00  0.00000000000E+00  0.76834530470E+03  0.76834530470E+03  0.00000000000E+00 0. -1.
         -2   -1    0    0    0  501 -0.00000000000E+00 -0.00000000000E+00 -0.14464165898E+04  0.14464165898E+04  0.00000000000E+00 0.  1.
         23    2    1    2    0    0  0.80457030090E+02  0.56998926852E+03  0.37289598919E+03  0.69163269753E+03  0.89125022380E+02 0.  0.
        254    2    1    2    0    0 -0.80457030090E+02 -0.56998926852E+03 -0.10509672743E+04  0.15231291970E+04  0.94022829098E+03 0.  0.
        -24    2    4    4    0    0 -0.48355572954E+03 -0.20911611273E+03 -0.36548753818E+03  0.64621131342E+03  0.80325767038E+02 0.  0.
         24    2    4    4    0    0  0.40309869945E+03 -0.36087315579E+03 -0.68547973611E+03  0.87691788356E+03  0.79903127738E+02 0.  0.
         13    1    3    3    0    0  0.51759052614E+02  0.50282739209E+03  0.29689253919E+03  0.58622484219E+03  0.00000000000E+00 0. -1.
        -13    1    3    3    0    0  0.28697977475E+02  0.67161876430E+02  0.76003449993E+02  0.10540785534E+03  0.00000000000E+00 0.  1.
          2    1    6    6  502    0  0.46272329905E+02 -0.63001304352E+02 -0.65108858863E+02  0.10173227790E+03  0.00000000000E+00 0. -1.
          1    1    5    5  503    0 -0.17855774985E+02 -0.27781037528E+02 -0.19155989245E+02  0.38178091498E+02  0.00000000000E+00 0. -1.
         -2    1    5    5    0  503 -0.46569995456E+03 -0.18133507521E+03 -0.34633154893E+03  0.60803322192E+03  0.00000000000E+00 0.  1.
         -1    1    6    6    0  502  0.35682636955E+03 -0.29787185144E+03 -0.62037087725E+03  0.77518560566E+03  0.00000000000E+00 0.  1.
<mgrwt>
<rscale>  0 0.21084093E+04</rscale>
<asrwt>0</asrwt>
<pdfrwt beam="1">  1        2 0.11820697E+00 0.21084093E+04</pdfrwt>
<pdfrwt beam="2">  1       -2 0.22252563E+00 0.21084093E+04</pdfrwt>
<totfact> 0.31863460E+00</totfact>
</mgrwt>
</event>
<event>
12    1  0.1097093E-007  0.1972265E+04  0.7818608E-02  0.8619699E-01
          2   -1    0    0  501    0  0.00000000000E+00  0.00000000000E+00  0.15924247077E+04  0.15924247077E+04  0.00000000000E+00 0. -1.
         -2   -1    0    0    0  501 -0.00000000000E+00 -0.00000000000E+00 -0.61067687547E+03  0.61067687547E+03  0.00000000000E+00 0.  1.
         23    2    1    2    0    0  0.39434320152E+03  0.61389750971E+03  0.79834766548E+02  0.73970073743E+03  0.91689028724E+02 0.  0.
        254    2    1    2    0    0 -0.39434320152E+03 -0.61389750971E+03  0.90191306565E+03  0.14634008457E+04  0.89203034938E+03 0.  0.
        -24    2    4    4    0    0 -0.11893801434E+03 -0.79643437716E+03  0.58201998212E+03  0.99676626760E+03  0.79635194841E+02 0.  0.
         24    2    4    4    0    0 -0.27540518718E+03  0.18253686746E+03  0.31989308353E+03  0.46663457811E+03  0.79047577367E+02 0.  0.
         13    1    3    3    0    0  0.24724969474E+02  0.74193927013E+02  0.29658843971E+02  0.83640360753E+02  0.00000000000E+00 0. -1.
        -13    1    3    3    0    0  0.36961823205E+03  0.53970358269E+03  0.50175922577E+02  0.65606037668E+03  0.00000000000E+00 0.  1.
          4    1    6    6  502    0 -0.42658642783E+02  0.46493942442E+01  0.67368500801E+02  0.79874223446E+02  0.00000000000E+00 0. -1.
          3    1    5    5  503    0 -0.13105960075E+02 -0.29071665932E+03  0.18078466149E+03  0.34259456509E+03  0.00000000000E+00 0. -1.
         -4    1    5    5    0  503 -0.10583205427E+03 -0.50571771784E+03  0.40123532063E+03  0.65417170251E+03  0.00000000000E+00 0.  1.
         -3    1    6    6    0  502 -0.23274654440E+03  0.17788747321E+03  0.25252458273E+03  0.38676035466E+03  0.00000000000E+00 0.  1.
<mgrwt>
<rscale>  0 0.19722646E+04</rscale>
<asrwt>0</asrwt>
<pdfrwt beam="1">  1        2 0.24498841E+00 0.19722646E+04</pdfrwt>
<pdfrwt beam="2">  1       -2 0.93950289E-01 0.19722646E+04</pdfrwt>
<totfact> 0.10030480E+01</totfact>
</mgrwt>
</event>
<event>
12    1  0.1097093E-007  0.1359771E+04  0.7818608E-02  0.8983464E-01
          2   -1    0    0  501    0  0.00000000000E+00  0.00000000000E+00  0.73563537235E+03  0.73563537235E+03  0.00000000000E+00 0. -1.
         -2   -1    0    0    0  501 -0.00000000000E+00 -0.00000000000E+00 -0.62836081516E+03  0.62836081516E+03  0.00000000000E+00 0.  1.
         23    2    1    2    0    0  0.14426957377E+03  0.21296180720E+03 -0.24460877564E+03  0.36841097308E+03  0.98624290732E+02 0.  0.
        254    2    1    2    0    0 -0.14426957377E+03 -0.21296180720E+03  0.35188333284E+03  0.99558521443E+03  0.89509865268E+03 0.  0.
        -24    2    4    4    0    0 -0.23820413227E+03 -0.36726624886E+02  0.60884685301E+03  0.65981694085E+03  0.81079290854E+02 0.  0.
         24    2    4    4    0    0  0.93934558507E+02 -0.17623518232E+03 -0.25696352016E+03  0.33576827359E+03  0.82628942168E+02 0.  0.
         13    1    3    3    0    0 -0.14956189432E+01  0.40498574185E+02 -0.79382751528E+01  0.41296338814E+02  0.00000000000E+00 0. -1.
        -13    1    3    3    0    0  0.14576519271E+03  0.17246323302E+03 -0.23667050049E+03  0.32711463427E+03  0.00000000000E+00 0.  1.
          4    1    6    6  502    0  0.24648879339E+02 -0.12358321078E+03 -0.12352623362E+03  0.17646276557E+03  0.00000000000E+00 0. -1.
          1    1    5    5  503    0 -0.97910255290E+01  0.16209629981E+02  0.32694040994E+02  0.37782490675E+02  0.00000000000E+00 0. -1.
         -2    1    5    5    0  503 -0.22841310674E+03 -0.52936254867E+02  0.57615281201E+03  0.62203445017E+03  0.00000000000E+00 0.  1.
         -3    1    6    6    0  502  0.69285679168E+02 -0.52651971533E+02 -0.13343728655E+03  0.15930550802E+03  0.00000000000E+00 0.  1.
<mgrwt>
<rscale>  0 0.13597712E+04</rscale>
<asrwt>0</asrwt>
<pdfrwt beam="1">  1        2 0.11317467E+00 0.13597712E+04</pdfrwt>
<pdfrwt beam="2">  1       -2 0.96670895E-01 0.13597712E+04</pdfrwt>
<totfact> 0.33588911E+01</totfact>
</mgrwt>
</event>
<event>
12    1  0.1097093E-007  0.1705543E+04  0.7818608E-02  0.8758209E-01
         -1   -1    0    0    0  501 -0.00000000000E+00  0.00000000000E+00  0.10903898751E+04  0.10903898751E+04  0.00000000000E+00 0.  1.
          1   -1    0    0  501    0  0.00000000000E+00 -0.00000000000E+00 -0.66693508288E+03  0.66693508288E+03  0.00000000000E+00 0. -1.
         23    2    1    2    0    0  0.33070664289E+03 -0.80266963476E+02 -0.36686929663E+03  0.50943210024E+03  0.95489867873E+02 0.  0.
        254    2    1    2    0    0 -0.33070664289E+03  0.80266963476E+02  0.79032408884E+03  0.12478928577E+04  0.90377804239E+03 0.  0.
        -24    2    4    4    0    0 -0.34501125994E+03  0.83466218614E+02 -0.81027154984E+02  0.37278126427E+03  0.80006824779E+02 0.  0.
         24    2    4    4    0    0  0.14304617049E+02 -0.31992551373E+01  0.87135124383E+03  0.87511159346E+03  0.79702280981E+02 0.  0.
         13    1    3    3    0    0  0.11597005934E+03 -0.60622992550E+02 -0.18913200850E+03  0.22998938786E+03  0.00000000000E+00 0.  1.
        -13    1    3    3    0    0  0.21473658356E+03 -0.19643970927E+02 -0.17773728813E+03  0.27944271238E+03  0.00000000000E+00 0. -1.
          4    1    6    6  502    0  0.11307592222E+02 -0.49577616674E+00  0.15201768370E+02  0.18952603975E+02  0.00000000000E+00 0. -1.
          3    1    5    5  503    0 -0.52952744330E+02  0.40058368730E+02 -0.31110963570E+02  0.73325016820E+02  0.00000000000E+00 0. -1.
         -4    1    5    5    0  503 -0.29205851561E+03  0.43407849883E+02 -0.49916191414E+02  0.29945624745E+03  0.00000000000E+00 0.  1.
         -3    1    6    6    0  502  0.29970248270E+01 -0.27034789706E+01  0.85614947546E+03  0.85615898949E+03  0.00000000000E+00 0.  1.
<mgrwt>
<rscale>  0 0.17055430E+04</rscale>
<asrwt>0</asrwt>
<pdfrwt beam="1">  1        1 0.10260540E+00 0.17055430E+04</pdfrwt>
<pdfrwt beam="2">  1       -1 0.16775229E+00 0.17055430E+04</pdfrwt>
<totfact> 0.71268679E+00</totfact>
</mgrwt>
</event>
<event>
12    1  0.1097093E-007  0.2017207E+04  0.7818608E-02  0.8598618E-01
          1   -1    0    0  501    0  0.00000000000E+00  0.00000000000E+00  0.14270971426E+04  0.14270971426E+04  0.00000000000E+00 0. -1.
         -1   -1    0    0    0  501 -0.00000000000E+00 -0.00000000000E+00 -0.71283210311E+03  0.71283210311E+03  0.00000000000E+00 0.  1.
         23    2    1    2    0    0 -0.15955226779E+02 -0.35988165949E+02  0.11329882164E+04  0.11373374596E+04  0.91238594037E+02 0.  0.
        254    2    1    2    0    0  0.15955226779E+02  0.35988165949E+02 -0.41872317694E+03  0.10025917861E+04  0.91011618674E+03 0.  0.
        -24    2    4    4    0    0  0.36845488747E+03  0.22333380744E+03 -0.29113435506E+02  0.43905169756E+03  0.79257853635E+02 0.  0.
         24    2    4    4    0    0 -0.35249966069E+03 -0.18734564150E+03 -0.38960974143E+03  0.56354008857E+03  0.80170322684E+02 0.  0.
         11    1    3    3    0    0 -0.11769182786E+02 -0.63861918540E+02  0.57848635979E+03  0.58211968423E+03  0.00000000000E+00 0. -1.
        -11    1    3    3    0    0 -0.41860439929E+01  0.27873752591E+02  0.55450185662E+03  0.55521777533E+03  0.00000000000E+00 0.  1.
          4    1    6    6  502    0 -0.14509028874E+03 -0.11133583742E+03 -0.14069743511E+03  0.23074364309E+03  0.00000000000E+00 0. -1.
          3    1    5    5  503    0  0.34420339297E+03  0.19652609491E+03 -0.64960009094E+01  0.39640973720E+03  0.00000000000E+00 0. -1.
         -4    1    5    5    0  503  0.24251494491E+02  0.26807712535E+02 -0.22617434597E+02  0.42641960370E+02  0.00000000000E+00 0.  1.
         -3    1    6    6    0  502 -0.20740937194E+03 -0.76009804076E+02 -0.24891230632E+03  0.33279644548E+03  0.00000000000E+00 0.  1.
<mgrwt>
<rscale>  0 0.20172066E+04</rscale>
<asrwt>0</asrwt>
<pdfrwt beam="1">  1        1 0.21955341E+00 0.20172066E+04</pdfrwt>
<pdfrwt beam="2">  1       -1 0.10966648E+00 0.20172066E+04</pdfrwt>
<totfact> 0.52359678E+00</totfact>
</mgrwt>
</event>
<event>
12    1  0.1097093E-007  0.1787374E+04  0.7818608E-02  0.8713043E-01
          1   -1    0    0  501    0  0.00000000000E+00  0.00000000000E+00  0.89947538589E+03  0.89947538589E+03  0.00000000000E+00 0. -1.
         -1   -1    0    0    0  501 -0.00000000000E+00 -0.00000000000E+00 -0.88793554623E+03  0.88793554623E+03  0.00000000000E+00 0.  1.
         23    2    1    2    0    0 -0.31312743026E+02 -0.59560618035E+03  0.28464175506E+03  0.66728157395E+03  0.92285211464E+02 0.  0.
        254    2    1    2    0    0  0.31312743026E+02  0.59560618035E+03 -0.27310191539E+03  0.11201293582E+04  0.90795259397E+03 0.  0.
        -24    2    4    4    0    0 -0.98232865454E+02 -0.21995207110E+03 -0.97575646217E+02  0.27206802989E+03  0.80444991887E+02 0.  0.
         24    2    4    4    0    0  0.12954560848E+03  0.81555825145E+03 -0.17552626917E+03  0.84806132828E+03  0.80506019519E+02 0.  0.
         11    1    3    3    0    0  0.28331947549E+01 -0.51528591080E+03  0.25632371669E+03  0.57552536399E+03  0.00000000000E+00 0. -1.
        -11    1    3    3    0    0 -0.34145937781E+02 -0.80320269554E+02  0.28318038370E+02  0.91756209955E+02  0.00000000000E+00 0.  1.
          2    1    6    6  502    0  0.89038053441E+02  0.44098140791E+03 -0.59245985168E+02  0.45376476708E+03  0.00000000000E+00 0. -1.
          1    1    5    5  503    0  0.12169994433E+02 -0.78874636863E+01 -0.92031771280E+01  0.17176126372E+02  0.00000000000E+00 0. -1.
         -2    1    5    5    0  503 -0.11040285989E+03 -0.21206460741E+03 -0.88372469089E+02  0.25489190352E+03  0.00000000000E+00 0.  1.
         -1    1    6    6    0  502  0.40507555039E+02  0.37457684354E+03 -0.11628028400E+03  0.39429656120E+03  0.00000000000E+00 0.  1.
<mgrwt>
<rscale>  0 0.17873737E+04</rscale>
<asrwt>0</asrwt>
<pdfrwt beam="1">  1        1 0.13838083E+00 0.17873737E+04</pdfrwt>
<pdfrwt beam="2">  1       -1 0.13660547E+00 0.17873737E+04</pdfrwt>
<totfact> 0.76893615E+00</totfact>
</mgrwt>
</event>
<event>
12    1  0.1097093E-007  0.1696880E+04  0.7818608E-02  0.8763146E-01
          2   -1    0    0  501    0  0.00000000000E+00  0.00000000000E+00  0.18748539491E+04  0.18748539491E+04  0.00000000000E+00 0. -1.
         -2   -1    0    0    0  501 -0.00000000000E+00 -0.00000000000E+00 -0.38394999474E+03  0.38394999474E+03  0.00000000000E+00 0.  1.
         23    2    1    2    0    0  0.46485117366E+03  0.39721937246E+02  0.10378736835E+04  0.11413730200E+04  0.88803952235E+02 0.  0.
        254    2    1    2    0    0 -0.46485117366E+03 -0.39721937246E+02  0.45303027086E+03  0.11174309238E+04  0.90870842260E+03 0.  0.
        -24    2    4    4    0    0 -0.30984971577E+03 -0.37244872248E+03  0.54199406186E+03  0.73136581546E+03  0.80084303645E+02 0.  0.
         24    2    4    4    0    0 -0.15500145790E+03  0.33272678524E+03 -0.88963791007E+02  0.38606510838E+03  0.79994663804E+02 0.  0.
         11    1    3    3    0    0  0.31999023327E+03  0.22212773692E+02  0.60822126859E+03  0.68761927566E+03  0.00000000000E+00 0. -1.
        -11    1    3    3    0    0  0.14486094040E+03  0.17509163554E+02  0.42965241493E+03  0.45375374436E+03  0.00000000000E+00 0.  1.
          2    1    6    6  502    0 -0.12114857358E+03  0.30324763420E+03 -0.96579614025E+02  0.34053447164E+03  0.00000000000E+00 0. -1.
          3    1    5    5  503    0 -0.15194031712E+03 -0.16669517574E+03  0.19504473057E+03  0.29818717025E+03  0.00000000000E+00 0. -1.
         -2    1    5    5    0  503 -0.15790939865E+03 -0.20575354674E+03  0.34694933129E+03  0.43317864521E+03  0.00000000000E+00 0.  1.
         -1    1    6    6    0  502 -0.33852884313E+02  0.29479151037E+02  0.76158230178E+01  0.45530636745E+02  0.00000000000E+00 0.  1.
<mgrwt>
<rscale>  0 0.16968797E+04</rscale>
<asrwt>0</asrwt>
<pdfrwt beam="1">  1        2 0.28843906E+00 0.16968797E+04</pdfrwt>
<pdfrwt beam="2">  1       -2 0.59069231E-01 0.16968797E+04</pdfrwt>
<totfact> 0.19978522E+01</totfact>
</mgrwt>
</event>
<event>
12    1  0.1097093E-007  0.1590967E+04  0.7818608E-02  0.8826116E-01
          2   -1    0    0  501    0  0.00000000000E+00  0.00000000000E+00  0.68541520669E+03  0.68541520669E+03  0.00000000000E+00 0. -1.
         -2   -1    0    0    0  501 -0.00000000000E+00 -0.00000000000E+00 -0.92322766719E+03  0.92322766719E+03  0.00000000000E+00 0.  1.
         23    2    1    2    0    0  0.29728333230E+03  0.44847030847E+03  0.47306208105E+02  0.54779044831E+03  0.91288009556E+02 0.  0.
        254    2    1    2    0    0 -0.29728333230E+03 -0.44847030847E+03 -0.28511866861E+03  0.10608524256E+04  0.86868418680E+03 0.  0.
        -24    2    4    4    0    0 -0.57026511878E+03 -0.40482922673E+03 -0.83270474045E+02  0.70879698288E+03  0.79813423574E+02 0.  0.
         24    2    4    4    0    0  0.27298178648E+03 -0.43641081738E+02 -0.20184819456E+03  0.35205544268E+03  0.82320965174E+02 0.  0.
         13    1    3    3    0    0  0.19294505298E+03  0.27263400727E+03 -0.14120880355E+02  0.33430000696E+03  0.00000000000E+00 0.  1.
        -13    1    3    3    0    0  0.10433827932E+03  0.17583630120E+03  0.61427088459E+02  0.21349044135E+03  0.00000000000E+00 0. -1.
          2    1    6    6  502    0  0.25824059793E+03 -0.34668794124E+02 -0.20834786023E+03  0.33361499152E+03  0.00000000000E+00 0. -1.
          3    1    5    5  503    0 -0.33223875209E+03 -0.18788307546E+03 -0.52338066401E+02  0.38525564451E+03  0.00000000000E+00 0. -1.
         -4    1    5    5    0  503 -0.23802636669E+03 -0.21694615127E+03 -0.30932407643E+02  0.32354133837E+03  0.00000000000E+00 0.  1.
         -1    1    6    6    0  502  0.14741188556E+02 -0.89722876145E+01  0.64996656741E+01  0.18440451159E+02  0.00000000000E+00 0.  1.
<mgrwt>
<rscale>  0 0.15909674E+04</rscale>
<asrwt>0</asrwt>
<pdfrwt beam="1">  1        2 0.10544849E+00 0.15909674E+04</pdfrwt>
<pdfrwt beam="2">  1       -2 0.14203503E+00 0.15909674E+04</pdfrwt>
<totfact> 0.13960000E+01</totfact>
</mgrwt>
</event>
<event>
12    1  0.1097093E-007  0.1505439E+04  0.7818608E-02  0.8880844E-01
          1   -1    0    0  501    0  0.00000000000E+00  0.00000000000E+00  0.14456686921E+04  0.14456686921E+04  0.00000000000E+00 0. -1.
         -1   -1    0    0    0  501 -0.00000000000E+00 -0.00000000000E+00 -0.39192024079E+03  0.39192024079E+03  0.00000000000E+00 0.  1.
         23    2    1    2    0    0 -0.42087588687E+03  0.19937278226E+03  0.21664536680E+03  0.52176777237E+03  0.91762600620E+02 0.  0.
        254    2    1    2    0    0  0.42087588687E+03 -0.19937278226E+03  0.83710308452E+03  0.13158211605E+04  0.90208521435E+03 0.  0.
        -24    2    4    4    0    0 -0.10264371793E+03 -0.41227072469E+03  0.46113956041E+03  0.63227576589E+03  0.81363792193E+02 0.  0.
         24    2    4    4    0    0  0.52351960480E+03  0.21289794243E+03  0.37596352411E+03  0.68354539465E+03  0.80544550272E+02 0.  0.
         13    1    3    3    0    0 -0.44774136143E+02 -0.68392333254E+01  0.14192151898E+02  0.47464887605E+02  0.00000000000E+00 0.  1.
        -13    1    3    3    0    0 -0.37610175073E+03  0.20621201559E+03  0.20245321490E+03  0.47430288476E+03  0.00000000000E+00 0. -1.
          4    1    6    6  502    0  0.25212000827E+03  0.82005503485E+02  0.21855560483E+03  0.34359271467E+03  0.00000000000E+00 0. -1.
          3    1    5    5  503    0 -0.70577367862E+02 -0.12724775518E+03  0.16536745697E+03  0.22027154123E+03  0.00000000000E+00 0. -1.
         -4    1    5    5    0  503 -0.32066350073E+02 -0.28502296952E+03  0.29577210344E+03  0.41200422466E+03  0.00000000000E+00 0.  1.
         -3    1    6    6    0  502  0.27139959654E+03  0.13089243895E+03  0.15740791928E+03  0.33995267998E+03  0.00000000000E+00 0.  1.
<mgrwt>
<rscale>  0 0.15054392E+04</rscale>
<asrwt>0</asrwt>
<pdfrwt beam="1">  1        1 0.22241057E+00 0.15054392E+04</pdfrwt>
<pdfrwt beam="2">  1       -1 0.60295422E-01 0.15054392E+04</pdfrwt>
<totfact> 0.19247062E+01</totfact>
</mgrwt>
</event>
<event>
12    1  0.1097093E-007  0.2179454E+04  0.7818608E-02  0.8527029E-01
          2   -1    0    0  501    0  0.00000000000E+00  0.00000000000E+00  0.13950837163E+04  0.13950837163E+04  0.00000000000E+00 0. -1.
         -2   -1    0    0    0  501 -0.00000000000E+00 -0.00000000000E+00 -0.85120687641E+03  0.85120687641E+03  0.00000000000E+00 0.  1.
         23    2    1    2    0    0  0.52764405338E+03 -0.65007608216E+03 -0.10431670676E+03  0.84951186101E+03  0.98900288294E+02 0.  0.
        254    2    1    2    0    0 -0.52764405338E+03  0.65007608216E+03  0.64819354667E+03  0.13967787317E+04  0.91094939035E+03 0.  0.
        -24    2    4    4    0    0  0.22017681727E+02 -0.23158153067E+02 -0.17681975618E+03  0.19584079035E+03  0.77892943361E+02 0.  0.
         24    2    4    4    0    0 -0.54966173510E+03  0.67323423522E+03  0.82501330285E+03  0.12009379414E+04  0.78947011483E+02 0.  0.
         11    1    3    3    0    0  0.29606132518E+03 -0.40325258139E+03 -0.19767873871E+02  0.50065529210E+03  0.00000000000E+00 0. -1.
        -11    1    3    3    0    0  0.23158272819E+03 -0.24682350077E+03 -0.84548832891E+02  0.34885656891E+03  0.00000000000E+00 0.  1.
          4    1    6    6  502    0 -0.49299707669E+03  0.63605151086E+03  0.75417385236E+03  0.11028988357E+04  0.00000000000E+00 0. -1.
          3    1    5    5  503    0 -0.17819256417E+02  0.13404224632E+02 -0.96314970478E+02  0.98862392625E+02  0.00000000000E+00 0. -1.
         -4    1    5    5    0  503  0.39836938144E+02 -0.36562377699E+02 -0.80504785704E+02  0.96978397723E+02  0.00000000000E+00 0.  1.
         -3    1    6    6    0  502 -0.56664658415E+02  0.37182724361E+02  0.70839450489E+02  0.98039105717E+02  0.00000000000E+00 0.  1.
<mgrwt>
<rscale>  0 0.21794539E+04</rscale>
<asrwt>0</asrwt>
<pdfrwt beam="1">  1        2 0.21462826E+00 0.21794539E+04</pdfrwt>
<pdfrwt beam="2">  1       -2 0.13095490E+00 0.21794539E+04</pdfrwt>
<totfact> 0.56860554E+00</totfact>
</mgrwt>
</event>
<event>
12    1  0.1097093E-007  0.1267319E+04  0.7818608E-02  0.9055891E-01
          1   -1    0    0  501    0  0.00000000000E+00  0.00000000000E+00  0.18289523615E+03  0.18289523615E+03  0.00000000000E+00 0. -1.
         -1   -1    0    0    0  501 -0.00000000000E+00 -0.00000000000E+00 -0.21953795055E+04  0.21953795055E+04  0.00000000000E+00 0.  1.
         23    2    1    2    0    0  0.13246289541E+03  0.24251898664E+03 -0.26805866458E+03  0.39500161842E+03  0.88368282538E+02 0.  0.
        254    2    1    2    0    0 -0.13246289541E+03 -0.24251898664E+03 -0.17444256048E+04  0.19832731232E+04  0.90221378464E+03 0.  0.
        -24    2    4    4    0    0  0.14384034402E+03 -0.52414107047E+02  0.29950587926E+02  0.17535730720E+03  0.80099090421E+02 0.  0.
         24    2    4    4    0    0 -0.27630323942E+03 -0.19010487959E+03 -0.17743761927E+04  0.18079158160E+04  0.87552151810E+02 0.  0.
         13    1    3    3    0    0  0.51351719831E+01  0.21958976496E+02  0.33701437795E+01  0.22801853195E+02  0.00000000000E+00 0. -1.
        -13    1    3    3    0    0  0.12732772342E+03  0.22056001014E+03 -0.27142880836E+03  0.37219976522E+03  0.00000000000E+00 0.  1.
          2    1    6    6  502    0 -0.22771292527E+03 -0.19219482615E+03 -0.15206937535E+04  0.15496133452E+04  0.00000000000E+00 0. -1.
          3    1    5    5  503    0  0.13259443113E+03 -0.23846575756E+02  0.43819178867E+02  0.14166884901E+03  0.00000000000E+00 0. -1.
         -4    1    5    5    0  503  0.11245912887E+02 -0.28567531290E+02 -0.13868590941E+02  0.33688458192E+02  0.00000000000E+00 0.  1.
         -3    1    6    6    0  502 -0.48590314152E+02  0.20899465633E+01 -0.25368243916E+03  0.25830247085E+03  0.00000000000E+00 0.  1.
<mgrwt>
<rscale>  0 0.12673191E+04</rscale>
<asrwt>0</asrwt>
<pdfrwt beam="1">  1        1 0.28137731E-01 0.12673191E+04</pdfrwt>
<pdfrwt beam="2">  1       -1 0.33775067E+00 0.12673191E+04</pdfrwt>
<totfact> 0.31097641E+00</totfact>
</mgrwt>
</event>
<event>
12    1  0.1097093E-007  0.1523399E+04  0.7818608E-02  0.8869040E-01
          1   -1    0    0  501    0  0.00000000000E+00  0.00000000000E+00  0.17353916004E+04  0.17353916004E+04  0.00000000000E+00 0. -1.
         -1   -1    0    0    0  501 -0.00000000000E+00 -0.00000000000E+00 -0.33432574665E+03  0.33432574665E+03  0.00000000000E+00 0.  1.
         23    2    1    2    0    0  0.11674920229E+02 -0.37735152987E+03  0.67368232005E+03  0.77762334915E+03  0.91212520755E+02 0.  0.
        254    2    1    2    0    0 -0.11674920229E+02  0.37735152987E+03  0.72738353368E+03  0.12920939979E+04  0.99894424941E+03 0.  0.
        -24    2    4    4    0    0  0.30184952403E+03  0.46045330103E+03  0.77795606153E+02  0.56178068563E+03  0.80093725224E+02 0.  0.
         24    2    4    4    0    0 -0.31352444426E+03 -0.83101771156E+02  0.64958792753E+03  0.73031331226E+03  0.78673864462E+02 0.  0.
         13    1    3    3    0    0  0.41403934643E+02 -0.11434365548E+03  0.25099134493E+03  0.27890036318E+03  0.00000000000E+00 0. -1.
        -13    1    3    3    0    0 -0.29729014413E+02 -0.26300787439E+03  0.42269097512E+03  0.49872298597E+03  0.00000000000E+00 0.  1.
          2    1    6    6  502    0 -0.23894227993E+02  0.31199887235E+00  0.10696252950E+03  0.10959933482E+03  0.00000000000E+00 0. -1.
          3    1    5    5  503    0  0.75972212033E+02  0.61889857943E+02  0.72096968327E+01  0.98255336984E+02  0.00000000000E+00 0. -1.
         -4    1    5    5    0  503  0.22587731200E+03  0.39856344308E+03  0.70585909320E+02  0.46352534864E+03  0.00000000000E+00 0.  1.
         -1    1    6    6    0  502 -0.28963021627E+03 -0.83413770029E+02  0.54262539803E+03  0.62071397744E+03  0.00000000000E+00 0.  1.
<mgrwt>
<rscale>  0 0.15233990E+04</rscale>
<asrwt>0</asrwt>
<pdfrwt beam="1">  1        1 0.26698332E+00 0.15233990E+04</pdfrwt>
<pdfrwt beam="2">  1       -1 0.51434732E-01 0.15233990E+04</pdfrwt>
<totfact> 0.16553053E+01</totfact>
</mgrwt>
</event>
<event>
12    1  0.1097093E-007  0.1823330E+04  0.7818608E-02  0.8693990E-01
          2   -1    0    0  501    0  0.00000000000E+00  0.00000000000E+00  0.14801351696E+04  0.14801351696E+04  0.00000000000E+00 0.  1.
         -2   -1    0    0    0  501 -0.00000000000E+00 -0.00000000000E+00 -0.56152540449E+03  0.56152540449E+03  0.00000000000E+00 0. -1.
         23    2    1    2    0    0  0.44303093667E+03 -0.43659987539E+03  0.67874713679E+03  0.92539990966E+03  0.93656046578E+02 0.  0.
        254    2    1    2    0    0 -0.44303093667E+03  0.43659987539E+03  0.23986262832E+03  0.11162606644E+04  0.89532559912E+03 0.  0.
        -24    2    4    4    0    0 -0.64893953478E+03  0.51606155509E+03  0.27648346784E+03  0.87772782109E+03  0.80752532393E+02 0.  0.
         24    2    4    4    0    0  0.20590859811E+03 -0.79461679704E+02 -0.36620839525E+02  0.23853284333E+03  0.82730418500E+02 0.  0.
         13    1    3    3    0    0  0.80357926053E+02 -0.81555563116E+02  0.75947715224E+02  0.13739272762E+03  0.00000000000E+00 0. -1.
        -13    1    3    3    0    0  0.36267301062E+03 -0.35504431227E+03  0.60279942157E+03  0.78800718204E+03  0.00000000000E+00 0.  1.
          2    1    6    6  502    0  0.59887565339E+02 -0.57886927419E+02  0.96398674667E+01  0.83847146004E+02  0.00000000000E+00 0. -1.
          3    1    5    5  503    0 -0.25473483535E+03  0.22556328734E+03  0.76226046190E+02  0.34868186511E+03  0.00000000000E+00 0. -1.
         -4    1    5    5    0  503 -0.39420469943E+03  0.29049826775E+03  0.20025742165E+03  0.52904595599E+03  0.00000000000E+00 0.  1.
         -1    1    6    6    0  502  0.14602103277E+03 -0.21574752285E+02 -0.46260706992E+02  0.15468569733E+03  0.00000000000E+00 0.  1.
<mgrwt>
<rscale>  0 0.18233305E+04</rscale>
<asrwt>0</asrwt>
<pdfrwt beam="1">  1        2 0.22771310E+00 0.18233305E+04</pdfrwt>
<pdfrwt beam="2">  1       -2 0.86388525E-01 0.18233305E+04</pdfrwt>
<totfact> 0.14253695E+01</totfact>
</mgrwt>
</event>
<event>
12    1  0.1097093E-007  0.1658504E+04  0.7818608E-02  0.8785392E-01
         -1   -1    0    0    0  501 -0.00000000000E+00  0.00000000000E+00  0.52476868654E+03  0.52476868654E+03  0.00000000000E+00 0.  1.
          1   -1    0    0  501    0  0.00000000000E+00 -0.00000000000E+00 -0.13104033773E+04  0.13104033773E+04  0.00000000000E+00 0. -1.
         23    2    1    2    0    0  0.32035072599E+03  0.43977396802E+03 -0.64666810329E+02  0.55566629485E+03  0.92506779660E+02 0.  0.
        254    2    1    2    0    0 -0.32035072599E+03 -0.43977396802E+03 -0.72096788040E+03  0.12795057690E+04  0.90626408824E+03 0.  0.
        -24    2    4    4    0    0 -0.39238428839E+03 -0.41429843696E+03 -0.90021263005E+03  0.10688692558E+04  0.80561045207E+02 0.  0.
         24    2    4    4    0    0  0.72033562401E+02 -0.25475531057E+02  0.17924474965E+03  0.21063651318E+03  0.80007647213E+02 0.  0.
         11    1    3    3    0    0  0.48381585880E+02  0.12253406955E+03 -0.37256344382E+02  0.13690657855E+03  0.00000000000E+00 0.  1.
        -11    1    3    3    0    0  0.27196914011E+03  0.31723989846E+03 -0.27410465947E+02  0.41875971630E+03  0.00000000000E+00 0. -1.
          2    1    6    6  502    0  0.65327623321E+02 -0.23735983603E+02  0.18743603303E+03  0.19990838343E+03  0.00000000000E+00 0. -1.
          3    1    5    5  503    0 -0.35537461689E+03 -0.33825176532E+03 -0.78994654377E+03  0.92990371388E+03  0.00000000000E+00 0. -1.
         -4    1    5    5    0  503 -0.37009671503E+02 -0.76046671640E+02 -0.11026608628E+03  0.13896554190E+03  0.00000000000E+00 0.  1.
         -1    1    6    6    0  502  0.67059390791E+01 -0.17395474535E+01 -0.81912833883E+01  0.10728129745E+02  0.00000000000E+00 0.  1.
<mgrwt>
<rscale>  0 0.16585037E+04</rscale>
<asrwt>0</asrwt>
<pdfrwt beam="1">  1        1 0.20160052E+00 0.16585037E+04</pdfrwt>
<pdfrwt beam="2">  1       -1 0.80733645E-01 0.16585037E+04</pdfrwt>
<totfact> 0.12989930E+01</totfact>
</mgrwt>
</event>
<event>
12    1  0.1097093E-007  0.1907934E+04  0.7818608E-02  0.8650917E-01
          1   -1    0    0  501    0  0.00000000000E+00  0.00000000000E+00  0.61346102551E+03  0.61346102551E+03  0.00000000000E+00 0. -1.
         -1   -1    0    0    0  501 -0.00000000000E+00 -0.00000000000E+00 -0.14834736254E+04  0.14834736254E+04  0.00000000000E+00 0.  1.
         23    2    1    2    0    0  0.77071730675E+01  0.56961997145E+03 -0.85464108478E+03  0.10312523069E+04  0.92431727990E+02 0.  0.
        254    2    1    2    0    0 -0.77071730675E+01 -0.56961997145E+03 -0.15371515134E+02  0.10656823440E+04  0.90050889085E+03 0.  0.
        -24    2    4    4    0    0  0.21539545422E+03  0.30493954730E+02  0.27388801078E+03  0.35878446556E+03  0.79916001546E+02 0.  0.
         24    2    4    4    0    0 -0.22310262729E+03 -0.60011392618E+03 -0.28925952591E+03  0.70689787847E+03  0.78243405772E+02 0.  0.
         13    1    3    3    0    0 -0.11257835873E+02  0.26644366015E+03 -0.47819266879E+03  0.54752825625E+03  0.00000000000E+00 0. -1.
        -13    1    3    3    0    0  0.18965008941E+02  0.30317631130E+03 -0.37644841599E+03  0.48372405067E+03  0.00000000000E+00 0.  1.
          2    1    6    6  502    0 -0.35278025186E+02 -0.61902178268E+02 -0.94161041656E+01  0.71868503206E+02  0.00000000000E+00 0. -1.
          1    1    5    5  503    0  0.15904897862E+03 -0.41336451528E+00  0.14713018362E+03  0.21666573196E+03  0.00000000000E+00 0. -1.
         -2    1    5    5    0  503  0.56346475600E+02  0.30907319245E+02  0.12675782716E+03  0.14211873360E+03  0.00000000000E+00 0.  1.
         -1    1    6    6    0  502 -0.18782460210E+03 -0.53821174791E+03 -0.27984342175E+03  0.63502937526E+03  0.00000000000E+00 0.  1.
<mgrwt>
<rscale>  0 0.19079342E+04</rscale>
<asrwt>0</asrwt>
<pdfrwt beam="1">  1        1 0.94378620E-01 0.19079342E+04</pdfrwt>
<pdfrwt beam="2">  1       -1 0.22822671E+00 0.19079342E+04</pdfrwt>
<totfact> 0.30067850E+00</totfact>
</mgrwt>
</event>
<event>
12    1  0.1097093E-007  0.3739657E+04  0.7818608E-02  0.8059230E-01
          1   -1    0    0  501    0  0.00000000000E+00  0.00000000000E+00  0.13027248347E+04  0.13027248347E+04  0.00000000000E+00 0. -1.
         -1   -1    0    0    0  501 -0.00000000000E+00 -0.00000000000E+00 -0.26838040962E+04  0.26838040962E+04  0.00000000000E+00 0.  1.
         23    2    1    2    0    0  0.74672377215E+02 -0.80370738126E+03  0.10105541226E+04  0.12964611941E+04  0.89835820480E+02 0.  0.
        254    2    1    2    0    0 -0.74672377215E+02  0.80370738126E+03 -0.23916333841E+04  0.26900677368E+04  0.93007132296E+03 0.  0.
        -24    2    4    4    0    0 -0.49132776021E+03  0.34541984051E+03 -0.11304068169E+04  0.12826163733E+04  0.81039220027E+02 0.  0.
         24    2    4    4    0    0  0.41665538300E+03  0.45828754075E+03 -0.12612265672E+04  0.14074513635E+04  0.81226279685E+02 0.  0.
         13    1    3    3    0    0  0.31145907379E+02 -0.49089832806E+03  0.68032737336E+03  0.83952163223E+03  0.00000000000E+00 0. -1.
        -13    1    3    3    0    0  0.43526469837E+02 -0.31280905320E+03  0.33022674922E+03  0.45693956191E+03  0.00000000000E+00 0.  1.
          2    1    6    6  502    0  0.14250724849E+03  0.16863284919E+03 -0.36651141686E+03  0.42787378091E+03  0.00000000000E+00 0. -1.
          3    1    5    5  503    0 -0.37184789974E+03  0.24284626676E+03 -0.76224877759E+03  0.88219519878E+03  0.00000000000E+00 0. -1.
         -4    1    5    5    0  503 -0.11947986047E+03  0.10257357375E+03 -0.36815803930E+03  0.40042117450E+03  0.00000000000E+00 0.  1.
         -1    1    6    6    0  502  0.27414813451E+03  0.28965469156E+03 -0.89471515036E+03  0.97957758258E+03  0.00000000000E+00 0.  1.
<mgrwt>
<rscale>  0 0.37396568E+04</rscale>
<asrwt>0</asrwt>
<pdfrwt beam="1">  1        1 0.20041921E+00 0.37396568E+04</pdfrwt>
<pdfrwt beam="2">  1       -1 0.41289294E+00 0.37396568E+04</pdfrwt>
<totfact> 0.41991363E-02</totfact>
</mgrwt>
</event>
<event>
12    1  0.1097093E-007  0.3039772E+04  0.7818608E-02  0.8232464E-01
          1   -1    0    0  501    0  0.00000000000E+00  0.00000000000E+00  0.22948338866E+04  0.22948338866E+04  0.00000000000E+00 0. -1.
         -1   -1    0    0    0  501 -0.00000000000E+00 -0.00000000000E+00 -0.10066320720E+04  0.10066320720E+04  0.00000000000E+00 0.  1.
         23    2    1    2    0    0  0.12166846258E+04  0.55366523508E+03  0.97696263719E+03  0.16587102338E+04  0.99984868448E+02 0.  0.
        254    2    1    2    0    0 -0.12166846258E+04 -0.55366523508E+03  0.31123917735E+03  0.16427557248E+04  0.90272358708E+03 0.  0.
        -24    2    4    4    0    0 -0.12866115680E+03 -0.20921127386E+03 -0.25781795045E+03  0.36504889390E+03  0.80421072991E+02 0.  0.
         24    2    4    4    0    0 -0.10880234690E+04 -0.34445396122E+03  0.56905712781E+03  0.12777068309E+04  0.79152577609E+02 0.  0.
         11    1    3    3    0    0  0.10545673179E+02 -0.22993767689E+01  0.15721773280E+01  0.10907341467E+02  0.00000000000E+00 0.  1.
        -11    1    3    3    0    0  0.12061389527E+04  0.55596461185E+03  0.97539045986E+03  0.16478028923E+04  0.00000000000E+00 0. -1.
          2    1    6    6  502    0 -0.10335161545E+04 -0.31775092614E+03  0.52071099887E+03  0.12001088438E+04  0.00000000000E+00 0. -1.
          1    1    5    5  503    0 -0.56853376576E+02 -0.16205263502E+03 -0.15810459562E+03  0.23343184466E+03  0.00000000000E+00 0. -1.
         -2    1    5    5    0  503 -0.71807780227E+02 -0.47158638838E+02 -0.99713354830E+02  0.13161704924E+03  0.00000000000E+00 0.  1.
         -1    1    6    6    0  502 -0.54507314514E+02 -0.26703035086E+02  0.48346128941E+02  0.77597987100E+02  0.00000000000E+00 0.  1.
<mgrwt>
<rscale>  0 0.30397720E+04</rscale>
<asrwt>0</asrwt>
<pdfrwt beam="1">  1        1 0.35305137E+00 0.30397720E+04</pdfrwt>
<pdfrwt beam="2">  1       -1 0.15486647E+00 0.30397720E+04</pdfrwt>
<totfact> 0.50898767E-01</totfact>
</mgrwt>
</event>
<event>
12    1  0.1097093E-007  0.1786923E+04  0.7818608E-02  0.8713284E-01
          2   -1    0    0  501    0  0.00000000000E+00  0.00000000000E+00  0.13726856253E+04  0.13726856253E+04  0.00000000000E+00 0. -1.
         -2   -1    0    0    0  501 -0.00000000000E+00 -0.00000000000E+00 -0.58154164862E+03  0.58154164862E+03  0.00000000000E+00 0.  1.
         23    2    1    2    0    0  0.43356042622E+03 -0.47404729908E+03  0.11848626404E+03  0.65957898440E+03  0.91158965235E+02 0.  0.
        254    2    1    2    0    0 -0.43356042622E+03  0.47404729908E+03  0.67265771268E+03  0.12946482896E+04  0.90052779541E+03 0.  0.
        -24    2    4    4    0    0 -0.65012585650E+03  0.13418417516E+03  0.27535403558E+03  0.72326103882E+03  0.81349021033E+02 0.  0.
         24    2    4    4    0    0  0.21656543028E+03  0.33986312392E+03  0.39730367711E+03  0.57138725074E+03  0.78902787500E+02 0.  0.
         13    1    3    3    0    0  0.36771749102E+02 -0.27767086166E+02 -0.13472140444E+02  0.48006990890E+02  0.00000000000E+00 0. -1.
        -13    1    3    3    0    0  0.39678867712E+03 -0.44628021291E+03  0.13195840449E+03  0.61157199351E+03  0.00000000000E+00 0.  1.
          2    1    6    6  502    0  0.19307383569E+03  0.29545559256E+03  0.37906694479E+03  0.51794136911E+03  0.00000000000E+00 0. -1.
          1    1    5    5  503    0 -0.28372251565E+03  0.26884517265E+02  0.90087906361E+02  0.29889308127E+03  0.00000000000E+00 0. -1.
         -2    1    5    5    0  503 -0.36640334085E+03  0.10729965790E+03  0.18526612922E+03  0.42436795756E+03  0.00000000000E+00 0.  1.
         -1    1    6    6    0  502  0.23491594591E+02  0.44407531360E+02  0.18236732317E+02  0.53445881633E+02  0.00000000000E+00 0.  1.
<mgrwt>
<rscale>  0 0.17869235E+04</rscale>
<asrwt>0</asrwt>
<pdfrwt beam="1">  1        2 0.21118240E+00 0.17869235E+04</pdfrwt>
<pdfrwt beam="2">  1       -2 0.89467946E-01 0.17869235E+04</pdfrwt>
<totfact> 0.15191897E+01</totfact>
</mgrwt>
</event>
<event>
12    1  0.1097093E-007  0.2110631E+04  0.7818608E-02  0.8556575E-01
          1   -1    0    0  501    0  0.00000000000E+00  0.00000000000E+00  0.12072429648E+04  0.12072429648E+04  0.00000000000E+00 0. -1.
         -1   -1    0    0    0  501 -0.00000000000E+00 -0.00000000000E+00 -0.92250763825E+03  0.92250763825E+03  0.00000000000E+00 0.  1.
         23    2    1    2    0    0  0.62019919525E+03  0.47330462726E+03 -0.23266276050E+03  0.81918538961E+03  0.90930910272E+02 0.  0.
        254    2    1    2    0    0 -0.62019919525E+03 -0.47330462726E+03  0.51739808705E+03  0.13105652134E+04  0.91717832847E+03 0.  0.
        -24    2    4    4    0    0 -0.14183097699E+03 -0.14704963578E+03 -0.25756991301E+03  0.33987175240E+03  0.86202822289E+02 0.  0.
         24    2    4    4    0    0 -0.47836821826E+03 -0.32625499148E+03  0.77496800006E+03  0.97069346104E+03  0.79949499585E+02 0.  0.
         13    1    3    3    0    0  0.19969394340E+03  0.19751564882E+03 -0.10936460190E+03  0.30141452969E+03  0.00000000000E+00 0. -1.
        -13    1    3    3    0    0  0.42050525185E+03  0.27578897844E+03 -0.12329815860E+03  0.51777085991E+03  0.00000000000E+00 0.  1.
          2    1    6    6  502    0 -0.16766551953E+03 -0.13793082318E+03  0.23571240811E+03  0.32046369180E+03  0.00000000000E+00 0. -1.
          3    1    5    5  503    0 -0.35159031455E+02 -0.92183020734E+02 -0.88277151570E+02  0.13238852780E+03  0.00000000000E+00 0. -1.
         -4    1    5    5    0  503 -0.10667194554E+03 -0.54866615047E+02 -0.16929276144E+03  0.20748322459E+03  0.00000000000E+00 0.  1.
         -1    1    6    6    0  502 -0.31070269873E+03 -0.18832416831E+03  0.53925559195E+03  0.65022976925E+03  0.00000000000E+00 0.  1.
<mgrwt>
<rscale>  0 0.21106310E+04</rscale>
<asrwt>0</asrwt>
<pdfrwt beam="1">  1        1 0.18572969E+00 0.21106310E+04</pdfrwt>
<pdfrwt beam="2">  1       -1 0.14192425E+00 0.21106310E+04</pdfrwt>
<totfact> 0.39226594E+00</totfact>
</mgrwt>
</event>
<event>
12    1  0.1097093E-007  0.2010935E+04  0.7818608E-02  0.8601525E-01
         -1   -1    0    0    0  501 -0.00000000000E+00  0.00000000000E+00  0.74753168463E+03  0.74753168463E+03  0.00000000000E+00 0.  1.
          1   -1    0    0  501    0  0.00000000000E+00 -0.00000000000E+00 -0.13524043091E+04  0.13524043091E+04  0.00000000000E+00 0. -1.
         23    2    1    2    0    0  0.62546483671E+03 -0.49364070603E+03 -0.31928266327E+03  0.86431726792E+03  0.10107181587E+03 0.  0.
        254    2    1    2    0    0 -0.62546483671E+03  0.49364070603E+03 -0.28558996117E+03  0.12356187258E+04  0.90016920684E+03 0.  0.
        -24    2    4    4    0    0 -0.42037075386E+02  0.44358262262E+02 -0.46272769389E+03  0.47391792481E+03  0.82137139175E+02 0.  0.
         24    2    4    4    0    0 -0.58342776132E+03  0.44928244377E+03  0.17713773271E+03  0.76170080096E+03  0.81041143076E+02 0.  0.
         11    1    3    3    0    0  0.50967744702E+03 -0.43451444929E+03 -0.23697960029E+03  0.71044580201E+03  0.00000000000E+00 0.  1.
        -11    1    3    3    0    0  0.11578738969E+03 -0.59126256733E+02 -0.82303062974E+02  0.15387146591E+03  0.00000000000E+00 0. -1.
          2    1    6    6  502    0 -0.36830907635E+03  0.32601376014E+03  0.13649246433E+03  0.51045738347E+03  0.00000000000E+00 0. -1.
          1    1    5    5  503    0 -0.41627249996E+02 -0.10954410418E+02 -0.13945301136E+03  0.14594509045E+03  0.00000000000E+00 0. -1.
         -2    1    5    5    0  503 -0.40982539014E+00  0.55312672680E+02 -0.32327468253E+03  0.32797283436E+03  0.00000000000E+00 0.  1.
         -1    1    6    6    0  502 -0.21511868498E+03  0.12326868362E+03  0.40645268377E+02  0.25124341748E+03  0.00000000000E+00 0.  1.
<mgrwt>
<rscale>  0 0.20109352E+04</rscale>
<asrwt>0</asrwt>
<pdfrwt beam="1">  1        1 0.20806220E+00 0.20109352E+04</pdfrwt>
<pdfrwt beam="2">  1       -1 0.11500487E+00 0.20109352E+04</pdfrwt>
<totfact> 0.52801683E+00</totfact>
</mgrwt>
</event>
<event>
12    1  0.1097093E-007  0.3863595E+04  0.7818608E-02  0.8032644E-01
          2   -1    0    0  501    0  0.00000000000E+00  0.00000000000E+00  0.12516255265E+04  0.12516255265E+04  0.00000000000E+00 0. -1.
         -2   -1    0    0    0  501 -0.00000000000E+00 -0.00000000000E+00 -0.29815957130E+04  0.29815957130E+04  0.00000000000E+00 0.  1.
         23    2    1    2    0    0 -0.52069864989E+03 -0.98732356145E+03  0.76351747273E+03  0.13554704608E+04  0.91686095224E+02 0.  0.
        254    2    1    2    0    0  0.52069864989E+03  0.98732356145E+03 -0.24934876592E+04  0.28777507786E+04  0.90445228630E+03 0.  0.
        -24    2    4    4    0    0  0.45003763889E+02  0.10786937768E+03 -0.13476682163E+04  0.13548680229E+04  0.76135385547E+02 0.  0.
         24    2    4    4    0    0  0.47569488600E+03  0.87945418377E+03 -0.11458194429E+04  0.15228827557E+04  0.80897502513E+02 0.  0.
         13    1    3    3    0    0 -0.13830466955E+03 -0.28799874999E+03  0.26750694167E+03  0.41669104317E+03  0.00000000000E+00 0.  1.
        -13    1    3    3    0    0 -0.38239398034E+03 -0.69932481145E+03  0.49601053106E+03  0.93877941767E+03  0.00000000000E+00 0. -1.
          2    1    6    6  502    0  0.27026405740E+03  0.52458058290E+03 -0.73310668222E+03  0.94110193719E+03  0.00000000000E+00 0. -1.
          3    1    5    5  503    0  0.35570937072E+02  0.75928166991E+02 -0.12216184599E+04  0.12244925642E+04  0.00000000000E+00 0. -1.
         -4    1    5    5    0  503  0.94328268173E+01  0.31941210690E+02 -0.12604975637E+03  0.13037545875E+03  0.00000000000E+00 0.  1.
         -1    1    6    6    0  502  0.20543082861E+03  0.35487360086E+03 -0.41271276072E+03  0.58178081852E+03  0.00000000000E+00 0.  1.
<mgrwt>
<rscale>  0 0.38635949E+04</rscale>
<asrwt>0</asrwt>
<pdfrwt beam="1">  1        2 0.19255777E+00 0.38635949E+04</pdfrwt>
<pdfrwt beam="2">  1       -2 0.45870703E+00 0.38635949E+04</pdfrwt>
<totfact> 0.42794606E-02</totfact>
</mgrwt>
</event>
<event>
12    1  0.1097093E-007  0.1637295E+04  0.7818608E-02  0.8797958E-01
          1   -1    0    0  501    0  0.00000000000E+00  0.00000000000E+00  0.15569704048E+04  0.15569704048E+04  0.00000000000E+00 0. -1.
         -1   -1    0    0    0  501 -0.00000000000E+00 -0.00000000000E+00 -0.43044092110E+03  0.43044092110E+03  0.00000000000E+00 0.  1.
         23    2    1    2    0    0  0.29507800663E+03  0.19262544208E+03  0.91363495610E+03  0.98357174191E+03  0.92243956668E+02 0.  0.
        254    2    1    2    0    0 -0.29507800663E+03 -0.19262544208E+03  0.21289452764E+03  0.10038395840E+04  0.91552948595E+03 0.  0.
        -24    2    4    4    0    0 -0.22434685016E+03 -0.43912963591E+03 -0.17735556333E+03  0.52986032631E+03  0.78298296597E+02 0.  0.
         24    2    4    4    0    0 -0.70731156476E+02  0.24650419383E+03  0.39025009097E+03  0.47397925773E+03  0.81203381595E+02 0.  0.
         13    1    3    3    0    0  0.13751087846E+03  0.40512959741E+02  0.31344042046E+03  0.34466714201E+03  0.00000000000E+00 0.  1.
        -13    1    3    3    0    0  0.15756712817E+03  0.15211248234E+03  0.60019453565E+03  0.63890459991E+03  0.00000000000E+00 0. -1.
          4    1    6    6  502    0 -0.15262906064E+02  0.11428410561E+03  0.24018600107E+03  0.26642659065E+03  0.00000000000E+00 0. -1.
          3    1    5    5  503    0 -0.15601059467E+03 -0.26922281281E+03 -0.75029435322E+02  0.32007756052E+03  0.00000000000E+00 0. -1.
         -4    1    5    5    0  503 -0.68336255481E+02 -0.16990682310E+03 -0.10232612801E+03  0.20978276579E+03  0.00000000000E+00 0.  1.
         -3    1    6    6    0  502 -0.55468250411E+02  0.13222008822E+03  0.15006408990E+03  0.20755266707E+03  0.00000000000E+00 0.  1.
<mgrwt>
<rscale>  0 0.16372951E+04</rscale>
<asrwt>0</asrwt>
<pdfrwt beam="1">  1        1 0.23953391E+00 0.16372951E+04</pdfrwt>
<pdfrwt beam="2">  1       -1 0.66221681E-01 0.16372951E+04</pdfrwt>
<totfact> 0.13205722E+01</totfact>
</mgrwt>
</event>
<event>
12    1  0.1097093E-007  0.1958738E+04  0.7818608E-02  0.8626159E-01
         -2   -1    0    0    0  501 -0.00000000000E+00  0.00000000000E+00  0.51846935042E+03  0.51846935042E+03  0.00000000000E+00 0.  1.
          2   -1    0    0  501    0  0.00000000000E+00 -0.00000000000E+00 -0.18499907555E+04  0.18499907555E+04  0.00000000000E+00 0. -1.
         23    2    1    2    0    0  0.48457623393E+03 -0.41164854379E+03  0.36468828881E+00  0.64208992773E+03  0.89502470353E+02 0.  0.
        254    2    1    2    0    0 -0.48457623393E+03  0.41164854379E+03 -0.13318860933E+04  0.17263701782E+04  0.89563652022E+03 0.  0.
        -24    2    4    4    0    0 -0.32005037629E+02  0.25282929160E+03 -0.11896159382E+04  0.12192542415E+04  0.80298518075E+02 0.  0.
         24    2    4    4    0    0 -0.45257119630E+03  0.15881925219E+03 -0.14227015513E+03  0.50711593661E+03  0.82955009099E+02 0.  0.
         11    1    3    3    0    0  0.24746838361E+03 -0.15541214167E+03  0.15709365343E+02  0.29264367210E+03  0.00000000000E+00 0. -1.
        -11    1    3    3    0    0  0.23710785032E+03 -0.25623640212E+03 -0.15344677054E+02  0.34944625562E+03  0.00000000000E+00 0.  1.
          2    1    6    6  502    0 -0.39435776414E+03  0.16619001899E+03 -0.12131742439E+03  0.44480904443E+03  0.00000000000E+00 0. -1.
          1    1    5    5  503    0 -0.29975303373E+02  0.23267582844E+03 -0.11592685766E+04  0.11827680215E+04  0.00000000000E+00 0. -1.
         -2    1    5    5    0  503 -0.20297342559E+01  0.20153463162E+02 -0.30347361559E+02  0.36486220032E+02  0.00000000000E+00 0.  1.
         -1    1    6    6    0  502 -0.58213432163E+02 -0.73707667990E+01 -0.20952730733E+02  0.62306892176E+02  0.00000000000E+00 0.  1.
<mgrwt>
<rscale>  0 0.19587379E+04</rscale>
<asrwt>0</asrwt>
<pdfrwt beam="1">  1        2 0.28461396E+00 0.19587379E+04</pdfrwt>
<pdfrwt beam="2">  1       -2 0.79764516E-01 0.19587379E+04</pdfrwt>
<totfact> 0.10498712E+01</totfact>
</mgrwt>
</event>
<event>
12    1  0.1097093E-007  0.1902256E+04  0.7818608E-02  0.8653734E-01
         -2   -1    0    0    0  501 -0.00000000000E+00  0.00000000000E+00  0.36595670581E+03  0.36595670581E+03  0.00000000000E+00 0.  1.
          2   -1    0    0  501    0  0.00000000000E+00 -0.00000000000E+00 -0.24719985593E+04  0.24719985593E+04  0.00000000000E+00 0. -1.
         23    2    1    2    0    0 -0.57650694533E+03  0.15111659470E+03 -0.14606960392E+04  0.15803110821E+04  0.92486291097E+02 0.  0.
        254    2    1    2    0    0  0.57650694533E+03 -0.15111659470E+03 -0.64534581423E+03  0.12576441830E+04  0.90000065988E+03 0.  0.
        -24    2    4    4    0    0  0.16815071083E+03  0.37996334866E+02  0.21324826262E+03  0.28506798177E+03  0.77913732451E+02 0.  0.
         24    2    4    4    0    0  0.40835623450E+03 -0.18911292957E+03 -0.85859407685E+03  0.97257620119E+03  0.78753818633E+02 0.  0.
         11    1    3    3    0    0 -0.42795323277E+03  0.84795067398E+02 -0.11419105693E+04  0.12224131549E+04  0.00000000000E+00 0. -1.
        -11    1    3    3    0    0 -0.14855371256E+03  0.66321527303E+02 -0.31878546994E+03  0.35789792727E+03  0.00000000000E+00 0.  1.
          4    1    6    6  502    0  0.14890491219E+03 -0.37384955560E+02 -0.24131918494E+03  0.28601618275E+03  0.00000000000E+00 0. -1.
          3    1    5    5  503    0  0.15253008699E+02  0.10555453617E+02  0.74534635306E+02  0.76808096811E+02  0.00000000000E+00 0. -1.
         -4    1    5    5    0  503  0.15289770213E+03  0.27440881249E+02  0.13871362731E+03  0.20825988496E+03  0.00000000000E+00 0.  1.
         -3    1    6    6    0  502  0.25945132231E+03 -0.15172797401E+03 -0.61727489191E+03  0.68656001844E+03  0.00000000000E+00 0.  1.
<mgrwt>
<rscale>  0 0.19022560E+04</rscale>
<asrwt>0</asrwt>
<pdfrwt beam="1">  1        2 0.38030746E+00 0.19022560E+04</pdfrwt>
<pdfrwt beam="2">  1       -2 0.56301033E-01 0.19022560E+04</pdfrwt>
<totfact> 0.10026454E+01</totfact>
</mgrwt>
</event>
<event>
12    1  0.1097093E-007  0.1443965E+04  0.7818608E-02  0.8922595E-01
          2   -1    0    0  501    0  0.00000000000E+00  0.00000000000E+00  0.77605997417E+03  0.77605997417E+03  0.00000000000E+00 0.  1.
         -2   -1    0    0    0  501 -0.00000000000E+00 -0.00000000000E+00 -0.67167334086E+03  0.67167334086E+03  0.00000000000E+00 0. -1.
         23    2    1    2    0    0  0.41614015283E+01 -0.19375154612E+02  0.45794750755E+03  0.46749987570E+03  0.91910283619E+02 0.  0.
        254    2    1    2    0    0 -0.41614015283E+01  0.19375154612E+02 -0.35356087423E+03  0.98023343933E+03  0.91403478594E+03 0.  0.
        -24    2    4    4    0    0  0.26192501892E+03 -0.85867637216E+02  0.20140339181E+03  0.35062097898E+03  0.79961103101E+02 0.  0.
         24    2    4    4    0    0 -0.26608642045E+03  0.10524279183E+03 -0.55496426604E+03  0.62961246035E+03  0.80922711643E+02 0.  0.
         11    1    3    3    0    0  0.35364238966E+02  0.21406656537E+02  0.24395789858E+03  0.24743550801E+03  0.00000000000E+00 0.  1.
        -11    1    3    3    0    0 -0.31202837438E+02 -0.40781811150E+02  0.21398960896E+03  0.22006436769E+03  0.00000000000E+00 0. -1.
          4    1    6    6  502    0 -0.17926323868E+03  0.75808677156E+02 -0.29020179988E+03  0.34942717256E+03  0.00000000000E+00 0. -1.
          1    1    5    5  503    0  0.18587655069E+03 -0.59704182419E+02  0.94649477406E+02  0.21696360309E+03  0.00000000000E+00 0. -1.
         -2    1    5    5    0  503  0.76048468232E+02 -0.26163454797E+02  0.10675391441E+03  0.13365737589E+03  0.00000000000E+00 0.  1.
         -3    1    6    6    0  502 -0.86823181767E+02  0.29434114672E+02 -0.26476246617E+03  0.28018528778E+03  0.00000000000E+00 0.  1.
<mgrwt>
<rscale>  0 0.14439651E+04</rscale>
<asrwt>0</asrwt>
<pdfrwt beam="1">  1        2 0.11939384E+00 0.14439651E+04</pdfrwt>
<pdfrwt beam="2">  1       -2 0.10333436E+00 0.14439651E+04</pdfrwt>
<totfact> 0.26580506E+01</totfact>
</mgrwt>
</event>
<event>
12    1  0.1097093E-007  0.1457521E+04  0.7818608E-02  0.8913203E-01
         -1   -1    0    0    0  501 -0.00000000000E+00  0.00000000000E+00  0.32349200259E+03  0.32349200259E+03  0.00000000000E+00 0.  1.
          1   -1    0    0  501    0  0.00000000000E+00 -0.00000000000E+00 -0.16417465779E+04  0.16417465779E+04  0.00000000000E+00 0. -1.
         23    2    1    2    0    0 -0.10482030233E+03 -0.24526554222E+02  0.17396682680E+03  0.22399471090E+03  0.91215821232E+02 0.  0.
        254    2    1    2    0    0  0.10482030233E+03  0.24526554222E+02 -0.14922214021E+04  0.17412438695E+04  0.89085164464E+03 0.  0.
        -24    2    4    4    0    0  0.66331061918E+02  0.42467493796E+02  0.98041905816E+02  0.14842770598E+03  0.78836988800E+02 0.  0.
         24    2    4    4    0    0  0.38489240411E+02 -0.17940939574E+02 -0.15902633079E+04  0.15928161635E+04  0.79515052184E+02 0.  0.
         13    1    3    3    0    0 -0.95128765797E+02  0.10124591516E+00  0.73824385685E+02  0.12041400357E+03  0.00000000000E+00 0. -1.
        -13    1    3    3    0    0 -0.96915365321E+01 -0.24627800137E+02  0.10014244112E+03  0.10358070734E+03  0.00000000000E+00 0.  1.
          2    1    6    6  502    0  0.24768627399E+02 -0.39635470939E+02 -0.14056526751E+04  0.14064294858E+04  0.00000000000E+00 0. -1.
          1    1    5    5  503    0  0.13138355902E+02 -0.14206655748E+02  0.57694193053E+02  0.60852817317E+02  0.00000000000E+00 0. -1.
         -2    1    5    5    0  503  0.53192706016E+02  0.56674149544E+02  0.40347712763E+02  0.87574888667E+02  0.00000000000E+00 0.  1.
         -1    1    6    6    0  502  0.13720613012E+02  0.21694531365E+02 -0.18461063275E+03  0.18638667773E+03  0.00000000000E+00 0.  1.
<mgrwt>
<rscale>  0 0.14575210E+04</rscale>
<asrwt>0</asrwt>
<pdfrwt beam="1">  1        1 0.25257640E+00 0.14575210E+04</pdfrwt>
<pdfrwt beam="2">  1       -1 0.49768000E-01 0.14575210E+04</pdfrwt>
<totfact> 0.20534606E+01</totfact>
</mgrwt>
</event>
<event>
12    1  0.1097093E-007  0.2294000E+04  0.7818608E-02  0.8480291E-01
         -1   -1    0    0    0  501 -0.00000000000E+00  0.00000000000E+00  0.97948493260E+03  0.97948493260E+03  0.00000000000E+00 0.  1.
          1   -1    0    0  501    0  0.00000000000E+00 -0.00000000000E+00 -0.13431637613E+04  0.13431637613E+04  0.00000000000E+00 0. -1.
         23    2    1    2    0    0 -0.45793261769E+03  0.66012825545E+03  0.39280473951E+03  0.89935404449E+03  0.95239371934E+02 0.  0.
        254    2    1    2    0    0  0.45793261769E+03 -0.66012825545E+03 -0.75648356818E+03  0.14232946494E+04  0.89890415176E+03 0.  0.
        -24    2    4    4    0    0  0.15023536441E+03 -0.51754798428E+03 -0.89530969477E+03  0.10478917348E+04  0.77916990928E+02 0.  0.
         24    2    4    4    0    0  0.30769725328E+03 -0.14258027117E+03  0.13882612660E+03  0.37540291462E+03  0.81534786944E+02 0.  0.
         11    1    3    3    0    0 -0.33052627121E+03  0.40323918817E+03  0.23303053008E+03  0.57109779091E+03  0.00000000000E+00 0.  1.
        -11    1    3    3    0    0 -0.12740634647E+03  0.25688906728E+03  0.15977420943E+03  0.32825625357E+03  0.00000000000E+00 0. -1.
          2    1    6    6  502    0  0.29745318987E+03 -0.11552093229E+03  0.13390005092E+03  0.34605304449E+03  0.00000000000E+00 0. -1.
          1    1    5    5  503    0  0.11184114667E+03 -0.39968702756E+03 -0.74741795956E+03  0.85492208321E+03  0.00000000000E+00 0. -1.
         -2    1    5    5    0  503  0.38394217743E+02 -0.11786095673E+03 -0.14789173521E+03  0.19296965155E+03  0.00000000000E+00 0.  1.
         -3    1    6    6    0  502  0.10244063405E+02 -0.27059338876E+02  0.49260756742E+01  0.29349870137E+02  0.00000000000E+00 0.  1.
<mgrwt>
<rscale>  0 0.22939997E+04</rscale>
<asrwt>0</asrwt>
<pdfrwt beam="1">  1        1 0.20664058E+00 0.22939997E+04</pdfrwt>
<pdfrwt beam="2">  1       -1 0.15068999E+00 0.22939997E+04</pdfrwt>
<totfact> 0.26263783E+00</totfact>
</mgrwt>
</event>
<event>
12    1  0.1097093E-007  0.2302993E+04  0.7818608E-02  0.8476742E-01
         -2   -1    0    0    0  501 -0.00000000000E+00  0.00000000000E+00  0.67248321516E+03  0.67248321516E+03  0.00000000000E+00 0.  1.
          2   -1    0    0  501    0  0.00000000000E+00 -0.00000000000E+00 -0.19717142340E+04  0.19717142340E+04  0.00000000000E+00 0. -1.
         23    2    1    2    0    0 -0.31594385449E+03  0.25567843166E+03  0.46834945340E+03  0.62589652568E+03  0.84872084623E+02 0.  0.
        254    2    1    2    0    0  0.31594385449E+03 -0.25567843166E+03 -0.17675804722E+04  0.20183009234E+04  0.88544108342E+03 0.  0.
        -24    2    4    4    0    0 -0.25679819127E+03 -0.28477405353E+03 -0.63333055673E+03  0.74479855971E+03  0.81090861768E+02 0.  0.
         24    2    4    4    0    0  0.57274204576E+03  0.29095621871E+02 -0.11342499155E+04  0.12735023637E+04  0.80033701953E+02 0.  0.
         13    1    3    3    0    0 -0.74135453613E+02  0.34140723495E+02  0.13850493509E+03  0.16076464639E+03  0.00000000000E+00 0. -1.
        -13    1    3    3    0    0 -0.24180840088E+03  0.22153770816E+03  0.32984451831E+03  0.46513187929E+03  0.00000000000E+00 0.  1.
          4    1    6    6  502    0  0.71708378321E+01  0.11035455098E+02 -0.24308368249E+02  0.27642339832E+02  0.00000000000E+00 0. -1.
          3    1    5    5  503    0 -0.16607338746E+03 -0.20180746730E+03 -0.49478947197E+03  0.55957416439E+03  0.00000000000E+00 0. -1.
         -4    1    5    5    0  503 -0.90724803811E+02 -0.82966586229E+02 -0.13854108476E+03  0.18522439532E+03  0.00000000000E+00 0.  1.
         -3    1    6    6    0  502  0.56557120793E+03  0.18060166772E+02 -0.11099415472E+04  0.12458600239E+04  0.00000000000E+00 0.  1.
<mgrwt>
<rscale>  0 0.23029935E+04</rscale>
<asrwt>0</asrwt>
<pdfrwt beam="1">  1        2 0.30334065E+00 0.23029935E+04</pdfrwt>
<pdfrwt beam="2">  1       -2 0.10345896E+00 0.23029935E+04</pdfrwt>
<totfact> 0.47822305E+00</totfact>
</mgrwt>
</event>
<event>
12    1  0.1097093E-007  0.1458290E+04  0.7818608E-02  0.8912673E-01
         -1   -1    0    0    0  501 -0.00000000000E+00  0.00000000000E+00  0.17966090562E+03  0.17966090562E+03  0.00000000000E+00 0.  1.
          1   -1    0    0  501    0  0.00000000000E+00 -0.00000000000E+00 -0.29592004968E+04  0.29592004968E+04  0.00000000000E+00 0. -1.
         23    2    1    2    0    0 -0.81089118055E+02  0.80082379383E+02  0.51418126776E+02  0.15953583304E+03  0.99092006274E+02 0.  0.
        254    2    1    2    0    0  0.81089118055E+02 -0.80082379383E+02 -0.28309577180E+04  0.29793255694E+04  0.92145027809E+03 0.  0.
        -24    2    4    4    0    0  0.27778332351E+03  0.12318848599E+03 -0.31064207682E+03  0.44194034113E+03  0.80459849185E+02 0.  0.
         24    2    4    4    0    0 -0.19669420545E+03 -0.20327086537E+03 -0.25203156412E+04  0.25373852283E+04  0.79531191610E+02 0.  0.
         13    1    3    3    0    0 -0.24198780592E+01 -0.94775598548E+01  0.38395171798E+02  0.39621574528E+02  0.00000000000E+00 0.  1.
        -13    1    3    3    0    0 -0.78669239996E+02  0.89559939238E+02  0.13022954977E+02  0.11991425851E+03  0.00000000000E+00 0. -1.
          2    1    6    6  502    0 -0.20308172484E+03 -0.20313774886E+03 -0.24502937189E+04  0.24670724434E+04  0.00000000000E+00 0. -1.
          1    1    5    5  503    0  0.13685177616E+03  0.89662823300E+02 -0.12197496963E+03  0.20407283930E+03  0.00000000000E+00 0. -1.
         -2    1    5    5    0  503  0.14093154734E+03  0.33525662685E+02 -0.18866710719E+03  0.23786750184E+03  0.00000000000E+00 0.  1.
         -1    1    6    6    0  502  0.63875193863E+01 -0.13311651247E+00 -0.70021922288E+02  0.70312784931E+02  0.00000000000E+00 0.  1.
<mgrwt>
<rscale>  0 0.14582903E+04</rscale>
<asrwt>0</asrwt>
<pdfrwt beam="1">  1        1 0.45526159E+00 0.14582903E+04</pdfrwt>
<pdfrwt beam="2">  1       -1 0.27640141E-01 0.14582903E+04</pdfrwt>
<totfact> 0.73635698E+00</totfact>
</mgrwt>
</event>
<event>
12    1  0.1097093E-007  0.1657747E+04  0.7818608E-02  0.8785837E-01
         -2   -1    0    0    0  501 -0.00000000000E+00  0.00000000000E+00  0.63490380881E+03  0.63490380881E+03  0.00000000000E+00 0.  1.
          2   -1    0    0  501    0  0.00000000000E+00 -0.00000000000E+00 -0.10821028529E+04  0.10821028529E+04  0.00000000000E+00 0. -1.
         23    2    1    2    0    0  0.48982400155E+03  0.80966798339E+02 -0.45573231220E+03  0.68005234812E+03  0.91082824284E+02 0.  0.
        254    2    1    2    0    0 -0.48982400155E+03 -0.80966798339E+02  0.85332681241E+01  0.10369543136E+04  0.91033963819E+03 0.  0.
        -24    2    4    4    0    0 -0.66748871531E+03 -0.27299708596E+03 -0.11845974308E+03  0.73502903167E+03  0.78526254600E+02 0.  0.
         24    2    4    4    0    0  0.17766471376E+03  0.19203028762E+03  0.12699301121E+03  0.30192528191E+03  0.81186631154E+02 0.  0.
         11    1    3    3    0    0  0.43230616129E+01  0.14007973623E+02 -0.13332043184E+02  0.19815538402E+02  0.00000000000E+00 0.  1.
        -11    1    3    3    0    0  0.48550093993E+03  0.66958824716E+02 -0.44240026902E+03  0.66023680972E+03  0.00000000000E+00 0. -1.
          2    1    6    6  502    0  0.85622915465E+02  0.11159785443E+03  0.25293953580E+02  0.14291658006E+03  0.00000000000E+00 0. -1.
          3    1    5    5  503    0 -0.48367202876E+03 -0.23442671935E+03 -0.82124178336E+02  0.54372686049E+03  0.00000000000E+00 0. -1.
         -4    1    5    5    0  503 -0.18381668655E+03 -0.38570366617E+02 -0.36335564745E+02  0.19130217119E+03  0.00000000000E+00 0.  1.
         -1    1    6    6    0  502  0.92041798297E+02  0.80432433191E+02  0.10169905762E+03  0.15900870185E+03  0.00000000000E+00 0.  1.
<mgrwt>
<rscale>  0 0.16577469E+04</rscale>
<asrwt>0</asrwt>
<pdfrwt beam="1">  1        2 0.16647736E+00 0.16577469E+04</pdfrwt>
<pdfrwt beam="2">  1       -2 0.97677510E-01 0.16577469E+04</pdfrwt>
<totfact> 0.18634092E+01</totfact>
</mgrwt>
</event>
<event>
12    1  0.1097093E-007  0.1459533E+04  0.7818608E-02  0.8911818E-01
         -1   -1    0    0    0  501 -0.00000000000E+00  0.00000000000E+00  0.47063817378E+03  0.47063817378E+03  0.00000000000E+00 0.  1.
          1   -1    0    0  501    0  0.00000000000E+00 -0.00000000000E+00 -0.11315676482E+04  0.11315676482E+04  0.00000000000E+00 0. -1.
         23    2    1    2    0    0 -0.40887880749E+03  0.77663286813E+02 -0.13297437024E+03  0.44648110126E+03  0.91922387438E+02 0.  0.
        254    2    1    2    0    0  0.40887880749E+03 -0.77663286813E+02 -0.52795510417E+03  0.11557247207E+04  0.94007955657E+03 0.  0.
        -24    2    4    4    0    0 -0.15785608243E+03  0.52891641172E+01 -0.54964667730E+03  0.57677060137E+03  0.74875488056E+02 0.  0.
         24    2    4    4    0    0  0.56673488992E+03 -0.82952450930E+02  0.21691573132E+02  0.57895411934E+03  0.81534062733E+02 0.  0.
         11    1    3    3    0    0 -0.37766521237E+03  0.63977693667E+02 -0.14609486794E+03  0.40996081320E+03  0.00000000000E+00 0. -1.
        -11    1    3    3    0    0 -0.31213595113E+02  0.13685593146E+02  0.13120497705E+02  0.36520288056E+02  0.00000000000E+00 0.  1.
          4    1    6    6  502    0  0.39683298829E+03 -0.93492197053E+02  0.30589780152E+01  0.40770892663E+03  0.00000000000E+00 0. -1.
          1    1    5    5  503    0 -0.14310839077E+03 -0.21009355782E+02 -0.45471150013E+03  0.47716239677E+03  0.00000000000E+00 0. -1.
         -2    1    5    5    0  503 -0.14747691662E+02  0.26298519899E+02 -0.94935177173E+02  0.99608204597E+02  0.00000000000E+00 0.  1.
         -3    1    6    6    0  502  0.16990190163E+03  0.10539746123E+02  0.18632595117E+02  0.17124519271E+03  0.00000000000E+00 0.  1.
<mgrwt>
<rscale>  0 0.14595327E+04</rscale>
<asrwt>0</asrwt>
<pdfrwt beam="1">  1        1 0.17408733E+00 0.14595327E+04</pdfrwt>
<pdfrwt beam="2">  1       -1 0.72405873E-01 0.14595327E+04</pdfrwt>
<totfact> 0.22420802E+01</totfact>
</mgrwt>
</event>
<event>
12    1  0.1097093E-007  0.2795558E+04  0.7818608E-02  0.8304649E-01
         -1   -1    0    0    0  501 -0.00000000000E+00  0.00000000000E+00  0.21483732956E+04  0.21483732956E+04  0.00000000000E+00 0.  1.
          1   -1    0    0  501    0  0.00000000000E+00 -0.00000000000E+00 -0.90942600883E+03  0.90942600883E+03  0.00000000000E+00 0. -1.
         23    2    1    2    0    0  0.61222707216E+03 -0.17663316236E+03  0.17319810008E+04  0.18477263745E+04  0.91177333566E+02 0.  0.
        254    2    1    2    0    0 -0.61222707216E+03  0.17663316236E+03 -0.49303371398E+03  0.12100729299E+04  0.90286930985E+03 0.  0.
        -24    2    4    4    0    0 -0.36068128817E+03  0.97764894990E+02  0.22333067814E+03  0.44251721558E+03  0.79346883704E+02 0.  0.
         24    2    4    4    0    0 -0.25154578399E+03  0.78868267371E+02 -0.71636439212E+03  0.76755571434E+03  0.80426036083E+02 0.  0.
         11    1    3    3    0    0  0.36594118462E+03 -0.14328056767E+03  0.98594305259E+03  0.10613792793E+04  0.00000000000E+00 0.  1.
        -11    1    3    3    0    0  0.24628588754E+03 -0.33352594693E+02  0.74603794816E+03  0.78634709516E+03  0.00000000000E+00 0. -1.
          4    1    6    6  502    0 -0.24159587437E+03  0.85515978748E+02 -0.62641852407E+03  0.67681734347E+03  0.00000000000E+00 0. -1.
          1    1    5    5  503    0 -0.33310058096E+03  0.99256205041E+02  0.22627662922E+03  0.41473956191E+03  0.00000000000E+00 0. -1.
         -2    1    5    5    0  503 -0.27580707207E+02 -0.14913100510E+01 -0.29459510801E+01  0.27777653671E+02  0.00000000000E+00 0.  1.
         -3    1    6    6    0  502 -0.99499096246E+01 -0.66477113774E+01 -0.89945868052E+02  0.90738370868E+02  0.00000000000E+00 0.  1.
<mgrwt>
<rscale>  0 0.27955583E+04</rscale>
<asrwt>0</asrwt>
<pdfrwt beam="1">  1        1 0.13991169E+00 0.27955583E+04</pdfrwt>
<pdfrwt beam="2">  1       -1 0.33051897E+00 0.27955583E+04</pdfrwt>
<totfact> 0.32333581E-01</totfact>
</mgrwt>
</event>
<event>
12    1  0.1097093E-007  0.1192137E+04  0.7818608E-02  0.9119767E-01
          2   -1    0    0  501    0  0.00000000000E+00  0.00000000000E+00  0.16824319580E+04  0.16824319580E+04  0.00000000000E+00 0. -1.
         -2   -1    0    0    0  501 -0.00000000000E+00 -0.00000000000E+00 -0.21118105887E+03  0.21118105887E+03  0.00000000000E+00 0.  1.
         23    2    1    2    0    0  0.14353907611E+03  0.14397596868E+03  0.11093725903E+03  0.24956338666E+03  0.92963770330E+02 0.  0.
        254    2    1    2    0    0 -0.14353907611E+03 -0.14397596868E+03  0.13603136401E+04  0.16440496302E+04  0.90061836603E+03 0.  0.
        -24    2    4    4    0    0 -0.12550464161E+03 -0.13826625148E+01  0.14496651307E+04  0.14568899527E+04  0.72429387573E+02 0.  0.
         24    2    4    4    0    0 -0.18034434498E+02 -0.14259330617E+03 -0.89351490562E+02  0.18715967758E+03  0.79918485071E+02 0.  0.
         13    1    3    3    0    0  0.10165092797E+03  0.98902497708E+02  0.12195808985E+03  0.18705184011E+03  0.00000000000E+00 0. -1.
        -13    1    3    3    0    0  0.41888148143E+02  0.45073470973E+02 -0.11020830820E+02  0.62511546552E+02  0.00000000000E+00 0.  1.
          2    1    6    6  502    0  0.12055549037E+02 -0.12985271865E+03 -0.61323838441E+02  0.14410995095E+03  0.00000000000E+00 0. -1.
          3    1    5    5  503    0 -0.10350177083E+03  0.27398443880E+02  0.11698634516E+04  0.11747526491E+04  0.00000000000E+00 0. -1.
         -4    1    5    5    0  503 -0.22002870786E+02 -0.28781106395E+02  0.27980167914E+03  0.28213730356E+03  0.00000000000E+00 0.  1.
         -3    1    6    6    0  502 -0.30089983535E+02 -0.12740587520E+02 -0.28027652120E+02  0.43049726630E+02  0.00000000000E+00 0.  1.
<mgrwt>
<rscale>  0 0.11921372E+04</rscale>
<asrwt>0</asrwt>
<pdfrwt beam="1">  1        2 0.25883568E+00 0.11921372E+04</pdfrwt>
<pdfrwt beam="2">  1       -2 0.32489395E-01 0.11921372E+04</pdfrwt>
<totfact> 0.87392284E+01</totfact>
</mgrwt>
</event>
<event>
12    1  0.1097093E-007  0.3103445E+04  0.7818608E-02  0.8214793E-01
          2   -1    0    0  501    0  0.00000000000E+00  0.00000000000E+00  0.21185999893E+04  0.21185999893E+04  0.00000000000E+00 0. -1.
         -2   -1    0    0    0  501 -0.00000000000E+00 -0.00000000000E+00 -0.11365252321E+04  0.11365252321E+04  0.00000000000E+00 0.  1.
         23    2    1    2    0    0 -0.47141475211E+03  0.13054225271E+04  0.12305911332E+03  0.13947433103E+04  0.61688843204E+02 0.  0.
        254    2    1    2    0    0  0.47141475211E+03 -0.13054225271E+04  0.85901564389E+03  0.18603819111E+04  0.89261029331E+03 0.  0.
        -24    2    4    4    0    0  0.54056838935E+03 -0.27395145326E+03  0.36463723021E+03  0.71164528343E+03  0.78836016357E+02 0.  0.
         24    2    4    4    0    0 -0.69153637234E+02 -0.10314710739E+04  0.49437841369E+03  0.11487366276E+04  0.80442662658E+02 0.  0.
         11    1    3    3    0    0 -0.38071859656E+03  0.11047131923E+04  0.11819834861E+03  0.11744397544E+04  0.00000000000E+00 0.  1.
        -11    1    3    3    0    0 -0.90696155556E+02  0.20070933477E+03  0.48607647044E+01  0.22030355587E+03  0.00000000000E+00 0. -1.
          2    1    6    6  502    0 -0.45650210193E+02 -0.46793781466E+03  0.18339734476E+03  0.50466258643E+03  0.00000000000E+00 0. -1.
          3    1    5    5  503    0  0.64793445240E+02 -0.62495716860E+02  0.63722760507E+02  0.11029277120E+03  0.00000000000E+00 0. -1.
         -4    1    5    5    0  503  0.47577494411E+03 -0.21145573640E+03  0.30091446970E+03  0.60135251223E+03  0.00000000000E+00 0.  1.
         -1    1    6    6    0  502 -0.23503427041E+02 -0.56353325919E+03  0.31098106893E+03  0.64407404119E+03  0.00000000000E+00 0.  1.
<mgrwt>
<rscale>  0 0.31034448E+04</rscale>
<asrwt>0</asrwt>
<pdfrwt beam="1">  1        2 0.32593846E+00 0.31034448E+04</pdfrwt>
<pdfrwt beam="2">  1       -2 0.17485004E+00 0.31034448E+04</pdfrwt>
<totfact> 0.95905518E-01</totfact>
</mgrwt>
</event>
<event>
12    1  0.1097093E-007  0.1930176E+04  0.7818608E-02  0.8639980E-01
         -1   -1    0    0    0  501 -0.00000000000E+00  0.00000000000E+00  0.64382901200E+03  0.64382901200E+03  0.00000000000E+00 0.  1.
          1   -1    0    0  501    0  0.00000000000E+00 -0.00000000000E+00 -0.14466496964E+04  0.14466496964E+04  0.00000000000E+00 0. -1.
         23    2    1    2    0    0  0.34541182926E+03  0.32356878528E+03  0.31927354166E+03  0.57850716647E+03  0.93428350351E+02 0.  0.
        254    2    1    2    0    0 -0.34541182926E+03 -0.32356878528E+03 -0.11220942261E+04  0.15119715419E+04  0.89607834526E+03 0.  0.
        -24    2    4    4    0    0 -0.98551118940E+02 -0.44662605342E+03 -0.11334363080E+04  0.12244694966E+04  0.73895393867E+02 0.  0.
         24    2    4    4    0    0 -0.24686071032E+03  0.12305726814E+03  0.11342081916E+02  0.28750204533E+03  0.80283757400E+02 0.  0.
         13    1    3    3    0    0  0.17519919376E+03  0.22626538914E+03  0.18128957836E+03  0.33875757562E+03  0.00000000000E+00 0.  1.
        -13    1    3    3    0    0  0.17021263551E+03  0.97303396144E+02  0.13798396330E+03  0.23974959086E+03  0.00000000000E+00 0. -1.
          4    1    6    6  502    0 -0.16744127692E+00  0.14496655113E+02 -0.92430762145E+01  0.17193472714E+02  0.00000000000E+00 0. -1.
          3    1    5    5  503    0 -0.68813855010E+02 -0.17647169658E+03 -0.40910488181E+03  0.45082636420E+03  0.00000000000E+00 0. -1.
         -4    1    5    5    0  503 -0.29737263929E+02 -0.27015435684E+03 -0.72433142615E+03  0.77364313239E+03  0.00000000000E+00 0.  1.
         -3    1    6    6    0  502 -0.24669326905E+03  0.10856061302E+03  0.20585158131E+02  0.27030857261E+03  0.00000000000E+00 0.  1.
<mgrwt>
<rscale>  0 0.19301762E+04</rscale>
<asrwt>0</asrwt>
<pdfrwt beam="1">  1        1 0.22256149E+00 0.19301762E+04</pdfrwt>
<pdfrwt beam="2">  1       -1 0.99050618E-01 0.19301762E+04</pdfrwt>
<totfact> 0.64777237E+00</totfact>
</mgrwt>
</event>
<event>
12    1  0.1097093E-007  0.1507201E+04  0.7818608E-02  0.8879679E-01
         -1   -1    0    0    0  501 -0.00000000000E+00  0.00000000000E+00  0.19895522905E+03  0.19895522905E+03  0.00000000000E+00 0.  1.
          1   -1    0    0  501    0  0.00000000000E+00 -0.00000000000E+00 -0.28544787841E+04  0.28544787841E+04  0.00000000000E+00 0. -1.
         23    2    1    2    0    0  0.32110801676E+03 -0.20920237255E+03 -0.27491678073E+03  0.48539919058E+03  0.11470460663E+03 0.  0.
        254    2    1    2    0    0 -0.32110801676E+03  0.20920237255E+03 -0.23806067743E+04  0.25680348225E+04  0.88353734775E+03 0.  0.
        -24    2    4    4    0    0 -0.19896908227E+03 -0.10757198529E+03 -0.97763319681E+02  0.25875976663E+03  0.78984317640E+02 0.  0.
         24    2    4    4    0    0 -0.12213893449E+03  0.31677435784E+03 -0.22828434546E+04  0.23092750559E+04  0.78186523740E+02 0.  0.
         13    1    3    3    0    0  0.11802396488E+02 -0.40467813189E+02 -0.57797955920E+02  0.71537012628E+02  0.00000000000E+00 0. -1.
        -13    1    3    3    0    0  0.30930562027E+03 -0.16873455936E+03 -0.21711882481E+03  0.41386217795E+03  0.00000000000E+00 0.  1.
          4    1    6    6  502    0 -0.92012863523E+02  0.29298464065E+03 -0.21092391630E+04  0.21314774719E+04  0.00000000000E+00 0. -1.
          3    1    5    5  503    0 -0.96301184666E+02 -0.96021791238E+02 -0.49433275220E+02  0.14469882950E+03  0.00000000000E+00 0. -1.
         -4    1    5    5    0  503 -0.10266789760E+03 -0.11550194054E+02 -0.48330044461E+02  0.11406093713E+03  0.00000000000E+00 0.  1.
         -3    1    6    6    0  502 -0.30126070971E+02  0.23789717187E+02 -0.17360429163E+03  0.17779758398E+03  0.00000000000E+00 0.  1.
<mgrwt>
<rscale>  0 0.15072007E+04</rscale>
<asrwt>0</asrwt>
<pdfrwt beam="1">  1        1 0.43915056E+00 0.15072007E+04</pdfrwt>
<pdfrwt beam="2">  1       -1 0.30608499E-01 0.15072007E+04</pdfrwt>
<totfact> 0.72902703E+00</totfact>
</mgrwt>
</event>
<event>
12    1  0.1097093E-007  0.1352733E+04  0.7818608E-02  0.8988762E-01
          2   -1    0    0  501    0  0.00000000000E+00  0.00000000000E+00  0.20705628430E+04  0.20705628430E+04  0.00000000000E+00 0. -1.
         -2   -1    0    0    0  501 -0.00000000000E+00 -0.00000000000E+00 -0.22094058287E+03  0.22094058287E+03  0.00000000000E+00 0.  1.
         23    2    1    2    0    0  0.18589187578E+03  0.22877799515E+03  0.89676621587E+03  0.94824231861E+03  0.89881523882E+02 0.  0.
        254    2    1    2    0    0 -0.18589187578E+03 -0.22877799515E+03  0.95285604424E+03  0.13432611072E+04  0.89973362760E+03 0.  0.
        -24    2    4    4    0    0 -0.14098455366E+03 -0.30504403613E+02 -0.14785729056E+03  0.22112704844E+03  0.78919136914E+02 0.  0.
         24    2    4    4    0    0 -0.44907322117E+02 -0.19827359153E+03  0.11007133348E+04  0.11221340588E+04  0.79283767622E+02 0.  0.
         11    1    3    3    0    0  0.62644956642E+02  0.10154385913E+03  0.49469098292E+03  0.50887593233E+03  0.00000000000E+00 0.  1.
        -11    1    3    3    0    0  0.12324691913E+03  0.12723413602E+03  0.40207523295E+03  0.43936638628E+03  0.00000000000E+00 0. -1.
          4    1    6    6  502    0 -0.46719261978E+01 -0.30827704088E+02  0.37387572505E+03  0.37517360250E+03  0.00000000000E+00 0. -1.
          1    1    5    5  503    0  0.69594595824E+01  0.85685686516E+01 -0.13969048007E+02  0.17804177842E+02  0.00000000000E+00 0. -1.
         -2    1    5    5    0  503 -0.14794401324E+03 -0.39072972264E+02 -0.13388824256E+03  0.20332287060E+03  0.00000000000E+00 0.  1.
         -3    1    6    6    0  502 -0.40235395920E+02 -0.16744588745E+03  0.72683760976E+03  0.74696045629E+03  0.00000000000E+00 0.  1.
<mgrwt>
<rscale>  0 0.13527326E+04</rscale>
<asrwt>0</asrwt>
<pdfrwt beam="1">  1        2 0.31854812E+00 0.13527326E+04</pdfrwt>
<pdfrwt beam="2">  1       -2 0.33990860E-01 0.13527326E+04</pdfrwt>
<totfact> 0.48333673E+01</totfact>
</mgrwt>
</event>
<event>
12    1  0.1097093E-007  0.2069054E+04  0.7818608E-02  0.8574999E-01
          2   -1    0    0  501    0  0.00000000000E+00  0.00000000000E+00  0.43532436857E+03  0.43532436857E+03  0.00000000000E+00 0.  1.
         -2   -1    0    0    0  501 -0.00000000000E+00 -0.00000000000E+00 -0.24585019404E+04  0.24585019404E+04  0.00000000000E+00 0. -1.
         23    2    1    2    0    0 -0.60514995503E-01 -0.44422870270E+03 -0.17994070053E+04  0.18555918048E+04  0.89533409655E+02 0.  0.
        254    2    1    2    0    0  0.60514995503E-01  0.44422870270E+03 -0.22377056653E+03  0.10382345042E+04  0.91132786373E+03 0.  0.
        -24    2    4    4    0    0 -0.36966702769E+03  0.18639166151E+03  0.14880140589E+03  0.44742382645E+03  0.81551574104E+02 0.  0.
         24    2    4    4    0    0  0.36972754269E+03  0.25783704120E+03 -0.37257197242E+03  0.59081067771E+03  0.84077265794E+02 0.  0.
         13    1    3    3    0    0  0.31699600476E+02 -0.36926381948E+03 -0.14221823307E+04  0.14696813311E+04  0.00000000000E+00 0. -1.
        -13    1    3    3    0    0 -0.31760115472E+02 -0.74964883222E+02 -0.37722467458E+03  0.38591047377E+03  0.00000000000E+00 0.  1.
          2    1    6    6  502    0  0.53289084486E+02  0.50892646461E+01 -0.44659572506E+02  0.69714450126E+02  0.00000000000E+00 0. -1.
          3    1    5    5  503    0 -0.19536798272E+03  0.13835225459E+03  0.64463841238E+02  0.24792253195E+03  0.00000000000E+00 0. -1.
         -4    1    5    5    0  503 -0.17429904498E+03  0.48039406915E+02  0.84337564649E+02  0.19950129450E+03  0.00000000000E+00 0.  1.
         -1    1    6    6    0  502  0.31643845820E+03  0.25274777655E+03 -0.32791239992E+03  0.52109622758E+03  0.00000000000E+00 0.  1.
<mgrwt>
<rscale>  0 0.20690537E+04</rscale>
<asrwt>0</asrwt>
<pdfrwt beam="1">  1        2 0.66972980E-01 0.20690537E+04</pdfrwt>
<pdfrwt beam="2">  1       -2 0.37823107E+00 0.20690537E+04</pdfrwt>
<totfact> 0.68761712E-01</totfact>
</mgrwt>
</event>
<event>
12    1  0.1097093E-007  0.1157150E+04  0.7818608E-02  0.9151212E-01
          2   -1    0    0  501    0  0.00000000000E+00  0.00000000000E+00  0.19550610454E+04  0.19550610454E+04  0.00000000000E+00 0. -1.
         -2   -1    0    0    0  501 -0.00000000000E+00 -0.00000000000E+00 -0.17122188794E+03  0.17122188794E+03  0.00000000000E+00 0.  1.
         23    2    1    2    0    0  0.13804257174E+03 -0.78595164038E+02  0.93696828851E+02  0.20454204620E+03  0.88461299483E+02 0.  0.
        254    2    1    2    0    0 -0.13804257174E+03  0.78595164038E+02  0.16901423287E+04  0.19217408872E+04  0.90070749688E+03 0.  0.
        -24    2    4    4    0    0 -0.49014353252E+03  0.19518950020E+03  0.92620933692E+03  0.10689314422E+04  0.80069149907E+02 0.  0.
         24    2    4    4    0    0  0.35210096078E+03 -0.11659433616E+03  0.76393299173E+03  0.85280944502E+03  0.78236870180E+02 0.  0.
         13    1    3    3    0    0 -0.43004907804E+01  0.11264380668E+02  0.13437042741E+02  0.18053659197E+02  0.00000000000E+00 0. -1.
        -13    1    3    3    0    0  0.14234306252E+03 -0.89859544706E+02  0.80259786110E+02  0.18648838701E+03  0.00000000000E+00 0.  1.
          4    1    6    6  502    0  0.21365906364E+03 -0.84539737948E+02  0.54901896213E+03  0.59516298906E+03  0.00000000000E+00 0. -1.
          1    1    5    5  503    0 -0.26035804723E+03  0.13642830026E+03  0.46071273882E+03  0.54649356957E+03  0.00000000000E+00 0. -1.
         -2    1    5    5    0  503 -0.22978548529E+03  0.58761199942E+02  0.46549659810E+03  0.52243787259E+03  0.00000000000E+00 0.  1.
         -3    1    6    6    0  502  0.13844189714E+03 -0.32054598214E+02  0.21491402961E+03  0.25764645597E+03  0.00000000000E+00 0.  1.
<mgrwt>
<rscale>  0 0.11571504E+04</rscale>
<asrwt>0</asrwt>
<pdfrwt beam="1">  1        2 0.30077861E+00 0.11571504E+04</pdfrwt>
<pdfrwt beam="2">  1       -2 0.26341830E-01 0.11571504E+04</pdfrwt>
<totfact> 0.91443467E+01</totfact>
</mgrwt>
</event>
<event>
12    1  0.1097093E-007  0.1890353E+04  0.7818608E-02  0.8659673E-01
          4   -1    0    0  501    0  0.00000000000E+00  0.00000000000E+00  0.67558617075E+03  0.67558617075E+03  0.00000000000E+00 0. -1.
         -4   -1    0    0    0  501 -0.00000000000E+00 -0.00000000000E+00 -0.13223456398E+04  0.13223456398E+04  0.00000000000E+00 0.  1.
         23    2    1    2    0    0  0.45758027875E+03 -0.56002408069E+03 -0.32889528991E+03  0.79969083099E+03  0.91250375316E+02 0.  0.
        254    2    1    2    0    0 -0.45758027875E+03  0.56002408069E+03 -0.31786417916E+03  0.11982409796E+04  0.90096455328E+03 0.  0.
        -24    2    4    4    0    0  0.67208708149E+02 -0.47273945373E+02  0.20674115029E+03  0.23603440664E+03  0.78857476068E+02 0.  0.
         24    2    4    4    0    0 -0.52478898690E+03  0.60729802606E+03 -0.52460532945E+03  0.96220657293E+03  0.80102210095E+02 0.  0.
         11    1    3    3    0    0  0.34830414910E+03 -0.47595351163E+03 -0.24773699438E+03  0.63970395020E+03  0.00000000000E+00 0.  1.
        -11    1    3    3    0    0  0.10927612965E+03 -0.84070569060E+02 -0.81158295528E+02  0.15998688080E+03  0.00000000000E+00 0. -1.
          4    1    6    6  502    0 -0.93596729511E+02  0.10568944472E+03 -0.13039486297E+03  0.19218071388E+03  0.00000000000E+00 0. -1.
          1    1    5    5  503    0 -0.97352239747E+01 -0.58034529543E+01  0.87266442755E+02  0.87999356152E+02  0.00000000000E+00 0. -1.
         -2    1    5    5    0  503  0.76943932123E+02 -0.41470492418E+02  0.11947470754E+03  0.14803505049E+03  0.00000000000E+00 0.  1.
         -3    1    6    6    0  502 -0.43119225739E+03  0.50160858134E+03 -0.39421046648E+03  0.77002585904E+03  0.00000000000E+00 0.  1.
<mgrwt>
<rscale>  0 0.18903528E+04</rscale>
<asrwt>0</asrwt>
<pdfrwt beam="1">  1        4 0.10393633E+00 0.18903528E+04</pdfrwt>
<pdfrwt beam="2">  1       -4 0.20343779E+00 0.18903528E+04</pdfrwt>
<totfact> 0.17622244E-01</totfact>
</mgrwt>
</event>
<event>
12    1  0.1097093E-007  0.1340011E+04  0.7818608E-02  0.8998424E-01
         -1   -1    0    0    0  501 -0.00000000000E+00  0.00000000000E+00  0.35530084683E+03  0.35530084683E+03  0.00000000000E+00 0.  1.
          1   -1    0    0  501    0  0.00000000000E+00 -0.00000000000E+00 -0.12634566413E+04  0.12634566413E+04  0.00000000000E+00 0. -1.
         23    2    1    2    0    0  0.15064616469E+03 -0.32378432908E+03 -0.31052703815E+03  0.48166006989E+03  0.89659482555E+02 0.  0.
        254    2    1    2    0    0 -0.15064616469E+03  0.32378432908E+03 -0.59762875628E+03  0.11370974182E+04  0.89905497576E+03 0.  0.
        -24    2    4    4    0    0  0.32419998613E+03 -0.71170539801E+02 -0.18651655624E+03  0.39026533243E+03  0.85718884717E+02 0.  0.
         24    2    4    4    0    0 -0.47484615082E+03  0.39495486888E+03 -0.41111220004E+03  0.74683208577E+03  0.85303621891E+02 0.  0.
         13    1    3    3    0    0  0.74319085859E+02 -0.20992628652E+03 -0.14070891207E+03  0.26342241786E+03  0.00000000000E+00 0.  1.
        -13    1    3    3    0    0  0.76327078832E+02 -0.11385804255E+03 -0.16981812608E+03  0.21823765203E+03  0.00000000000E+00 0. -1.
          2    1    6    6  502    0 -0.44143873692E+03  0.33571930465E+03 -0.37823471565E+03  0.67129509911E+03  0.00000000000E+00 0. -1.
          3    1    5    5  503    0  0.30903000833E+03 -0.62775803229E+02 -0.14865729562E+03  0.34862492605E+03  0.00000000000E+00 0. -1.
         -4    1    5    5    0  503  0.15169977799E+02 -0.83947365722E+01 -0.37859260618E+02  0.41640406375E+02  0.00000000000E+00 0.  1.
         -3    1    6    6    0  502 -0.33407413899E+02  0.59235564228E+02 -0.32877484391E+02  0.75536986654E+02  0.00000000000E+00 0.  1.
<mgrwt>
<rscale>  0 0.13400108E+04</rscale>
<asrwt>0</asrwt>
<pdfrwt beam="1">  1        1 0.19437795E+00 0.13400108E+04</pdfrwt>
<pdfrwt beam="2">  1       -1 0.54661668E-01 0.13400108E+04</pdfrwt>
<totfact> 0.31824851E+01</totfact>
</mgrwt>
</event>
<event>
12    1  0.1097093E-007  0.1634537E+04  0.7818608E-02  0.8799607E-01
          3   -1    0    0  501    0  0.00000000000E+00  0.00000000000E+00  0.67990588226E+03  0.67990588226E+03  0.00000000000E+00 0.  1.
         -3   -1    0    0    0  501 -0.00000000000E+00 -0.00000000000E+00 -0.98238232592E+03  0.98238232592E+03  0.00000000000E+00 0. -1.
         23    2    1    2    0    0 -0.38260942197E+03 -0.10013663028E+03 -0.51446560222E+03  0.65507357255E+03  0.89605887528E+02 0.  0.
        254    2    1    2    0    0  0.38260942197E+03  0.10013663028E+03  0.21198915856E+03  0.10072146356E+04  0.90173422048E+03 0.  0.
        -24    2    4    4    0    0  0.27258889442E+03 -0.36295573626E+03 -0.40559889147E+02  0.46246290836E+03  0.78646456723E+02 0.  0.
         24    2    4    4    0    0  0.11002052755E+03  0.46309236654E+03  0.25254904771E+03  0.54475172727E+03  0.80089739928E+02 0.  0.
         13    1    3    3    0    0 -0.39286137058E+02 -0.22549389562E+02 -0.23665140243E+02  0.51106891877E+02  0.00000000000E+00 0.  1.
        -13    1    3    3    0    0 -0.34332328492E+03 -0.77587240714E+02 -0.49080046197E+03  0.60396668067E+03  0.00000000000E+00 0. -1.
          2    1    6    6  502    0  0.76468127829E+02  0.18929716281E+03  0.13592248839E+03  0.24526661671E+03  0.00000000000E+00 0. -1.
          1    1    5    5  503    0  0.31693477254E+02 -0.61225329554E+02 -0.32652538284E+02  0.76283718681E+02  0.00000000000E+00 0. -1.
         -2    1    5    5    0  503  0.24089541717E+03 -0.30173040671E+03 -0.79073508630E+01  0.38617918968E+03  0.00000000000E+00 0.  1.
         -1    1    6    6    0  502  0.33552399721E+02  0.27379520373E+03  0.11662655931E+03  0.29948511056E+03  0.00000000000E+00 0.  1.
<mgrwt>
<rscale>  0 0.16345367E+04</rscale>
<asrwt>0</asrwt>
<pdfrwt beam="1">  1        3 0.10460090E+00 0.16345367E+04</pdfrwt>
<pdfrwt beam="2">  1       -3 0.15113574E+00 0.16345367E+04</pdfrwt>
<totfact> 0.62311664E-01</totfact>
</mgrwt>
</event>
<event>
12    1  0.1097093E-007  0.2113817E+04  0.7818608E-02  0.8555181E-01
         -2   -1    0    0    0  501 -0.00000000000E+00  0.00000000000E+00  0.55936812658E+03  0.55936812658E+03  0.00000000000E+00 0.  1.
          2   -1    0    0  501    0  0.00000000000E+00 -0.00000000000E+00 -0.19969959453E+04  0.19969959453E+04  0.00000000000E+00 0. -1.
         23    2    1    2    0    0  0.42108204813E+03  0.58211453367E+03 -0.11571656594E+04  0.13651450238E+04  0.91766831015E+02 0.  0.
        254    2    1    2    0    0 -0.42108204813E+03 -0.58211453367E+03 -0.28046215933E+03  0.11912190480E+04  0.90784160294E+03 0.  0.
        -24    2    4    4    0    0 -0.14029465703E+03 -0.41652765537E+03 -0.58637608127E+03  0.73718767353E+03  0.80192760537E+02 0.  0.
         24    2    4    4    0    0 -0.28078739110E+03 -0.16558687831E+03  0.30591392194E+03  0.45403137451E+03  0.79376244143E+02 0.  0.
         13    1    3    3    0    0  0.32207840005E+03  0.48676445460E+03 -0.88332487353E+03  0.10587431049E+04  0.00000000000E+00 0. -1.
        -13    1    3    3    0    0  0.99003648083E+02  0.95350079072E+02 -0.27384078582E+03  0.30640191888E+03  0.00000000000E+00 0.  1.
          2    1    6    6  502    0 -0.20172704695E+03 -0.13084202754E+03  0.26700681916E+03  0.35931334392E+03  0.00000000000E+00 0. -1.
          1    1    5    5  503    0 -0.11799607915E+03 -0.28197525082E+03 -0.45255429215E+03  0.54611217173E+03  0.00000000000E+00 0. -1.
         -2    1    5    5    0  503 -0.22298577881E+02 -0.13455240455E+03 -0.13382178913E+03  0.19107550180E+03  0.00000000000E+00 0.  1.
         -1    1    6    6    0  502 -0.79060344154E+02 -0.34744850764E+02  0.38907102785E+02  0.94718030593E+02  0.00000000000E+00 0.  1.
<mgrwt>
<rscale>  0 0.21138173E+04</rscale>
<asrwt>0</asrwt>
<pdfrwt beam="1">  1        2 0.30723014E+00 0.21138173E+04</pdfrwt>
<pdfrwt beam="2">  1       -2 0.86056637E-01 0.21138173E+04</pdfrwt>
<totfact> 0.72314268E+00</totfact>
</mgrwt>
</event>
<event>
12    1  0.1097093E-007  0.1360338E+04  0.7818608E-02  0.8983039E-01
         -1   -1    0    0    0  501 -0.00000000000E+00  0.00000000000E+00  0.10197779647E+04  0.10197779647E+04  0.00000000000E+00 0.  1.
          1   -1    0    0  501    0  0.00000000000E+00 -0.00000000000E+00 -0.45365752634E+03  0.45365752634E+03  0.00000000000E+00 0. -1.
         23    2    1    2    0    0 -0.17651743940E+03  0.63365489778E+02 -0.20068499501E+03  0.28549116935E+03  0.77827686893E+02 0.  0.
        254    2    1    2    0    0  0.17651743940E+03 -0.63365489778E+02  0.76680543332E+03  0.11879443216E+04  0.88772042167E+03 0.  0.
        -24    2    4    4    0    0  0.38976597150E+03 -0.92851752780E+02  0.22058665148E+02  0.40861860851E+03  0.77094889456E+02 0.  0.
         24    2    4    4    0    0 -0.21324853210E+03  0.29486263002E+02  0.74474676818E+03  0.77932571314E+03  0.79727299621E+02 0.  0.
         11    1    3    3    0    0 -0.73153821362E+02  0.29302509756E+02 -0.32670242223E+02  0.85308049941E+02  0.00000000000E+00 0. -1.
        -11    1    3    3    0    0 -0.10336361804E+03  0.34062980022E+02 -0.16801475279E+03  0.20018311941E+03  0.00000000000E+00 0.  1.
          2    1    6    6  502    0 -0.78995979081E+02  0.30453816763E+02  0.18113481224E+03  0.19994404185E+03  0.00000000000E+00 0. -1.
          1    1    5    5  503    0  0.24870382144E+02 -0.11415946149E+02  0.21410260301E+02  0.34745632540E+02  0.00000000000E+00 0. -1.
         -2    1    5    5    0  503  0.36489558935E+03 -0.81435806631E+02  0.64840484679E+00  0.37387297597E+03  0.00000000000E+00 0.  1.
         -3    1    6    6    0  502 -0.13425255302E+03 -0.96755376100E+00  0.56361195594E+03  0.57938167129E+03  0.00000000000E+00 0.  1.
<mgrwt>
<rscale>  0 0.13603381E+04</rscale>
<asrwt>0</asrwt>
<pdfrwt beam="1">  1        1 0.69793466E-01 0.13603381E+04</pdfrwt>
<pdfrwt beam="2">  1       -1 0.15688892E+00 0.13603381E+04</pdfrwt>
<totfact> 0.15287877E+01</totfact>
</mgrwt>
</event>
<event>
12    1  0.1097093E-007  0.1419056E+04  0.7818608E-02  0.8940139E-01
         -2   -1    0    0    0  501 -0.00000000000E+00  0.00000000000E+00  0.47024308247E+03  0.47024308247E+03  0.00000000000E+00 0.  1.
          2   -1    0    0  501    0  0.00000000000E+00 -0.00000000000E+00 -0.10705743525E+04  0.10705743525E+04  0.00000000000E+00 0. -1.
         23    2    1    2    0    0 -0.16625961672E+03 -0.74345285541E+02  0.22787944616E+03  0.30564570567E+03  0.91218275469E+02 0.  0.
        254    2    1    2    0    0  0.16625961672E+03  0.74345285541E+02 -0.82821071617E+03  0.12351717293E+04  0.89807946687E+03 0.  0.
        -24    2    4    4    0    0  0.50154902886E+03  0.50772387145E+02 -0.70118627247E+03  0.86718509174E+03  0.78857662891E+02 0.  0.
         24    2    4    4    0    0 -0.33528941214E+03  0.23572898396E+02 -0.12702444370E+03  0.36798663754E+03  0.79399525682E+02 0.  0.
         11    1    3    3    0    0 -0.33102742194E+02  0.12181385109E+02  0.11205797255E+02  0.37010101000E+02  0.00000000000E+00 0. -1.
        -11    1    3    3    0    0 -0.13315687452E+03 -0.86526670650E+02  0.21667364891E+03  0.26863560467E+03  0.00000000000E+00 0.  1.
          4    1    6    6  502    0 -0.29792288962E+03  0.45287855575E+02 -0.11920914299E+03  0.32406767471E+03  0.00000000000E+00 0. -1.
          1    1    5    5  503    0  0.14379971356E+03  0.30210354838E+02 -0.26166469088E+03  0.30009903968E+03  0.00000000000E+00 0. -1.
         -2    1    5    5    0  503  0.35774931530E+03  0.20562032307E+02 -0.43952158159E+03  0.56708605207E+03  0.00000000000E+00 0.  1.
         -3    1    6    6    0  502 -0.37366522525E+02 -0.21714957179E+02 -0.78153007092E+01  0.43918962830E+02  0.00000000000E+00 0.  1.
<mgrwt>
<rscale>  0 0.14190563E+04</rscale>
<asrwt>0</asrwt>
<pdfrwt beam="1">  1        2 0.16470375E+00 0.14190563E+04</pdfrwt>
<pdfrwt beam="2">  1       -2 0.72345090E-01 0.14190563E+04</pdfrwt>
<totfact> 0.38199423E+01</totfact>
</mgrwt>
</event>
<event>
12    1  0.1097093E-007  0.1341138E+04  0.7818608E-02  0.8997564E-01
         -2   -1    0    0    0  501 -0.00000000000E+00  0.00000000000E+00  0.85693756909E+03  0.85693756909E+03  0.00000000000E+00 0.  1.
          2   -1    0    0  501    0  0.00000000000E+00 -0.00000000000E+00 -0.52473248371E+03  0.52473248371E+03  0.00000000000E+00 0. -1.
         23    2    1    2    0    0 -0.17558407796E+03 -0.34536899387E+02  0.42120189475E+03  0.46644460066E+03  0.90205118964E+02 0.  0.
        254    2    1    2    0    0  0.17558407796E+03  0.34536899387E+02 -0.88996809376E+02  0.91522545215E+03  0.89313752039E+03 0.  0.
        -24    2    4    4    0    0 -0.22454313601E+03 -0.23840022314E+03 -0.22446603073E+03  0.40564580842E+03  0.83121817912E+02 0.  0.
         24    2    4    4    0    0  0.40012721398E+03  0.27293712253E+03  0.13546922135E+03  0.50957964373E+03  0.81994165324E+02 0.  0.
         11    1    3    3    0    0 -0.60015900617E+02  0.30956751928E+02  0.13798627754E+03  0.15362435226E+03  0.00000000000E+00 0.  1.
        -11    1    3    3    0    0 -0.11556817735E+03 -0.65493651315E+02  0.28321561721E+03  0.31282024840E+03  0.00000000000E+00 0. -1.
          2    1    6    6  502    0  0.92503727222E+02  0.26131850925E+02  0.15660005039E+02  0.97391215931E+02  0.00000000000E+00 0. -1.
          3    1    5    5  503    0 -0.94002962884E+01 -0.25439161373E+01  0.64183385823E+01  0.11663282119E+02  0.00000000000E+00 0. -1.
         -4    1    5    5    0  503 -0.21514283972E+03 -0.23585630701E+03 -0.23088436931E+03  0.39398252630E+03  0.00000000000E+00 0.  1.
         -1    1    6    6    0  502  0.30762348675E+03  0.24680527160E+03  0.11980921632E+03  0.41218842779E+03  0.00000000000E+00 0.  1.
<mgrwt>
<rscale>  0 0.13411383E+04</rscale>
<asrwt>0</asrwt>
<pdfrwt beam="1">  1        2 0.80728075E-01 0.13411383E+04</pdfrwt>
<pdfrwt beam="2">  1       -2 0.13183655E+00 0.13411383E+04</pdfrwt>
<totfact> 0.23826206E+01</totfact>
</mgrwt>
</event>
<event>
12    1  0.1097093E-007  0.1900463E+04  0.7818608E-02  0.8654626E-01
          2   -1    0    0  501    0  0.00000000000E+00  0.00000000000E+00  0.13995158035E+04  0.13995158035E+04  0.00000000000E+00 0. -1.
         -2   -1    0    0    0  501 -0.00000000000E+00 -0.00000000000E+00 -0.64518022436E+03  0.64518022436E+03  0.00000000000E+00 0.  1.
         23    2    1    2    0    0  0.49236673754E+02  0.68838771638E+03  0.36176446047E+02  0.69718323244E+03  0.91944691259E+02 0.  0.
        254    2    1    2    0    0 -0.49236673754E+02 -0.68838771638E+03  0.71815913309E+03  0.13475127954E+04  0.90759919306E+03 0.  0.
        -24    2    4    4    0    0  0.13396182345E+02 -0.31667020089E+03 -0.17737482895E+03  0.37245258033E+03  0.82459813372E+02 0.  0.
         24    2    4    4    0    0 -0.62632856099E+02 -0.37171751549E+03  0.89553396203E+03  0.97506021507E+03  0.81636755655E+02 0.  0.
         13    1    3    3    0    0  0.97745217227E+01  0.20117539654E+03 -0.30988142732E+02  0.20378259601E+03  0.00000000000E+00 0. -1.
        -13    1    3    3    0    0  0.39462152031E+02  0.48721231984E+03  0.67164588779E+02  0.49340063643E+03  0.00000000000E+00 0.  1.
          4    1    6    6  502    0 -0.16555068902E+02 -0.25276964182E+03  0.66459429355E+03  0.71123282908E+03  0.00000000000E+00 0. -1.
          1    1    5    5  503    0  0.25629669106E+02 -0.28932048880E+03 -0.18105974600E+03  0.34226576925E+03  0.00000000000E+00 0. -1.
         -2    1    5    5    0  503 -0.12233486761E+02 -0.27349712091E+02  0.36849170566E+01  0.30186811085E+02  0.00000000000E+00 0.  1.
         -3    1    6    6    0  502 -0.46077787196E+02 -0.11894787366E+03  0.23093966848E+03  0.26382738599E+03  0.00000000000E+00 0.  1.
<mgrwt>
<rscale>  0 0.19004630E+04</rscale>
<asrwt>0</asrwt>
<pdfrwt beam="1">  1        2 0.21531012E+00 0.19004630E+04</pdfrwt>
<pdfrwt beam="2">  1       -2 0.99258497E-01 0.19004630E+04</pdfrwt>
<totfact> 0.11402010E+01</totfact>
</mgrwt>
</event>
<event>
12    1  0.1097093E-007  0.1637190E+04  0.7818608E-02  0.8798021E-01
          1   -1    0    0  501    0  0.00000000000E+00  0.00000000000E+00  0.88333062911E+03  0.88333062911E+03  0.00000000000E+00 0. -1.
         -1   -1    0    0    0  501 -0.00000000000E+00 -0.00000000000E+00 -0.75860321258E+03  0.75860321258E+03  0.00000000000E+00 0.  1.
         23    2    1    2    0    0  0.43430624130E+03 -0.31623736068E+03 -0.16738768091E+03  0.56985777784E+03  0.89951496486E+02 0.  0.
        254    2    1    2    0    0 -0.43430624130E+03  0.31623736068E+03  0.29211509745E+03  0.10720760639E+04  0.88056111486E+03 0.  0.
        -24    2    4    4    0    0 -0.22269678735E+03 -0.25868377222E+03 -0.68251667466E+02  0.35725025706E+03  0.80363567295E+02 0.  0.
         24    2    4    4    0    0 -0.21160945395E+03  0.57492113290E+03  0.36036676491E+03  0.71482580679E+03  0.76150237983E+02 0.  0.
         11    1    3    3    0    0  0.17609347673E+03 -0.14208162917E+03 -0.11574179528E+03  0.25415008375E+03  0.00000000000E+00 0. -1.
        -11    1    3    3    0    0  0.25821276457E+03 -0.17415573151E+03 -0.51645885629E+02  0.31570769409E+03  0.00000000000E+00 0.  1.
          4    1    6    6  502    0 -0.16786575446E+03  0.39765536087E+03  0.28536638546E+03  0.51743856785E+03  0.00000000000E+00 0. -1.
          1    1    5    5  503    0 -0.54695852941E+02 -0.10767844178E+03 -0.49694298187E+02  0.13059788063E+03  0.00000000000E+00 0. -1.
         -2    1    5    5    0  503 -0.16800093441E+03 -0.15100533044E+03 -0.18557369278E+02  0.22665237643E+03  0.00000000000E+00 0.  1.
         -3    1    6    6    0  502 -0.43743699487E+02  0.17726577203E+03  0.75000379454E+02  0.19738723894E+03  0.00000000000E+00 0.  1.
<mgrwt>
<rscale>  0 0.16371896E+04</rscale>
<asrwt>0</asrwt>
<pdfrwt beam="1">  1        1 0.13589702E+00 0.16371896E+04</pdfrwt>
<pdfrwt beam="2">  1       -1 0.11670819E+00 0.16371896E+04</pdfrwt>
<totfact> 0.11905164E+01</totfact>
</mgrwt>
</event>
<event>
12    1  0.1097093E-007  0.1814348E+04  0.7818608E-02  0.8698706E-01
          1   -1    0    0  501    0  0.00000000000E+00  0.00000000000E+00  0.61050873312E+03  0.61050873312E+03  0.00000000000E+00 0. -1.
         -1   -1    0    0    0  501 -0.00000000000E+00 -0.00000000000E+00 -0.13479986347E+04  0.13479986347E+04  0.00000000000E+00 0.  1.
         23    2    1    2    0    0 -0.14051729083E+03 -0.61506225705E+03  0.83529521959E+01  0.63755987366E+03  0.91466560127E+02 0.  0.
        254    2    1    2    0    0  0.14051729083E+03  0.61506225705E+03 -0.74584285381E+03  0.13209474942E+04  0.88914230061E+03 0.  0.
        -24    2    4    4    0    0 -0.21065579638E+03 -0.10129588095E+03 -0.34748013372E+03  0.42606945430E+03  0.78460286201E+02 0.  0.
         24    2    4    4    0    0  0.35117308721E+03  0.71635813800E+03 -0.39836272009E+03  0.89487803988E+03  0.74982200797E+02 0.  0.
         11    1    3    3    0    0 -0.95133269621E+02 -0.38993063168E+03  0.48939566698E+02  0.40434059616E+03  0.00000000000E+00 0.  1.
        -11    1    3    3    0    0 -0.45384021213E+02 -0.22513162537E+03 -0.40586614503E+02  0.23321927751E+03  0.00000000000E+00 0. -1.
          2    1    6    6  502    0  0.23321653755E+03  0.40881861102E+03 -0.25906254141E+03  0.53724855557E+03  0.00000000000E+00 0. -1.
          3    1    5    5  503    0 -0.91331073246E+02 -0.73944906084E+02 -0.21943630509E+03  0.24892068229E+03  0.00000000000E+00 0. -1.
         -4    1    5    5    0  503 -0.11932472313E+03 -0.27350974868E+02 -0.12804382863E+03  0.17714877202E+03  0.00000000000E+00 0.  1.
         -1    1    6    6    0  502  0.11795654966E+03  0.30753952698E+03 -0.13930017867E+03  0.35762948431E+03  0.00000000000E+00 0.  1.
<mgrwt>
<rscale>  0 0.18143483E+04</rscale>
<asrwt>0</asrwt>
<pdfrwt beam="1">  1        1 0.93924422E-01 0.18143483E+04</pdfrwt>
<pdfrwt beam="2">  1       -1 0.20738440E+00 0.18143483E+04</pdfrwt>
<totfact> 0.42147345E+00</totfact>
</mgrwt>
</event>
<event>
12    1  0.1097093E-007  0.1807809E+04  0.7818608E-02  0.8702158E-01
          2   -1    0    0  501    0  0.00000000000E+00  0.00000000000E+00  0.53543526381E+03  0.53543526381E+03  0.00000000000E+00 0.  1.
         -2   -1    0    0    0  501 -0.00000000000E+00 -0.00000000000E+00 -0.15259419857E+04  0.15259419857E+04  0.00000000000E+00 0. -1.
         23    2    1    2    0    0  0.28800220989E+03  0.23937580936E+03  0.26678539498E+03  0.46950195941E+03  0.94929404892E+02 0.  0.
        254    2    1    2    0    0 -0.28800220989E+03 -0.23937580936E+03 -0.12572921168E+04  0.15918752901E+04  0.90168587715E+03 0.  0.
        -24    2    4    4    0    0 -0.48948665052E+03  0.51986805396E+02 -0.10718857483E+04  0.11822253970E+04  0.80112564024E+02 0.  0.
         24    2    4    4    0    0  0.20148444064E+03 -0.29136261475E+03 -0.18540636851E+03  0.40964989305E+03  0.89159185146E+02 0.  0.
         13    1    3    3    0    0  0.28957760412E+02  0.70252350267E+02  0.39653805188E+02  0.85710961212E+02  0.00000000000E+00 0. -1.
        -13    1    3    3    0    0  0.25904444947E+03  0.16912345909E+03  0.22713158979E+03  0.38379099820E+03  0.00000000000E+00 0.  1.
          2    1    6    6  502    0  0.12525786904E+03 -0.20321036551E+03 -0.16779894618E+03  0.29178840406E+03  0.00000000000E+00 0. -1.
          3    1    5    5  503    0 -0.16190938642E+03  0.55103997934E+02 -0.35679712228E+03  0.39567067931E+03  0.00000000000E+00 0. -1.
         -4    1    5    5    0  503 -0.32757726410E+03 -0.31171925384E+01 -0.71508862606E+03  0.78655471772E+03  0.00000000000E+00 0.  1.
         -1    1    6    6    0  502  0.76226571596E+02 -0.88152249246E+02 -0.17607422325E+02  0.11786148898E+03  0.00000000000E+00 0.  1.
<mgrwt>
<rscale>  0 0.18078088E+04</rscale>
<asrwt>0</asrwt>
<pdfrwt beam="1">  1        2 0.82374656E-01 0.18078088E+04</pdfrwt>
<pdfrwt beam="2">  1       -2 0.23476031E+00 0.18078088E+04</pdfrwt>
<totfact> 0.42789556E+00</totfact>
</mgrwt>
</event>
<event>
12    1  0.1097093E-007  0.1445269E+04  0.7818608E-02  0.8921687E-01
         -2   -1    0    0    0  501 -0.00000000000E+00  0.00000000000E+00  0.12669807387E+04  0.12669807387E+04  0.00000000000E+00 0.  1.
          2   -1    0    0  501    0  0.00000000000E+00 -0.00000000000E+00 -0.41216162969E+03  0.41216162969E+03  0.00000000000E+00 0. -1.
         23    2    1    2    0    0  0.12154087131E+03 -0.21238746380E+03  0.68191146692E+03  0.73018478800E+03  0.91027236209E+02 0.  0.
        254    2    1    2    0    0 -0.12154087131E+03  0.21238746380E+03  0.17290764207E+03  0.94895758037E+03  0.90041258236E+03 0.  0.
        -24    2    4    4    0    0  0.12305668002E+02  0.53145096924E+03 -0.32979251152E+02  0.53850593628E+03  0.79432047852E+02 0.  0.
         24    2    4    4    0    0 -0.13384653931E+03 -0.31906350544E+03  0.20588689322E+03  0.41045164409E+03  0.79779212507E+02 0.  0.
         11    1    3    3    0    0  0.21005713770E+02 -0.12822892184E+03  0.34570979255E+03  0.36932256507E+03  0.00000000000E+00 0. -1.
        -11    1    3    3    0    0  0.10053515754E+03 -0.84158541955E+02  0.33620167437E+03  0.36086222293E+03  0.00000000000E+00 0.  1.
          4    1    6    6  502    0 -0.12560972348E+03 -0.31540835379E+03  0.18261877992E+03  0.38549948256E+03  0.00000000000E+00 0. -1.
          1    1    5    5  503    0  0.23170559446E+02  0.46686949284E+03 -0.54763074625E+01  0.46747618989E+03  0.00000000000E+00 0. -1.
         -2    1    5    5    0  503 -0.10864891444E+02  0.64581476399E+02 -0.27502943689E+02  0.71029746385E+02  0.00000000000E+00 0.  1.
         -3    1    6    6    0  502 -0.82368158341E+01 -0.36551516508E+01  0.23268113302E+02  0.24952161535E+02  0.00000000000E+00 0.  1.
<mgrwt>
<rscale>  0 0.14452693E+04</rscale>
<asrwt>0</asrwt>
<pdfrwt beam="1">  1        2 0.63409482E-01 0.14452693E+04</pdfrwt>
<pdfrwt beam="2">  1       -2 0.19492011E+00 0.14452693E+04</pdfrwt>
<totfact> 0.10703980E+01</totfact>
</mgrwt>
</event>
<event>
12    1  0.1097093E-007  0.2544852E+04  0.7818608E-02  0.8387179E-01
          1   -1    0    0  501    0  0.00000000000E+00  0.00000000000E+00  0.13546405655E+04  0.13546405655E+04  0.00000000000E+00 0. -1.
         -1   -1    0    0    0  501 -0.00000000000E+00 -0.00000000000E+00 -0.11952015720E+04  0.11952015720E+04  0.00000000000E+00 0.  1.
         23    2    1    2    0    0  0.74342292276E+03  0.40728014768E+03 -0.65164989828E+03  0.10735387321E+04  0.96348630850E+02 0.  0.
        254    2    1    2    0    0 -0.74342292276E+03 -0.40728014768E+03  0.81108889177E+03  0.14763034055E+04  0.89613157172E+03 0.  0.
        -24    2    4    4    0    0 -0.85849063083E+03 -0.30159933090E+03  0.89753620394E+03  0.12805723871E+04  0.79536668903E+02 0.  0.
         24    2    4    4    0    0  0.11506770807E+03 -0.10568081678E+03 -0.86447312175E+02  0.19573101832E+03  0.80177810363E+02 0.  0.
         13    1    3    3    0    0  0.33046901599E+03  0.12865410426E+03 -0.28608112591E+03  0.45563588497E+03  0.00000000000E+00 0. -1.
        -13    1    3    3    0    0  0.41295390677E+03  0.27862604342E+03 -0.36556877236E+03  0.61790284715E+03  0.00000000000E+00 0.  1.
          4    1    6    6  502    0  0.47880382494E+02 -0.71384341316E+02 -0.84108524095E+02  0.12026013071E+03  0.00000000000E+00 0. -1.
          3    1    5    5  503    0 -0.42487622470E+03 -0.18696492530E+03  0.48138533386E+03  0.66873576939E+03  0.00000000000E+00 0. -1.
         -4    1    5    5    0  503 -0.43361440612E+03 -0.11463440560E+03  0.41615087008E+03  0.61183661775E+03  0.00000000000E+00 0.  1.
         -3    1    6    6    0  502  0.67187325572E+02 -0.34296475468E+02 -0.23387880805E+01  0.75470887611E+02  0.00000000000E+00 0.  1.
<mgrwt>
<rscale>  0 0.25448525E+04</rscale>
<asrwt>0</asrwt>
<pdfrwt beam="1">  1        1 0.20840624E+00 0.25448525E+04</pdfrwt>
<pdfrwt beam="2">  1       -1 0.18387716E+00 0.25448525E+04</pdfrwt>
<totfact> 0.14289948E+00</totfact>
</mgrwt>
</event>
<event>
12    1  0.1097093E-007  0.1615680E+04  0.7818608E-02  0.8810973E-01
         -2   -1    0    0    0  501 -0.00000000000E+00  0.00000000000E+00  0.19982894816E+03  0.19982894816E+03  0.00000000000E+00 0.  1.
          2   -1    0    0  501    0  0.00000000000E+00 -0.00000000000E+00 -0.32658192135E+04  0.32658192135E+04  0.00000000000E+00 0. -1.
         23    2    1    2    0    0 -0.17219829348E+03  0.51730211524E+03 -0.95606826004E+03  0.11043719734E+04  0.91198722970E+02 0.  0.
        254    2    1    2    0    0  0.17219829348E+03 -0.51730211524E+03 -0.21099220053E+04  0.23612761883E+04  0.90917580152E+03 0.  0.
        -24    2    4    4    0    0  0.45565865487E+02 -0.38303860257E+03 -0.21232322695E+04  0.21594708097E+04  0.80025550127E+02 0.  0.
         24    2    4    4    0    0  0.12663242800E+03 -0.13426351267E+03  0.13310264217E+02  0.20180537851E+03  0.80534371582E+02 0.  0.
         13    1    3    3    0    0 -0.17846648978E+02  0.17433943092E+03 -0.26770845857E+03  0.31996962175E+03  0.00000000000E+00 0. -1.
        -13    1    3    3    0    0 -0.15435164451E+03  0.34296268432E+03 -0.68835980147E+03  0.78440235165E+03  0.00000000000E+00 0.  1.
          4    1    6    6  502    0  0.32951671379E+01 -0.20754318719E+02 -0.22089274263E+02  0.30488291349E+02  0.00000000000E+00 0. -1.
          1    1    5    5  503    0 -0.57150306304E+01 -0.15596726971E+03 -0.68783737902E+03  0.70532170728E+03  0.00000000000E+00 0. -1.
         -2    1    5    5    0  503  0.51280896117E+02 -0.22707133286E+03 -0.14353948905E+04  0.14541491025E+04  0.00000000000E+00 0.  1.
         -3    1    6    6    0  502  0.12333726086E+03 -0.11350919395E+03  0.35399538480E+02  0.17131708716E+03  0.00000000000E+00 0.  1.
<mgrwt>
<rscale>  0 0.16156797E+04</rscale>
<asrwt>0</asrwt>
<pdfrwt beam="1">  1        2 0.50243371E+00 0.16156797E+04</pdfrwt>
<pdfrwt beam="2">  1       -2 0.30742916E-01 0.16156797E+04</pdfrwt>
<totfact> 0.11106719E+01</totfact>
</mgrwt>
</event>
<event>
12    1  0.1097093E-007  0.1198962E+04  0.7818608E-02  0.9113765E-01
         -1   -1    0    0    0  501 -0.00000000000E+00  0.00000000000E+00  0.33702485515E+03  0.33702485515E+03  0.00000000000E+00 0. -1.
          1   -1    0    0  501    0  0.00000000000E+00 -0.00000000000E+00 -0.10663237438E+04  0.10663237438E+04  0.00000000000E+00 0.  1.
         23    2    1    2    0    0 -0.11244876510E+03 -0.21448787593E+03 -0.22514775367E+03  0.34289880371E+03  0.90765108421E+02 0.  0.
        254    2    1    2    0    0  0.11244876510E+03  0.21448787593E+03 -0.50415113497E+03  0.10604497952E+04  0.90096372161E+03 0.  0.
        -24    2    4    4    0    0 -0.27719188790E+02  0.27636701490E+03  0.18942005651E+03  0.34571213795E+03  0.80559569083E+02 0.  0.
         24    2    4    4    0    0  0.14016795389E+03 -0.61879138962E+02 -0.69357119148E+03  0.71473765729E+03  0.79579130233E+02 0.  0.
         11    1    3    3    0    0 -0.26850598511E+02 -0.37594062059E+00 -0.34401278035E+02  0.43641080442E+02  0.00000000000E+00 0. -1.
        -11    1    3    3    0    0 -0.85598166585E+02 -0.21411193531E+03 -0.19074647564E+03  0.29925772327E+03  0.00000000000E+00 0.  1.
          4    1    6    6  502    0  0.37033642131E+02 -0.15897117130E+02 -0.67911014214E+02  0.78969075176E+02  0.00000000000E+00 0. -1.
          1    1    5    5  503    0 -0.54562724683E+02  0.21382575449E+03  0.13629384118E+03  0.25937338983E+03  0.00000000000E+00 0. -1.
         -4    1    5    5    0  503  0.26843535894E+02  0.62541260403E+02  0.53126215323E+02  0.86338748118E+02  0.00000000000E+00 0.  1.
         -3    1    6    6    0  502  0.10313431175E+03 -0.45982021832E+02 -0.62566017726E+03  0.63576858212E+03  0.00000000000E+00 0.  1.
<mgrwt>
<rscale>  0 0.11989622E+04</rscale>
<asrwt>0</asrwt>
<pdfrwt beam="1">  1        1 0.16404980E+00 0.11989622E+04</pdfrwt>
<pdfrwt beam="2">  1       -1 0.51849979E-01 0.11989622E+04</pdfrwt>
<totfact> 0.49823199E+01</totfact>
</mgrwt>
</event>
<event>
12    1  0.1097093E-007  0.2355490E+04  0.7818608E-02  0.8456358E-01
         -1   -1    0    0    0  501 -0.00000000000E+00  0.00000000000E+00  0.33008130543E+04  0.33008130543E+04  0.00000000000E+00 0.  1.
          1   -1    0    0  501    0  0.00000000000E+00 -0.00000000000E+00 -0.42022489600E+03  0.42022489600E+03  0.00000000000E+00 0. -1.
         23    2    1    2    0    0 -0.43912613844E+03 -0.10343657520E+03 -0.18410776754E+03  0.49588873629E+03  0.92081910049E+02 0.  0.
        254    2    1    2    0    0  0.43912613844E+03  0.10343657520E+03  0.30646959259E+04  0.32251492140E+04  0.89760539446E+03 0.  0.
        -24    2    4    4    0    0 -0.22318807814E+03  0.22290926943E+03  0.10851394587E+04  0.11329910643E+04  0.81484025069E+02 0.  0.
         24    2    4    4    0    0  0.66231421659E+03 -0.11947269423E+03  0.19795564672E+04  0.20921581497E+04  0.74485371688E+02 0.  0.
         13    1    3    3    0    0 -0.20227485830E+03 -0.91266489424E+00 -0.85484613561E+02  0.21959865759E+03  0.00000000000E+00 0.  1.
        -13    1    3    3    0    0 -0.23685128014E+03 -0.10252391031E+03 -0.98623153982E+02  0.27629007871E+03  0.00000000000E+00 0. -1.
          4    1    6    6  502    0  0.33419451244E+03 -0.47527216073E+02  0.88382850864E+03  0.94609599993E+03  0.00000000000E+00 0. -1.
          3    1    5    5  503    0 -0.72297217288E+02  0.26312066906E+02  0.29717330204E+03  0.30697098224E+03  0.00000000000E+00 0. -1.
         -4    1    5    5    0  503 -0.15089086085E+03  0.19659720253E+03  0.78796615666E+03  0.82602008207E+03  0.00000000000E+00 0.  1.
         -3    1    6    6    0  502  0.32811970415E+03 -0.71945478153E+02  0.10957279585E+04  0.11460621498E+04  0.00000000000E+00 0.  1.
<mgrwt>
<rscale>  0 0.23554905E+04</rscale>
<asrwt>0</asrwt>
<pdfrwt beam="1">  1        1 0.64649986E-01 0.23554905E+04</pdfrwt>
<pdfrwt beam="2">  1       -1 0.50781738E+00 0.23554905E+04</pdfrwt>
<totfact> 0.66745858E-02</totfact>
</mgrwt>
</event>
<event>
12    1  0.1097093E-007  0.1082320E+04  0.7818608E-02  0.9222598E-01
         -1   -1    0    0    0  501 -0.00000000000E+00  0.00000000000E+00  0.20598526703E+03  0.20598526703E+03  0.00000000000E+00 0.  1.
          1   -1    0    0  501    0  0.00000000000E+00 -0.00000000000E+00 -0.14217225976E+04  0.14217225976E+04  0.00000000000E+00 0. -1.
         23    2    1    2    0    0 -0.29367711960E+01  0.60947194260E+02 -0.40124490468E+03  0.41599700983E+03  0.91284464977E+02 0.  0.
        254    2    1    2    0    0  0.29367711960E+01 -0.60947194260E+02 -0.81449242593E+03  0.12117108548E+04  0.89505424344E+03 0.  0.
        -24    2    4    4    0    0 -0.31036101888E+03 -0.32895355582E+03 -0.30609315667E+03  0.55232705650E+03  0.82690706018E+02 0.  0.
         24    2    4    4    0    0  0.31329779008E+03  0.26800636156E+03 -0.50839926926E+03  0.65938379833E+03  0.79588073301E+02 0.  0.
         13    1    3    3    0    0  0.13303871074E+02  0.42412863662E+02 -0.38239860507E+03  0.38497342395E+03  0.00000000000E+00 0. -1.
        -13    1    3    3    0    0 -0.16240642270E+02  0.18534330598E+02 -0.18846299612E+02  0.31023585885E+02  0.00000000000E+00 0.  1.
          2    1    6    6  502    0  0.30694115564E+03  0.23731877992E+03 -0.47892499426E+03  0.61636209038E+03  0.00000000000E+00 0. -1.
          1    1    5    5  503    0 -0.29667219338E+03 -0.33238602628E+03 -0.29873227983E+03  0.53641013767E+03  0.00000000000E+00 0. -1.
         -2    1    5    5    0  503 -0.13688825501E+02  0.34324704636E+01 -0.73608768405E+01  0.15916918827E+02  0.00000000000E+00 0.  1.
         -1    1    6    6    0  502  0.63566344329E+01  0.30687581636E+02 -0.29474275001E+02  0.43021707949E+02  0.00000000000E+00 0.  1.
<mgrwt>
<rscale>  0 0.10823196E+04</rscale>
<asrwt>0</asrwt>
<pdfrwt beam="1">  1        1 0.21872656E+00 0.10823196E+04</pdfrwt>
<pdfrwt beam="2">  1       -1 0.31690041E-01 0.10823196E+04</pdfrwt>
<totfact> 0.68516538E+01</totfact>
</mgrwt>
</event>
<event>
12    1  0.1097093E-007  0.1182822E+04  0.7818608E-02  0.9128027E-01
          2   -1    0    0  501    0  0.00000000000E+00  0.00000000000E+00  0.82839767546E+03  0.82839767546E+03  0.00000000000E+00 0.  1.
         -2   -1    0    0    0  501 -0.00000000000E+00 -0.00000000000E+00 -0.42222090633E+03  0.42222090633E+03  0.00000000000E+00 0. -1.
         23    2    1    2    0    0 -0.42773318611E+02 -0.16152597112E+03 -0.76567537409E+02  0.20437128552E+03  0.89357923128E+02 0.  0.
        254    2    1    2    0    0  0.42773318611E+02  0.16152597112E+03  0.48274430654E+03  0.10462472963E+04  0.91305593658E+03 0.  0.
        -24    2    4    4    0    0 -0.14129727760E+03 -0.28142850184E+03 -0.45769582237E+02  0.32799997949E+03  0.79512323441E+02 0.  0.
         24    2    4    4    0    0  0.18407059622E+03  0.44295447297E+03  0.52851388878E+03  0.71824731679E+03  0.80384251734E+02 0.  0.
         13    1    3    3    0    0 -0.76708371769E+01 -0.37226858089E+02 -0.64215900889E+02  0.74621462283E+02  0.00000000000E+00 0. -1.
        -13    1    3    3    0    0 -0.35102481434E+02 -0.12429911304E+03 -0.12351636519E+02  0.12974982323E+03  0.00000000000E+00 0.  1.
          2    1    6    6  502    0  0.13477292926E+03  0.33595552718E+03  0.34422499250E+03  0.49952047422E+03  0.00000000000E+00 0. -1.
          3    1    5    5  503    0 -0.57617233835E+02 -0.79525127837E+02  0.19047115394E+02  0.10003391523E+03  0.00000000000E+00 0. -1.
         -4    1    5    5    0  503 -0.83680043770E+02 -0.20190337400E+03 -0.64816697631E+02  0.22796606425E+03  0.00000000000E+00 0.  1.
         -1    1    6    6    0  502  0.49297666955E+02  0.10699894578E+03  0.18428889628E+03  0.21872684257E+03  0.00000000000E+00 0.  1.
<mgrwt>
<rscale>  0 0.11828217E+04</rscale>
<asrwt>0</asrwt>
<pdfrwt beam="1">  1        2 0.12744580E+00 0.11828217E+04</pdfrwt>
<pdfrwt beam="2">  1       -2 0.64957063E-01 0.11828217E+04</pdfrwt>
<totfact> 0.71014014E+01</totfact>
</mgrwt>
</event>
<event>
12    1  0.1097093E-007  0.2047855E+04  0.7818608E-02  0.8584568E-01
         -2   -1    0    0    0  501 -0.00000000000E+00  0.00000000000E+00  0.39521524719E+03  0.39521524719E+03  0.00000000000E+00 0. -1.
          2   -1    0    0  501    0  0.00000000000E+00 -0.00000000000E+00 -0.26528013495E+04  0.26528013495E+04  0.00000000000E+00 0.  1.
         23    2    1    2    0    0  0.39902824111E+03 -0.10322565775E+03 -0.20022782459E+04  0.20466204070E+04  0.98274323187E+02 0.  0.
        254    2    1    2    0    0 -0.39902824111E+03  0.10322565775E+03 -0.25530785646E+03  0.10013961898E+04  0.87620383113E+03 0.  0.
        -24    2    4    4    0    0  0.10385857758E+03 -0.27398357126E+03  0.32239606348E+02  0.30542764513E+03  0.79956567803E+02 0.  0.
         24    2    4    4    0    0 -0.50288681869E+03  0.37720922900E+03 -0.28754746280E+03  0.69596854464E+03  0.80664223257E+02 0.  0.
         13    1    3    3    0    0  0.25755943916E+03 -0.97883555297E+02 -0.14836052903E+04  0.15089740596E+04  0.00000000000E+00 0.  1.
        -13    1    3    3    0    0  0.14146880195E+03 -0.53421024510E+01 -0.51867295560E+03  0.53764634738E+03  0.00000000000E+00 0. -1.
          4    1    6    6  502    0 -0.14934224964E+03  0.15664341659E+03 -0.11342880802E+03  0.24434885304E+03  0.00000000000E+00 0. -1.
          1    1    5    5  503    0  0.75496730560E+02 -0.23422100052E+03  0.54024745787E+02  0.25194822200E+03  0.00000000000E+00 0. -1.
         -2    1    5    5    0  503  0.28361847017E+02 -0.39762570732E+02 -0.21785139439E+02  0.53479423125E+02  0.00000000000E+00 0.  1.
         -3    1    6    6    0  502 -0.35354456905E+03  0.22056581241E+03 -0.17411865478E+03  0.45161969161E+03  0.00000000000E+00 0.  1.
<mgrwt>
<rscale>  0 0.20478550E+04</rscale>
<asrwt>0</asrwt>
<pdfrwt beam="1">  1        2 0.40812328E+00 0.20478550E+04</pdfrwt>
<pdfrwt beam="2">  1       -2 0.60802347E-01 0.20478550E+04</pdfrwt>
<totfact> 0.66063597E+00</totfact>
</mgrwt>
</event>
<event>
12    1  0.1097093E-007  0.1386138E+04  0.7818608E-02  0.8963914E-01
          3   -1    0    0  501    0  0.00000000000E+00  0.00000000000E+00  0.10622982388E+04  0.10622982388E+04  0.00000000000E+00 0. -1.
         -3   -1    0    0    0  501 -0.00000000000E+00 -0.00000000000E+00 -0.45217516634E+03  0.45217516634E+03  0.00000000000E+00 0.  1.
         23    2    1    2    0    0  0.12618649190E+01 -0.21204719858E+03 -0.18518704142E+03  0.29304029306E+03  0.81318917341E+02 0.  0.
        254    2    1    2    0    0 -0.12618649190E+01  0.21204719858E+03  0.79531011390E+03  0.12214331121E+04  0.90244947966E+03 0.  0.
        -24    2    4    4    0    0 -0.15164668678E+02 -0.34108684802E+03  0.19897226327E+03  0.40388322581E+03  0.83435564791E+02 0.  0.
         24    2    4    4    0    0  0.13902803759E+02  0.55313404659E+03  0.59633785063E+03  0.81754988630E+03  0.81353690937E+02 0.  0.
         13    1    3    3    0    0  0.39609554184E+02 -0.75336951438E+02 -0.70514526451E+02  0.11052995737E+03  0.00000000000E+00 0. -1.
        -13    1    3    3    0    0 -0.38347689265E+02 -0.13671024714E+03 -0.11467251497E+03  0.18251033569E+03  0.00000000000E+00 0.  1.
          2    1    6    6  502    0 -0.21487215714E+02  0.44373204527E+03  0.47663208636E+03  0.65156578654E+03  0.00000000000E+00 0. -1.
          3    1    5    5  503    0 -0.97194835668E+00 -0.30542124052E+03  0.14615811316E+03  0.33859307861E+03  0.00000000000E+00 0. -1.
         -4    1    5    5    0  503 -0.14192720321E+02 -0.35665607496E+02  0.52814150114E+02  0.65290147193E+02  0.00000000000E+00 0.  1.
         -1    1    6    6    0  502  0.35390019472E+02  0.10940200133E+03  0.11970576428E+03  0.16598409976E+03  0.00000000000E+00 0.  1.
<mgrwt>
<rscale>  0 0.13861384E+04</rscale>
<asrwt>0</asrwt>
<pdfrwt beam="1">  1        3 0.16343050E+00 0.13861384E+04</pdfrwt>
<pdfrwt beam="2">  1       -3 0.69565411E-01 0.13861384E+04</pdfrwt>
<totfact> 0.13038775E+00</totfact>
</mgrwt>
</event>
<event>
12    1  0.1097093E-007  0.2457790E+04  0.7818608E-02  0.8418179E-01
          1   -1    0    0  501    0  0.00000000000E+00  0.00000000000E+00  0.16133434558E+04  0.16133434558E+04  0.00000000000E+00 0. -1.
         -1   -1    0    0    0  501 -0.00000000000E+00 -0.00000000000E+00 -0.93605790118E+03  0.93605790118E+03  0.00000000000E+00 0.  1.
         23    2    1    2    0    0 -0.10012133687E+03  0.17028584572E+03  0.13789404916E+04  0.13959722309E+04  0.90774658995E+02 0.  0.
        254    2    1    2    0    0  0.10012133687E+03 -0.17028584572E+03 -0.70165493697E+03  0.11534291261E+04  0.89390018849E+03 0.  0.
        -24    2    4    4    0    0  0.32806780848E+03  0.30116078308E+02  0.46538396919E+02  0.34213147512E+03  0.79703567968E+02 0.  0.
         24    2    4    4    0    0 -0.22794647161E+03 -0.20040192402E+03 -0.74819333389E+03  0.81129765097E+03  0.79310078265E+02 0.  0.
         13    1    3    3    0    0 -0.10878197604E+03  0.14767001104E+03  0.13125488289E+04  0.13253016180E+04  0.00000000000E+00 0. -1.
        -13    1    3    3    0    0  0.86606391691E+01  0.22615834675E+02  0.66391662701E+02  0.70670612882E+02  0.00000000000E+00 0.  1.
          4    1    6    6  502    0 -0.35544970964E+02 -0.15887284915E-01 -0.73199538876E+02  0.81373323054E+02  0.00000000000E+00 0. -1.
          3    1    5    5  503    0  0.45273805703E+02 -0.25360698186E+01 -0.20356511258E+02  0.49704493595E+02  0.00000000000E+00 0. -1.
         -4    1    5    5    0  503  0.28279400278E+03  0.32652148126E+02  0.66894908177E+02  0.29242698152E+03  0.00000000000E+00 0.  1.
         -3    1    6    6    0  502 -0.19240150065E+03 -0.20038603674E+03 -0.67499379501E+03  0.72992432791E+03  0.00000000000E+00 0.  1.
<mgrwt>
<rscale>  0 0.24577900E+04</rscale>
<asrwt>0</asrwt>
<pdfrwt beam="1">  1        1 0.24820668E+00 0.24577900E+04</pdfrwt>
<pdfrwt beam="2">  1       -1 0.14400891E+00 0.24577900E+04</pdfrwt>
<totfact> 0.18955756E+00</totfact>
</mgrwt>
</event>
<event>
12    1  0.1097093E-007  0.2196780E+04  0.7818608E-02  0.8519769E-01
         -1   -1    0    0    0  501 -0.00000000000E+00  0.00000000000E+00  0.16252021220E+04  0.16252021220E+04  0.00000000000E+00 0.  1.
          1   -1    0    0  501    0  0.00000000000E+00 -0.00000000000E+00 -0.74234516244E+03  0.74234516244E+03  0.00000000000E+00 0. -1.
         23    2    1    2    0    0 -0.15756816331E+03 -0.89339520129E+03  0.47279510321E+03  0.10271408920E+04  0.92198104845E+02 0.  0.
        254    2    1    2    0    0  0.15756816331E+03  0.89339520129E+03  0.41006185640E+03  0.13404063925E+04  0.89752763704E+03 0.  0.
        -24    2    4    4    0    0  0.78824783040E+02 -0.10906588552E+03 -0.12288506699E+03  0.19909932037E+03  0.80194051384E+02 0.  0.
         24    2    4    4    0    0  0.78743380267E+02  0.10024610868E+04  0.53294692339E+03  0.11413070722E+04  0.86143248591E+02 0.  0.
         13    1    3    3    0    0 -0.87701798341E+01 -0.16462925123E+03  0.12000902899E+03  0.20391633935E+03  0.00000000000E+00 0. -1.
        -13    1    3    3    0    0 -0.14879798347E+03 -0.72876595006E+03  0.35278607422E+03  0.82322455261E+03  0.00000000000E+00 0.  1.
          2    1    6    6  502    0  0.66239279099E+02  0.36049521160E+03  0.21290987188E+03  0.42388094227E+03  0.00000000000E+00 0. -1.
          1    1    5    5  503    0 -0.84298537344E+00  0.10534673036E+02 -0.90990479598E+00  0.10607444888E+02  0.00000000000E+00 0. -1.
         -2    1    5    5    0  503  0.79667768414E+02 -0.11960055856E+03 -0.12197516219E+03  0.18849187548E+03  0.00000000000E+00 0.  1.
         -1    1    6    6    0  502  0.12504101168E+02  0.64196587522E+03  0.32003705151E+03  0.71742612988E+03  0.00000000000E+00 0.  1.
<mgrwt>
<rscale>  0 0.21967803E+04</rscale>
<asrwt>0</asrwt>
<pdfrwt beam="1">  1        1 0.11420695E+00 0.21967803E+04</pdfrwt>
<pdfrwt beam="2">  1       -1 0.25003109E+00 0.21967803E+04</pdfrwt>
<totfact> 0.15816121E+00</totfact>
</mgrwt>
</event>
<event>
12    1  0.1097093E-007  0.1825739E+04  0.7818608E-02  0.8692730E-01
          2   -1    0    0  501    0  0.00000000000E+00  0.00000000000E+00  0.35987521917E+04  0.35987521917E+04  0.00000000000E+00 0.  1.
         -2   -1    0    0    0  501 -0.00000000000E+00 -0.00000000000E+00 -0.23156109405E+03  0.23156109405E+03  0.00000000000E+00 0. -1.
         23    2    1    2    0    0 -0.16288191960E+03 -0.30994159763E+03  0.42079308819E+02  0.36779627574E+03  0.10444672584E+03 0.  0.
        254    2    1    2    0    0  0.16288191960E+03  0.30994159763E+03  0.33251117888E+04  0.34625170100E+04  0.90003406755E+03 0.  0.
        -24    2    4    4    0    0  0.22359937228E+03 -0.27246133084E+03  0.99407315902E+03  0.10577404538E+04  0.80009786655E+02 0.  0.
         24    2    4    4    0    0 -0.60717452679E+02  0.58240292848E+03  0.23310386298E+04  0.24047765562E+04  0.79557599631E+02 0.  0.
         13    1    3    3    0    0 -0.12271856029E+03 -0.14531492179E+03 -0.10159961803E+02  0.19047177312E+03  0.00000000000E+00 0. -1.
        -13    1    3    3    0    0 -0.40163359312E+02 -0.16462667585E+03  0.52239270622E+02  0.17732450261E+03  0.00000000000E+00 0.  1.
          4    1    6    6  502    0 -0.50044393830E+02  0.55926228415E+03  0.21571259909E+04  0.22290067933E+04  0.00000000000E+00 0. -1.
          1    1    5    5  503    0  0.22712227365E+03 -0.27230263313E+03  0.99238311863E+03  0.10538299224E+04  0.00000000000E+00 0. -1.
         -2    1    5    5    0  503 -0.35229013746E+01 -0.15869771349E+00  0.16900403893E+01  0.39105313676E+01  0.00000000000E+00 0.  1.
         -3    1    6    6    0  502 -0.10673058849E+02  0.23140644323E+02  0.17391263889E+03  0.17576976296E+03  0.00000000000E+00 0.  1.
<mgrwt>
<rscale>  0 0.18257393E+04</rscale>
<asrwt>0</asrwt>
<pdfrwt beam="1">  1        2 0.55365414E+00 0.18257393E+04</pdfrwt>
<pdfrwt beam="2">  1       -2 0.35624786E-01 0.18257393E+04</pdfrwt>
<totfact> 0.48697247E+00</totfact>
</mgrwt>
</event>
<event>
12    1  0.1097093E-007  0.1633693E+04  0.7818608E-02  0.8800112E-01
         -2   -1    0    0    0  501 -0.00000000000E+00  0.00000000000E+00  0.35032347851E+03  0.35032347851E+03  0.00000000000E+00 0.  1.
          2   -1    0    0  501    0  0.00000000000E+00 -0.00000000000E+00 -0.19046345611E+04  0.19046345611E+04  0.00000000000E+00 0. -1.
         23    2    1    2    0    0 -0.35808285413E+03  0.16327238880E+03 -0.10724911234E+04  0.11463499276E+04  0.94866977315E+02 0.  0.
        254    2    1    2    0    0  0.35808285413E+03 -0.16327238880E+03 -0.48181995917E+03  0.11086081120E+04  0.91759482864E+03 0.  0.
        -24    2    4    4    0    0 -0.26642142381E+03 -0.23596023912E+03 -0.17467365029E+03  0.40433395052E+03  0.79482387546E+02 0.  0.
         24    2    4    4    0    0  0.62450427793E+03  0.72687850318E+02 -0.30714630888E+03  0.70427416147E+03  0.79838103122E+02 0.  0.
         11    1    3    3    0    0 -0.12235614199E+03  0.15989924321E+02 -0.26404969643E+03  0.29146002359E+03  0.00000000000E+00 0.  1.
        -11    1    3    3    0    0 -0.23572671214E+03  0.14728246448E+03 -0.80844142700E+03  0.85488990405E+03  0.00000000000E+00 0. -1.
          2    1    6    6  502    0  0.39127647296E+03  0.40248538836E+02 -0.14896613355E+03  0.42060448418E+03  0.00000000000E+00 0. -1.
          3    1    5    5  503    0 -0.15478122390E+03 -0.12534115585E+03 -0.13983937797E+03  0.24335711260E+03  0.00000000000E+00 0. -1.
         -4    1    5    5    0  503 -0.11164019991E+03 -0.11061908327E+03 -0.34834272317E+02  0.16097683792E+03  0.00000000000E+00 0.  1.
         -1    1    6    6    0  502  0.23322780498E+03  0.32439311482E+02 -0.15818017534E+03  0.28366967729E+03  0.00000000000E+00 0.  1.
<mgrwt>
<rscale>  0 0.16336930E+04</rscale>
<asrwt>0</asrwt>
<pdfrwt beam="1">  1        2 0.29302070E+00 0.16336930E+04</pdfrwt>
<pdfrwt beam="2">  1       -2 0.53895920E-01 0.16336930E+04</pdfrwt>
<totfact> 0.23413170E+01</totfact>
</mgrwt>
</event>
<event>
12    1  0.1097093E-007  0.2153799E+04  0.7818608E-02  0.8537908E-01
          2   -1    0    0  501    0  0.00000000000E+00  0.00000000000E+00  0.97707266878E+03  0.97707266878E+03  0.00000000000E+00 0. -1.
         -2   -1    0    0    0  501 -0.00000000000E+00 -0.00000000000E+00 -0.11869259230E+04  0.11869259230E+04  0.00000000000E+00 0.  1.
         23    2    1    2    0    0  0.44004867085E+03 -0.26715997498E+03  0.64001340864E+03  0.82628244465E+03  0.90045711384E+02 0.  0.
        254    2    1    2    0    0 -0.44004867085E+03  0.26715997498E+03 -0.84986666288E+03  0.13377161471E+04  0.89565275677E+03 0.  0.
        -24    2    4    4    0    0 -0.65876410298E+03  0.24036181197E+02 -0.39672838412E+03  0.77347697081E+03  0.79531957221E+02 0.  0.
         24    2    4    4    0    0  0.21871543213E+03  0.24312379378E+03 -0.45313827876E+03  0.56423917634E+03  0.78012364913E+02 0.  0.
         11    1    3    3    0    0  0.43861833214E+03 -0.25557292754E+03  0.63638340809E+03  0.81405614344E+03  0.00000000000E+00 0. -1.
        -11    1    3    3    0    0  0.14303387105E+01 -0.11587047438E+02  0.36300005547E+01  0.12226301206E+02  0.00000000000E+00 0.  1.
          2    1    6    6  502    0  0.22221260028E+03  0.24346178203E+03 -0.43509436105E+03  0.54585637493E+03  0.00000000000E+00 0. -1.
          1    1    5    5  503    0 -0.12068258797E+03 -0.15617572170E+02 -0.10139115351E+03  0.15839306049E+03  0.00000000000E+00 0. -1.
         -2    1    5    5    0  503 -0.53808151501E+03  0.39653753367E+02 -0.29533723061E+03  0.61508391032E+03  0.00000000000E+00 0.  1.
         -1    1    6    6    0  502 -0.34971681503E+01 -0.33798825341E+00 -0.18043917713E+02  0.18382801407E+02  0.00000000000E+00 0.  1.
<mgrwt>
<rscale>  0 0.21537993E+04</rscale>
<asrwt>0</asrwt>
<pdfrwt beam="1">  1        2 0.15031887E+00 0.21537993E+04</pdfrwt>
<pdfrwt beam="2">  1       -2 0.18260399E+00 0.21537993E+04</pdfrwt>
<totfact> 0.41597749E+00</totfact>
</mgrwt>
</event>
<event>
12    1  0.1117768E-007  0.1582834E+04  0.7818608E-02  0.8831164E-01
         -1   -1    0    0    0  501 -0.00000000000E+00  0.00000000000E+00  0.59450410040E+03  0.59450410040E+03  0.00000000000E+00 0.  1.
          1   -1    0    0  501    0  0.00000000000E+00 -0.00000000000E+00 -0.10535515043E+04  0.10535515043E+04  0.00000000000E+00 0. -1.
         23    2    1    2    0    0  0.51708903312E+03 -0.15320918996E+02 -0.27455812019E+03  0.59264603960E+03  0.90726887736E+02 0.  0.
        254    2    1    2    0    0 -0.51708903312E+03  0.15320918996E+02 -0.18448928366E+03  0.10554095651E+04  0.90124206265E+03 0.  0.
        -24    2    4    4    0    0  0.19967504904E+03  0.19828325924E+03 -0.39796299875E+02  0.29755810033E+03  0.88151582439E+02 0.  0.
         24    2    4    4    0    0 -0.71676408216E+03 -0.18296234025E+03 -0.14469298379E+03  0.75785146472E+03  0.78592719754E+02 0.  0.
         11    1    3    3    0    0  0.43197453956E+03 -0.20280063869E+02 -0.18928436319E+03  0.47206128200E+03  0.00000000000E+00 0. -1.
        -11    1    3    3    0    0  0.85114493565E+02  0.49591448729E+01 -0.85273756997E+02  0.12058475760E+03  0.00000000000E+00 0.  1.
          4    1    6    6  502    0 -0.13639890839E+03 -0.71442584734E+01 -0.41257491775E+02  0.14268105434E+03  0.00000000000E+00 0. -1.
          3    1    5    5  503    0 -0.38736105917E+01  0.24462188742E+02  0.72088206083E+01  0.25794779154E+02  0.00000000000E+00 0. -1.
         -4    1    5    5    0  503  0.20354865963E+03  0.17382107050E+03 -0.47005120483E+02  0.27176332118E+03  0.00000000000E+00 0.  1.
         -3    1    6    6    0  502 -0.58036517377E+03 -0.17581808177E+03 -0.10343549201E+03  0.61517041038E+03  0.00000000000E+00 0.  1.
<mgrwt>
<rscale>  0 0.15828338E+04</rscale>
<asrwt>0</asrwt>
<pdfrwt beam="1">  1        1 0.16208485E+00 0.15828338E+04</pdfrwt>
<pdfrwt beam="2">  1       -1 0.91462170E-01 0.15828338E+04</pdfrwt>
<totfact> 0.15405688E+01</totfact>
</mgrwt>
</event>
<event>
12    1  0.1097093E-007  0.1308129E+04  0.7818608E-02  0.9023144E-01
         -1   -1    0    0    0  501 -0.00000000000E+00  0.00000000000E+00  0.84811421722E+03  0.84811421722E+03  0.00000000000E+00 0. -1.
          1   -1    0    0  501    0  0.00000000000E+00 -0.00000000000E+00 -0.50441339181E+03  0.50441339181E+03  0.00000000000E+00 0.  1.
         23    2    1    2    0    0 -0.15891230313E+03 -0.13911417039E+03 -0.18551022499E+03  0.29492924469E+03  0.89237566685E+02 0.  0.
        254    2    1    2    0    0  0.15891230313E+03  0.13911417039E+03  0.52921105040E+03  0.10575983643E+04  0.89097928815E+03 0.  0.
        -24    2    4    4    0    0 -0.35150733929E+03 -0.52574233803E+02  0.19435119019E+03  0.41283255602E+03  0.79604488228E+02 0.  0.
         24    2    4    4    0    0  0.51041964241E+03  0.19168840419E+03  0.33485986020E+03  0.64476580833E+03  0.79493181792E+02 0.  0.
         11    1    3    3    0    0 -0.12212898400E+03 -0.53736792206E+02 -0.85955783182E+02  0.15871839286E+03  0.00000000000E+00 0. -1.
        -11    1    3    3    0    0 -0.36783319124E+02 -0.85377378185E+02 -0.99554441811E+02  0.13621085183E+03  0.00000000000E+00 0.  1.
          4    1    6    6  502    0  0.15434018885E+02  0.13314711459E+02  0.31238777107E+02  0.37300826737E+02  0.00000000000E+00 0. -1.
          1    1    5    5  503    0 -0.27969218707E+03 -0.59015273311E+02  0.18409790123E+03  0.34000376355E+03  0.00000000000E+00 0. -1.
         -2    1    5    5    0  503 -0.71815152213E+02  0.64410395079E+01  0.10253288968E+02  0.72828792465E+02  0.00000000000E+00 0.  1.
         -3    1    6    6    0  502  0.49498562353E+03  0.17837369273E+03  0.30362108310E+03  0.60746498159E+03  0.00000000000E+00 0.  1.
<mgrwt>
<rscale>  0 0.13081287E+04</rscale>
<asrwt>0</asrwt>
<pdfrwt beam="1">  1        1 0.77602060E-01 0.13081287E+04</pdfrwt>
<pdfrwt beam="2">  1       -1 0.13047911E+00 0.13081287E+04</pdfrwt>
<totfact> 0.21608564E+01</totfact>
</mgrwt>
</event>
<event>
12    1  0.1097093E-007  0.3759966E+04  0.7818608E-02  0.8054801E-01
          1   -1    0    0  501    0  0.00000000000E+00  0.00000000000E+00  0.16398637101E+04  0.16398637101E+04  0.00000000000E+00 0. -1.
         -1   -1    0    0    0  501 -0.00000000000E+00 -0.00000000000E+00 -0.21552622949E+04  0.21552622949E+04  0.00000000000E+00 0.  1.
         23    2    1    2    0    0  0.94568736861E+03 -0.13936159434E+04  0.30964610877E+03  0.17148425514E+04  0.91182600067E+02 0.  0.
        254    2    1    2    0    0 -0.94568736861E+03  0.13936159434E+04 -0.82504469355E+03  0.20802834537E+04  0.90021692076E+03 0.  0.
        -24    2    4    4    0    0  0.13049611370E+03  0.18357634203E+02 -0.11211425884E+03  0.19239097053E+03  0.84133465890E+02 0.  0.
         24    2    4    4    0    0 -0.10761834823E+04  0.13752583092E+04 -0.71293043471E+03  0.18878924831E+04  0.79761635840E+02 0.  0.
         11    1    3    3    0    0  0.16766845310E+03 -0.20597645145E+03  0.24660764240E+02  0.26673425354E+03  0.00000000000E+00 0. -1.
        -11    1    3    3    0    0  0.77801891550E+03 -0.11876394919E+04  0.28498534453E+03  0.14481082979E+04  0.00000000000E+00 0.  1.
          2    1    6    6  502    0 -0.30962472720E+02  0.48114887093E+02 -0.96287880913E+01  0.58020949984E+02  0.00000000000E+00 0. -1.
          3    1    5    5  503    0  0.64294456567E+02  0.45274985160E+01 -0.10655489689E+03  0.12453200970E+03  0.00000000000E+00 0. -1.
         -4    1    5    5    0  503  0.66201657132E+02  0.13830135687E+02 -0.55593619486E+01  0.67858960834E+02  0.00000000000E+00 0.  1.
         -1    1    6    6    0  502 -0.10452210096E+04  0.13271434221E+04 -0.70330164662E+03  0.18298715332E+04  0.00000000000E+00 0.  1.
<mgrwt>
<rscale>  0 0.37599662E+04</rscale>
<asrwt>0</asrwt>
<pdfrwt beam="1">  1        1 0.25228673E+00 0.37599662E+04</pdfrwt>
<pdfrwt beam="2">  1       -1 0.33157881E+00 0.37599662E+04</pdfrwt>
<totfact> 0.85953694E-02</totfact>
</mgrwt>
</event>
<event>
12    1  0.1097093E-007  0.3497001E+04  0.7818608E-02  0.8114501E-01
          1   -1    0    0  501    0  0.00000000000E+00  0.00000000000E+00  0.23402075329E+04  0.23402075329E+04  0.00000000000E+00 0. -1.
         -1   -1    0    0    0  501 -0.00000000000E+00 -0.00000000000E+00 -0.13064029661E+04  0.13064029661E+04  0.00000000000E+00 0.  1.
         23    2    1    2    0    0 -0.10981353551E+04  0.91804012866E+03  0.13020797670E+04  0.19370985459E+04  0.90775111579E+02 0.  0.
        254    2    1    2    0    0  0.10981353551E+04 -0.91804012866E+03 -0.26827520020E+03  0.17095119530E+04  0.89541085467E+03 0.  0.
        -24    2    4    4    0    0  0.11560193398E+04 -0.64340746839E+03 -0.19232223366E+02  0.13255687733E+04  0.80055041867E+02 0.  0.
         24    2    4    4    0    0 -0.57883984762E+02 -0.27463266027E+03 -0.24904297684E+03  0.38394317980E+03  0.81340686146E+02 0.  0.
         11    1    3    3    0    0 -0.70002583473E+03  0.64084949523E+03  0.86799260597E+03  0.12861319562E+04  0.00000000000E+00 0.  1.
        -11    1    3    3    0    0 -0.39810952035E+03  0.27719063343E+03  0.43408716104E+03  0.65096658965E+03  0.00000000000E+00 0. -1.
          2    1    6    6  502    0 -0.29354542041E+02 -0.25557740180E+03 -0.21104242040E+03  0.33274675153E+03  0.00000000000E+00 0. -1.
          3    1    5    5  503    0  0.71802252549E+03 -0.41025433124E+03  0.25625018887E+02  0.82735820840E+03  0.00000000000E+00 0. -1.
         -4    1    5    5    0  503  0.43799681435E+03 -0.23315313714E+03 -0.44857242253E+02  0.49821056485E+03  0.00000000000E+00 0.  1.
         -1    1    6    6    0  502 -0.28529442721E+02 -0.19055258471E+02 -0.38000556442E+02  0.51196428266E+02  0.00000000000E+00 0.  1.
<mgrwt>
<rscale>  0 0.34970010E+04</rscale>
<asrwt>0</asrwt>
<pdfrwt beam="1">  1        1 0.36003193E+00 0.34970010E+04</pdfrwt>
<pdfrwt beam="2">  1       -1 0.20098507E+00 0.34970010E+04</pdfrwt>
<totfact> 0.21117479E-01</totfact>
</mgrwt>
</event>
<event>
12    1  0.1097093E-007  0.2405950E+04  0.7818608E-02  0.8437279E-01
          1   -1    0    0  501    0  0.00000000000E+00  0.00000000000E+00  0.18231627417E+04  0.18231627417E+04  0.00000000000E+00 0. -1.
         -1   -1    0    0    0  501 -0.00000000000E+00 -0.00000000000E+00 -0.79375718848E+03  0.79375718848E+03  0.00000000000E+00 0.  1.
         23    2    1    2    0    0 -0.11985003920E+02  0.67848378964E+03 -0.40901525680E+03  0.79765083736E+03  0.92029804569E+02 0.  0.
        254    2    1    2    0    0  0.11985003920E+02 -0.67848378964E+03  0.14384208101E+04  0.18192690929E+04  0.88329027635E+03 0.  0.
        -24    2    4    4    0    0  0.38988170082E+03 -0.59769716530E+03  0.97407684629E+03  0.12101171044E+04  0.79423308422E+02 0.  0.
         24    2    4    4    0    0 -0.37789669690E+03 -0.80786624344E+02  0.46434396378E+03  0.60915198844E+03  0.78220432857E+02 0.  0.
         13    1    3    3    0    0 -0.85684943599E+01  0.20136545446E+03 -0.17166064767E+03  0.26474297593E+03  0.00000000000E+00 0. -1.
        -13    1    3    3    0    0 -0.34165095602E+01  0.47711833518E+03 -0.23735460913E+03  0.53290786144E+03  0.00000000000E+00 0.  1.
          4    1    6    6  502    0 -0.13273300719E+03 -0.65644388476E+02  0.15904162840E+03  0.21730503100E+03  0.00000000000E+00 0. -1.
          3    1    5    5  503    0  0.57119727287E+02 -0.11993189024E+03  0.14069878001E+03  0.19350056393E+03  0.00000000000E+00 0. -1.
         -4    1    5    5    0  503  0.33276197353E+03 -0.47776527505E+03  0.83337806627E+03  0.10166165405E+04  0.00000000000E+00 0.  1.
         -1    1    6    6    0  502 -0.24516368971E+03 -0.15142235868E+02  0.30530233538E+03  0.39184695743E+03  0.00000000000E+00 0.  1.
<mgrwt>
<rscale>  0 0.24059497E+04</rscale>
<asrwt>0</asrwt>
<pdfrwt beam="1">  1        1 0.28048657E+00 0.24059497E+04</pdfrwt>
<pdfrwt beam="2">  1       -1 0.12211649E+00 0.24059497E+04</pdfrwt>
<totfact> 0.20865321E+00</totfact>
</mgrwt>
</event>
<event>
12    1  0.1097093E-007  0.1505167E+04  0.7818608E-02  0.8881024E-01
          2   -1    0    0  501    0  0.00000000000E+00  0.00000000000E+00  0.77536624986E+03  0.77536624986E+03  0.00000000000E+00 0. -1.
         -2   -1    0    0    0  501 -0.00000000000E+00 -0.00000000000E+00 -0.73047035638E+03  0.73047035638E+03  0.00000000000E+00 0.  1.
         23    2    1    2    0    0  0.13668185121E+03 -0.14013215180E+03  0.44873091023E+03  0.49778254770E+03  0.90050466892E+02 0.  0.
        254    2    1    2    0    0 -0.13668185121E+03  0.14013215180E+03 -0.40383501675E+03  0.10080540585E+04  0.90264683889E+03 0.  0.
        -24    2    4    4    0    0 -0.26482828693E+02  0.49290349932E+03 -0.72019603952E+02  0.50521608566E+03  0.80007937109E+02 0.  0.
         24    2    4    4    0    0 -0.11019902252E+03 -0.35277134752E+03 -0.33181541280E+03  0.50283797288E+03  0.78441765667E+02 0.  0.
         11    1    3    3    0    0  0.13767609312E+03 -0.10671499879E+03  0.41599175456E+03  0.45098995271E+03  0.00000000000E+00 0. -1.
        -11    1    3    3    0    0 -0.99424190495E+00 -0.33417153016E+02  0.32739155662E+02  0.46792594993E+02  0.00000000000E+00 0.  1.
          4    1    6    6  502    0 -0.10143442520E+03 -0.34969635928E+03 -0.33306480391E+03  0.49346595618E+03  0.00000000000E+00 0. -1.
          3    1    5    5  503    0 -0.44682847011E+02  0.20846664760E+03 -0.52261888873E+02  0.21951356452E+03  0.00000000000E+00 0. -1.
         -2    1    5    5    0  503  0.18200018318E+02  0.28443685172E+03 -0.19757715079E+02  0.28570252114E+03  0.00000000000E+00 0.  1.
         -3    1    6    6    0  502 -0.87645973166E+01 -0.30749882382E+01  0.12493911057E+01  0.93720166945E+01  0.00000000000E+00 0.  1.
<mgrwt>
<rscale>  0 0.15051672E+04</rscale>
<asrwt>0</asrwt>
<pdfrwt beam="1">  1        2 0.11928712E+00 0.15051672E+04</pdfrwt>
<pdfrwt beam="2">  1       -2 0.11238005E+00 0.15051672E+04</pdfrwt>
<totfact> 0.21629866E+01</totfact>
</mgrwt>
</event>
<event>
12    1  0.1097093E-007  0.2412976E+04  0.7818608E-02  0.8434662E-01
          2   -1    0    0  501    0  0.00000000000E+00  0.00000000000E+00  0.16125834793E+04  0.16125834793E+04  0.00000000000E+00 0. -1.
         -2   -1    0    0    0  501 -0.00000000000E+00 -0.00000000000E+00 -0.90265900136E+03  0.90265900136E+03  0.00000000000E+00 0.  1.
         23    2    1    2    0    0 -0.37251464770E+03  0.29499377155E+02  0.13191007239E+04  0.13740310912E+04  0.91089756289E+02 0.  0.
        254    2    1    2    0    0  0.37251464770E+03 -0.29499377155E+02 -0.60917624599E+03  0.11412113895E+04  0.88973611861E+03 0.  0.
        -24    2    4    4    0    0  0.14628009942E+03  0.25006113130E+03  0.12070135342E+03  0.32369192245E+03  0.79241447924E+02 0.  0.
         24    2    4    4    0    0  0.22623454827E+03 -0.27956050846E+03 -0.72987759941E+03  0.81751946701E+03  0.79250363425E+02 0.  0.
         11    1    3    3    0    0 -0.20226591586E+03  0.62865032708E+01  0.86894332595E+03  0.89219590032E+03  0.00000000000E+00 0.  1.
        -11    1    3    3    0    0 -0.17024873184E+03  0.23212873884E+02  0.45015739795E+03  0.48183519084E+03  0.00000000000E+00 0. -1.
          4    1    6    6  502    0  0.56955391156E+02 -0.24740063196E+02 -0.11236312863E+03  0.12838013859E+03  0.00000000000E+00 0. -1.
          1    1    5    5  503    0  0.95485162732E+02  0.22118817877E+03  0.10737901861E+03  0.26376482019E+03  0.00000000000E+00 0. -1.
         -2    1    5    5    0  503  0.50794936692E+02  0.28872952529E+02  0.13322334809E+02  0.59927102267E+02  0.00000000000E+00 0.  1.
         -3    1    6    6    0  502  0.16927915711E+03 -0.25482044526E+03 -0.61751447077E+03  0.68913932842E+03  0.00000000000E+00 0.  1.
<mgrwt>
<rscale>  0 0.24129758E+04</rscale>
<asrwt>0</asrwt>
<pdfrwt beam="1">  1        2 0.24808977E+00 0.24129758E+04</pdfrwt>
<pdfrwt beam="2">  1       -2 0.13887062E+00 0.24129758E+04</pdfrwt>
<totfact> 0.36158905E+00</totfact>
</mgrwt>
</event>
<event>
12    1  0.1097093E-007  0.2609222E+04  0.7818608E-02  0.8365075E-01
          1   -1    0    0  501    0  0.00000000000E+00  0.00000000000E+00  0.12267525743E+04  0.12267525743E+04  0.00000000000E+00 0. -1.
         -1   -1    0    0    0  501 -0.00000000000E+00 -0.00000000000E+00 -0.13874112048E+04  0.13874112048E+04  0.00000000000E+00 0.  1.
         23    2    1    2    0    0 -0.54486943381E+03 -0.66795407428E+03  0.62999365386E+03  0.10715961062E+04  0.91547067725E+02 0.  0.
        254    2    1    2    0    0  0.54486943381E+03  0.66795407428E+03 -0.79065228435E+03  0.15425676730E+04  0.10056533427E+04 0.  0.
        -24    2    4    4    0    0  0.72500262429E+03  0.12098059148E+03 -0.38425347086E+03  0.83302043739E+03  0.77506196569E+02 0.  0.
         24    2    4    4    0    0 -0.18013319048E+03  0.54697348280E+03 -0.40639881349E+03  0.70954723559E+03  0.81665945851E+02 0.  0.
         11    1    3    3    0    0 -0.54654038424E+03 -0.66566145580E+03  0.62006242510E+03  0.10612676271E+04  0.00000000000E+00 0. -1.
        -11    1    3    3    0    0  0.16709504350E+01 -0.22926184801E+01  0.99312287607E+01  0.10328479053E+02  0.00000000000E+00 0.  1.
          4    1    6    6  502    0 -0.93872632886E+02  0.20801969045E+03 -0.19984282108E+03  0.30335031887E+03  0.00000000000E+00 0. -1.
          3    1    5    5  503    0  0.33621354354E+03  0.55936281861E+02 -0.13477000312E+03  0.36651243939E+03  0.00000000000E+00 0. -1.
         -4    1    5    5    0  503  0.38878908075E+03  0.65044309617E+02 -0.24948346774E+03  0.46650799800E+03  0.00000000000E+00 0.  1.
         -3    1    6    6    0  502 -0.86260557599E+02  0.33895379235E+03 -0.20655599241E+03  0.40619691672E+03  0.00000000000E+00 0.  1.
<mgrwt>
<rscale>  0 0.26092223E+04</rscale>
<asrwt>0</asrwt>
<pdfrwt beam="1">  1        1 0.18873117E+00 0.26092223E+04</pdfrwt>
<pdfrwt beam="2">  1       -1 0.21344788E+00 0.26092223E+04</pdfrwt>
<totfact> 0.10952272E+00</totfact>
</mgrwt>
</event>
<event>
12    1  0.1097093E-007  0.1333765E+04  0.7818608E-02  0.9003210E-01
         -2   -1    0    0    0  501 -0.00000000000E+00  0.00000000000E+00  0.40868925413E+03  0.40868925413E+03  0.00000000000E+00 0. -1.
          2   -1    0    0  501    0  0.00000000000E+00 -0.00000000000E+00 -0.10881918762E+04  0.10881918762E+04  0.00000000000E+00 0.  1.
         23    2    1    2    0    0 -0.19639854700E+03 -0.95778388094E+02 -0.49993937201E+03  0.55324471256E+03  0.91621216971E+02 0.  0.
        254    2    1    2    0    0  0.19639854700E+03  0.95778388094E+02 -0.17956325005E+03  0.94363641776E+03  0.90025598541E+03 0.  0.
        -24    2    4    4    0    0 -0.14750951213E+03  0.11704799493E+03  0.29050259537E+03  0.35530848045E+03  0.79956670022E+02 0.  0.
         24    2    4    4    0    0  0.34390805914E+03 -0.21269606835E+02 -0.47006584542E+03  0.58832793730E+03  0.80266515235E+02 0.  0.
         13    1    3    3    0    0 -0.11751938909E+03 -0.95496066621E+02 -0.38623466033E+03  0.41485843174E+03  0.00000000000E+00 0.  1.
        -13    1    3    3    0    0 -0.78879157919E+02 -0.28232147312E+00 -0.11370471168E+03  0.13838628082E+03  0.00000000000E+00 0. -1.
          4    1    6    6  502    0  0.42072825868E+02 -0.29863361534E+02 -0.61181395030E+02  0.80031906990E+02  0.00000000000E+00 0. -1.
          1    1    5    5  503    0 -0.17182679912E+01 -0.10523928391E+02  0.18808730180E+02  0.21621143463E+02  0.00000000000E+00 0. -1.
         -2    1    5    5    0  503 -0.14579124414E+03  0.12757192332E+03  0.27169386519E+03  0.33368733699E+03  0.00000000000E+00 0.  1.
         -3    1    6    6    0  502  0.30183523327E+03  0.85937546997E+01 -0.40888445039E+03  0.50829603031E+03  0.00000000000E+00 0.  1.
<mgrwt>
<rscale>  0 0.13337651E+04</rscale>
<asrwt>0</asrwt>
<pdfrwt beam="1">  1        2 0.16741413E+00 0.13337651E+04</pdfrwt>
<pdfrwt beam="2">  1       -2 0.62875271E-01 0.13337651E+04</pdfrwt>
<totfact> 0.50800716E+01</totfact>
</mgrwt>
</event>
<event>
12    1  0.1097093E-007  0.1532998E+04  0.7818608E-02  0.8862802E-01
         -2   -1    0    0    0  501 -0.00000000000E+00  0.00000000000E+00  0.57175000344E+03  0.57175000344E+03  0.00000000000E+00 0.  1.
          2   -1    0    0  501    0  0.00000000000E+00 -0.00000000000E+00 -0.10275828575E+04  0.10275828575E+04  0.00000000000E+00 0. -1.
         23    2    1    2    0    0 -0.10976897116E+03 -0.26160656660E+03  0.26919173817E+03  0.40193547582E+03  0.92740024314E+02 0.  0.
        254    2    1    2    0    0  0.10976897116E+03  0.26160656660E+03 -0.72502459220E+03  0.11973973851E+04  0.90973216706E+03 0.  0.
        -24    2    4    4    0    0  0.21795385873E+03 -0.29789339837E+03 -0.26584071728E+03  0.46203599844E+03  0.81003799713E+02 0.  0.
         24    2    4    4    0    0 -0.10818488758E+03  0.55949996496E+03 -0.45918387492E+03  0.73536138664E+03  0.71849546116E+02 0.  0.
         11    1    3    3    0    0 -0.10686524176E+03 -0.18309389418E+03  0.23428511450E+03  0.31596371447E+03  0.00000000000E+00 0.  1.
        -11    1    3    3    0    0 -0.29037293946E+01 -0.78512672416E+02  0.34906623666E+02  0.85971761353E+02  0.00000000000E+00 0. -1.
          4    1    6    6  502    0 -0.26968158242E+02  0.41431350971E+02 -0.30924502948E+02  0.58310919088E+02  0.00000000000E+00 0. -1.
          1    1    5    5  503    0  0.62271230412E+02 -0.34751121825E+02 -0.62708360331E+02  0.94961492514E+02  0.00000000000E+00 0. -1.
         -2    1    5    5    0  503  0.15568262832E+03 -0.26314227654E+03 -0.20313235694E+03  0.36707450593E+03  0.00000000000E+00 0.  1.
         -3    1    6    6    0  502 -0.81216729335E+02  0.51806861399E+03 -0.42825937198E+03  0.67705046755E+03  0.00000000000E+00 0.  1.
<mgrwt>
<rscale>  0 0.15329977E+04</rscale>
<asrwt>0</asrwt>
<pdfrwt beam="1">  1        2 0.15808967E+00 0.15329977E+04</pdfrwt>
<pdfrwt beam="2">  1       -2 0.87961540E-01 0.15329977E+04</pdfrwt>
<totfact> 0.25975401E+01</totfact>
</mgrwt>
</event>
<event>
12    1  0.1097093E-007  0.3528300E+04  0.7818608E-02  0.8107116E-01
          2   -1    0    0  501    0  0.00000000000E+00  0.00000000000E+00  0.26253170274E+04  0.26253170274E+04  0.00000000000E+00 0. -1.
         -2   -1    0    0    0  501 -0.00000000000E+00 -0.00000000000E+00 -0.11854661994E+04  0.11854661994E+04  0.00000000000E+00 0.  1.
         23    2    1    2    0    0 -0.93615497481E+03  0.12954707562E+04  0.23640880528E+03  0.16174545625E+04  0.75096746754E+02 0.  0.
        254    2    1    2    0    0  0.93615497481E+03 -0.12954707562E+04  0.12034420227E+04  0.21933286644E+04  0.89876988769E+03 0.  0.
        -24    2    4    4    0    0  0.92234232026E+03 -0.11468427914E+04  0.64328517803E+03  0.16081477093E+04  0.79746415014E+02 0.  0.
         24    2    4    4    0    0  0.13812654558E+02 -0.14862796480E+03  0.56015684468E+03  0.58518095511E+03  0.79874891152E+02 0.  0.
         13    1    3    3    0    0 -0.72040192604E+03  0.10033750594E+04  0.21414948333E+03  0.12536348935E+04  0.00000000000E+00 0.  1.
        -13    1    3    3    0    0 -0.21575304877E+03  0.29209569681E+03  0.22259321947E+02  0.36381966902E+03  0.00000000000E+00 0. -1.
          4    1    6    6  502    0 -0.99477631662E+00 -0.15945481617E+02  0.20725588805E+03  0.20787075575E+03  0.00000000000E+00 0. -1.
          1    1    5    5  503    0  0.65458013431E+03 -0.78819305542E+03  0.48337078113E+03  0.11328595486E+04  0.00000000000E+00 0. -1.
         -2    1    5    5    0  503  0.26776218595E+03 -0.35864973598E+03  0.15991439690E+03  0.47528816068E+03  0.00000000000E+00 0.  1.
         -3    1    6    6    0  502  0.14807430875E+02 -0.13268248319E+03  0.35290095663E+03  0.37731019936E+03  0.00000000000E+00 0.  1.
<mgrwt>
<rscale>  0 0.35282996E+04</rscale>
<asrwt>0</asrwt>
<pdfrwt beam="1">  1        2 0.40389493E+00 0.35282996E+04</pdfrwt>
<pdfrwt beam="2">  1       -2 0.18237942E+00 0.35282996E+04</pdfrwt>
<totfact> 0.42084521E-01</totfact>
</mgrwt>
</event>
<event>
12    1  0.1097093E-007  0.1603514E+04  0.7818608E-02  0.8818392E-01
         -1   -1    0    0    0  501 -0.00000000000E+00  0.00000000000E+00  0.11449348158E+04  0.11449348158E+04  0.00000000000E+00 0.  1.
          1   -1    0    0  501    0  0.00000000000E+00 -0.00000000000E+00 -0.56144198378E+03  0.56144198378E+03  0.00000000000E+00 0. -1.
         23    2    1    2    0    0  0.25188724136E+03 -0.30596608353E+03 -0.19459821357E+03  0.45082731657E+03  0.91183211211E+02 0.  0.
        254    2    1    2    0    0 -0.25188724136E+03  0.30596608353E+03  0.77809104560E+03  0.12555494830E+04  0.90217315547E+03 0.  0.
        -24    2    4    4    0    0 -0.43889496987E+03 -0.14405696554E+03  0.24601972589E+03  0.52985300090E+03  0.82687926214E+02 0.  0.
         24    2    4    4    0    0  0.18700772851E+03  0.45002304908E+03  0.53207131971E+03  0.72569648213E+03  0.77735832706E+02 0.  0.
         13    1    3    3    0    0  0.11484664849E+03 -0.16485917063E+03 -0.14556265040E+03  0.24810639654E+03  0.00000000000E+00 0. -1.
        -13    1    3    3    0    0  0.13704059287E+03 -0.14110691290E+03 -0.49035563167E+02  0.20272092003E+03  0.00000000000E+00 0.  1.
          4    1    6    6  502    0  0.17727983587E+03  0.41528236523E+03  0.51746907701E+03  0.68677640374E+03  0.00000000000E+00 0. -1.
          1    1    5    5  503    0 -0.38377856739E+03 -0.96381859920E+02  0.19697884226E+03  0.44201370568E+03  0.00000000000E+00 0. -1.
         -2    1    5    5    0  503 -0.55116402480E+02 -0.47675105624E+02  0.49040883629E+02  0.87839295225E+02  0.00000000000E+00 0.  1.
         -3    1    6    6    0  502  0.97278926424E+01  0.34740683851E+02  0.14602242706E+02  0.38920078388E+02  0.00000000000E+00 0.  1.
<mgrwt>
<rscale>  0 0.16035142E+04</rscale>
<asrwt>0</asrwt>
<pdfrwt beam="1">  1        1 0.86375690E-01 0.16035142E+04</pdfrwt>
<pdfrwt beam="2">  1       -1 0.17614382E+00 0.16035142E+04</pdfrwt>
<totfact> 0.80182095E+00</totfact>
</mgrwt>
</event>
<event>
12    1  0.1097093E-007  0.2126688E+04  0.7818608E-02  0.8549577E-01
          2   -1    0    0  501    0  0.00000000000E+00  0.00000000000E+00  0.87893788394E+03  0.87893788394E+03  0.00000000000E+00 0. -1.
         -2   -1    0    0    0  501 -0.00000000000E+00 -0.00000000000E+00 -0.12864393213E+04  0.12864393213E+04  0.00000000000E+00 0.  1.
         23    2    1    2    0    0 -0.67506609221E+03  0.55178516007E+03 -0.16473481460E+03  0.89174672188E+03  0.88845737772E+02 0.  0.
        254    2    1    2    0    0  0.67506609221E+03 -0.55178516007E+03 -0.24276662272E+03  0.12736304833E+04  0.89611265096E+03 0.  0.
        -24    2    4    4    0    0  0.43930246458E+03 -0.13145232859E+03 -0.53077485172E+03  0.70639775731E+03  0.83722626739E+02 0.  0.
         24    2    4    4    0    0  0.23576362762E+03 -0.42033283148E+03  0.28800822900E+03  0.56723272601E+03  0.80870564245E+02 0.  0.
         11    1    3    3    0    0 -0.22623007333E+03  0.13247658922E+03 -0.51082544613E+02  0.26709458837E+03  0.00000000000E+00 0. -1.
        -11    1    3    3    0    0 -0.44883601887E+03  0.41930857085E+03 -0.11365226999E+03  0.62465213351E+03  0.00000000000E+00 0.  1.
          2    1    6    6  502    0  0.37333677271E+02 -0.49204592042E+02  0.69719676709E+02  0.93143591604E+02  0.00000000000E+00 0. -1.
          1    1    5    5  503    0  0.88000982967E+02 -0.22763237031E+02 -0.59539497984E+02  0.10866135368E+03  0.00000000000E+00 0. -1.
         -2    1    5    5    0  503  0.35130148162E+03 -0.10868909156E+03 -0.47123535374E+03  0.59773640363E+03  0.00000000000E+00 0.  1.
         -1    1    6    6    0  502  0.19842995035E+03 -0.37112823944E+03  0.21828855229E+03  0.47408913441E+03  0.00000000000E+00 0.  1.
<mgrwt>
<rscale>  0 0.21266878E+04</rscale>
<asrwt>0</asrwt>
<pdfrwt beam="1">  1        2 0.13522121E+00 0.21266878E+04</pdfrwt>
<pdfrwt beam="2">  1       -2 0.19791374E+00 0.21266878E+04</pdfrwt>
<totfact> 0.38242855E+00</totfact>
</mgrwt>
</event>
<event>
12    1  0.1097093E-007  0.1934309E+04  0.7818608E-02  0.8637965E-01
         -2   -1    0    0    0  501 -0.00000000000E+00  0.00000000000E+00  0.61220689305E+03  0.61220689305E+03  0.00000000000E+00 0.  1.
          2   -1    0    0  501    0  0.00000000000E+00 -0.00000000000E+00 -0.15278948901E+04  0.15278948901E+04  0.00000000000E+00 0. -1.
         23    2    1    2    0    0 -0.42414474463E+03 -0.59135768029E+03 -0.60834507758E+03  0.95291585362E+03  0.91445176131E+02 0.  0.
        254    2    1    2    0    0  0.42414474463E+03  0.59135768029E+03 -0.30734291951E+03  0.11871859296E+04  0.88619867453E+03 0.  0.
        -24    2    4    4    0    0  0.34845592567E+03  0.31867057420E+02  0.20991165973E+03  0.41736041190E+03  0.87691316834E+02 0.  0.
         24    2    4    4    0    0  0.75688818963E+02  0.55949062287E+03 -0.51725457924E+03  0.76982551766E+03  0.79501405608E+02 0.  0.
         13    1    3    3    0    0 -0.45960275732E+02 -0.58286008719E+02 -0.29594648192E+02  0.79909004245E+02  0.00000000000E+00 0.  1.
        -13    1    3    3    0    0 -0.37818446890E+03 -0.53307167157E+03 -0.57875042938E+03  0.87300684938E+03  0.00000000000E+00 0. -1.
          2    1    6    6  502    0  0.19856467229E+02  0.29567617061E+03 -0.31698849771E+03  0.43393592250E+03  0.00000000000E+00 0. -1.
          3    1    5    5  503    0  0.27569026446E+03  0.41636206943E+02  0.12629771155E+03  0.30608790827E+03  0.00000000000E+00 0. -1.
         -4    1    5    5    0  503  0.72765661203E+02 -0.97691495228E+01  0.83613948178E+02  0.11127250362E+03  0.00000000000E+00 0.  1.
         -1    1    6    6    0  502  0.55832351734E+02  0.26381445226E+03 -0.20026608153E+03  0.33588959516E+03  0.00000000000E+00 0.  1.
<mgrwt>
<rscale>  0 0.19343090E+04</rscale>
<asrwt>0</asrwt>
<pdfrwt beam="1">  1        2 0.23506075E+00 0.19343090E+04</pdfrwt>
<pdfrwt beam="2">  1       -2 0.94185678E-01 0.19343090E+04</pdfrwt>
<totfact> 0.10873706E+01</totfact>
</mgrwt>
</event>
<event>
12    1  0.1097093E-007  0.1144830E+04  0.7818608E-02  0.9162566E-01
          2   -1    0    0  501    0  0.00000000000E+00  0.00000000000E+00  0.99921198387E+03  0.99921198387E+03  0.00000000000E+00 0. -1.
         -2   -1    0    0    0  501 -0.00000000000E+00 -0.00000000000E+00 -0.32791758954E+03  0.32791758954E+03  0.00000000000E+00 0.  1.
         23    2    1    2    0    0 -0.18777550340E+02 -0.18190762925E+03  0.44635731831E+02  0.20911856191E+03  0.91078221347E+02 0.  0.
        254    2    1    2    0    0  0.18777550340E+02  0.18190762925E+03  0.62665866250E+03  0.11180110115E+04  0.90763679991E+03 0.  0.
        -24    2    4    4    0    0 -0.40900196230E+03  0.83952673049E+01  0.13338680235E+03  0.43782185108E+03  0.80887876476E+02 0.  0.
         24    2    4    4    0    0  0.42777951264E+03  0.17351236195E+03  0.49327186014E+03  0.68018916040E+03  0.78983002834E+02 0.  0.
         11    1    3    3    0    0 -0.85807972582E+01 -0.16144473023E+03  0.30953388665E+01  0.16170223290E+03  0.00000000000E+00 0.  1.
        -11    1    3    3    0    0 -0.10196753082E+02 -0.20462899020E+02  0.41540392965E+02  0.47416329016E+02  0.00000000000E+00 0. -1.
          2    1    6    6  502    0  0.36260159054E+03  0.12511900902E+03  0.43670576697E+03  0.58124573701E+03  0.00000000000E+00 0. -1.
          3    1    5    5  503    0 -0.38750242474E+03  0.98825171875E+01  0.14436133592E+03  0.41363750874E+03  0.00000000000E+00 0. -1.
         -4    1    5    5    0  503 -0.21499537563E+02 -0.14872498826E+01 -0.10974533566E+02  0.24184342344E+02  0.00000000000E+00 0.  1.
         -1    1    6    6    0  502  0.65177922100E+02  0.48393352929E+02  0.56566093173E+02  0.98943423399E+02  0.00000000000E+00 0.  1.
<mgrwt>
<rscale>  0 0.11448304E+04</rscale>
<asrwt>0</asrwt>
<pdfrwt beam="1">  1        2 0.15372492E+00 0.11448304E+04</pdfrwt>
<pdfrwt beam="2">  1       -2 0.50448860E-01 0.11448304E+04</pdfrwt>
<totfact> 0.92766950E+01</totfact>
</mgrwt>
</event>
<event>
12    1  0.1097093E-007  0.1509807E+04  0.7818608E-02  0.8877958E-01
          1   -1    0    0  501    0  0.00000000000E+00  0.00000000000E+00  0.26176332283E+03  0.26176332283E+03  0.00000000000E+00 0. -1.
         -1   -1    0    0    0  501 -0.00000000000E+00 -0.00000000000E+00 -0.21770773598E+04  0.21770773598E+04  0.00000000000E+00 0.  1.
         23    2    1    2    0    0 -0.44452658855E+03  0.23540695807E+02 -0.33055303650E+03  0.56187457972E+03  0.90992753032E+02 0.  0.
        254    2    1    2    0    0  0.44452658855E+03 -0.23540695807E+02 -0.15847610005E+04  0.18769661029E+04  0.90187375535E+03 0.  0.
        -24    2    4    4    0    0  0.42387166514E+02 -0.42274449199E+03 -0.63235288148E+03  0.76600807034E+03  0.79928841650E+02 0.  0.
         24    2    4    4    0    0  0.40213942204E+03  0.39920379618E+03 -0.95240811899E+03  0.11109580326E+04  0.77889276345E+02 0.  0.
         13    1    3    3    0    0 -0.60969919993E+02 -0.11857213288E+02 -0.14903400763E+02  0.63875159531E+02  0.00000000000E+00 0.  1.
        -13    1    3    3    0    0 -0.38355666856E+03  0.35397909094E+02 -0.31564963574E+03  0.49799942018E+03  0.00000000000E+00 0. -1.
          2    1    6    6  502    0  0.20734614162E+03  0.18343097581E+03 -0.53378799992E+03  0.60130605700E+03  0.00000000000E+00 0. -1.
          3    1    5    5  503    0  0.76400855991E+01 -0.23849033254E+03 -0.28882725301E+03  0.37464275211E+03  0.00000000000E+00 0. -1.
         -4    1    5    5    0  503  0.34747080914E+02 -0.18425415944E+03 -0.34352562847E+03  0.39136531824E+03  0.00000000000E+00 0.  1.
         -1    1    6    6    0  502  0.19479328041E+03  0.21577282037E+03 -0.41862011907E+03  0.50965197556E+03  0.00000000000E+00 0.  1.
<mgrwt>
<rscale>  0 0.15098066E+04</rscale>
<asrwt>0</asrwt>
<pdfrwt beam="1">  1        1 0.40271280E-01 0.15098066E+04</pdfrwt>
<pdfrwt beam="2">  1       -1 0.33493498E+00 0.15098066E+04</pdfrwt>
<totfact> 0.19864491E+00</totfact>
</mgrwt>
</event>
<event>
12    1  0.1097093E-007  0.1703674E+04  0.7818608E-02  0.8759272E-01
          1   -1    0    0  501    0  0.00000000000E+00  0.00000000000E+00  0.51526127703E+03  0.51526127703E+03  0.00000000000E+00 0. -1.
         -1   -1    0    0    0  501 -0.00000000000E+00 -0.00000000000E+00 -0.14082681138E+04  0.14082681138E+04  0.00000000000E+00 0.  1.
         23    2    1    2    0    0  0.56703312553E+03 -0.16001202523E+03 -0.26013473049E+03  0.65090214980E+03  0.94197223633E+02 0.  0.
        254    2    1    2    0    0 -0.56703312553E+03  0.16001202523E+03 -0.63287210628E+03  0.12726272410E+04  0.93376794657E+03 0.  0.
        -24    2    4    4    0    0 -0.15485663954E+03  0.51764695544E+03 -0.24717487347E+03  0.59947743490E+03  0.79616754443E+02 0.  0.
         24    2    4    4    0    0 -0.41217648600E+03 -0.35763493021E+03 -0.38569723282E+03  0.67314980614E+03  0.81093200607E+02 0.  0.
         13    1    3    3    0    0  0.44657546062E+03 -0.16075385338E+03 -0.22607364382E+03  0.52571925572E+03  0.00000000000E+00 0.  1.
        -13    1    3    3    0    0  0.12045766491E+03  0.74182815671E+00 -0.34061086670E+02  0.12518289408E+03  0.00000000000E+00 0. -1.
          2    1    6    6  502    0 -0.29079733577E+03 -0.29534177119E+03 -0.27435253179E+03  0.49705046424E+03  0.00000000000E+00 0. -1.
          3    1    5    5  503    0 -0.40893710836E+02  0.92568792951E+02 -0.78867851861E+02  0.12830204625E+03  0.00000000000E+00 0. -1.
         -4    1    5    5    0  503 -0.11396292870E+03  0.42507816249E+03 -0.16830702161E+03  0.47117538865E+03  0.00000000000E+00 0.  1.
         -1    1    6    6    0  502 -0.12137915023E+03 -0.62293159024E+02 -0.11134470102E+03  0.17609934190E+03  0.00000000000E+00 0.  1.
<mgrwt>
<rscale>  0 0.17036737E+04</rscale>
<asrwt>0</asrwt>
<pdfrwt beam="1">  1        1 0.79270965E-01 0.17036737E+04</pdfrwt>
<pdfrwt beam="2">  1       -1 0.21665664E+00 0.17036737E+04</pdfrwt>
<totfact> 0.46861881E+00</totfact>
</mgrwt>
</event>
<event>
12    1  0.1097093E-007  0.1104572E+04  0.7818608E-02  0.9200747E-01
         -2   -1    0    0    0  501 -0.00000000000E+00  0.00000000000E+00  0.21625133883E+03  0.21625133883E+03  0.00000000000E+00 0.  1.
          2   -1    0    0  501    0  0.00000000000E+00 -0.00000000000E+00 -0.14104872482E+04  0.14104872482E+04  0.00000000000E+00 0. -1.
         23    2    1    2    0    0  0.26662842665E+02 -0.89008252116E+02 -0.22437418944E+01  0.13125685023E+03  0.92681984387E+02 0.  0.
        254    2    1    2    0    0 -0.26662842665E+02  0.89008252116E+02 -0.11919921675E+04  0.14954817368E+04  0.89832450800E+03 0.  0.
        -24    2    4    4    0    0  0.36060781876E+03  0.12119415989E+03 -0.96029558427E+03  0.10359674895E+04  0.79592756104E+02 0.  0.
         24    2    4    4    0    0 -0.38727066143E+03 -0.32185907777E+02 -0.23169658323E+03  0.45951424731E+03  0.80346368541E+02 0.  0.
         11    1    3    3    0    0  0.15304376855E+02 -0.71722814606E+02 -0.43384706809E+02  0.85209265170E+02  0.00000000000E+00 0. -1.
        -11    1    3    3    0    0  0.11358465810E+02 -0.17285437510E+02  0.41140964914E+02  0.46047585056E+02  0.00000000000E+00 0.  1.
          4    1    6    6  502    0 -0.24707773667E+03 -0.40437323564E+02 -0.10913129615E+03  0.27311577196E+03  0.00000000000E+00 0. -1.
          1    1    5    5  503    0  0.28770369452E+03  0.64000894561E+02 -0.76468710625E+03  0.81952175127E+03  0.00000000000E+00 0. -1.
         -2    1    5    5    0  503  0.72904124239E+02  0.57193265332E+02 -0.19560847803E+03  0.21644573825E+03  0.00000000000E+00 0.  1.
         -3    1    6    6    0  502 -0.14019292476E+03  0.82514157868E+01 -0.12256528709E+03  0.18639847535E+03  0.00000000000E+00 0.  1.
<mgrwt>
<rscale>  0 0.11045719E+04</rscale>
<asrwt>0</asrwt>
<pdfrwt beam="1">  1        2 0.21699805E+00 0.11045719E+04</pdfrwt>
<pdfrwt beam="2">  1       -2 0.33269435E-01 0.11045719E+04</pdfrwt>
<totfact> 0.11944039E+02</totfact>
</mgrwt>
</event>
<event>
12    1  0.1097093E-007  0.1892104E+04  0.7818608E-02  0.8658797E-01
          2   -1    0    0  501    0  0.00000000000E+00  0.00000000000E+00  0.19195333999E+04  0.19195333999E+04  0.00000000000E+00 0. -1.
         -2   -1    0    0    0  501 -0.00000000000E+00 -0.00000000000E+00 -0.46626684582E+03  0.46626684582E+03  0.00000000000E+00 0.  1.
         23    2    1    2    0    0 -0.53805489832E+03  0.34133606379E+03  0.10146750542E+04  0.12016749154E+04  0.91889905086E+02 0.  0.
        254    2    1    2    0    0  0.53805489832E+03 -0.34133606379E+03  0.43859149990E+03  0.11841253303E+04  0.89653606290E+03 0.  0.
        -24    2    4    4    0    0  0.29165321455E+03  0.28898490342E+03  0.17424588991E+03  0.45277084781E+03  0.77884135206E+02 0.  0.
         24    2    4    4    0    0  0.24640168378E+03 -0.63032096721E+03  0.26434560999E+03  0.73135448251E+03  0.83561151865E+02 0.  0.
         13    1    3    3    0    0 -0.25125139386E+03  0.18728623111E+03  0.57142268326E+03  0.65171103890E+03  0.00000000000E+00 0.  1.
        -13    1    3    3    0    0 -0.28680350446E+03  0.15404983268E+03  0.44325237092E+03  0.54996387649E+03  0.00000000000E+00 0. -1.
          2    1    6    6  502    0  0.92786292616E+02 -0.14575134333E+03  0.82568620729E+02  0.19149497985E+03  0.00000000000E+00 0. -1.
          1    1    5    5  503    0  0.13926522650E+03  0.18133945141E+03  0.12130661185E+03  0.25883217348E+03  0.00000000000E+00 0. -1.
         -2    1    5    5    0  503  0.15238798805E+03  0.10764545200E+03  0.52939278060E+02  0.19393867433E+03  0.00000000000E+00 0.  1.
         -1    1    6    6    0  502  0.15361539116E+03 -0.48456962388E+03  0.18177698926E+03  0.53985950266E+03  0.00000000000E+00 0.  1.
<mgrwt>
<rscale>  0 0.18921044E+04</rscale>
<asrwt>0</asrwt>
<pdfrwt beam="1">  1        2 0.29531283E+00 0.18921044E+04</pdfrwt>
<pdfrwt beam="2">  1       -2 0.71733362E-01 0.18921044E+04</pdfrwt>
<totfact> 0.12227418E+01</totfact>
</mgrwt>
</event>
<event>
12    1  0.1097093E-007  0.1065962E+04  0.7818608E-02  0.9239018E-01
          2   -1    0    0  501    0  0.00000000000E+00  0.00000000000E+00  0.71825966736E+03  0.71825966736E+03  0.00000000000E+00 0. -1.
         -2   -1    0    0    0  501 -0.00000000000E+00 -0.00000000000E+00 -0.39549601113E+03  0.39549601113E+03  0.00000000000E+00 0.  1.
         23    2    1    2    0    0  0.29388235290E+02 -0.10726227563E+03  0.10499490459E+01  0.14447471086E+03  0.92211580279E+02 0.  0.
        254    2    1    2    0    0 -0.29388235290E+02  0.10726227563E+03  0.32171370718E+03  0.96928096764E+03  0.90754450066E+03 0.  0.
        -24    2    4    4    0    0  0.10655466564E+03 -0.21511341767E+03 -0.20915438898E+03  0.32814789383E+03  0.79421675669E+02 0.  0.
         24    2    4    4    0    0 -0.13594290093E+03  0.32237569330E+03  0.53086809617E+03  0.64113307380E+03  0.82608249294E+02 0.  0.
         11    1    3    3    0    0 -0.16997435223E+02  0.26202906880E+01  0.16950595523E+02  0.24147492955E+02  0.00000000000E+00 0. -1.
        -11    1    3    3    0    0  0.46385670513E+02 -0.10988256632E+03 -0.15900646477E+02  0.12032721790E+03  0.00000000000E+00 0.  1.
          2    1    6    6  502    0 -0.32929280211E+02  0.39028027784E+02  0.12903126427E+03  0.13876812172E+03  0.00000000000E+00 0. -1.
          1    1    5    5  503    0  0.12645273216E+02 -0.33844700417E+01  0.36718884448E+01  0.13595599911E+02  0.00000000000E+00 0. -1.
         -2    1    5    5    0  503  0.93909392419E+02 -0.21172894763E+03 -0.21282627743E+03  0.31455229392E+03  0.00000000000E+00 0.  1.
         -1    1    6    6    0  502 -0.10301362071E+03  0.28334766552E+03  0.40183683190E+03  0.50236495208E+03  0.00000000000E+00 0.  1.
<mgrwt>
<rscale>  0 0.10659622E+04</rscale>
<asrwt>0</asrwt>
<pdfrwt beam="1">  1        2 0.11050149E+00 0.10659622E+04</pdfrwt>
<pdfrwt beam="2">  1       -2 0.60845540E-01 0.10659622E+04</pdfrwt>
<totfact> 0.99221098E+01</totfact>
</mgrwt>
</event>
<event>
12    1  0.1097093E-007  0.2253318E+04  0.7818608E-02  0.8496558E-01
         -2   -1    0    0    0  501 -0.00000000000E+00  0.00000000000E+00  0.85366786998E+03  0.85366786998E+03  0.00000000000E+00 0.  1.
          2   -1    0    0  501    0  0.00000000000E+00 -0.00000000000E+00 -0.14869485461E+04  0.14869485461E+04  0.00000000000E+00 0. -1.
         23    2    1    2    0    0  0.37849590663E+03  0.35288774312E+03  0.55205587611E+03  0.76207475078E+03  0.90572207911E+02 0.  0.
        254    2    1    2    0    0 -0.37849590663E+03 -0.35288774312E+03 -0.11853365522E+04  0.15785416653E+04  0.90497631815E+03 0.  0.
        -24    2    4    4    0    0  0.23468354651E+03 -0.85620955062E+02 -0.62854981203E+02  0.26973513591E+03  0.79993624306E+02 0.  0.
         24    2    4    4    0    0 -0.61317945315E+03 -0.26726678805E+03 -0.11224815710E+04  0.13088065294E+04  0.74760125060E+02 0.  0.
         11    1    3    3    0    0  0.32372662120E+03  0.29931443086E+03  0.51182787250E+03  0.67554113484E+03  0.00000000000E+00 0.  1.
        -11    1    3    3    0    0  0.54769285428E+02  0.53573312258E+02  0.40228003615E+02  0.86533615939E+02  0.00000000000E+00 0. -1.
          4    1    6    6  502    0 -0.39853248869E+03 -0.18927217937E+03 -0.80090384998E+03  0.91438453581E+03  0.00000000000E+00 0. -1.
          1    1    5    5  503    0  0.20933388355E+03 -0.83106952260E+02 -0.28584827773E+02  0.22703421040E+03  0.00000000000E+00 0. -1.
         -4    1    5    5    0  503  0.25349662969E+02 -0.25140028029E+01 -0.34270153430E+02  0.42700925504E+02  0.00000000000E+00 0.  1.
         -3    1    6    6    0  502 -0.21464696446E+03 -0.77994608682E+02 -0.32157772103E+03  0.39442199355E+03  0.00000000000E+00 0.  1.
<mgrwt>
<rscale>  0 0.22533177E+04</rscale>
<asrwt>0</asrwt>
<pdfrwt beam="1">  1        2 0.22876132E+00 0.22533177E+04</pdfrwt>
<pdfrwt beam="2">  1       -2 0.13133352E+00 0.22533177E+04</pdfrwt>
<totfact> 0.49736032E+00</totfact>
</mgrwt>
</event>
<event>
12    1  0.1097093E-007  0.1398208E+04  0.7818608E-02  0.8955117E-01
          2   -1    0    0  501    0  0.00000000000E+00  0.00000000000E+00  0.14748998177E+04  0.14748998177E+04  0.00000000000E+00 0. -1.
         -2   -1    0    0    0  501 -0.00000000000E+00 -0.00000000000E+00 -0.33137578251E+03  0.33137578251E+03  0.00000000000E+00 0.  1.
         23    2    1    2    0    0  0.18394363687E+03  0.22846011976E+03  0.68792418552E+03  0.75403075972E+03  0.96402353271E+02 0.  0.
        254    2    1    2    0    0 -0.18394363687E+03 -0.22846011976E+03  0.45559984968E+03  0.10522448405E+04  0.90200814490E+03 0.  0.
        -24    2    4    4    0    0  0.16326312976E+03 -0.38500630507E+03  0.50519640159E+03  0.66032987613E+03  0.76989847690E+02 0.  0.
         24    2    4    4    0    0 -0.34720676663E+03  0.15654618531E+03 -0.49596551914E+02  0.39191496437E+03  0.77963288828E+02 0.  0.
         11    1    3    3    0    0  0.12925936566E+03  0.19956967638E+03  0.45940173298E+03  0.51728714618E+03  0.00000000000E+00 0. -1.
        -11    1    3    3    0    0  0.54684271214E+02  0.28890443381E+02  0.22852245253E+03  0.23674361353E+03  0.00000000000E+00 0.  1.
          4    1    6    6  502    0 -0.16717437330E+03  0.10642605411E+03  0.14808820537E+01  0.19818165680E+03  0.00000000000E+00 0. -1.
          3    1    5    5  503    0  0.21059018984E+02 -0.12858112767E+03  0.12888656545E+03  0.18327120730E+03  0.00000000000E+00 0. -1.
         -4    1    5    5    0  503  0.14220411077E+03 -0.25642517740E+03  0.37630983614E+03  0.47705866882E+03  0.00000000000E+00 0.  1.
         -3    1    6    6    0  502 -0.18003239333E+03  0.50120131205E+02 -0.51077433968E+02  0.19373330757E+03  0.00000000000E+00 0.  1.
<mgrwt>
<rscale>  0 0.13982075E+04</rscale>
<asrwt>0</asrwt>
<pdfrwt beam="1">  1        2 0.22690766E+00 0.13982075E+04</pdfrwt>
<pdfrwt beam="2">  1       -2 0.50980891E-01 0.13982075E+04</pdfrwt>
<totfact> 0.46421520E+01</totfact>
</mgrwt>
</event>
<event>
12    1  0.1097093E-007  0.3023563E+04  0.7818608E-02  0.8237034E-01
         -2   -1    0    0    0  501 -0.00000000000E+00  0.00000000000E+00  0.61155099017E+03  0.61155099017E+03  0.00000000000E+00 0.  1.
          2   -1    0    0  501    0  0.00000000000E+00 -0.00000000000E+00 -0.37371923262E+04  0.37371923262E+04  0.00000000000E+00 0. -1.
         23    2    1    2    0    0 -0.20448102072E+03  0.11220844044E+04 -0.31940922484E+03  0.11879905296E+04  0.91724299417E+02 0.  0.
        254    2    1    2    0    0  0.20448102072E+03 -0.11220844044E+04 -0.28062321111E+04  0.31607527867E+04  0.90251516272E+03 0.  0.
        -24    2    4    4    0    0 -0.31897307728E+03 -0.62317737357E+03 -0.16566093058E+04  0.18002940450E+04  0.81304326246E+02 0.  0.
         24    2    4    4    0    0  0.52345409800E+03 -0.49890703080E+03 -0.11496228053E+04  0.13604587417E+04  0.79391279767E+02 0.  0.
         11    1    3    3    0    0 -0.88516466541E+02  0.28192214718E+03 -0.99830660448E+02  0.31189969972E+03  0.00000000000E+00 0. -1.
        -11    1    3    3    0    0 -0.11596455418E+03  0.84016225719E+03 -0.21957856439E+03  0.87609082986E+03  0.00000000000E+00 0.  1.
          2    1    6    6  502    0  0.27752634666E+03 -0.25179995537E+03 -0.52315566830E+03  0.64351840990E+03  0.00000000000E+00 0. -1.
          3    1    5    5  503    0 -0.11064714854E+03 -0.30376725840E+03 -0.74233728282E+03  0.80968017157E+03  0.00000000000E+00 0. -1.
         -4    1    5    5    0  503 -0.20832592874E+03 -0.31941011516E+03 -0.91427202297E+03  0.99061387344E+03  0.00000000000E+00 0.  1.
         -1    1    6    6    0  502  0.24592775135E+03 -0.24710707543E+03 -0.62646713705E+03  0.71694033183E+03  0.00000000000E+00 0.  1.
<mgrwt>
<rscale>  0 0.30235632E+04</rscale>
<asrwt>0</asrwt>
<pdfrwt beam="1">  1        2 0.57495265E+00 0.30235632E+04</pdfrwt>
<pdfrwt beam="2">  1       -2 0.94084770E-01 0.30235632E+04</pdfrwt>
<totfact> 0.44572617E-01</totfact>
</mgrwt>
</event>
<event>
12    1  0.1097093E-007  0.1937612E+04  0.7818608E-02  0.8636357E-01
         -2   -1    0    0    0  501 -0.00000000000E+00  0.00000000000E+00  0.32424872237E+03  0.32424872237E+03  0.00000000000E+00 0.  1.
          2   -1    0    0  501    0  0.00000000000E+00 -0.00000000000E+00 -0.28946468186E+04  0.28946468186E+04  0.00000000000E+00 0. -1.
         23    2    1    2    0    0 -0.74865464480E+03  0.30107413097E+02 -0.11556140018E+04  0.13802392571E+04  0.90699791706E+02 0.  0.
        254    2    1    2    0    0  0.74865464480E+03 -0.30107413097E+02 -0.14147840945E+04  0.18386562839E+04  0.90424148481E+03 0.  0.
        -24    2    4    4    0    0  0.13598211867E+03  0.39227552997E+03 -0.57160237770E+03  0.71116482630E+03  0.81577594703E+02 0.  0.
         24    2    4    4    0    0  0.61267252613E+03 -0.42238294307E+03 -0.84318171675E+03  0.11274914576E+04  0.80663527093E+02 0.  0.
         11    1    3    3    0    0 -0.90219793796E+01 -0.10479353217E+02 -0.17631878811E+02  0.22407501114E+02  0.00000000000E+00 0.  1.
        -11    1    3    3    0    0 -0.73963266542E+03  0.40586766314E+02 -0.11379821230E+04  0.13578317560E+04  0.00000000000E+00 0. -1.
          2    1    6    6  502    0  0.32073179116E+03 -0.26781891706E+03 -0.48774752958E+03  0.64225657397E+03  0.00000000000E+00 0. -1.
          1    1    5    5  503    0  0.13208856742E+03  0.32994885446E+03 -0.44089495954E+03  0.56630557260E+03  0.00000000000E+00 0. -1.
         -2    1    5    5    0  503  0.38935512582E+01  0.62326675505E+02 -0.13070741816E+03  0.14485925370E+03  0.00000000000E+00 0.  1.
         -1    1    6    6    0  502  0.29194073497E+03 -0.15456402600E+03 -0.35543418717E+03  0.48523488362E+03  0.00000000000E+00 0.  1.
<mgrwt>
<rscale>  0 0.19376125E+04</rscale>
<asrwt>0</asrwt>
<pdfrwt beam="1">  1        2 0.44533026E+00 0.19376125E+04</pdfrwt>
<pdfrwt beam="2">  1       -2 0.49884421E-01 0.19376125E+04</pdfrwt>
<totfact> 0.72032557E+00</totfact>
</mgrwt>
</event>
<event>
12    1  0.1097093E-007  0.1154643E+04  0.7818608E-02  0.9153511E-01
         -2   -1    0    0    0  501 -0.00000000000E+00  0.00000000000E+00  0.49350035939E+03  0.49350035939E+03  0.00000000000E+00 0.  1.
          2   -1    0    0  501    0  0.00000000000E+00 -0.00000000000E+00 -0.67537988455E+03  0.67537988455E+03  0.00000000000E+00 0. -1.
         23    2    1    2    0    0 -0.31114121825E+02  0.30393255677E+02 -0.24660736043E+03  0.26631839123E+03  0.90655704301E+02 0.  0.
        254    2    1    2    0    0  0.31114121825E+02 -0.30393255677E+02  0.64727835266E+02  0.90256185270E+03  0.89918650275E+03 0.  0.
        -24    2    4    4    0    0  0.30406763924E+03 -0.16510549727E+03 -0.26764202338E+03  0.44488715808E+03  0.81088693925E+02 0.  0.
         24    2    4    4    0    0 -0.27295351741E+03  0.13471224160E+03  0.33236985864E+03  0.45767469463E+03  0.79657971758E+02 0.  0.
         13    1    3    3    0    0 -0.33097238580E+02  0.29184205957E+02 -0.25439403533E+03  0.25819269992E+03  0.00000000000E+00 0. -1.
        -13    1    3    3    0    0  0.19831167552E+01  0.12090497200E+01  0.77866749017E+01  0.81256913130E+01  0.00000000000E+00 0.  1.
          4    1    6    6  502    0 -0.11691404923E+03  0.15214882011E+02  0.13251704429E+03  0.17737292513E+03  0.00000000000E+00 0. -1.
          1    1    5    5  503    0  0.28159579534E+03 -0.13536965185E+03 -0.26081330582E+03  0.40699473595E+03  0.00000000000E+00 0. -1.
         -2    1    5    5    0  503  0.22471843901E+02 -0.29735845424E+02 -0.68287175512E+01  0.37892422129E+02  0.00000000000E+00 0.  1.
         -3    1    6    6    0  502 -0.15603946818E+03  0.11949735958E+03  0.19985281435E+03  0.28030176949E+03  0.00000000000E+00 0.  1.
<mgrwt>
<rscale>  0 0.11546432E+04</rscale>
<asrwt>0</asrwt>
<pdfrwt beam="1">  1        2 0.10390460E+00 0.11546432E+04</pdfrwt>
<pdfrwt beam="2">  1       -2 0.75923132E-01 0.11546432E+04</pdfrwt>
<totfact> 0.65956371E+01</totfact>
</mgrwt>
</event>
<event>
12    1  0.1097093E-007  0.1464439E+04  0.7818608E-02  0.8908451E-01
         -1   -1    0    0    0  501 -0.00000000000E+00  0.00000000000E+00  0.42522485726E+03  0.42522485726E+03  0.00000000000E+00 0.  1.
          1   -1    0    0  501    0  0.00000000000E+00 -0.00000000000E+00 -0.12608511215E+04  0.12608511215E+04  0.00000000000E+00 0. -1.
         23    2    1    2    0    0 -0.14029754645E+03 -0.41930293472E+03 -0.16786393143E+03  0.48181367801E+03  0.92020477275E+02 0.  0.
        254    2    1    2    0    0  0.14029754645E+03  0.41930293472E+03 -0.66776233282E+03  0.12042623008E+04  0.89935688316E+03 0.  0.
        -24    2    4    4    0    0 -0.28488536378E+03  0.11546057628E+03  0.40967356286E+02  0.32010069259E+03  0.79343014447E+02 0.  0.
         24    2    4    4    0    0  0.42518291023E+03  0.30384235844E+03 -0.70872968911E+03  0.88416160817E+03  0.79644781401E+02 0.  0.
         11    1    3    3    0    0  0.99630885258E+01 -0.55125057997E+01 -0.36959322835E+01  0.11971247579E+02  0.00000000000E+00 0.  1.
        -11    1    3    3    0    0 -0.15026063497E+03 -0.41379042892E+03 -0.16416799915E+03  0.46984243043E+03  0.00000000000E+00 0. -1.
          2    1    6    6  502    0  0.29514911001E+03  0.21916656766E+03 -0.43526769196E+03  0.56974112120E+03  0.00000000000E+00 0. -1.
          1    1    5    5  503    0 -0.11937344227E+03  0.72779871153E+02 -0.14107807625E+02  0.14052031384E+03  0.00000000000E+00 0. -1.
         -2    1    5    5    0  503 -0.16551192151E+03  0.42680705127E+02  0.55075163911E+02  0.17958037875E+03  0.00000000000E+00 0.  1.
         -1    1    6    6    0  502  0.13003380022E+03  0.84675790783E+02 -0.27346199715E+03  0.31442048697E+03  0.00000000000E+00 0.  1.
<mgrwt>
<rscale>  0 0.14644388E+04</rscale>
<asrwt>0</asrwt>
<pdfrwt beam="1">  1        1 0.19397709E+00 0.14644388E+04</pdfrwt>
<pdfrwt beam="2">  1       -1 0.65419209E-01 0.14644388E+04</pdfrwt>
<totfact> 0.22177125E+01</totfact>
</mgrwt>
</event>
<event>
12    1  0.1097093E-007  0.1757895E+04  0.7818608E-02  0.8729017E-01
         -2   -1    0    0    0  501 -0.00000000000E+00  0.00000000000E+00  0.19365076322E+03  0.19365076322E+03  0.00000000000E+00 0.  1.
          2   -1    0    0  501    0  0.00000000000E+00 -0.00000000000E+00 -0.39893897131E+04  0.39893897131E+04  0.00000000000E+00 0. -1.
         23    2    1    2    0    0 -0.63176892982E+03  0.82464590511E+02 -0.14039199927E+04  0.15444380532E+04  0.91461275001E+02 0.  0.
        254    2    1    2    0    0  0.63176892982E+03 -0.82464590511E+02 -0.23918189571E+04  0.26386024231E+04  0.91405275239E+03 0.  0.
        -24    2    4    4    0    0  0.58219395897E+02 -0.38566246513E+03 -0.13580672338E+04  0.14152335289E+04  0.80089291485E+02 0.  0.
         24    2    4    4    0    0  0.57354953392E+03  0.30319787462E+03 -0.10337517233E+04  0.12233688942E+04  0.84266285598E+02 0.  0.
         11    1    3    3    0    0 -0.13752362303E+03  0.36931995071E+02 -0.39854783747E+03  0.42322227955E+03  0.00000000000E+00 0.  1.
        -11    1    3    3    0    0 -0.49424530679E+03  0.45532595440E+02 -0.10053721552E+04  0.11212157736E+04  0.00000000000E+00 0. -1.
          4    1    6    6  502    0  0.19838853812E+03  0.62353992152E+02 -0.34987777091E+03  0.40701411151E+03  0.00000000000E+00 0. -1.
          1    1    5    5  503    0 -0.92108947239E+01 -0.36815224331E+01 -0.44550272648E+02  0.45641220208E+02  0.00000000000E+00 0. -1.
         -2    1    5    5    0  503  0.67430290621E+02 -0.38198094269E+03 -0.13135169612E+04  0.13695923087E+04  0.00000000000E+00 0.  1.
         -3    1    6    6    0  502  0.37516099580E+03  0.24084388246E+03 -0.68387395241E+03  0.81635478272E+03  0.00000000000E+00 0.  1.
<mgrwt>
<rscale>  0 0.17578946E+04</rscale>
<asrwt>0</asrwt>
<pdfrwt beam="1">  1        2 0.61375221E+00 0.17578946E+04</pdfrwt>
<pdfrwt beam="2">  1       -2 0.29792428E-01 0.17578946E+04</pdfrwt>
<totfact> 0.34875265E+00</totfact>
</mgrwt>
</event>
<event>
12    1  0.1097093E-007  0.1757149E+04  0.7818608E-02  0.8729425E-01
          2   -1    0    0  501    0  0.00000000000E+00  0.00000000000E+00  0.91494808230E+03  0.91494808230E+03  0.00000000000E+00 0. -1.
         -2   -1    0    0    0  501 -0.00000000000E+00 -0.00000000000E+00 -0.84364719292E+03  0.84364719292E+03  0.00000000000E+00 0.  1.
         23    2    1    2    0    0 -0.19633266063E+03 -0.61523198085E+03  0.57701924823E+01  0.65276693957E+03  0.94944606945E+02 0.  0.
        254    2    1    2    0    0  0.19633266063E+03  0.61523198085E+03  0.65530696894E+02  0.11058283356E+04  0.89526818987E+03 0.  0.
        -24    2    4    4    0    0  0.13099265342E+02  0.77805442800E+03 -0.11603912443E+03  0.79049232836E+03  0.76633929240E+02 0.  0.
         24    2    4    4    0    0  0.18323339529E+03 -0.16282244715E+03  0.18156982132E+03  0.31533600729E+03  0.79897252957E+02 0.  0.
         13    1    3    3    0    0 -0.12826740576E+03 -0.32350820626E+03  0.43996076995E+02  0.35077876459E+03  0.00000000000E+00 0. -1.
        -13    1    3    3    0    0 -0.68065254871E+02 -0.29172377459E+03 -0.38225884513E+02  0.30198817498E+03  0.00000000000E+00 0.  1.
          4    1    6    6  502    0  0.46743907439E+01  0.26450848628E+01 -0.59732813363E+01  0.80328383950E+01  0.00000000000E+00 0. -1.
          3    1    5    5  503    0 -0.23787605188E+02  0.10885233909E+03 -0.90437678682E+01  0.11178761838E+03  0.00000000000E+00 0. -1.
         -4    1    5    5    0  503  0.36886870530E+02  0.66920208891E+03 -0.10699535656E+03  0.67870470998E+03  0.00000000000E+00 0.  1.
         -3    1    6    6    0  502  0.17855900455E+03 -0.16546753202E+03  0.18754310266E+03  0.30730316889E+03  0.00000000000E+00 0.  1.
<mgrwt>
<rscale>  0 0.17571493E+04</rscale>
<asrwt>0</asrwt>
<pdfrwt beam="1">  1        2 0.14076124E+00 0.17571493E+04</pdfrwt>
<pdfrwt beam="2">  1       -2 0.12979188E+00 0.17571493E+04</pdfrwt>
<totfact> 0.11833249E+01</totfact>
</mgrwt>
</event>
<event>
12    1  0.1097093E-007  0.3773131E+04  0.7818608E-02  0.8051946E-01
         -2   -1    0    0    0  501 -0.00000000000E+00  0.00000000000E+00  0.23739502481E+04  0.23739502481E+04  0.00000000000E+00 0.  1.
          2   -1    0    0  501    0  0.00000000000E+00 -0.00000000000E+00 -0.14992435720E+04  0.14992435720E+04  0.00000000000E+00 0. -1.
         23    2    1    2    0    0  0.25626794280E+03 -0.45834455552E+02  0.22219069659E+04  0.22388727418E+04  0.88918688918E+02 0.  0.
        254    2    1    2    0    0 -0.25626794280E+03  0.45834455552E+02 -0.13472002898E+04  0.16343210782E+04  0.88785286508E+03 0.  0.
        -24    2    4    4    0    0 -0.60582562842E+02 -0.30411447409E+03 -0.11239523739E+04  0.11685972661E+04  0.78706868537E+02 0.  0.
         24    2    4    4    0    0 -0.19568537995E+03  0.34994892964E+03 -0.22324791583E+03  0.46572381210E+03  0.79385237592E+02 0.  0.
         11    1    3    3    0    0  0.47542792246E+01 -0.12100441803E+02  0.30041100484E+03  0.30069219426E+03  0.00000000000E+00 0. -1.
        -11    1    3    3    0    0  0.25151366357E+03 -0.33734013749E+02  0.19214959610E+04  0.19381805476E+04  0.00000000000E+00 0.  1.
          4    1    6    6  502    0 -0.23068906808E+02  0.10063539658E+03 -0.78558193189E+02  0.12973452595E+03  0.00000000000E+00 0. -1.
          1    1    5    5  503    0 -0.37390620730E+02 -0.17911818344E+03 -0.51566384277E+03  0.54716595371E+03  0.00000000000E+00 0. -1.
         -2    1    5    5    0  503 -0.23191942112E+02 -0.12499629065E+03 -0.60828853117E+03  0.62143131238E+03  0.00000000000E+00 0.  1.
         -3    1    6    6    0  502 -0.17261647315E+03  0.24931353306E+03 -0.14468972265E+03  0.33598928615E+03  0.00000000000E+00 0.  1.
<mgrwt>
<rscale>  0 0.37731311E+04</rscale>
<asrwt>0</asrwt>
<pdfrwt beam="1">  1        2 0.23065286E+00 0.37731311E+04</pdfrwt>
<pdfrwt beam="2">  1       -2 0.36522311E+00 0.37731311E+04</pdfrwt>
<totfact> 0.12711934E-01</totfact>
</mgrwt>
</event>
<event>
12    1  0.1097093E-007  0.1401760E+04  0.7818608E-02  0.8952546E-01
         -2   -1    0    0    0  501 -0.00000000000E+00  0.00000000000E+00  0.25963812604E+03  0.25963812604E+03  0.00000000000E+00 0.  1.
          2   -1    0    0  501    0  0.00000000000E+00 -0.00000000000E+00 -0.18919889087E+04  0.18919889087E+04  0.00000000000E+00 0. -1.
         23    2    1    2    0    0 -0.10975227017E+03 -0.29874611793E+03 -0.90489808572E+03  0.96460715451E+03  0.10164454350E+03 0.  0.
        254    2    1    2    0    0  0.10975227017E+03  0.29874611793E+03 -0.72745269698E+03  0.11870198803E+04  0.88234571797E+03 0.  0.
        -24    2    4    4    0    0 -0.30908320214E+03  0.32263547968E+03 -0.16989524931E+03  0.48482871187E+03  0.81045700212E+02 0.  0.
         24    2    4    4    0    0  0.41883547231E+03 -0.23889361748E+02 -0.55755744766E+03  0.70219116839E+03  0.78792607898E+02 0.  0.
         13    1    3    3    0    0 -0.75430615994E+02 -0.22959143263E+03 -0.53966993782E+03  0.59130841830E+03  0.00000000000E+00 0.  1.
        -13    1    3    3    0    0 -0.34321654175E+02 -0.69154685300E+02 -0.36522814789E+03  0.37329873621E+03  0.00000000000E+00 0. -1.
          2    1    6    6  502    0  0.34572486453E+03 -0.49263591418E+02 -0.44702744822E+03  0.56726195259E+03  0.00000000000E+00 0. -1.
          3    1    5    5  503    0 -0.27964708686E+03  0.24844678461E+03 -0.14546932114E+03  0.40135971567E+03  0.00000000000E+00 0. -1.
         -4    1    5    5    0  503 -0.29436115274E+02  0.74188695071E+02 -0.24425928172E+02  0.83468996195E+02  0.00000000000E+00 0.  1.
         -1    1    6    6    0  502  0.73110607777E+02  0.25374229670E+02 -0.11052999944E+03  0.13492921580E+03  0.00000000000E+00 0.  1.
<mgrwt>
<rscale>  0 0.14017595E+04</rscale>
<asrwt>0</asrwt>
<pdfrwt beam="1">  1        2 0.29107522E+00 0.14017595E+04</pdfrwt>
<pdfrwt beam="2">  1       -2 0.39944326E-01 0.14017595E+04</pdfrwt>
<totfact> 0.44287284E+01</totfact>
</mgrwt>
</event>
<event>
12    1  0.1097093E-007  0.1789276E+04  0.7818608E-02  0.8712023E-01
         -2   -1    0    0    0  501 -0.00000000000E+00  0.00000000000E+00  0.32582700212E+03  0.32582700212E+03  0.00000000000E+00 0.  1.
          2   -1    0    0  501    0  0.00000000000E+00 -0.00000000000E+00 -0.24564494898E+04  0.24564494898E+04  0.00000000000E+00 0. -1.
         23    2    1    2    0    0 -0.65547046493E+03  0.60564177086E+01 -0.98441593046E+03  0.11861435170E+04  0.90462744408E+02 0.  0.
        254    2    1    2    0    0  0.65547046493E+03 -0.60564177086E+01 -0.11462065572E+04  0.15961329749E+04  0.89675681837E+03 0.  0.
        -24    2    4    4    0    0  0.22980542371E+03  0.13543879201E+03  0.78582734564E+02  0.28937934638E+03  0.80068475650E+02 0.  0.
         24    2    4    4    0    0  0.42566504122E+03 -0.14149520972E+03 -0.12247892917E+04  0.13067536285E+04  0.79275562638E+02 0.  0.
         11    1    3    3    0    0 -0.39475799078E+03 -0.32140523018E+02 -0.54368251805E+03  0.67264965988E+03  0.00000000000E+00 0. -1.
        -11    1    3    3    0    0 -0.26071247415E+03  0.38196940727E+02 -0.44073341241E+03  0.51349385709E+03  0.00000000000E+00 0.  1.
          4    1    6    6  502    0  0.32229679905E+03 -0.11931941215E+03 -0.83695956499E+03  0.90477271302E+03  0.00000000000E+00 0. -1.
          1    1    5    5  503    0  0.20018918714E+03  0.14458667609E+03  0.75512437687E+02  0.25823079948E+03  0.00000000000E+00 0. -1.
         -2    1    5    5    0  503  0.29616236562E+02 -0.91478840807E+01  0.30702968776E+01  0.31148546903E+02  0.00000000000E+00 0.  1.
         -3    1    6    6    0  502  0.10336824217E+03 -0.22175797567E+02 -0.38782972674E+03  0.40198091551E+03  0.00000000000E+00 0.  1.
<mgrwt>
<rscale>  0 0.17892765E+04</rscale>
<asrwt>0</asrwt>
<pdfrwt beam="1">  1        2 0.37791531E+00 0.17892765E+04</pdfrwt>
<pdfrwt beam="2">  1       -2 0.50127231E-01 0.17892765E+04</pdfrwt>
<totfact> 0.13136406E+01</totfact>
</mgrwt>
</event>
<event>
12    1  0.1097093E-007  0.1596749E+04  0.7818608E-02  0.8822548E-01
          1   -1    0    0  501    0  0.00000000000E+00  0.00000000000E+00  0.78939506483E+03  0.78939506483E+03  0.00000000000E+00 0. -1.
         -1   -1    0    0    0  501 -0.00000000000E+00 -0.00000000000E+00 -0.80745558312E+03  0.80745558312E+03  0.00000000000E+00 0.  1.
         23    2    1    2    0    0 -0.41023494319E+03 -0.27839655315E+03 -0.20303017571E+03  0.54214121077E+03  0.83057153471E+02 0.  0.
        254    2    1    2    0    0  0.41023494319E+03  0.27839655315E+03  0.18496965743E+03  0.10547094372E+04  0.91236005683E+03 0.  0.
        -24    2    4    4    0    0 -0.11633858171E+03 -0.23781189815E+03  0.14284121961E+03  0.31189419270E+03  0.82372379641E+02 0.  0.
         24    2    4    4    0    0  0.52657352490E+03  0.51620845130E+03  0.42128437818E+02  0.74281524448E+03  0.79049603636E+02 0.  0.
         13    1    3    3    0    0 -0.33322927029E+03 -0.22589558118E+03 -0.12783389847E+03  0.42238852467E+03  0.00000000000E+00 0.  1.
        -13    1    3    3    0    0 -0.77005672897E+02 -0.52500971974E+02 -0.75196277241E+02  0.11975268610E+03  0.00000000000E+00 0. -1.
          2    1    6    6  502    0  0.16367411394E+03  0.20832266389E+03 -0.12587964173E+01  0.26493231671E+03  0.00000000000E+00 0. -1.
          1    1    5    5  503    0 -0.14020176050E+02 -0.16684842199E+02  0.43722381088E+02  0.48852798320E+02  0.00000000000E+00 0. -1.
         -2    1    5    5    0  503 -0.10231840566E+03 -0.22112705595E+03  0.99118838522E+02  0.26304139438E+03  0.00000000000E+00 0.  1.
         -1    1    6    6    0  502  0.36289941096E+03  0.30788578740E+03  0.43387234235E+02  0.47788292777E+03  0.00000000000E+00 0.  1.
<mgrwt>
<rscale>  0 0.15967485E+04</rscale>
<asrwt>0</asrwt>
<pdfrwt beam="1">  1        1 0.12144539E+00 0.15967485E+04</pdfrwt>
<pdfrwt beam="2">  1       -1 0.12422394E+00 0.15967485E+04</pdfrwt>
<totfact> 0.12325145E+01</totfact>
</mgrwt>
</event>
<event>
12    1  0.1097093E-007  0.2300137E+04  0.7818608E-02  0.8477867E-01
          2   -1    0    0  501    0  0.00000000000E+00  0.00000000000E+00  0.20456669454E+04  0.20456669454E+04  0.00000000000E+00 0.  1.
         -2   -1    0    0    0  501 -0.00000000000E+00 -0.00000000000E+00 -0.64656530734E+03  0.64656530734E+03  0.00000000000E+00 0. -1.
         23    2    1    2    0    0 -0.82300391338E+03 -0.50624306183E+03  0.73006159492E+03  0.12143722858E+04  0.89959085375E+02 0.  0.
        254    2    1    2    0    0  0.82300391338E+03  0.50624306183E+03  0.66904004314E+03  0.14778599669E+04  0.89601228979E+03 0.  0.
        -24    2    4    4    0    0  0.73959595496E+03  0.37850098543E+03  0.51143851155E+02  0.83624258420E+03  0.80129854308E+02 0.  0.
         24    2    4    4    0    0  0.83407958424E+02  0.12774207640E+03  0.61789619199E+03  0.64161738274E+03  0.81254145428E+02 0.  0.
         13    1    3    3    0    0 -0.66601258346E+03 -0.42825906140E+03  0.55749086544E+03  0.96838765484E+03  0.00000000000E+00 0. -1.
        -13    1    3    3    0    0 -0.15699132992E+03 -0.77984000433E+02  0.17257072948E+03  0.24598463096E+03  0.00000000000E+00 0.  1.
          2    1    6    6  502    0 -0.13970772344E+02  0.33976387511E+01  0.67194304998E+02  0.68715362570E+02  0.00000000000E+00 0. -1.
          3    1    5    5  503    0  0.37977806391E+03  0.20966262849E+03  0.64388397176E+02  0.43856089806E+03  0.00000000000E+00 0. -1.
         -4    1    5    5    0  503  0.35981789105E+03  0.16883835693E+03 -0.13244546022E+02  0.39768168614E+03  0.00000000000E+00 0.  1.
         -1    1    6    6    0  502  0.97378730768E+02  0.12434443765E+03  0.55070188699E+03  0.57290202017E+03  0.00000000000E+00 0.  1.
<mgrwt>
<rscale>  0 0.23001368E+04</rscale>
<asrwt>0</asrwt>
<pdfrwt beam="1">  1        2 0.31471799E+00 0.23001368E+04</pdfrwt>
<pdfrwt beam="2">  1       -2 0.99471587E-01 0.23001368E+04</pdfrwt>
<totfact> 0.47778299E+00</totfact>
</mgrwt>
</event>
<event>
12    1  0.1097093E-007  0.5924633E+04  0.7818608E-02  0.7699817E-01
         -2   -1    0    0    0  501 -0.00000000000E+00  0.00000000000E+00  0.38826137113E+04  0.38826137113E+04  0.00000000000E+00 0. -1.
          2   -1    0    0  501    0  0.00000000000E+00 -0.00000000000E+00 -0.22601573731E+04  0.22601573731E+04  0.00000000000E+00 0.  1.
         23    2    1    2    0    0  0.26584740821E+04  0.10483828770E+04  0.12617196130E+04  0.31248450088E+04  0.78286943163E+02 0.  0.
        254    2    1    2    0    0 -0.26584740821E+04 -0.10483828770E+04  0.36073672524E+03  0.30179260756E+04  0.90064183275E+03 0.  0.
        -24    2    4    4    0    0 -0.13081492674E+04 -0.55354743934E+02  0.61589569429E+02  0.13137017767E+04  0.87752091130E+02 0.  0.
         24    2    4    4    0    0 -0.13503248147E+04 -0.99302813310E+03  0.29914715581E+03  0.17042242989E+04  0.73549044494E+02 0.  0.
         11    1    3    3    0    0  0.79892762033E+03  0.28389477724E+03  0.39719460550E+03  0.93629329898E+03  0.00000000000E+00 0.  1.
        -11    1    3    3    0    0  0.18595464618E+04  0.76448809980E+03  0.86452500746E+03  0.21885517098E+04  0.00000000000E+00 0. -1.
          2    1    6    6  502    0 -0.13111752642E+04 -0.95921894303E+03  0.30199982205E+03  0.16524180605E+04  0.00000000000E+00 0. -1.
          1    1    5    5  503    0 -0.12404016946E+04 -0.44432011068E+02  0.76226455601E+02  0.12435357012E+04  0.00000000000E+00 0. -1.
         -2    1    5    5    0  503 -0.67747572828E+02 -0.10922732866E+02 -0.14636886172E+02  0.70166075523E+02  0.00000000000E+00 0.  1.
         -1    1    6    6    0  502 -0.39149550488E+02 -0.33809190070E+02 -0.28526662405E+01  0.51806238440E+02  0.00000000000E+00 0.  1.
<mgrwt>
<rscale>  0 0.59246326E+04</rscale>
<asrwt>0</asrwt>
<pdfrwt beam="1">  1        2 0.34771652E+00 0.59246326E+04</pdfrwt>
<pdfrwt beam="2">  1       -2 0.59732518E+00 0.59246326E+04</pdfrwt>
<totfact> 0.17163086E-03</totfact>
</mgrwt>
</event>
<event>
12    1  0.1097093E-007  0.2443901E+04  0.7818608E-02  0.8423248E-01
          1   -1    0    0  501    0  0.00000000000E+00  0.00000000000E+00  0.21852074716E+04  0.21852074716E+04  0.00000000000E+00 0. -1.
         -1   -1    0    0    0  501 -0.00000000000E+00 -0.00000000000E+00 -0.68330509021E+03  0.68330509021E+03  0.00000000000E+00 0.  1.
         23    2    1    2    0    0  0.16023704954E+03 -0.99733559396E+03  0.99674261428E+03  0.14219015007E+04  0.89184300645E+02 0.  0.
        254    2    1    2    0    0 -0.16023704954E+03  0.99733559396E+03  0.50515976707E+03  0.14466110611E+04  0.90395960794E+03 0.  0.
        -24    2    4    4    0    0 -0.57060334200E+02  0.26455445270E+03  0.63156666133E+03  0.69178975314E+03  0.80322317392E+02 0.  0.
         24    2    4    4    0    0 -0.10317671534E+03  0.73278114126E+03 -0.12640689426E+03  0.75482130795E+03  0.78503939059E+02 0.  0.
         13    1    3    3    0    0  0.59035215689E+02 -0.53382340677E+03  0.57933202600E+03  0.78998619143E+03  0.00000000000E+00 0.  1.
        -13    1    3    3    0    0  0.10120183386E+03 -0.46351218718E+03  0.41741058829E+03  0.63191530924E+03  0.00000000000E+00 0. -1.
          2    1    6    6  502    0 -0.49819002567E+02  0.16412293327E+03 -0.92056161071E+01  0.17176441310E+03  0.00000000000E+00 0. -1.
          1    1    5    5  503    0 -0.26504324704E+02  0.11614164250E+03  0.37874147011E+03  0.39703458481E+03  0.00000000000E+00 0. -1.
         -2    1    5    5    0  503 -0.30556009496E+02  0.14841281020E+03  0.25282519121E+03  0.29475516833E+03  0.00000000000E+00 0.  1.
         -1    1    6    6    0  502 -0.53357712777E+02  0.56865820799E+03 -0.11720127815E+03  0.58305689485E+03  0.00000000000E+00 0.  1.
<mgrwt>
<rscale>  0 0.24439013E+04</rscale>
<asrwt>0</asrwt>
<pdfrwt beam="1">  1        1 0.33618576E+00 0.24439013E+04</pdfrwt>
<pdfrwt beam="2">  1       -1 0.10512386E+00 0.24439013E+04</pdfrwt>
<totfact> 0.16895901E+00</totfact>
</mgrwt>
</event>
<event>
12    1  0.1097093E-007  0.1133405E+04  0.7818608E-02  0.9173231E-01
         -4   -1    0    0    0  501 -0.00000000000E+00  0.00000000000E+00  0.84649825968E+03  0.84649825968E+03  0.00000000000E+00 0.  1.
          4   -1    0    0  501    0  0.00000000000E+00 -0.00000000000E+00 -0.37938885094E+03  0.37938885094E+03  0.00000000000E+00 0. -1.
         23    2    1    2    0    0  0.37220473490E+02  0.64393944855E+02 -0.10120172675E+03  0.15525345377E+03  0.91268294760E+02 0.  0.
        254    2    1    2    0    0 -0.37220473490E+02 -0.64393944855E+02  0.56831113549E+03  0.10706336569E+04  0.90429361200E+03 0.  0.
        -24    2    4    4    0    0  0.17281536713E+03  0.33894600470E+03  0.44907794399E+03  0.59388858967E+03  0.79266083129E+02 0.  0.
         24    2    4    4    0    0 -0.21003584062E+03 -0.40333994956E+03  0.11923319150E+03  0.47674506719E+03  0.79190503771E+02 0.  0.
         11    1    3    3    0    0 -0.69351474399E+01 -0.15098692426E+02  0.30748506334E+01  0.16897381140E+02  0.00000000000E+00 0.  1.
        -11    1    3    3    0    0  0.44155620930E+02  0.79492637281E+02 -0.10427657739E+03  0.13835607263E+03  0.00000000000E+00 0. -1.
          4    1    6    6  502    0 -0.17314841726E+02 -0.10107701991E+03  0.16747582704E+02  0.10390788817E+03  0.00000000000E+00 0. -1.
          1    1    5    5  503    0  0.79899412346E+02  0.23273970795E+03  0.30956880080E+03  0.39545483962E+03  0.00000000000E+00 0. -1.
         -2    1    5    5    0  503  0.92915954782E+02  0.10620629675E+03  0.13950914320E+03  0.19843375005E+03  0.00000000000E+00 0.  1.
         -3    1    6    6    0  502 -0.19272099889E+03 -0.30226292965E+03  0.10248560879E+03  0.37283717903E+03  0.00000000000E+00 0.  1.
<mgrwt>
<rscale>  0 0.11334055E+04</rscale>
<asrwt>0</asrwt>
<pdfrwt beam="1">  1        4 0.58367516E-01 0.11334055E+04</pdfrwt>
<pdfrwt beam="2">  1       -4 0.13023050E+00 0.11334055E+04</pdfrwt>
<totfact> 0.23647248E+00</totfact>
</mgrwt>
</event>
<event>
12    1  0.1097093E-007  0.1468919E+04  0.7818608E-02  0.8905389E-01
          1   -1    0    0  501    0  0.00000000000E+00  0.00000000000E+00  0.45316678824E+03  0.45316678824E+03  0.00000000000E+00 0. -1.
         -1   -1    0    0    0  501 -0.00000000000E+00 -0.00000000000E+00 -0.11903573775E+04  0.11903573775E+04  0.00000000000E+00 0.  1.
         23    2    1    2    0    0 -0.24126902071E+02 -0.66831053091E+02  0.26733628018E+03  0.29192224372E+03  0.93281362638E+02 0.  0.
        254    2    1    2    0    0  0.24126902071E+02  0.66831053091E+02 -0.10045268695E+04  0.13516019220E+04  0.90150154027E+03 0.  0.
        -24    2    4    4    0    0  0.11498742199E+03 -0.53100883367E+02 -0.11298808654E+04  0.11397748470E+04  0.80088206865E+02 0.  0.
         24    2    4    4    0    0 -0.90860519922E+02  0.11993193646E+03  0.12535399589E+03  0.21182707505E+03  0.80732781299E+02 0.  0.
         11    1    3    3    0    0 -0.14346079875E+02  0.20525096606E+02  0.97772292168E+02  0.10092824537E+03  0.00000000000E+00 0.  1.
        -11    1    3    3    0    0 -0.97808221959E+01 -0.87356149697E+02  0.16956398802E+03  0.19099399835E+03  0.00000000000E+00 0. -1.
          2    1    6    6  502    0 -0.18745474286E+02  0.26396826449E+02 -0.83430760138E+01  0.33433399022E+02  0.00000000000E+00 0. -1.
          1    1    5    5  503    0  0.40103864331E+02 -0.41321029338E+02 -0.24600587545E+03  0.25265517639E+03  0.00000000000E+00 0. -1.
         -2    1    5    5    0  503  0.74883557662E+02 -0.11779854029E+02 -0.88387498990E+03  0.88711967058E+03  0.00000000000E+00 0.  1.
         -1    1    6    6    0  502 -0.72115045636E+02  0.93535110009E+02  0.13369707191E+03  0.17839367603E+03  0.00000000000E+00 0.  1.
<mgrwt>
<rscale>  0 0.14689186E+04</rscale>
<asrwt>0</asrwt>
<pdfrwt beam="1">  1        1 0.69717968E-01 0.14689186E+04</pdfrwt>
<pdfrwt beam="2">  1       -1 0.18313190E+00 0.14689186E+04</pdfrwt>
<totfact> 0.97192240E+00</totfact>
</mgrwt>
</event>
<event>
12    1  0.1097093E-007  0.1592370E+04  0.7818608E-02  0.8825249E-01
          1   -1    0    0  501    0  0.00000000000E+00  0.00000000000E+00  0.86057736983E+03  0.86057736983E+03  0.00000000000E+00 0. -1.
         -1   -1    0    0    0  501 -0.00000000000E+00 -0.00000000000E+00 -0.73661086015E+03  0.73661086015E+03  0.00000000000E+00 0.  1.
         23    2    1    2    0    0 -0.27266881190E+03 -0.21344108356E+03  0.45181113563E+03  0.57672820255E+03  0.92610691574E+02 0.  0.
        254    2    1    2    0    0  0.27266881190E+03  0.21344108356E+03 -0.32784462595E+03  0.10204600274E+04  0.90219243607E+03 0.  0.
        -24    2    4    4    0    0  0.16540069731E+03 -0.21331357586E+03 -0.47308101042E+03  0.55040065146E+03  0.79215922601E+02 0.  0.
         24    2    4    4    0    0  0.10726811459E+03  0.42675465942E+03  0.14523638447E+03  0.47005937598E+03  0.78969752615E+02 0.  0.
         11    1    3    3    0    0 -0.54149500071E+02 -0.91856824649E+02  0.16201134987E+03  0.19395237064E+03  0.00000000000E+00 0.  1.
        -11    1    3    3    0    0 -0.21851931183E+03 -0.12158425891E+03  0.28979978577E+03  0.38277583190E+03  0.00000000000E+00 0. -1.
          2    1    6    6  502    0  0.42567360154E+01  0.73206227252E+02  0.52871509813E+02  0.90402810023E+02  0.00000000000E+00 0. -1.
          3    1    5    5  503    0  0.44017227841E+01  0.68344298769E+01 -0.91536375906E+01  0.12242290486E+02  0.00000000000E+00 0. -1.
         -4    1    5    5    0  503  0.16099897453E+03 -0.22014800573E+03 -0.46392737283E+03  0.53815836098E+03  0.00000000000E+00 0.  1.
         -1    1    6    6    0  502  0.10301137858E+03  0.35354843216E+03  0.92364874659E+02  0.37965656595E+03  0.00000000000E+00 0.  1.
<mgrwt>
<rscale>  0 0.15923701E+04</rscale>
<asrwt>0</asrwt>
<pdfrwt beam="1">  1        1 0.13239652E+00 0.15923701E+04</pdfrwt>
<pdfrwt beam="2">  1       -1 0.11332475E+00 0.15923701E+04</pdfrwt>
<totfact> 0.13397711E+01</totfact>
</mgrwt>
</event>
<event>
12    1  0.1097093E-007  0.1425126E+04  0.7818608E-02  0.8935829E-01
          2   -1    0    0  501    0  0.00000000000E+00  0.00000000000E+00  0.12003342614E+04  0.12003342614E+04  0.00000000000E+00 0. -1.
         -2   -1    0    0    0  501 -0.00000000000E+00 -0.00000000000E+00 -0.42300370599E+03  0.42300370599E+03  0.00000000000E+00 0.  1.
         23    2    1    2    0    0  0.10696504553E+03 -0.41373900278E+02  0.69800164646E+03  0.71331352822E+03  0.91959613369E+02 0.  0.
        254    2    1    2    0    0 -0.10696504553E+03  0.41373900278E+02  0.79328908944E+02  0.91002443915E+03  0.89927642217E+03 0.  0.
        -24    2    4    4    0    0 -0.54631540825E+02 -0.41909260183E+03  0.91178413613E+02  0.43973843078E+03  0.80207046043E+02 0.  0.
         24    2    4    4    0    0 -0.52333504710E+02  0.46046650210E+03 -0.11849504668E+02  0.47028600838E+03  0.79122206988E+02 0.  0.
         11    1    3    3    0    0  0.83983809178E+02  0.21069732721E+01  0.57055683299E+03  0.57670860858E+03  0.00000000000E+00 0. -1.
        -11    1    3    3    0    0  0.22981236356E+02 -0.43480873550E+02  0.12744481347E+03  0.13660491964E+03  0.00000000000E+00 0.  1.
          4    1    6    6  502    0  0.18874793307E+02  0.50696994690E+02  0.21567436217E+01  0.54139584742E+02  0.00000000000E+00 0. -1.
          1    1    5    5  503    0 -0.32833857177E+02 -0.47801201175E+02  0.17560360794E+02  0.60591940736E+02  0.00000000000E+00 0. -1.
         -2    1    5    5    0  503 -0.21797683648E+02 -0.37129140065E+03  0.73618052819E+02  0.37914649004E+03  0.00000000000E+00 0.  1.
         -3    1    6    6    0  502 -0.71208298017E+02  0.40976950741E+03 -0.14006248290E+02  0.41614642363E+03  0.00000000000E+00 0.  1.
<mgrwt>
<rscale>  0 0.14251257E+04</rscale>
<asrwt>0</asrwt>
<pdfrwt beam="1">  1        2 0.18466681E+00 0.14251257E+04</pdfrwt>
<pdfrwt beam="2">  1       -2 0.65077494E-01 0.14251257E+04</pdfrwt>
<totfact> 0.40054438E+01</totfact>
</mgrwt>
</event>
<event>
12    1  0.1097093E-007  0.2487959E+04  0.7818608E-02  0.8407288E-01
         -2   -1    0    0    0  501 -0.00000000000E+00  0.00000000000E+00  0.55640900438E+03  0.55640900438E+03  0.00000000000E+00 0.  1.
          2   -1    0    0  501    0  0.00000000000E+00 -0.00000000000E+00 -0.27812012399E+04  0.27812012399E+04  0.00000000000E+00 0. -1.
         23    2    1    2    0    0 -0.54927617012E+03 -0.67334520469E+03 -0.18290308793E+04  0.20269879900E+04  0.90709859316E+02 0.  0.
        254    2    1    2    0    0  0.54927617012E+03  0.67334520469E+03 -0.39576135627E+03  0.13106222543E+04  0.89777812771E+03 0.  0.
        -24    2    4    4    0    0 -0.64039473369E+02  0.22341617028E+03  0.21976505613E+03  0.32907724300E+03  0.77326015454E+02 0.  0.
         24    2    4    4    0    0  0.61331564349E+03  0.44992903441E+03 -0.61552641241E+03  0.98154501130E+03  0.77237492707E+02 0.  0.
         13    1    3    3    0    0 -0.72387156835E+02 -0.12018660193E+03 -0.36129574288E+03  0.38758138962E+03  0.00000000000E+00 0.  1.
        -13    1    3    3    0    0 -0.47688901329E+03 -0.55315860276E+03 -0.14677351364E+04  0.16394066004E+04  0.00000000000E+00 0. -1.
          2    1    6    6  502    0  0.13690605070E+03  0.63388593819E+02 -0.11271274063E+03  0.18832297376E+03  0.00000000000E+00 0. -1.
          1    1    5    5  503    0 -0.19593229049E+02  0.15012421006E+03  0.98658050697E+02  0.18070579415E+03  0.00000000000E+00 0. -1.
         -2    1    5    5    0  503 -0.44446244320E+02  0.73291960224E+02  0.12110700544E+03  0.14837144885E+03  0.00000000000E+00 0.  1.
         -1    1    6    6    0  502  0.47640959279E+03  0.38654044059E+03 -0.50281367178E+03  0.79322203754E+03  0.00000000000E+00 0.  1.
<mgrwt>
<rscale>  0 0.24879593E+04</rscale>
<asrwt>0</asrwt>
<pdfrwt beam="1">  1        2 0.42787710E+00 0.24879593E+04</pdfrwt>
<pdfrwt beam="2">  1       -2 0.85601387E-01 0.24879593E+04</pdfrwt>
<totfact> 0.25125759E+00</totfact>
</mgrwt>
</event>
<event>
12    1  0.1097093E-007  0.1757150E+04  0.7818608E-02  0.8729424E-01
          2   -1    0    0  501    0  0.00000000000E+00  0.00000000000E+00  0.21795314433E+03  0.21795314433E+03  0.00000000000E+00 0. -1.
         -2   -1    0    0    0  501 -0.00000000000E+00 -0.00000000000E+00 -0.35415608725E+04  0.35415608725E+04  0.00000000000E+00 0.  1.
         23    2    1    2    0    0 -0.33553733059E+03  0.92575707159E+01 -0.21582987879E+04  0.21861001473E+04  0.90051059697E+02 0.  0.
        254    2    1    2    0    0  0.33553733059E+03 -0.92575707159E+01 -0.11653089403E+04  0.15734138695E+04  0.10025045016E+04 0.  0.
        -24    2    4    4    0    0  0.87435487480E+01 -0.21908439996E+03 -0.11532712559E+04  0.11766596198E+04  0.80117708750E+02 0.  0.
         24    2    4    4    0    0  0.32679378184E+03  0.20982682924E+03 -0.12037684366E+02  0.39675424971E+03  0.80296666776E+02 0.  0.
         11    1    3    3    0    0 -0.37518459962E+02  0.29887340573E+02 -0.35478022764E+03  0.35800823718E+03  0.00000000000E+00 0. -1.
        -11    1    3    3    0    0 -0.29801887063E+03 -0.20629769857E+02 -0.18035185603E+04  0.18280919102E+04  0.00000000000E+00 0.  1.
          4    1    6    6  502    0  0.14762749531E+03  0.92256144869E+02  0.34481741627E+02  0.17746567032E+03  0.00000000000E+00 0. -1.
          3    1    5    5  503    0  0.44319719513E+02 -0.10944355664E+03 -0.60016154881E+03  0.61166658753E+03  0.00000000000E+00 0. -1.
         -4    1    5    5    0  503 -0.35576170765E+02 -0.10964084332E+03 -0.55310970709E+03  0.56499303228E+03  0.00000000000E+00 0.  1.
         -3    1    6    6    0  502  0.17916628654E+03  0.11757068438E+03 -0.46519425993E+02  0.21928857939E+03  0.00000000000E+00 0.  1.
<mgrwt>
<rscale>  0 0.17571503E+04</rscale>
<asrwt>0</asrwt>
<pdfrwt beam="1">  1        2 0.33531252E-01 0.17571503E+04</pdfrwt>
<pdfrwt beam="2">  1       -2 0.54485553E+00 0.17571503E+04</pdfrwt>
<totfact> 0.13357161E-01</totfact>
</mgrwt>
</event>
<event>
12    1  0.1097093E-007  0.1211257E+04  0.7818608E-02  0.9103060E-01
          2   -1    0    0  501    0  0.00000000000E+00  0.00000000000E+00  0.99056508725E+03  0.99056508725E+03  0.00000000000E+00 0. -1.
         -2   -1    0    0    0  501 -0.00000000000E+00 -0.00000000000E+00 -0.37027966237E+03  0.37027966237E+03  0.00000000000E+00 0.  1.
         23    2    1    2    0    0 -0.12099716821E+03 -0.12708141936E+03  0.34567890347E+03  0.39843432302E+03  0.92010888450E+02 0.  0.
        254    2    1    2    0    0  0.12099716821E+03  0.12708141936E+03  0.27460652140E+03  0.96241042660E+03  0.90555788648E+03 0.  0.
        -24    2    4    4    0    0  0.38248072610E+03  0.23417281414E+03  0.43354691852E+03  0.62885904188E+03  0.79827008442E+02 0.  0.
         24    2    4    4    0    0 -0.26148355789E+03 -0.10709139478E+03 -0.15894039711E+03  0.33355138472E+03  0.78436334258E+02 0.  0.
         11    1    3    3    0    0 -0.12842418217E+03 -0.98310875028E+02  0.32238005226E+03  0.36067533435E+03  0.00000000000E+00 0. -1.
        -11    1    3    3    0    0  0.74270139606E+01 -0.28770544328E+02  0.23298851211E+02  0.37758988666E+02  0.00000000000E+00 0.  1.
          2    1    6    6  502    0 -0.25352041974E+03 -0.81696865773E+02 -0.14854287227E+03  0.30497863204E+03  0.00000000000E+00 0. -1.
          1    1    5    5  503    0  0.31504047292E+03  0.17753218111E+03  0.30517403528E+03  0.47318005740E+03  0.00000000000E+00 0. -1.
         -2    1    5    5    0  503  0.67440253177E+02  0.56640633031E+02  0.12837288324E+03  0.15567898448E+03  0.00000000000E+00 0.  1.
         -1    1    6    6    0  502 -0.79631381548E+01 -0.25394529008E+02 -0.10397524845E+02  0.28572752680E+02  0.00000000000E+00 0.  1.
<mgrwt>
<rscale>  0 0.12112574E+04</rscale>
<asrwt>0</asrwt>
<pdfrwt beam="1">  1        2 0.15239463E+00 0.12112574E+04</pdfrwt>
<pdfrwt beam="2">  1       -2 0.56966102E-01 0.12112574E+04</pdfrwt>
<totfact> 0.72769954E+01</totfact>
</mgrwt>
</event>
<event>
12    1  0.1097093E-007  0.2325878E+04  0.7818608E-02  0.8467787E-01
          2   -1    0    0  501    0  0.00000000000E+00  0.00000000000E+00  0.13396086359E+04  0.13396086359E+04  0.00000000000E+00 0.  1.
         -2   -1    0    0    0  501 -0.00000000000E+00 -0.00000000000E+00 -0.10095692053E+04  0.10095692053E+04  0.00000000000E+00 0. -1.
         23    2    1    2    0    0  0.39538984849E+03  0.80846397376E+03  0.54971671621E+03  0.10585299503E+04  0.91378654717E+02 0.  0.
        254    2    1    2    0    0 -0.39538984849E+03 -0.80846397376E+03 -0.21967728558E+03  0.12906478908E+04  0.89864717162E+03 0.  0.
        -24    2    4    4    0    0 -0.43803491426E+03 -0.93857458562E+03 -0.33833876362E+03  0.10925960928E+04  0.80599405954E+02 0.  0.
         24    2    4    4    0    0  0.42645065775E+02  0.13011061186E+03  0.11866147803E+03  0.19805179796E+03  0.79978718111E+02 0.  0.
         11    1    3    3    0    0  0.22150281942E+03  0.35255891711E+03  0.23975148100E+03  0.48046026026E+03  0.00000000000E+00 0.  1.
        -11    1    3    3    0    0  0.17388702907E+03  0.45590505665E+03  0.30996523521E+03  0.57806969009E+03  0.00000000000E+00 0. -1.
          4    1    6    6  502    0 -0.22574562961E+02  0.40729504999E+02  0.47376199467E+02  0.66430473025E+02  0.00000000000E+00 0. -1.
          3    1    5    5  503    0 -0.86108151327E+02 -0.23419051252E+03 -0.11047539320E+03  0.27288206680E+03  0.00000000000E+00 0. -1.
         -4    1    5    5    0  503 -0.35192676294E+03 -0.70438407310E+03 -0.22786337042E+03  0.81971402604E+03  0.00000000000E+00 0.  1.
         -3    1    6    6    0  502  0.65219628736E+02  0.89381106861E+02  0.71285278568E+02  0.13162132493E+03  0.00000000000E+00 0.  1.
<mgrwt>
<rscale>  0 0.23258784E+04</rscale>
<asrwt>0</asrwt>
<pdfrwt beam="1">  1        2 0.20609364E+00 0.23258784E+04</pdfrwt>
<pdfrwt beam="2">  1       -2 0.15531834E+00 0.23258784E+04</pdfrwt>
<totfact> 0.38727701E+00</totfact>
</mgrwt>
</event>
<event>
12    1  0.1097093E-007  0.1568521E+04  0.7818608E-02  0.8840124E-01
         -2   -1    0    0    0  501 -0.00000000000E+00  0.00000000000E+00  0.20783637578E+03  0.20783637578E+03  0.00000000000E+00 0.  1.
          2   -1    0    0  501    0  0.00000000000E+00 -0.00000000000E+00 -0.29593677467E+04  0.29593677467E+04  0.00000000000E+00 0. -1.
         23    2    1    2    0    0 -0.47932747943E+03  0.36204108920E+02 -0.52090307515E+03  0.71459249295E+03  0.90757078141E+02 0.  0.
        254    2    1    2    0    0  0.47932747943E+03 -0.36204108920E+02 -0.22306282958E+04  0.24526116296E+04  0.89918609944E+03 0.  0.
        -24    2    4    4    0    0 -0.19256136414E+03 -0.22660407739E+03 -0.83961639994E+03  0.89413126337E+03  0.78011090474E+02 0.  0.
         24    2    4    4    0    0  0.67188884357E+03  0.19039996847E+03 -0.13910118959E+04  0.15584803662E+04  0.79121370641E+02 0.  0.
         11    1    3    3    0    0 -0.65784915036E+02  0.13890591016E+02 -0.12352103025E+03  0.14063444983E+03  0.00000000000E+00 0. -1.
        -11    1    3    3    0    0 -0.41354256440E+03  0.22313517904E+02 -0.39738204490E+03  0.57395804312E+03  0.00000000000E+00 0.  1.
          4    1    6    6  502    0  0.65919701569E+03  0.17362079096E+03 -0.13536029731E+04  0.15155612470E+04  0.00000000000E+00 0. -1.
          3    1    5    5  503    0 -0.78671506774E+02 -0.98335876413E+02 -0.24789648089E+03  0.27805002393E+03  0.00000000000E+00 0. -1.
         -4    1    5    5    0  503 -0.11388985737E+03 -0.12826820098E+03 -0.59171991905E+03  0.61608123944E+03  0.00000000000E+00 0.  1.
         -3    1    6    6    0  502  0.12691827888E+02  0.16779177510E+02 -0.37408922762E+02  0.42919119228E+02  0.00000000000E+00 0.  1.
<mgrwt>
<rscale>  0 0.15685207E+04</rscale>
<asrwt>0</asrwt>
<pdfrwt beam="1">  1        2 0.45528731E+00 0.15685207E+04</pdfrwt>
<pdfrwt beam="2">  1       -2 0.31974830E-01 0.15685207E+04</pdfrwt>
<totfact> 0.16239399E+01</totfact>
</mgrwt>
</event>
<event>
12    1  0.1097093E-007  0.1048699E+04  0.7818608E-02  0.9256688E-01
         -2   -1    0    0    0  501 -0.00000000000E+00  0.00000000000E+00  0.37188383970E+03  0.37188383970E+03  0.00000000000E+00 0.  1.
          2   -1    0    0  501    0  0.00000000000E+00 -0.00000000000E+00 -0.73932337930E+03  0.73932337930E+03  0.00000000000E+00 0. -1.
         23    2    1    2    0    0 -0.12429604483E+03 -0.51557256537E+02 -0.13440815344E+03  0.21477912486E+03  0.99784083416E+02 0.  0.
        254    2    1    2    0    0  0.12429604483E+03  0.51557256537E+02 -0.23303138616E+03  0.89642809414E+03  0.85508598607E+03 0.  0.
        -24    2    4    4    0    0 -0.24769326083E+03  0.30006081137E+03 -0.19045305314E+03  0.44029860249E+03  0.78753107405E+02 0.  0.
         24    2    4    4    0    0  0.37198930566E+03 -0.24850355483E+03 -0.42578333020E+02  0.45612949165E+03  0.78173770670E+02 0.  0.
         13    1    3    3    0    0 -0.39992356709E+02 -0.50094546727E+02 -0.10946265490E+03  0.12685000995E+03  0.00000000000E+00 0. -1.
        -13    1    3    3    0    0 -0.84303688125E+02 -0.14627098101E+01 -0.24945498536E+02  0.87929114909E+02  0.00000000000E+00 0.  1.
          4    1    6    6  502    0  0.12307531264E+03 -0.44478542092E+02 -0.28753378332E+02  0.13398742498E+03  0.00000000000E+00 0. -1.
          3    1    5    5  503    0 -0.25735882133E+02  0.15655669453E+02 -0.38384625758E+02  0.48793597016E+02  0.00000000000E+00 0. -1.
         -4    1    5    5    0  503 -0.22195737869E+03  0.28440514192E+03 -0.15206842739E+03  0.39150500548E+03  0.00000000000E+00 0.  1.
         -3    1    6    6    0  502  0.24891399302E+03 -0.20402501274E+03 -0.13824954688E+02  0.32214206667E+03  0.00000000000E+00 0.  1.
<mgrwt>
<rscale>  0 0.10486990E+04</rscale>
<asrwt>0</asrwt>
<pdfrwt beam="1">  1        2 0.11374206E+00 0.10486990E+04</pdfrwt>
<pdfrwt beam="2">  1       -2 0.57212899E-01 0.10486990E+04</pdfrwt>
<totfact> 0.10895324E+02</totfact>
</mgrwt>
</event>
<event>
12    1  0.1097093E-007  0.1622395E+04  0.7818608E-02  0.8806907E-01
         -1   -1    0    0    0  501 -0.00000000000E+00  0.00000000000E+00  0.10060901903E+04  0.10060901903E+04  0.00000000000E+00 0.  1.
          1   -1    0    0  501    0  0.00000000000E+00 -0.00000000000E+00 -0.65405800290E+03  0.65405800290E+03  0.00000000000E+00 0. -1.
         23    2    1    2    0    0  0.59645225122E+02 -0.15553998052E+03 -0.42083488369E+03  0.46149535291E+03  0.90142792307E+02 0.  0.
        254    2    1    2    0    0 -0.59645225122E+02  0.15553998052E+03  0.77286707110E+03  0.11986528403E+04  0.90094110993E+03 0.  0.
        -24    2    4    4    0    0 -0.46979325729E+03  0.47111265541E+02  0.34150316107E+03  0.58883072019E+03  0.84687850866E+02 0.  0.
         24    2    4    4    0    0  0.41014803216E+03  0.10842871498E+03  0.43136391002E+03  0.60982212011E+03  0.76354441813E+02 0.  0.
         11    1    3    3    0    0  0.32988299635E+02 -0.13372810072E+03 -0.39532861115E+03  0.41863605152E+03  0.00000000000E+00 0. -1.
        -11    1    3    3    0    0  0.26656925487E+02 -0.21811879801E+02 -0.25506272539E+02  0.42859301391E+02  0.00000000000E+00 0.  1.
          2    1    6    6  502    0  0.84868101770E+02 -0.74296583715E+01  0.73264115229E+02  0.11236291693E+03  0.00000000000E+00 0. -1.
          1    1    5    5  503    0 -0.23888658147E+03  0.65866436305E+02  0.18533526761E+03  0.30944199402E+03  0.00000000000E+00 0. -1.
         -2    1    5    5    0  503 -0.23090667581E+03 -0.18755170764E+02  0.15616789346E+03  0.27938872617E+03  0.00000000000E+00 0.  1.
         -1    1    6    6    0  502  0.32527993039E+03  0.11585837335E+03  0.35809979480E+03  0.49745920318E+03  0.00000000000E+00 0.  1.
<mgrwt>
<rscale>  0 0.16223949E+04</rscale>
<asrwt>0</asrwt>
<pdfrwt beam="1">  1        1 0.10062431E+00 0.16223949E+04</pdfrwt>
<pdfrwt beam="2">  1       -1 0.15478311E+00 0.16223949E+04</pdfrwt>
<totfact> 0.92590351E+00</totfact>
</mgrwt>
</event>
<event>
12    1  0.1097093E-007  0.2463962E+04  0.7818608E-02  0.8415938E-01
          1   -1    0    0  501    0  0.00000000000E+00  0.00000000000E+00  0.30085277010E+04  0.30085277010E+04  0.00000000000E+00 0. -1.
         -1   -1    0    0    0  501 -0.00000000000E+00 -0.00000000000E+00 -0.50449162325E+03  0.50449162325E+03  0.00000000000E+00 0.  1.
         23    2    1    2    0    0  0.86287055869E+03  0.61918222722E+03  0.96491037680E+03  0.14377410370E+04  0.90083420744E+02 0.  0.
        254    2    1    2    0    0 -0.86287055869E+03 -0.61918222722E+03  0.15391257009E+04  0.20752782872E+04  0.89996656304E+03 0.  0.
        -24    2    4    4    0    0 -0.34307487296E+03 -0.19962155719E+03  0.11358382541E+02  0.40581738965E+03  0.83723391811E+02 0.  0.
         24    2    4    4    0    0 -0.51979568573E+03 -0.41956067003E+03  0.15277673184E+04  0.16694608976E+04  0.82510597158E+02 0.  0.
         11    1    3    3    0    0  0.40130368862E+03  0.23446131481E+03  0.43471800718E+03  0.63639335666E+03  0.00000000000E+00 0.  1.
        -11    1    3    3    0    0  0.46156687007E+03  0.38472091241E+03  0.53019236963E+03  0.80134768035E+03  0.00000000000E+00 0. -1.
          2    1    6    6  502    0 -0.26976519631E+03 -0.18256631938E+03  0.81917864458E+03  0.88156529755E+03  0.00000000000E+00 0. -1.
          1    1    5    5  503    0 -0.11716445036E+03 -0.11547897848E+03  0.85346313028E+01  0.16472930167E+03  0.00000000000E+00 0. -1.
         -2    1    5    5    0  503 -0.22591042260E+03 -0.84142578707E+02  0.28237512383E+01  0.24108808798E+03  0.00000000000E+00 0.  1.
         -1    1    6    6    0  502 -0.25003048941E+03 -0.23699435065E+03  0.70858867382E+03  0.78789560002E+03  0.00000000000E+00 0.  1.
<mgrwt>
<rscale>  0 0.24639619E+04</rscale>
<asrwt>0</asrwt>
<pdfrwt beam="1">  1        1 0.46285040E+00 0.24639619E+04</pdfrwt>
<pdfrwt beam="2">  1       -1 0.77614098E-01 0.24639619E+04</pdfrwt>
<totfact> 0.87359339E-01</totfact>
</mgrwt>
</event>
<event>
12    1  0.1097093E-007  0.1637925E+04  0.7818608E-02  0.8797582E-01
          2   -1    0    0  501    0  0.00000000000E+00  0.00000000000E+00  0.65689244736E+03  0.65689244736E+03  0.00000000000E+00 0.  1.
         -2   -1    0    0    0  501 -0.00000000000E+00 -0.00000000000E+00 -0.10210185687E+04  0.10210185687E+04  0.00000000000E+00 0. -1.
         23    2    1    2    0    0 -0.25733987294E+03  0.19829896913E+03  0.35713872868E+03  0.49172776017E+03  0.93283585002E+02 0.  0.
        254    2    1    2    0    0  0.25733987294E+03 -0.19829896913E+03 -0.72126485007E+03  0.11861832559E+04  0.88388994868E+03 0.  0.
        -24    2    4    4    0    0  0.82865091499E+02  0.34313283068E+03 -0.21953524311E+03  0.42355696078E+03  0.81228155066E+02 0.  0.
         24    2    4    4    0    0  0.17447478144E+03 -0.54143179981E+03 -0.50172960695E+03  0.76262629517E+03  0.79223887711E+02 0.  0.
         11    1    3    3    0    0 -0.11245093802E+03  0.59992785029E+02  0.82574719522E+02  0.15186484788E+03  0.00000000000E+00 0.  1.
        -11    1    3    3    0    0 -0.14488893492E+03  0.13830618411E+03  0.27456400916E+03  0.33986291229E+03  0.00000000000E+00 0. -1.
          2    1    6    6  502    0  0.20434266295E+02 -0.86961170057E+02 -0.11914475851E+03  0.14891365894E+03  0.00000000000E+00 0. -1.
          3    1    5    5  503    0 -0.14063424738E+02  0.91350369301E+02 -0.56121519740E+02  0.10813091540E+03  0.00000000000E+00 0. -1.
         -4    1    5    5    0  503  0.96928516236E+02  0.25178246138E+03 -0.16341372337E+03  0.31542604538E+03  0.00000000000E+00 0.  1.
         -1    1    6    6    0  502  0.15404051515E+03 -0.45447062975E+03 -0.38258484844E+03  0.61371263623E+03  0.00000000000E+00 0.  1.
<mgrwt>
<rscale>  0 0.16379248E+04</rscale>
<asrwt>0</asrwt>
<pdfrwt beam="1">  1        2 0.10106038E+00 0.16379248E+04</pdfrwt>
<pdfrwt beam="2">  1       -2 0.15707978E+00 0.16379248E+04</pdfrwt>
<totfact> 0.11228699E+01</totfact>
</mgrwt>
</event>
<event>
12    1  0.1097093E-007  0.1448866E+04  0.7818608E-02  0.8919187E-01
          2   -1    0    0  501    0  0.00000000000E+00  0.00000000000E+00  0.19378364992E+04  0.19378364992E+04  0.00000000000E+00 0. -1.
         -2   -1    0    0    0  501 -0.00000000000E+00 -0.00000000000E+00 -0.27081912368E+03  0.27081912368E+03  0.00000000000E+00 0.  1.
         23    2    1    2    0    0  0.23476018890E+03 -0.18182083315E+03  0.10258195700E+04  0.10714067830E+04  0.86229593523E+02 0.  0.
        254    2    1    2    0    0 -0.23476018890E+03  0.18182083315E+03  0.64119780555E+03  0.11372488399E+04  0.89108312540E+03 0.  0.
        -24    2    4    4    0    0 -0.46304017664E+03  0.34249713799E+02  0.70403344702E+03  0.84706943565E+03  0.79273490024E+02 0.  0.
         24    2    4    4    0    0  0.22827998774E+03  0.14757111935E+03 -0.62835641465E+02  0.29017940426E+03  0.79792109589E+02 0.  0.
         11    1    3    3    0    0  0.15159963764E+03 -0.78609123696E+02  0.47184720161E+03  0.50179839192E+03  0.00000000000E+00 0. -1.
        -11    1    3    3    0    0  0.83160551267E+02 -0.10321170945E+03  0.55397236837E+03  0.56960839106E+03  0.00000000000E+00 0.  1.
          2    1    6    6  502    0  0.58056769789E+02  0.19487315021E+02 -0.45796343824E+02  0.76469922667E+02  0.00000000000E+00 0. -1.
          3    1    5    5  503    0 -0.45402326462E+03  0.31911357287E+02  0.65782074468E+03  0.79992724149E+03  0.00000000000E+00 0. -1.
         -4    1    5    5    0  503 -0.90169120178E+01  0.23383565130E+01  0.46212702334E+02  0.47142194163E+02  0.00000000000E+00 0.  1.
         -1    1    6    6    0  502  0.17022321795E+03  0.12808380433E+03 -0.17039297641E+02  0.21370948159E+03  0.00000000000E+00 0.  1.
<mgrwt>
<rscale>  0 0.14488660E+04</rscale>
<asrwt>0</asrwt>
<pdfrwt beam="1">  1        2 0.29812868E+00 0.14488660E+04</pdfrwt>
<pdfrwt beam="2">  1       -2 0.41664482E-01 0.14488660E+04</pdfrwt>
<totfact> 0.38311190E+01</totfact>
</mgrwt>
</event>
<event>
12    1  0.1097093E-007  0.2321657E+04  0.7818608E-02  0.8469431E-01
         -1   -1    0    0    0  501 -0.00000000000E+00  0.00000000000E+00  0.21205812476E+04  0.21205812476E+04  0.00000000000E+00 0.  1.
          1   -1    0    0  501    0  0.00000000000E+00 -0.00000000000E+00 -0.63544988767E+03  0.63544988767E+03  0.00000000000E+00 0. -1.
         23    2    1    2    0    0 -0.37515416054E+03 -0.69903763680E+03  0.13265817599E+04  0.15485396352E+04  0.93603281059E+02 0.  0.
        254    2    1    2    0    0  0.37515416054E+03  0.69903763680E+03  0.15854959998E+03  0.12074915000E+04  0.89638355919E+03 0.  0.
        -24    2    4    4    0    0  0.44191737064E+03  0.74256564849E+03 -0.14752344823E+03  0.88015417517E+03  0.78825754050E+02 0.  0.
         24    2    4    4    0    0 -0.66763210101E+02 -0.43528011687E+02  0.30607304821E+03  0.32733732487E+03  0.84362310249E+02 0.  0.
         13    1    3    3    0    0 -0.32680856509E+01 -0.12278164893E+01 -0.71393315607E+00  0.35633716764E+01  0.00000000000E+00 0. -1.
        -13    1    3    3    0    0 -0.37188607488E+03 -0.69780982031E+03  0.13272956931E+04  0.15449762635E+04  0.00000000000E+00 0.  1.
          4    1    6    6  502    0 -0.47946070858E+02  0.18381025083E+02  0.13632904902E+03  0.14567874725E+03  0.00000000000E+00 0. -1.
          1    1    5    5  503    0  0.10024529641E+03  0.14164000854E+03 -0.58793373747E+02  0.18321482546E+03  0.00000000000E+00 0. -1.
         -2    1    5    5    0  503  0.34167207423E+03  0.60092563995E+03 -0.88730074484E+02  0.69693934971E+03  0.00000000000E+00 0.  1.
         -3    1    6    6    0  502 -0.18817139242E+02 -0.61909036770E+02  0.16974399918E+03  0.18165857762E+03  0.00000000000E+00 0.  1.
<mgrwt>
<rscale>  0 0.23216573E+04</rscale>
<asrwt>0</asrwt>
<pdfrwt beam="1">  1        1 0.97761522E-01 0.23216573E+04</pdfrwt>
<pdfrwt beam="2">  1       -1 0.32624327E+00 0.23216573E+04</pdfrwt>
<totfact> 0.63332541E-01</totfact>
</mgrwt>
</event>
<event>
12    1  0.1097093E-007  0.1092101E+04  0.7818608E-02  0.9212925E-01
         -2   -1    0    0    0  501 -0.00000000000E+00  0.00000000000E+00  0.22892124121E+03  0.22892124121E+03  0.00000000000E+00 0.  1.
          2   -1    0    0  501    0  0.00000000000E+00 -0.00000000000E+00 -0.13025063707E+04  0.13025063707E+04  0.00000000000E+00 0. -1.
         23    2    1    2    0    0 -0.29948062935E+01  0.67341774525E+02 -0.36381043632E+03  0.38156902541E+03  0.93236281081E+02 0.  0.
        254    2    1    2    0    0  0.29948062935E+01 -0.67341774525E+02 -0.70977469314E+03  0.11498585865E+04  0.90213678033E+03 0.  0.
        -24    2    4    4    0    0  0.25346860912E+03  0.29558200652E+03 -0.13477714102E+03  0.42128738826E+03  0.87767461914E+02 0.  0.
         24    2    4    4    0    0 -0.25047380283E+03 -0.36292378105E+03 -0.57499755212E+03  0.72857119823E+03  0.75782644412E+02 0.  0.
         13    1    3    3    0    0 -0.39661011791E+02  0.11639790806E+02 -0.80211429528E+02  0.90234993285E+02  0.00000000000E+00 0.  1.
        -13    1    3    3    0    0  0.36666205497E+02  0.55701983719E+02 -0.28359900680E+03  0.29133403212E+03  0.00000000000E+00 0. -1.
          4    1    6    6  502    0 -0.15148794755E+03 -0.27976464934E+03 -0.41006528170E+03  0.51900904861E+03  0.00000000000E+00 0. -1.
          1    1    5    5  503    0  0.25859451223E+03  0.29673746791E+03 -0.13105824585E+03  0.41484998545E+03  0.00000000000E+00 0. -1.
         -2    1    5    5    0  503 -0.51259031051E+01 -0.11554613907E+01 -0.37188951684E+01  0.64374028103E+01  0.00000000000E+00 0.  1.
         -3    1    6    6    0  502 -0.98985855280E+02 -0.83159131704E+02 -0.16493227041E+03  0.20956214962E+03  0.00000000000E+00 0.  1.
<mgrwt>
<rscale>  0 0.10921014E+04</rscale>
<asrwt>0</asrwt>
<pdfrwt beam="1">  1        2 0.20038560E+00 0.10921014E+04</pdfrwt>
<pdfrwt beam="2">  1       -2 0.35218652E-01 0.10921014E+04</pdfrwt>
<totfact> 0.12376608E+02</totfact>
</mgrwt>
</event>
<event>
12    1  0.1097093E-007  0.1242837E+04  0.7818608E-02  0.9076166E-01
         -2   -1    0    0    0  501 -0.00000000000E+00  0.00000000000E+00  0.15746788705E+03  0.15746788705E+03  0.00000000000E+00 0.  1.
          2   -1    0    0  501    0  0.00000000000E+00 -0.00000000000E+00 -0.24523169815E+04  0.24523169815E+04  0.00000000000E+00 0. -1.
         23    2    1    2    0    0 -0.25837464457E+03 -0.38577112073E+02 -0.71966458203E+03  0.77062419738E+03  0.87743332663E+02 0.  0.
        254    2    1    2    0    0  0.25837464457E+03  0.38577112073E+02 -0.15751845124E+04  0.18391606712E+04  0.91272124752E+03 0.  0.
        -24    2    4    4    0    0  0.55354392443E+03 -0.12558398681E+03 -0.75070763917E+03  0.94473628294E+03  0.82355757406E+02 0.  0.
         24    2    4    4    0    0 -0.29516927986E+03  0.16416109888E+03 -0.82447687326E+03  0.89442438824E+03  0.78479943790E+02 0.  0.
         13    1    3    3    0    0 -0.23456936245E+03 -0.61007458033E+01 -0.63199252079E+03  0.67414727711E+03  0.00000000000E+00 0. -1.
        -13    1    3    3    0    0 -0.23805282122E+02 -0.32476366270E+02 -0.87672061239E+02  0.96476920271E+02  0.00000000000E+00 0.  1.
          2    1    6    6  502    0 -0.75642673470E+02  0.45369992594E+02 -0.13602655048E+03  0.16212178359E+03  0.00000000000E+00 0. -1.
          1    1    5    5  503    0  0.19320959998E+03 -0.35433661448E+02 -0.32512061171E+03  0.37985379562E+03  0.00000000000E+00 0. -1.
         -4    1    5    5    0  503  0.36033432445E+03 -0.90150325360E+02 -0.42558702747E+03  0.56488248732E+03  0.00000000000E+00 0.  1.
         -1    1    6    6    0  502 -0.21952660639E+03  0.11879110629E+03 -0.68845032277E+03  0.73230260465E+03  0.00000000000E+00 0.  1.
<mgrwt>
<rscale>  0 0.12428374E+04</rscale>
<asrwt>0</asrwt>
<pdfrwt beam="1">  1        2 0.37727952E+00 0.12428374E+04</pdfrwt>
<pdfrwt beam="2">  1       -2 0.24225830E-01 0.12428374E+04</pdfrwt>
<totfact> 0.55714005E+01</totfact>
</mgrwt>
</event>
<event>
12    1  0.1097093E-007  0.1482303E+04  0.7818608E-02  0.8896307E-01
          2   -1    0    0  501    0  0.00000000000E+00  0.00000000000E+00  0.24953493046E+04  0.24953493046E+04  0.00000000000E+00 0. -1.
         -2   -1    0    0    0  501 -0.00000000000E+00 -0.00000000000E+00 -0.22013180624E+03  0.22013180624E+03  0.00000000000E+00 0.  1.
         23    2    1    2    0    0 -0.13647098666E+01 -0.38821004696E+02 -0.11771024515E+03  0.15396518176E+03  0.91327118329E+02 0.  0.
        254    2    1    2    0    0  0.13647098666E+01  0.38821004696E+02  0.23929277435E+04  0.25615159290E+04  0.91310006920E+03 0.  0.
        -24    2    4    4    0    0 -0.10269477719E+03 -0.43820733953E+02 -0.25210576041E+02  0.13845536331E+03  0.77896344571E+02 0.  0.
         24    2    4    4    0    0  0.10405948706E+03  0.82641738649E+02  0.24181383195E+04  0.24230605657E+04  0.78559143652E+02 0.  0.
         11    1    3    3    0    0 -0.32834431985E+02  0.11905157094E+02 -0.22361477310E+02  0.41471295575E+02  0.00000000000E+00 0. -1.
        -11    1    3    3    0    0  0.31469722118E+02 -0.50726161790E+02 -0.95348767841E+02  0.11249388618E+03  0.00000000000E+00 0.  1.
          2    1    6    6  502    0 -0.98206727348E+01  0.92615534980E+01  0.92508940422E+02  0.93488641257E+02  0.00000000000E+00 0. -1.
          3    1    5    5  503    0 -0.38551404986E+02 -0.10731327601E+02 -0.48256274727E+02  0.62690033251E+02  0.00000000000E+00 0. -1.
         -4    1    5    5    0  503 -0.64143372207E+02 -0.33089406352E+02  0.23045698685E+02  0.75765330057E+02  0.00000000000E+00 0.  1.
         -1    1    6    6    0  502  0.11388015979E+03  0.73380185151E+02  0.23256293791E+04  0.23295719245E+04  0.00000000000E+00 0.  1.
<mgrwt>
<rscale>  0 0.14823033E+04</rscale>
<asrwt>0</asrwt>
<pdfrwt beam="1">  1        2 0.38389987E+00 0.14823033E+04</pdfrwt>
<pdfrwt beam="2">  1       -2 0.33866434E-01 0.14823033E+04</pdfrwt>
<totfact> 0.27727190E+01</totfact>
</mgrwt>
</event>
<event>
12    1  0.1097093E-007  0.1978597E+04  0.7818608E-02  0.8616693E-01
          2   -1    0    0  501    0  0.00000000000E+00  0.00000000000E+00  0.32788845951E+04  0.32788845951E+04  0.00000000000E+00 0. -1.
         -2   -1    0    0    0  501 -0.00000000000E+00 -0.00000000000E+00 -0.29848928302E+03  0.29848928302E+03  0.00000000000E+00 0.  1.
         23    2    1    2    0    0  0.49197992961E+03  0.37568522479E+03  0.30699536953E+03  0.69403940017E+03  0.65275514682E+02 0.  0.
        254    2    1    2    0    0 -0.49197992961E+03 -0.37568522479E+03  0.26733999425E+04  0.28833344779E+04  0.88508012049E+03 0.  0.
        -24    2    4    4    0    0 -0.65039131077E+03  0.10034067746E+02  0.16108191325E+04  0.17390287347E+04  0.79831839640E+02 0.  0.
         24    2    4    4    0    0  0.15841138116E+03 -0.38571929253E+03  0.10625808100E+04  0.11443057433E+04  0.80524021214E+02 0.  0.
         13    1    3    3    0    0  0.37743574556E+03  0.29873451353E+03  0.26662868641E+03  0.55026439828E+03  0.00000000000E+00 0. -1.
        -13    1    3    3    0    0  0.11454418405E+03  0.76950711257E+02  0.40366683121E+02  0.14377500189E+03  0.00000000000E+00 0.  1.
          4    1    6    6  502    0  0.16770068206E+03 -0.35554841068E+03  0.98239398499E+03  0.10581285994E+04  0.00000000000E+00 0. -1.
          1    1    5    5  503    0 -0.21215573432E+03 -0.32701591781E+02  0.55580735708E+03  0.59581982838E+03  0.00000000000E+00 0. -1.
         -2    1    5    5    0  503 -0.43823557645E+03  0.42735659526E+02  0.10550117755E+04  0.11432089063E+04  0.00000000000E+00 0.  1.
         -3    1    6    6    0  502 -0.92893008930E+01 -0.30170881852E+02  0.80186825025E+02  0.86177143898E+02  0.00000000000E+00 0.  1.
<mgrwt>
<rscale>  0 0.19785974E+04</rscale>
<asrwt>0</asrwt>
<pdfrwt beam="1">  1        2 0.50444376E+00 0.19785974E+04</pdfrwt>
<pdfrwt beam="2">  1       -2 0.45921431E-01 0.19785974E+04</pdfrwt>
<totfact> 0.48349858E+00</totfact>
</mgrwt>
</event>
<event>
12    1  0.1097093E-007  0.1191192E+04  0.7818608E-02  0.9120601E-01
         -2   -1    0    0    0  501 -0.00000000000E+00  0.00000000000E+00  0.41307558193E+03  0.41307558193E+03  0.00000000000E+00 0.  1.
          2   -1    0    0  501    0  0.00000000000E+00 -0.00000000000E+00 -0.85876419881E+03  0.85876419881E+03  0.00000000000E+00 0. -1.
         23    2    1    2    0    0  0.71341931150E+02  0.22733949888E+03 -0.96824340238E+02  0.27464833928E+03  0.96352677785E+02 0.  0.
        254    2    1    2    0    0 -0.71341931150E+02 -0.22733949888E+03 -0.34886427664E+03  0.99719144146E+03  0.90327823427E+03 0.  0.
        -24    2    4    4    0    0  0.39548062820E+03 -0.20844729119E+03 -0.11532277852E+03  0.46878158286E+03  0.81250407384E+02 0.  0.
         24    2    4    4    0    0 -0.46682255935E+03 -0.18892207686E+02 -0.23354149812E+03  0.52840985860E+03  0.79969556036E+02 0.  0.
         11    1    3    3    0    0  0.68845643733E+02  0.80614898051E+02 -0.65443630799E+02  0.12458472322E+03  0.00000000000E+00 0.  1.
        -11    1    3    3    0    0  0.24962874167E+01  0.14672460083E+03 -0.31380709439E+02  0.15006361606E+03  0.00000000000E+00 0. -1.
          2    1    6    6  502    0 -0.39911637581E+03 -0.41164205346E+02 -0.21283128396E+03  0.45418666721E+03  0.00000000000E+00 0. -1.
          1    1    5    5  503    0  0.25211617546E+03 -0.16393894700E+03 -0.10414065641E+03  0.31825119102E+03  0.00000000000E+00 0. -1.
         -2    1    5    5    0  503  0.14336445274E+03 -0.44508344194E+02 -0.11182122109E+02  0.15053039184E+03  0.00000000000E+00 0.  1.
         -1    1    6    6    0  502 -0.67706183533E+02  0.22271997660E+02 -0.20710214162E+02  0.74223191383E+02  0.00000000000E+00 0.  1.
<mgrwt>
<rscale>  0 0.11911919E+04</rscale>
<asrwt>0</asrwt>
<pdfrwt beam="1">  1        2 0.13211757E+00 0.11911919E+04</pdfrwt>
<pdfrwt beam="2">  1       -2 0.63550091E-01 0.11911919E+04</pdfrwt>
<totfact> 0.70826129E+01</totfact>
</mgrwt>
</event>
<event>
12    1  0.1097093E-007  0.1507667E+04  0.7818608E-02  0.8879370E-01
         -2   -1    0    0    0  501 -0.00000000000E+00  0.00000000000E+00  0.22734115440E+03  0.22734115440E+03  0.00000000000E+00 0.  1.
          2   -1    0    0  501    0  0.00000000000E+00 -0.00000000000E+00 -0.24996137771E+04  0.24996137771E+04  0.00000000000E+00 0. -1.
         23    2    1    2    0    0 -0.19524251199E+03 -0.39366999103E+03 -0.10575630550E+04  0.11488174253E+04  0.90808375637E+02 0.  0.
        254    2    1    2    0    0  0.19524251199E+03  0.39366999103E+03 -0.12147095677E+04  0.15781375062E+04  0.90658863562E+03 0.  0.
        -24    2    4    4    0    0  0.48394177867E+03  0.32383854905E+03 -0.11039311586E+04  0.12510015236E+04  0.85262876889E+02 0.  0.
         24    2    4    4    0    0 -0.28869926669E+03  0.69831441986E+02 -0.11077840909E+03  0.32713598256E+03  0.80761366298E+02 0.  0.
         13    1    3    3    0    0 -0.14938220563E+03 -0.36412597449E+03 -0.94693670260E+03  0.10254715439E+04  0.00000000000E+00 0. -1.
        -13    1    3    3    0    0 -0.45860306354E+02 -0.29544016546E+02 -0.11062635236E+03  0.12334588137E+03  0.00000000000E+00 0.  1.
          4    1    6    6  502    0 -0.23296090396E+03  0.26998399323E+02 -0.10389915829E+03  0.25650483705E+03  0.00000000000E+00 0. -1.
          3    1    5    5  503    0  0.39958812764E+03  0.26998043964E+03 -0.83787422090E+03  0.96674366798E+03  0.00000000000E+00 0. -1.
         -4    1    5    5    0  503  0.84353651037E+02  0.53858109404E+02 -0.26605693771E+03  0.28425785564E+03  0.00000000000E+00 0.  1.
         -3    1    6    6    0  502 -0.55738362732E+02  0.42833042663E+02 -0.68792508065E+01  0.70631145506E+02  0.00000000000E+00 0.  1.
<mgrwt>
<rscale>  0 0.15076672E+04</rscale>
<asrwt>0</asrwt>
<pdfrwt beam="1">  1        2 0.38455595E+00 0.15076672E+04</pdfrwt>
<pdfrwt beam="2">  1       -2 0.34975563E-01 0.15076672E+04</pdfrwt>
<totfact> 0.25870210E+01</totfact>
</mgrwt>
</event>
<event>
12    1  0.1097093E-007  0.1750083E+04  0.7818608E-02  0.8733304E-01
         -2   -1    0    0    0  501 -0.00000000000E+00  0.00000000000E+00  0.79752174149E+03  0.79752174149E+03  0.00000000000E+00 0.  1.
          2   -1    0    0  501    0  0.00000000000E+00 -0.00000000000E+00 -0.96009678367E+03  0.96009678367E+03  0.00000000000E+00 0. -1.
         23    2    1    2    0    0 -0.36089877804E+03  0.14281376757E+02 -0.60866643674E+03  0.71492709039E+03  0.10096547751E+03 0.  0.
        254    2    1    2    0    0  0.36089877804E+03 -0.14281376757E+02  0.44609139455E+03  0.10426914348E+04  0.87049182083E+03 0.  0.
        -24    2    4    4    0    0  0.53364122101E+03 -0.38944116112E+02 -0.18662660923E+02  0.54123960410E+03  0.79387764750E+02 0.  0.
         24    2    4    4    0    0 -0.17274244296E+03  0.24662739356E+02  0.46475405548E+03  0.50145183067E+03  0.70777143795E+02 0.  0.
         13    1    3    3    0    0 -0.33195089567E+01  0.12109490936E+02 -0.50529898301E+02  0.52066587489E+02  0.00000000000E+00 0.  1.
        -13    1    3    3    0    0 -0.35757926909E+03  0.21718858205E+01 -0.55813653843E+03  0.66286050290E+03  0.00000000000E+00 0. -1.
          4    1    6    6  502    0 -0.50034455905E+02  0.18640778957E+02  0.70109129475E+02  0.88126133772E+02  0.00000000000E+00 0. -1.
          3    1    5    5  503    0  0.84967489766E+02 -0.35855790859E+02 -0.44338396238E+01  0.92329686391E+02  0.00000000000E+00 0. -1.
         -4    1    5    5    0  503  0.44867373124E+03 -0.30883252534E+01 -0.14228821299E+02  0.44890991771E+03  0.00000000000E+00 0.  1.
         -3    1    6    6    0  502 -0.12270798706E+03  0.60219603991E+01  0.39464492600E+03  0.41332569690E+03  0.00000000000E+00 0.  1.
<mgrwt>
<rscale>  0 0.17500835E+04</rscale>
<asrwt>0</asrwt>
<pdfrwt beam="1">  1        2 0.14770720E+00 0.17500835E+04</pdfrwt>
<pdfrwt beam="2">  1       -2 0.12269565E+00 0.17500835E+04</pdfrwt>
<totfact> 0.12731733E+01</totfact>
</mgrwt>
</event>
<event>
12    1  0.1097093E-007  0.2360106E+04  0.7818608E-02  0.8454592E-01
          1   -1    0    0  501    0  0.00000000000E+00  0.00000000000E+00  0.50525821704E+03  0.50525821704E+03  0.00000000000E+00 0. -1.
         -1   -1    0    0    0  501 -0.00000000000E+00 -0.00000000000E+00 -0.27560663153E+04  0.27560663153E+04  0.00000000000E+00 0.  1.
         23    2    1    2    0    0  0.12487497025E+02  0.27099879158E+03 -0.22965954733E+04  0.23142928445E+04  0.89466862173E+02 0.  0.
        254    2    1    2    0    0 -0.12487497025E+02 -0.27099879158E+03  0.45787375027E+02  0.94703168787E+03  0.90618775731E+03 0.  0.
        -24    2    4    4    0    0  0.31430267019E+03 -0.17865166778E+03 -0.28461958683E+03  0.46678846562E+03  0.78616636517E+02 0.  0.
         24    2    4    4    0    0 -0.32679016722E+03 -0.92347123801E+02  0.33040696186E+03  0.48024322225E+03  0.78389970076E+02 0.  0.
         13    1    3    3    0    0  0.22089434261E+02  0.26372842529E+03 -0.22661559851E+04  0.22815572695E+04  0.00000000000E+00 0.  1.
        -13    1    3    3    0    0 -0.96019372367E+01  0.72703662969E+01 -0.30439488219E+02  0.32735574958E+02  0.00000000000E+00 0. -1.
          2    1    6    6  502    0 -0.31899221618E+03 -0.91038777747E+02  0.33470411928E+03  0.47124403497E+03  0.00000000000E+00 0. -1.
          1    1    5    5  503    0  0.11675573344E+03 -0.98722120642E+02 -0.85738095727E+02  0.17529683241E+03  0.00000000000E+00 0. -1.
         -4    1    5    5    0  503  0.19754693676E+03 -0.79929547141E+02 -0.19888149110E+03  0.29149163321E+03  0.00000000000E+00 0.  1.
         -1    1    6    6    0  502 -0.77979510383E+01 -0.13083460543E+01 -0.42971574177E+01  0.89991872781E+01  0.00000000000E+00 0.  1.
<mgrwt>
<rscale>  0 0.23601061E+04</rscale>
<asrwt>0</asrwt>
<pdfrwt beam="1">  1        1 0.77732034E-01 0.23601061E+04</pdfrwt>
<pdfrwt beam="2">  1       -1 0.42401020E+00 0.23601061E+04</pdfrwt>
<totfact> 0.19218613E-01</totfact>
</mgrwt>
</event>
<event>
12    1  0.1097093E-007  0.1898196E+04  0.7818608E-02  0.8655755E-01
         -2   -1    0    0    0  501 -0.00000000000E+00  0.00000000000E+00  0.25499834160E+03  0.25499834160E+03  0.00000000000E+00 0.  1.
          2   -1    0    0  501    0  0.00000000000E+00 -0.00000000000E+00 -0.35325214625E+04  0.35325214625E+04  0.00000000000E+00 0. -1.
         23    2    1    2    0    0  0.31359480639E+03 -0.64098850165E+03 -0.93304438487E+03  0.11780708548E+04  0.89839595521E+02 0.  0.
        254    2    1    2    0    0 -0.31359480639E+03  0.64098850165E+03 -0.23444787361E+04  0.26094489493E+04  0.89634553244E+03 0.  0.
        -24    2    4    4    0    0 -0.44252651435E+03  0.59684582465E+03 -0.96222814054E+03  0.12181902159E+04  0.77780160703E+02 0.  0.
         24    2    4    4    0    0  0.12893170795E+03  0.44142676998E+02 -0.13822505955E+04  0.13912587334E+04  0.80076171661E+02 0.  0.
         13    1    3    3    0    0  0.27559192850E+03 -0.54834283400E+03 -0.74680121629E+03  0.96661410672E+03  0.00000000000E+00 0.  1.
        -13    1    3    3    0    0  0.38002877893E+02 -0.92645667649E+02 -0.18624316858E+03  0.21145674807E+03  0.00000000000E+00 0. -1.
          2    1    6    6  502    0  0.88429916486E+02  0.49929349085E+02 -0.12083676840E+04  0.12126274159E+04  0.00000000000E+00 0. -1.
          3    1    5    5  503    0 -0.35829677237E+03  0.45901666144E+03 -0.70412922825E+03  0.91371266963E+03  0.00000000000E+00 0. -1.
         -4    1    5    5    0  503 -0.84229741978E+02  0.13782916321E+03 -0.25809891229E+03  0.30447754628E+03  0.00000000000E+00 0.  1.
         -1    1    6    6    0  502  0.40501791465E+02 -0.57866720870E+01 -0.17388291149E+03  0.17863131751E+03  0.00000000000E+00 0.  1.
<mgrwt>
<rscale>  0 0.18981961E+04</rscale>
<asrwt>0</asrwt>
<pdfrwt beam="1">  1        2 0.54346481E+00 0.18981961E+04</pdfrwt>
<pdfrwt beam="2">  1       -2 0.39230516E-01 0.18981961E+04</pdfrwt>
<totfact> 0.44701698E+00</totfact>
</mgrwt>
</event>
<event>
12    1  0.1097093E-007  0.1596935E+04  0.7818608E-02  0.8822433E-01
         -2   -1    0    0    0  501 -0.00000000000E+00  0.00000000000E+00  0.53645239922E+03  0.53645239922E+03  0.00000000000E+00 0.  1.
          2   -1    0    0  501    0  0.00000000000E+00 -0.00000000000E+00 -0.11884570200E+04  0.11884570200E+04  0.00000000000E+00 0. -1.
         23    2    1    2    0    0  0.63997623610E+02 -0.18379154427E+03  0.34927528766E+03  0.41008796937E+03  0.91125674097E+02 0.  0.
        254    2    1    2    0    0 -0.63997623610E+02  0.18379154427E+03 -0.10012799084E+04  0.13148214498E+04  0.82964990347E+03 0.  0.
        -24    2    4    4    0    0  0.23413551783E+03 -0.32383053542E+02 -0.49524611822E+01  0.24949861977E+03  0.79730367684E+02 0.  0.
         24    2    4    4    0    0 -0.29813314144E+03  0.21617459781E+03 -0.99632744723E+03  0.10653228300E+04  0.81421884974E+02 0.  0.
         11    1    3    3    0    0 -0.51182788619E+00  0.93596551391E+01  0.65744562147E+01  0.11449392413E+02  0.00000000000E+00 0. -1.
        -11    1    3    3    0    0  0.64509451497E+02 -0.19315119941E+03  0.34270083145E+03  0.39863857696E+03  0.00000000000E+00 0.  1.
          2    1    6    6  502    0 -0.82841250021E+02  0.19499625852E+02 -0.24740042638E+03  0.26162927796E+03  0.00000000000E+00 0. -1.
          3    1    5    5  503    0  0.25632639790E+02  0.13226853988E+02 -0.20672848636E+02  0.35487301388E+02  0.00000000000E+00 0. -1.
         -4    1    5    5    0  503  0.20850287804E+03 -0.45609907530E+02  0.15720387454E+02  0.21401131838E+03  0.00000000000E+00 0.  1.
         -1    1    6    6    0  502 -0.21529189141E+03  0.19667497196E+03 -0.74892702085E+03  0.80369355209E+03  0.00000000000E+00 0.  1.
<mgrwt>
<rscale>  0 0.15969353E+04</rscale>
<asrwt>0</asrwt>
<pdfrwt beam="1">  1        2 0.18283954E+00 0.15969353E+04</pdfrwt>
<pdfrwt beam="2">  1       -2 0.82531139E-01 0.15969353E+04</pdfrwt>
<totfact> 0.23785704E+01</totfact>
</mgrwt>
</event>
<event>
12    1  0.1097093E-007  0.2142286E+04  0.7818608E-02  0.8542842E-01
          2   -1    0    0  501    0  0.00000000000E+00  0.00000000000E+00  0.34049209183E+04  0.34049209183E+04  0.00000000000E+00 0. -1.
         -2   -1    0    0    0  501 -0.00000000000E+00 -0.00000000000E+00 -0.33696733962E+03  0.33696733962E+03  0.00000000000E+00 0.  1.
         23    2    1    2    0    0  0.48758926413E+03  0.35571865064E+03  0.15448927101E+03  0.62973373010E+03  0.91752858629E+02 0.  0.
        254    2    1    2    0    0 -0.48758926413E+03 -0.35571865064E+03  0.29134643077E+04  0.31121545278E+04  0.91266230560E+03 0.  0.
        -24    2    4    4    0    0 -0.25747347054E+03  0.27477618625E+03  0.14467264305E+04  0.14972305536E+04  0.82990513415E+02 0.  0.
         24    2    4    4    0    0 -0.23011579360E+03 -0.63049483689E+03  0.14667378772E+04  0.16149239743E+04  0.78628394595E+02 0.  0.
         13    1    3    3    0    0  0.25968664637E+03  0.13341216081E+03  0.81264275195E+02  0.30305088909E+03  0.00000000000E+00 0.  1.
        -13    1    3    3    0    0  0.22790261777E+03  0.22230648983E+03  0.73224995813E+02  0.32668284102E+03  0.00000000000E+00 0. -1.
          4    1    6    6  502    0 -0.11815682644E+02 -0.90967752783E+02  0.15998285209E+03  0.18441598457E+03  0.00000000000E+00 0. -1.
          3    1    5    5  503    0 -0.73033080347E+02  0.37289086114E+02  0.39158372233E+03  0.40007764042E+03  0.00000000000E+00 0. -1.
         -4    1    5    5    0  503 -0.18444039019E+03  0.23748710014E+03  0.10551427082E+04  0.10971529131E+04  0.00000000000E+00 0.  1.
         -3    1    6    6    0  502 -0.21830011095E+03 -0.53952708411E+03  0.13067550251E+04  0.14305079897E+04  0.00000000000E+00 0.  1.
<mgrwt>
<rscale>  0 0.21422858E+04</rscale>
<asrwt>0</asrwt>
<pdfrwt beam="1">  1        2 0.52383396E+00 0.21422858E+04</pdfrwt>
<pdfrwt beam="2">  1       -2 0.51841131E-01 0.21422858E+04</pdfrwt>
<totfact> 0.30636125E+00</totfact>
</mgrwt>
</event>
<event>
12    1  0.1097093E-007  0.1369898E+04  0.7818608E-02  0.8975901E-01
         -2   -1    0    0    0  501 -0.00000000000E+00  0.00000000000E+00  0.54850923546E+03  0.54850923546E+03  0.00000000000E+00 0.  1.
          2   -1    0    0  501    0  0.00000000000E+00 -0.00000000000E+00 -0.85532765906E+03  0.85532765906E+03  0.00000000000E+00 0. -1.
         23    2    1    2    0    0 -0.34601728478E+02 -0.82128057927E+02  0.29598959801E+03  0.32238955357E+03  0.91558094189E+02 0.  0.
        254    2    1    2    0    0  0.34601728478E+02  0.82128057927E+02 -0.60280802162E+03  0.10814473409E+04  0.89342517471E+03 0.  0.
        -24    2    4    4    0    0  0.32265791185E+02 -0.21404142255E+03  0.14553699794E+03  0.27274875196E+03  0.79724852313E+02 0.  0.
         24    2    4    4    0    0  0.23359372934E+01  0.29616948048E+03 -0.74834501955E+03  0.80869858899E+03  0.79065300679E+02 0.  0.
         13    1    3    3    0    0 -0.16539900990E+02 -0.65856981478E+02  0.79551065955E+02  0.10459006850E+03  0.00000000000E+00 0. -1.
        -13    1    3    3    0    0 -0.18061827488E+02 -0.16271076449E+02  0.21643853205E+03  0.21779948507E+03  0.00000000000E+00 0.  1.
          4    1    6    6  502    0  0.24961493815E+01  0.48511077969E+02 -0.60254414796E+02  0.77396059008E+02  0.00000000000E+00 0. -1.
          3    1    5    5  503    0 -0.29538566444E+01  0.48632659429E+01  0.13601179863E+02  0.14743429668E+02  0.00000000000E+00 0. -1.
         -4    1    5    5    0  503  0.35219647829E+02 -0.21890468850E+03  0.13193581808E+03  0.25800532229E+03  0.00000000000E+00 0.  1.
         -3    1    6    6    0  502 -0.16021208801E+00  0.24765840251E+03 -0.68809060476E+03  0.73130252998E+03  0.00000000000E+00 0.  1.
<mgrwt>
<rscale>  0 0.13698980E+04</rscale>
<asrwt>0</asrwt>
<pdfrwt beam="1">  1        2 0.13158887E+00 0.13698980E+04</pdfrwt>
<pdfrwt beam="2">  1       -2 0.84386037E-01 0.13698980E+04</pdfrwt>
<totfact> 0.37612539E+01</totfact>
</mgrwt>
</event>
<event>
12    1  0.1097093E-007  0.2740433E+04  0.7818608E-02  0.8322004E-01
          2   -1    0    0  501    0  0.00000000000E+00  0.00000000000E+00  0.48951552576E+04  0.48951552576E+04  0.00000000000E+00 0. -1.
         -2   -1    0    0    0  501 -0.00000000000E+00 -0.00000000000E+00 -0.38354120006E+03  0.38354120006E+03  0.00000000000E+00 0.  1.
         23    2    1    2    0    0  0.11865063685E+04 -0.12798916336E+03  0.25030354985E+04  0.27739078155E+04  0.72105988724E+02 0.  0.
        254    2    1    2    0    0 -0.11865063685E+04  0.12798916336E+03  0.20085785591E+04  0.25047886422E+04  0.90299486483E+03 0.  0.
        -24    2    4    4    0    0 -0.12621428006E+04 -0.37828335685E+02  0.15223235517E+04  0.19795547597E+04  0.82052534814E+02 0.  0.
         24    2    4    4    0    0  0.75636432166E+02  0.16581749905E+03  0.48625500735E+03  0.52523388250E+03  0.78806004154E+02 0.  0.
         13    1    3    3    0    0  0.67375903059E+03 -0.64180352612E+02  0.13382853952E+04  0.14996926845E+04  0.00000000000E+00 0. -1.
        -13    1    3    3    0    0  0.51274733788E+03 -0.63808810752E+02  0.11647501033E+04  0.12742151309E+04  0.00000000000E+00 0.  1.
          4    1    6    6  502    0  0.45574085493E+02  0.15626352345E+03  0.44090626221E+03  0.46999321068E+03  0.00000000000E+00 0. -1.
          3    1    5    5  503    0 -0.11265389870E+04 -0.58324511304E+02  0.13675433654E+04  0.17727568063E+04  0.00000000000E+00 0. -1.
         -4    1    5    5    0  503 -0.13560381359E+03  0.20496175620E+02  0.15478018636E+03  0.20679795348E+03  0.00000000000E+00 0.  1.
         -3    1    6    6    0  502  0.30062346673E+02  0.95539756028E+01  0.45348745133E+02  0.55240671814E+02  0.00000000000E+00 0.  1.
<mgrwt>
<rscale>  0 0.27404333E+04</rscale>
<asrwt>0</asrwt>
<pdfrwt beam="1">  1        2 0.75310077E+00 0.27404333E+04</pdfrwt>
<pdfrwt beam="2">  1       -2 0.59006342E-01 0.27404333E+04</pdfrwt>
<totfact> 0.10869836E-01</totfact>
</mgrwt>
</event>
<event>
12    1  0.1097093E-007  0.1705501E+04  0.7818608E-02  0.8758233E-01
          2   -1    0    0  501    0  0.00000000000E+00  0.00000000000E+00  0.84482672750E+03  0.84482672750E+03  0.00000000000E+00 0. -1.
         -2   -1    0    0    0  501 -0.00000000000E+00 -0.00000000000E+00 -0.86074838123E+03  0.86074838123E+03  0.00000000000E+00 0.  1.
         23    2    1    2    0    0  0.51282305470E+03  0.87856436804E+02 -0.30610154482E+03  0.61190663420E+03  0.10012659145E+03 0.  0.
        254    2    1    2    0    0 -0.51282305470E+03 -0.87856436804E+02  0.29017989109E+03  0.10936684745E+04  0.91716962666E+03 0.  0.
        -24    2    4    4    0    0 -0.71290080156E+03 -0.27212827902E+03  0.17729749852E+03  0.78822493881E+03  0.87079263161E+02 0.  0.
         24    2    4    4    0    0  0.20007774685E+03  0.18427184222E+03  0.11288239257E+03  0.30544353572E+03  0.81031489830E+02 0.  0.
         11    1    3    3    0    0  0.22587595184E+03  0.39094047908E+02 -0.19293387436E+03  0.29961937534E+03  0.00000000000E+00 0. -1.
        -11    1    3    3    0    0  0.28694710286E+03  0.48762388895E+02 -0.11316767046E+03  0.31228725886E+03  0.00000000000E+00 0.  1.
          2    1    6    6  502    0  0.36911668629E+02  0.69222648363E+02  0.52355909579E+01  0.78623519001E+02  0.00000000000E+00 0. -1.
          3    1    5    5  503    0 -0.36203790238E+01 -0.22193405909E+01  0.10337779102E+02  0.11175969474E+02  0.00000000000E+00 0. -1.
         -4    1    5    5    0  503 -0.70928042253E+03 -0.26990893843E+03  0.16695971942E+03  0.77704896933E+03  0.00000000000E+00 0.  1.
         -1    1    6    6    0  502  0.16316607823E+03  0.11504919385E+03  0.10764680161E+03  0.22682001672E+03  0.00000000000E+00 0.  1.
<mgrwt>
<rscale>  0 0.17055008E+04</rscale>
<asrwt>0</asrwt>
<pdfrwt beam="1">  1        2 0.12997334E+00 0.17055008E+04</pdfrwt>
<pdfrwt beam="2">  1       -2 0.13242283E+00 0.17055008E+04</pdfrwt>
<totfact> 0.12612612E+01</totfact>
</mgrwt>
</event>
<event>
12    1  0.1097093E-007  0.1641835E+04  0.7818608E-02  0.8795252E-01
         -2   -1    0    0    0  501 -0.00000000000E+00  0.00000000000E+00  0.44952868511E+03  0.44952868511E+03  0.00000000000E+00 0.  1.
          2   -1    0    0  501    0  0.00000000000E+00 -0.00000000000E+00 -0.14991371686E+04  0.14991371686E+04  0.00000000000E+00 0. -1.
         23    2    1    2    0    0  0.53499507885E+02 -0.40904033229E+03  0.97584411348E+02  0.43480858884E+03  0.96745029885E+02 0.  0.
        254    2    1    2    0    0 -0.53499507885E+02  0.40904033229E+03 -0.11471928948E+04  0.15138572648E+04  0.89751662359E+03 0.  0.
        -24    2    4    4    0    0  0.21368826911E+03 -0.95871336483E+02 -0.22408634804E+02  0.24994889563E+03  0.84370101320E+02 0.  0.
         24    2    4    4    0    0 -0.26718777700E+03  0.50491166878E+03 -0.11247842600E+04  0.12639083692E+04  0.77457296361E+02 0.  0.
         13    1    3    3    0    0 -0.12941847315E+02 -0.24841223077E+03  0.73085563544E+02  0.25926362530E+03  0.00000000000E+00 0.  1.
        -13    1    3    3    0    0  0.66441355200E+02 -0.16062810152E+03  0.24498847804E+02  0.17554496354E+03  0.00000000000E+00 0. -1.
          4    1    6    6  502    0 -0.76144312796E+01  0.71542523675E+00 -0.30090612039E+02  0.31047324037E+02  0.00000000000E+00 0. -1.
          1    1    5    5  503    0  0.10190207350E+03 -0.34933249593E+01  0.61484459503E+01  0.10214714529E+03  0.00000000000E+00 0. -1.
         -2    1    5    5    0  503  0.11178619561E+03 -0.92378011523E+02 -0.28557080754E+02  0.14780175034E+03  0.00000000000E+00 0.  1.
         -3    1    6    6    0  502 -0.25957334572E+03  0.50419624354E+03 -0.10946936480E+04  0.12328610452E+04  0.00000000000E+00 0.  1.
<mgrwt>
<rscale>  0 0.16418345E+04</rscale>
<asrwt>0</asrwt>
<pdfrwt beam="1">  1        2 0.23063649E+00 0.16418345E+04</pdfrwt>
<pdfrwt beam="2">  1       -2 0.69158259E-01 0.16418345E+04</pdfrwt>
<totfact> 0.23183388E+01</totfact>
</mgrwt>
</event>
<event>
12    1  0.1097093E-007  0.1152823E+04  0.7818608E-02  0.9155183E-01
          1   -1    0    0  501    0  0.00000000000E+00  0.00000000000E+00  0.58755266010E+03  0.58755266010E+03  0.00000000000E+00 0. -1.
         -1   -1    0    0    0  501 -0.00000000000E+00 -0.00000000000E+00 -0.56548180834E+03  0.56548180834E+03  0.00000000000E+00 0.  1.
         23    2    1    2    0    0 -0.14399054765E+03 -0.17297399847E+02  0.15728349109E+03  0.23251939933E+03  0.91075225156E+02 0.  0.
        254    2    1    2    0    0  0.14399054765E+03  0.17297399847E+02 -0.13521263933E+03  0.92051506911E+03  0.89890658957E+03 0.  0.
        -24    2    4    4    0    0  0.11536266926E+02 -0.16279267189E+03 -0.47348506866E+03  0.50718110863E+03  0.80062645649E+02 0.  0.
         24    2    4    4    0    0  0.13245428073E+03  0.18009007174E+03  0.33827242933E+03  0.41333396049E+03  0.80250582730E+02 0.  0.
         11    1    3    3    0    0 -0.80484976187E+02 -0.36404171597E+02  0.13729035050E+03  0.16325359243E+03  0.00000000000E+00 0.  1.
        -11    1    3    3    0    0 -0.63505571468E+02  0.19106771750E+02  0.19993140596E+02  0.69265806896E+02  0.00000000000E+00 0. -1.
          4    1    6    6  502    0  0.12353036629E+03  0.18096793956E+03  0.28593129379E+03  0.36023027540E+03  0.00000000000E+00 0. -1.
          1    1    5    5  503    0 -0.24420766406E+01 -0.13523522906E+03 -0.27675053224E+03  0.30803471884E+03  0.00000000000E+00 0. -1.
         -2    1    5    5    0  503  0.13978343567E+02 -0.27557442834E+02 -0.19673453642E+03  0.19914638979E+03  0.00000000000E+00 0.  1.
         -3    1    6    6    0  502  0.89239144395E+01 -0.87786782623E+00  0.52341135535E+02  0.53103685088E+02  0.00000000000E+00 0.  1.
<mgrwt>
<rscale>  0 0.11528232E+04</rscale>
<asrwt>0</asrwt>
<pdfrwt beam="1">  1        1 0.90392717E-01 0.11528232E+04</pdfrwt>
<pdfrwt beam="2">  1       -1 0.86997202E-01 0.11528232E+04</pdfrwt>
<totfact> 0.45648591E+01</totfact>
</mgrwt>
</event>
<event>
12    1  0.1097093E-007  0.1353772E+04  0.7818608E-02  0.8987978E-01
         -1   -1    0    0    0  501 -0.00000000000E+00  0.00000000000E+00  0.19209030876E+03  0.19209030876E+03  0.00000000000E+00 0.  1.
          1   -1    0    0  501    0  0.00000000000E+00 -0.00000000000E+00 -0.23852048326E+04  0.23852048326E+04  0.00000000000E+00 0. -1.
         23    2    1    2    0    0  0.83686274447E+02  0.27347520113E+03 -0.10260398982E+04  0.10692246490E+04  0.93227674019E+02 0.  0.
        254    2    1    2    0    0 -0.83686274447E+02 -0.27347520113E+03 -0.11670746256E+04  0.15080704923E+04  0.91127457438E+03 0.  0.
        -24    2    4    4    0    0  0.14621685905E+03 -0.39318492333E+03 -0.11611995879E+04  0.12369775418E+04  0.75863049311E+02 0.  0.
         24    2    4    4    0    0 -0.22990313350E+03  0.11970972220E+03 -0.58750377844E+01  0.27109295056E+03  0.79189667203E+02 0.  0.
         11    1    3    3    0    0  0.31330472950E+02  0.13969894685E+03 -0.67330813610E+03  0.68836127174E+03  0.00000000000E+00 0.  1.
        -11    1    3    3    0    0  0.52355801498E+02  0.13377625428E+03 -0.35273176208E+03  0.38086337727E+03  0.00000000000E+00 0. -1.
          2    1    6    6  502    0 -0.83120953323E+02  0.40626522471E+01  0.86158587830E+01  0.83664992961E+02  0.00000000000E+00 0. -1.
          3    1    5    5  503    0  0.36002848929E+02 -0.67300767463E+02 -0.14093772454E+03  0.16027801044E+03  0.00000000000E+00 0. -1.
         -4    1    5    5    0  503  0.11021401012E+03 -0.32588415587E+03 -0.10202618633E+04  0.10766995313E+04  0.00000000000E+00 0.  1.
         -1    1    6    6    0  502 -0.14678218018E+03  0.11564706995E+03 -0.14490896567E+02  0.18742795760E+03  0.00000000000E+00 0.  1.
<mgrwt>
<rscale>  0 0.13537721E+04</rscale>
<asrwt>0</asrwt>
<pdfrwt beam="1">  1        1 0.36695457E+00 0.13537721E+04</pdfrwt>
<pdfrwt beam="2">  1       -1 0.29552357E-01 0.13537721E+04</pdfrwt>
<totfact> 0.16727343E+01</totfact>
</mgrwt>
</event>
<event>
12    1  0.1097093E-007  0.1415505E+04  0.7818608E-02  0.8942671E-01
          2   -1    0    0  501    0  0.00000000000E+00  0.00000000000E+00  0.41705111395E+03  0.41705111395E+03  0.00000000000E+00 0.  1.
         -2   -1    0    0    0  501 -0.00000000000E+00 -0.00000000000E+00 -0.12010841637E+04  0.12010841637E+04  0.00000000000E+00 0. -1.
         23    2    1    2    0    0  0.10801214805E+03 -0.40031410209E+03 -0.21758169374E+03  0.47688133502E+03  0.90310629420E+02 0.  0.
        254    2    1    2    0    0 -0.10801214805E+03  0.40031410209E+03 -0.56645135603E+03  0.11412539427E+04  0.89981965883E+03 0.  0.
        -24    2    4    4    0    0 -0.35464833551E+03  0.11727976927E+03  0.79897076034E+02  0.38943272578E+03  0.75791285680E+02 0.  0.
         24    2    4    4    0    0  0.24663618747E+03  0.28303433282E+03 -0.64634843206E+03  0.75182121687E+03  0.80814627329E+02 0.  0.
         13    1    3    3    0    0 -0.66999032619E+01 -0.20590932711E+01  0.27235653075E+01  0.75197324954E+01  0.00000000000E+00 0. -1.
        -13    1    3    3    0    0  0.11471205131E+03 -0.39825500882E+03 -0.22030525905E+03  0.46936160253E+03  0.00000000000E+00 0.  1.
          2    1    6    6  502    0 -0.18199776719E+01  0.27655815990E+02 -0.45944371867E+02  0.53656703058E+02  0.00000000000E+00 0. -1.
          3    1    5    5  503    0 -0.25115876342E+03  0.64353147998E+02  0.23788810656E+02  0.26036120988E+03  0.00000000000E+00 0. -1.
         -4    1    5    5    0  503 -0.10348957210E+03  0.52926621274E+02  0.56108265378E+02  0.12907151590E+03  0.00000000000E+00 0.  1.
         -1    1    6    6    0  502  0.24845616514E+03  0.25537851683E+03 -0.60040406019E+03  0.69816451381E+03  0.00000000000E+00 0.  1.
<mgrwt>
<rscale>  0 0.14155048E+04</rscale>
<asrwt>0</asrwt>
<pdfrwt beam="1">  1        2 0.64161710E-01 0.14155048E+04</pdfrwt>
<pdfrwt beam="2">  1       -2 0.18478218E+00 0.14155048E+04</pdfrwt>
<totfact> 0.12383297E+01</totfact>
</mgrwt>
</event>
<event>
12    1  0.1097093E-007  0.1641308E+04  0.7818608E-02  0.8795565E-01
          2   -1    0    0  501    0  0.00000000000E+00  0.00000000000E+00  0.27160933385E+04  0.27160933385E+04  0.00000000000E+00 0. -1.
         -2   -1    0    0    0  501 -0.00000000000E+00 -0.00000000000E+00 -0.24795658308E+03  0.24795658308E+03  0.00000000000E+00 0.  1.
         23    2    1    2    0    0  0.34071684174E+03 -0.34773942136E+03  0.13954295790E+04  0.14811479819E+04  0.97800627848E+02 0.  0.
        254    2    1    2    0    0 -0.34071684174E+03  0.34773942136E+03  0.10727071764E+04  0.14829019397E+04  0.90071460800E+03 0.  0.
        -24    2    4    4    0    0  0.25909934890E+03  0.26551033089E+02  0.93247841246E+02  0.28771114872E+03  0.79026041563E+02 0.  0.
         24    2    4    4    0    0 -0.59981619064E+03  0.32118838827E+03  0.97945933513E+03  0.11951907910E+04  0.78733692410E+02 0.  0.
         13    1    3    3    0    0  0.16142559495E+03 -0.11226362053E+03  0.46761745725E+03  0.50727451101E+03  0.00000000000E+00 0. -1.
        -13    1    3    3    0    0  0.17929124679E+03 -0.23547580083E+03  0.92781212177E+03  0.97387347086E+03  0.00000000000E+00 0.  1.
          4    1    6    6  502    0 -0.16585246607E+03  0.11972105533E+03  0.33564615543E+03  0.39306298891E+03  0.00000000000E+00 0. -1.
          1    1    5    5  503    0  0.14908290226E+02 -0.10503990400E+02 -0.90724059840E+01  0.20369081524E+02  0.00000000000E+00 0. -1.
         -2    1    5    5    0  503  0.24419105867E+03  0.37055023489E+02  0.10232024723E+03  0.26734206720E+03  0.00000000000E+00 0.  1.
         -3    1    6    6    0  502 -0.43396372456E+03  0.20146733294E+03  0.64381317970E+03  0.80212780205E+03  0.00000000000E+00 0.  1.
<mgrwt>
<rscale>  0 0.16413083E+04</rscale>
<asrwt>0</asrwt>
<pdfrwt beam="1">  1        2 0.41786049E+00 0.16413083E+04</pdfrwt>
<pdfrwt beam="2">  1       -2 0.38147169E-01 0.16413083E+04</pdfrwt>
<totfact> 0.16161138E+01</totfact>
</mgrwt>
</event>
<event>
12    1  0.1097093E-007  0.1880365E+04  0.7818608E-02  0.8664692E-01
          2   -1    0    0  501    0  0.00000000000E+00  0.00000000000E+00  0.16723500226E+04  0.16723500226E+04  0.00000000000E+00 0.  1.
         -2   -1    0    0    0  501 -0.00000000000E+00 -0.00000000000E+00 -0.52856349618E+03  0.52856349618E+03  0.00000000000E+00 0. -1.
         23    2    1    2    0    0 -0.19291323821E+03 -0.19808292791E+03  0.12228441954E+04  0.12572670720E+04  0.94446812542E+02 0.  0.
        254    2    1    2    0    0  0.19291323821E+03  0.19808292791E+03 -0.79057668988E+02  0.94364644673E+03  0.89875810850E+03 0.  0.
        -24    2    4    4    0    0 -0.15699800295E+03  0.44937738110E+03 -0.13643740034E+03  0.50171844277E+03  0.80733066482E+02 0.  0.
         24    2    4    4    0    0  0.34991124116E+03 -0.25129445319E+03  0.57379731357E+02  0.44192800396E+03  0.80132067384E+02 0.  0.
         13    1    3    3    0    0 -0.21914571742E+02 -0.27926331495E+01  0.22974733797E+03  0.23080703316E+03  0.00000000000E+00 0. -1.
        -13    1    3    3    0    0 -0.17099866647E+03 -0.19529029476E+03  0.99309685739E+03  0.10264600388E+04  0.00000000000E+00 0.  1.
          2    1    6    6  502    0  0.27871123531E+03 -0.20472406422E+03  0.77733305057E+02  0.35444937843E+03  0.00000000000E+00 0. -1.
          1    1    5    5  503    0 -0.15427695162E+03  0.44352880623E+03 -0.14456393441E+03  0.49134296667E+03  0.00000000000E+00 0. -1.
         -2    1    5    5    0  503 -0.27210513257E+01  0.58485748673E+01  0.81265340683E+01  0.10375476098E+02  0.00000000000E+00 0.  1.
         -1    1    6    6    0  502  0.71200005855E+02 -0.46570388969E+02 -0.20353573701E+02  0.87478625531E+02  0.00000000000E+00 0.  1.
<mgrwt>
<rscale>  0 0.18803650E+04</rscale>
<asrwt>0</asrwt>
<pdfrwt beam="1">  1        2 0.25728462E+00 0.18803650E+04</pdfrwt>
<pdfrwt beam="2">  1       -2 0.81317462E-01 0.18803650E+04</pdfrwt>
<totfact> 0.12697962E+01</totfact>
</mgrwt>
</event>
<event>
12    1  0.1097093E-007  0.1479103E+04  0.7818608E-02  0.8898470E-01
         -2   -1    0    0    0  501 -0.00000000000E+00  0.00000000000E+00  0.60672356299E+03  0.60672356299E+03  0.00000000000E+00 0.  1.
          2   -1    0    0  501    0  0.00000000000E+00 -0.00000000000E+00 -0.90145862577E+03  0.90145862577E+03  0.00000000000E+00 0. -1.
         23    2    1    2    0    0  0.27471816307E+03 -0.15298428816E+03 -0.42918614992E+03  0.53924093482E+03  0.87782532159E+02 0.  0.
        254    2    1    2    0    0 -0.27471816307E+03  0.15298428816E+03  0.13445108714E+03  0.96894125395E+03  0.90658468839E+03 0.  0.
        -24    2    4    4    0    0 -0.60218363510E+03  0.65246238321E+02  0.10120473818E+03  0.61930012527E+03  0.80050260048E+02 0.  0.
         24    2    4    4    0    0  0.32746547203E+03  0.87738049836E+02  0.33246348963E+02  0.34964112867E+03  0.78816231712E+02 0.  0.
         13    1    3    3    0    0  0.27531589521E+03 -0.15842164510E+03 -0.42896412734E+03  0.53376631809E+03  0.00000000000E+00 0. -1.
        -13    1    3    3    0    0 -0.59773213664E+00  0.54373569426E+01 -0.22202258609E+00  0.54746167224E+01  0.00000000000E+00 0.  1.
          2    1    6    6  502    0  0.64233749719E+02  0.44337379267E+02 -0.12245805085E+02  0.79004667871E+02  0.00000000000E+00 0. -1.
          3    1    5    5  503    0 -0.14174723553E+03  0.98717095438E+01  0.58228729558E+02  0.15355883034E+03  0.00000000000E+00 0. -1.
         -4    1    5    5    0  503 -0.46043639957E+03  0.55374528777E+02  0.42976008620E+02  0.46574129493E+03  0.00000000000E+00 0.  1.
         -1    1    6    6    0  502  0.26323172231E+03  0.43400670568E+02  0.45492154048E+02  0.27063646080E+03  0.00000000000E+00 0.  1.
<mgrwt>
<rscale>  0 0.14791027E+04</rscale>
<asrwt>0</asrwt>
<pdfrwt beam="1">  1        2 0.13868594E+00 0.14791027E+04</pdfrwt>
<pdfrwt beam="2">  1       -2 0.93342086E-01 0.14791027E+04</pdfrwt>
<totfact> 0.27499155E+01</totfact>
</mgrwt>
</event>
<event>
12    1  0.1097093E-007  0.2969152E+04  0.7818608E-02  0.8252595E-01
         -1   -1    0    0    0  501 -0.00000000000E+00  0.00000000000E+00  0.12279152908E+04  0.12279152908E+04  0.00000000000E+00 0.  1.
          1   -1    0    0  501    0  0.00000000000E+00 -0.00000000000E+00 -0.17948844013E+04  0.17948844013E+04  0.00000000000E+00 0. -1.
         23    2    1    2    0    0  0.39600221132E+03  0.92818369053E+03  0.65760593382E+03  0.12068679981E+04  0.75776552731E+02 0.  0.
        254    2    1    2    0    0 -0.39600221132E+03 -0.92818369053E+03 -0.12245750444E+04  0.18159316940E+04  0.88299556239E+03 0.  0.
        -24    2    4    4    0    0 -0.58768459935E+03 -0.41861748005E+03 -0.41382495006E+03  0.83567663888E+03  0.80564089812E+02 0.  0.
         24    2    4    4    0    0  0.19168238803E+03 -0.50956621048E+03 -0.81075009432E+03  0.98025505511E+03  0.84760821654E+02 0.  0.
         11    1    3    3    0    0  0.22723468304E+03  0.44660312703E+03  0.34633929041E+03  0.60913123244E+03  0.00000000000E+00 0. -1.
        -11    1    3    3    0    0  0.16876752828E+03  0.48158056350E+03  0.31126664340E+03  0.59773676567E+03  0.00000000000E+00 0.  1.
          2    1    6    6  502    0 -0.68898886046E+01 -0.18696429501E+02 -0.45463250998E+02  0.49638032116E+02  0.00000000000E+00 0. -1.
          1    1    5    5  503    0 -0.14286029981E+03 -0.66487579470E+02 -0.10941795352E+03  0.19183834872E+03  0.00000000000E+00 0. -1.
         -4    1    5    5    0  503 -0.44482429954E+03 -0.35212990058E+03 -0.30440699654E+03  0.64383829016E+03  0.00000000000E+00 0.  1.
         -1    1    6    6    0  502  0.19857227664E+03 -0.49086978098E+03 -0.76528684332E+03  0.93061702300E+03  0.00000000000E+00 0.  1.
<mgrwt>
<rscale>  0 0.29691521E+04</rscale>
<asrwt>0</asrwt>
<pdfrwt beam="1">  1        1 0.27613606E+00 0.29691521E+04</pdfrwt>
<pdfrwt beam="2">  1       -1 0.18891004E+00 0.29691521E+04</pdfrwt>
<totfact> 0.63027100E-01</totfact>
</mgrwt>
</event>
<event>
12    1  0.1097093E-007  0.1232563E+04  0.7818608E-02  0.9084822E-01
          1   -1    0    0  501    0  0.00000000000E+00  0.00000000000E+00  0.55902279319E+03  0.55902279319E+03  0.00000000000E+00 0. -1.
         -1   -1    0    0    0  501 -0.00000000000E+00 -0.00000000000E+00 -0.67940543126E+03  0.67940543126E+03  0.00000000000E+00 0.  1.
         23    2    1    2    0    0 -0.20589545091E+03  0.33592366817E+02  0.15187610346E+03  0.27424801443E+03  0.92866779877E+02 0.  0.
        254    2    1    2    0    0  0.20589545091E+03 -0.33592366817E+02 -0.27225874153E+03  0.96418021002E+03  0.90110891198E+03 0.  0.
        -24    2    4    4    0    0  0.58798416357E+02 -0.44342443951E+03 -0.21077222095E+02  0.45515976855E+03  0.81508762084E+02 0.  0.
         24    2    4    4    0    0  0.14709703455E+03  0.40983207269E+03 -0.25118151943E+03  0.50902044147E+03  0.80061156287E+02 0.  0.
         11    1    3    3    0    0  0.86014392650E+01  0.81770833365E+00 -0.11684433800E+01  0.87188682913E+01  0.00000000000E+00 0.  1.
        -11    1    3    3    0    0 -0.21449689018E+03  0.32774658484E+02  0.15304454684E+03  0.26552914614E+03  0.00000000000E+00 0. -1.
          4    1    6    6  502    0  0.11985398577E+03  0.36001861633E+03 -0.18600649078E+03  0.42258347888E+03  0.00000000000E+00 0. -1.
          3    1    5    5  503    0  0.61256096815E+02 -0.24026361169E+03  0.16662830693E+02  0.24850867677E+03  0.00000000000E+00 0. -1.
         -4    1    5    5    0  503 -0.24576804582E+01 -0.20316082782E+03 -0.37740052787E+02  0.20665109179E+03  0.00000000000E+00 0.  1.
         -3    1    6    6    0  502  0.27243048781E+02  0.49813456366E+02 -0.65175028655E+02  0.86436962592E+02  0.00000000000E+00 0.  1.
<mgrwt>
<rscale>  0 0.12325634E+04</rscale>
<asrwt>0</asrwt>
<pdfrwt beam="1">  1        1 0.86003507E-01 0.12325634E+04</pdfrwt>
<pdfrwt beam="2">  1       -1 0.10452391E+00 0.12325634E+04</pdfrwt>
<totfact> 0.32221902E+01</totfact>
</mgrwt>
</event>
<event>
12    1  0.1097093E-007  0.1542596E+04  0.7818608E-02  0.8856611E-01
         -1   -1    0    0    0  501 -0.00000000000E+00  0.00000000000E+00  0.29175995650E+03  0.29175995650E+03  0.00000000000E+00 0.  1.
          1   -1    0    0  501    0  0.00000000000E+00 -0.00000000000E+00 -0.20390058442E+04  0.20390058442E+04  0.00000000000E+00 0. -1.
         23    2    1    2    0    0  0.30790757154E+03 -0.10705839617E+03 -0.22192099231E+02  0.33884885910E+03  0.89763507299E+02 0.  0.
        254    2    1    2    0    0 -0.30790757154E+03  0.10705839617E+03 -0.17250537884E+04  0.19919169416E+04  0.94109189579E+03 0.  0.
        -24    2    4    4    0    0  0.12110909561E+03 -0.61580381675E+02 -0.14304632539E+04  0.14391291684E+04  0.80050521888E+02 0.  0.
         24    2    4    4    0    0 -0.42901666715E+03  0.16863877784E+03 -0.29459053455E+03  0.55278777322E+03  0.79349865057E+02 0.  0.
         13    1    3    3    0    0  0.21778712293E+03 -0.98305601978E+02  0.18334610825E+02  0.23964845138E+03  0.00000000000E+00 0.  1.
        -13    1    3    3    0    0  0.90120448608E+02 -0.87527941918E+01 -0.40526710057E+02  0.99200407718E+02  0.00000000000E+00 0. -1.
          2    1    6    6  502    0 -0.42270872264E+03  0.16941521410E+03 -0.29924122809E+03  0.54491237053E+03  0.00000000000E+00 0. -1.
          1    1    5    5  503    0  0.99457370142E+02 -0.73100091888E+02 -0.13300118779E+04  0.13357271380E+04  0.00000000000E+00 0. -1.
         -2    1    5    5    0  503  0.21651725468E+02  0.11519710213E+02 -0.10045137603E+03  0.10340203038E+03  0.00000000000E+00 0.  1.
         -1    1    6    6    0  502 -0.63079445092E+01 -0.77643625522E+00  0.46506935346E+01  0.78754026908E+01  0.00000000000E+00 0.  1.
<mgrwt>
<rscale>  0 0.15425955E+04</rscale>
<asrwt>0</asrwt>
<pdfrwt beam="1">  1        1 0.31369320E+00 0.15425955E+04</pdfrwt>
<pdfrwt beam="2">  1       -1 0.44886148E-01 0.15425955E+04</pdfrwt>
<totfact> 0.13308037E+01</totfact>
</mgrwt>
</event>
<event>
12    1  0.1097093E-007  0.1170210E+04  0.7818608E-02  0.9139339E-01
         -1   -1    0    0    0  501 -0.00000000000E+00  0.00000000000E+00  0.45038274139E+03  0.45038274139E+03  0.00000000000E+00 0.  1.
          1   -1    0    0  501    0  0.00000000000E+00 -0.00000000000E+00 -0.76012648573E+03  0.76012648573E+03  0.00000000000E+00 0. -1.
         23    2    1    2    0    0 -0.15705154567E+03 -0.14083947055E+03  0.19217017249E+02  0.23053902984E+03  0.90983548306E+02 0.  0.
        254    2    1    2    0    0  0.15705154567E+03  0.14083947055E+03 -0.32896076159E+03  0.97997019728E+03  0.89867984312E+03 0.  0.
        -24    2    4    4    0    0 -0.25409749471E+03  0.27331683202E+03  0.68249967538E+02  0.38760582960E+03  0.79451831857E+02 0.  0.
         24    2    4    4    0    0  0.41114904038E+03 -0.13247736147E+03 -0.39721072913E+03  0.59236436768E+03  0.80779923558E+02 0.  0.
         11    1    3    3    0    0  0.92115712188E+01 -0.13510042305E+01 -0.73915749706E+01  0.11887541264E+02  0.00000000000E+00 0. -1.
        -11    1    3    3    0    0 -0.16626311689E+03 -0.13948846632E+03  0.26608592220E+02  0.21865148857E+03  0.00000000000E+00 0.  1.
          2    1    6    6  502    0  0.19172057164E+03 -0.24735244634E+02 -0.14980094955E+03  0.24455865227E+03  0.00000000000E+00 0. -1.
          1    1    5    5  503    0 -0.60982581990E+01 -0.52049995396E+01  0.47137593509E+01  0.93005537731E+01  0.00000000000E+00 0. -1.
         -2    1    5    5    0  503 -0.24799923651E+03  0.27852183156E+03  0.63536208187E+02  0.37830527583E+03  0.00000000000E+00 0.  1.
         -1    1    6    6    0  502  0.21942846874E+03 -0.10774211684E+03 -0.24740977958E+03  0.34780571541E+03  0.00000000000E+00 0.  1.
<mgrwt>
<rscale>  0 0.11702100E+04</rscale>
<asrwt>0</asrwt>
<pdfrwt beam="1">  1        1 0.11694254E+00 0.11702100E+04</pdfrwt>
<pdfrwt beam="2">  1       -1 0.69289652E-01 0.11702100E+04</pdfrwt>
<totfact> 0.50131363E+01</totfact>
</mgrwt>
</event>
<event>
12    1  0.1097093E-007  0.1139000E+04  0.7818608E-02  0.9167992E-01
         -2   -1    0    0    0  501 -0.00000000000E+00  0.00000000000E+00  0.21935865817E+03  0.21935865817E+03  0.00000000000E+00 0.  1.
          2   -1    0    0  501    0  0.00000000000E+00 -0.00000000000E+00 -0.14785393270E+04  0.14785393270E+04  0.00000000000E+00 0. -1.
         23    2    1    2    0    0 -0.74647408923E+02  0.16419626094E+02  0.29565720380E+02  0.12203763510E+03  0.90427942475E+02 0.  0.
        254    2    1    2    0    0  0.74647408923E+02 -0.16419626094E+02 -0.12887463892E+04  0.15758603501E+04  0.90367402719E+03 0.  0.
        -24    2    4    4    0    0 -0.20022153612E+03  0.34147376186E+03 -0.85052466640E+03  0.94150270275E+03  0.79637538590E+02 0.  0.
         24    2    4    4    0    0  0.27486894504E+03 -0.35789338796E+03 -0.43822172281E+03  0.63435764732E+03  0.82041040187E+02 0.  0.
         13    1    3    3    0    0 -0.90914245093E+02  0.22868014044E+02  0.39711893013E+02  0.10181051259E+03  0.00000000000E+00 0.  1.
        -13    1    3    3    0    0  0.16266836170E+02 -0.64483879498E+01 -0.10146172632E+02  0.20227122514E+02  0.00000000000E+00 0. -1.
          2    1    6    6  502    0  0.11497752595E+01  0.40212343904E+01 -0.81713957253E+01  0.91795434130E+01  0.00000000000E+00 0. -1.
          3    1    5    5  503    0 -0.60882845061E+02  0.12304446328E+03 -0.38488953914E+03  0.40863996146E+03  0.00000000000E+00 0. -1.
         -4    1    5    5    0  503 -0.13933869106E+03  0.21842929858E+03 -0.46563512727E+03  0.53286274129E+03  0.00000000000E+00 0.  1.
         -1    1    6    6    0  502  0.27371916978E+03 -0.36191462235E+03 -0.43005032709E+03  0.62517810391E+03  0.00000000000E+00 0.  1.
<mgrwt>
<rscale>  0 0.11390003E+04</rscale>
<asrwt>0</asrwt>
<pdfrwt beam="1">  1        2 0.22746759E+00 0.11390003E+04</pdfrwt>
<pdfrwt beam="2">  1       -2 0.33747486E-01 0.11390003E+04</pdfrwt>
<totfact> 0.10612026E+02</totfact>
</mgrwt>
</event>
<event>
12    1  0.1097093E-007  0.1603666E+04  0.7818608E-02  0.8818299E-01
         -2   -1    0    0    0  501 -0.00000000000E+00  0.00000000000E+00  0.37684342659E+04  0.37684342659E+04  0.00000000000E+00 0.  1.
          2   -1    0    0  501    0  0.00000000000E+00 -0.00000000000E+00 -0.17061089138E+03  0.17061089138E+03  0.00000000000E+00 0. -1.
         23    2    1    2    0    0  0.48952848503E+03  0.52638600458E+02  0.18259749776E+04  0.18933710797E+04  0.90887111200E+02 0.  0.
        254    2    1    2    0    0 -0.48952848503E+03 -0.52638600458E+02  0.17718483969E+04  0.20456740775E+04  0.89606178907E+03 0.  0.
        -24    2    4    4    0    0 -0.22669104295E+02 -0.59241664515E+02  0.14944721743E+04  0.14980352830E+04  0.81481078302E+02 0.  0.
         24    2    4    4    0    0 -0.46685938073E+03  0.66030640568E+01  0.27737622261E+03  0.54763879455E+03  0.70493961395E+02 0.  0.
         13    1    3    3    0    0  0.32173194162E+03  0.77525515159E+02  0.11895002094E+04  0.12346790659E+04  0.00000000000E+00 0. -1.
        -13    1    3    3    0    0  0.16779654341E+03 -0.24886914700E+02  0.63647476819E+03  0.65869201380E+03  0.00000000000E+00 0.  1.
          2    1    6    6  502    0 -0.43675748693E+03  0.21003147462E+02  0.24537579165E+03  0.50140553818E+03  0.00000000000E+00 0. -1.
          1    1    5    5  503    0 -0.40127463734E+02 -0.17146542498E+02  0.11122928100E+04  0.11131484683E+04  0.00000000000E+00 0. -1.
         -2    1    5    5    0  503  0.17458359439E+02 -0.42095122017E+02  0.38217936431E+03  0.38488681468E+03  0.00000000000E+00 0.  1.
         -1    1    6    6    0  502 -0.30101893800E+02 -0.14400083405E+02  0.32000430960E+02  0.46233256365E+02  0.00000000000E+00 0.  1.
<mgrwt>
<rscale>  0 0.16036657E+04</rscale>
<asrwt>0</asrwt>
<pdfrwt beam="1">  1        2 0.26247832E-01 0.16036657E+04</pdfrwt>
<pdfrwt beam="2">  1       -2 0.57975905E+00 0.16036657E+04</pdfrwt>
<totfact> 0.12031808E-01</totfact>
</mgrwt>
</event>
<event>
12    1  0.1097093E-007  0.2887489E+04  0.7818608E-02  0.8276609E-01
         -1   -1    0    0    0  501 -0.00000000000E+00  0.00000000000E+00  0.12763036055E+04  0.12763036055E+04  0.00000000000E+00 0.  1.
          1   -1    0    0  501    0  0.00000000000E+00 -0.00000000000E+00 -0.16331527987E+04  0.16331527987E+04  0.00000000000E+00 0. -1.
         23    2    1    2    0    0 -0.82454677924E+02  0.35507068899E+03  0.11048754387E+04  0.11668432856E+04  0.88879412551E+02 0.  0.
        254    2    1    2    0    0  0.82454677924E+02 -0.35507068899E+03 -0.14617246319E+04  0.17426131187E+04  0.87589246703E+03 0.  0.
        -24    2    4    4    0    0 -0.38222116159E+03 -0.91269695057E+02 -0.73168234400E+03  0.83431241458E+03  0.79340903648E+02 0.  0.
         24    2    4    4    0    0  0.46467583951E+03 -0.26380099394E+03 -0.73004228791E+03  0.90830070412E+03  0.80832089705E+02 0.  0.
         13    1    3    3    0    0 -0.71828056432E+02  0.35479640372E+03  0.10423076788E+04  0.11033789264E+04  0.00000000000E+00 0.  1.
        -13    1    3    3    0    0 -0.10626621492E+02  0.27428527007E+00  0.62567759845E+02  0.63464359200E+02  0.00000000000E+00 0. -1.
          4    1    6    6  502    0  0.17024507683E+02 -0.19392122653E+02 -0.66936342925E+02  0.71738150848E+02  0.00000000000E+00 0. -1.
          1    1    5    5  503    0 -0.14220458739E+03 -0.60359824172E+02 -0.34709904613E+03  0.37992525695E+03  0.00000000000E+00 0. -1.
         -4    1    5    5    0  503 -0.24001657421E+03 -0.30909870885E+02 -0.38458329787E+03  0.45438715762E+03  0.00000000000E+00 0.  1.
         -3    1    6    6    0  502  0.44765133183E+03 -0.24440887128E+03 -0.66310594499E+03  0.83656255327E+03  0.00000000000E+00 0.  1.
<mgrwt>
<rscale>  0 0.28874894E+04</rscale>
<asrwt>0</asrwt>
<pdfrwt beam="1">  1        1 0.25125428E+00 0.28874894E+04</pdfrwt>
<pdfrwt beam="2">  1       -1 0.19635440E+00 0.28874894E+04</pdfrwt>
<totfact> 0.72585455E-01</totfact>
</mgrwt>
</event>
<event>
12    1  0.1097093E-007  0.1426259E+04  0.7818608E-02  0.8935028E-01
          1   -1    0    0  501    0  0.00000000000E+00  0.00000000000E+00  0.15072657132E+04  0.15072657132E+04  0.00000000000E+00 0. -1.
         -1   -1    0    0    0  501 -0.00000000000E+00 -0.00000000000E+00 -0.33740126137E+03  0.33740126137E+03  0.00000000000E+00 0.  1.
         23    2    1    2    0    0 -0.31374388645E+03  0.26815062835E+03  0.47768879372E+03  0.63794196667E+03  0.91887885104E+02 0.  0.
        254    2    1    2    0    0  0.31374388645E+03 -0.26815062835E+03  0.69217565809E+03  0.12067250079E+04  0.89818601480E+03 0.  0.
        -24    2    4    4    0    0 -0.23492340363E+03  0.14805142073E+03  0.14929988349E+03  0.32604930152E+03  0.83123180051E+02 0.  0.
         24    2    4    4    0    0  0.54866729008E+03 -0.41620204908E+03  0.54287577460E+03  0.88067570635E+03  0.81336659858E+02 0.  0.
         11    1    3    3    0    0 -0.13515227039E+03  0.10489766895E+03  0.13248978329E+03  0.21638669049E+03  0.00000000000E+00 0. -1.
        -11    1    3    3    0    0 -0.17859161606E+03  0.16325295939E+03  0.34519901043E+03  0.42155527618E+03  0.00000000000E+00 0.  1.
          4    1    6    6  502    0  0.34140260372E+03 -0.27320062541E+03  0.39120752894E+03  0.58671769213E+03  0.00000000000E+00 0. -1.
          3    1    5    5  503    0  0.59343824784E+01  0.11279972648E+02  0.46185568655E+01  0.13556760153E+02  0.00000000000E+00 0. -1.
         -4    1    5    5    0  503 -0.24085778611E+03  0.13677144808E+03  0.14468132662E+03  0.31249254137E+03  0.00000000000E+00 0.  1.
         -1    1    6    6    0  502  0.20726468636E+03 -0.14300142366E+03  0.15166824566E+03  0.29395801422E+03  0.00000000000E+00 0.  1.
<mgrwt>
<rscale>  0 0.14262585E+04</rscale>
<asrwt>0</asrwt>
<pdfrwt beam="1">  1        1 0.23188703E+00 0.14262585E+04</pdfrwt>
<pdfrwt beam="2">  1       -1 0.51907887E-01 0.14262585E+04</pdfrwt>
<totfact> 0.23506963E+01</totfact>
</mgrwt>
</event>
<event>
12    1  0.1097093E-007  0.1443692E+04  0.7818608E-02  0.8922785E-01
          2   -1    0    0  501    0  0.00000000000E+00  0.00000000000E+00  0.18352167690E+04  0.18352167690E+04  0.00000000000E+00 0. -1.
         -2   -1    0    0    0  501 -0.00000000000E+00 -0.00000000000E+00 -0.28392386260E+03  0.28392386260E+03  0.00000000000E+00 0.  1.
         23    2    1    2    0    0  0.23248696022E+03 -0.33705595586E+03  0.67810523911E+03  0.79769718874E+03  0.94006305920E+02 0.  0.
        254    2    1    2    0    0 -0.23248696022E+03  0.33705595586E+03  0.87318766733E+03  0.13214434429E+04  0.90338207109E+03 0.  0.
        -24    2    4    4    0    0 -0.36883533780E+02 -0.65909635056E+02 -0.16037835037E+03  0.19216223668E+03  0.74166265110E+02 0.  0.
         24    2    4    4    0    0 -0.19560342644E+03  0.40296559092E+03  0.10335660177E+04  0.11292812062E+04  0.79845863312E+02 0.  0.
         13    1    3    3    0    0  0.17874311904E+03 -0.27326717909E+03  0.45938744115E+03  0.56361411875E+03  0.00000000000E+00 0. -1.
        -13    1    3    3    0    0  0.53743841172E+02 -0.63788776773E+02  0.21871779797E+03  0.23408306999E+03  0.00000000000E+00 0.  1.
          2    1    6    6  502    0 -0.19147945606E+03  0.39659627294E+03  0.97037501458E+03  0.10656362676E+04  0.00000000000E+00 0. -1.
          3    1    5    5  503    0 -0.55249374424E+02 -0.58168250208E+02 -0.14896739227E+03  0.16919610712E+03  0.00000000000E+00 0. -1.
         -4    1    5    5    0  503  0.18365840644E+02 -0.77413848484E+01 -0.11410958104E+02  0.22966129556E+02  0.00000000000E+00 0.  1.
         -1    1    6    6    0  502 -0.41239703777E+01  0.63693179807E+01  0.63191003123E+02  0.63644938675E+02  0.00000000000E+00 0.  1.
<mgrwt>
<rscale>  0 0.14436923E+04</rscale>
<asrwt>0</asrwt>
<pdfrwt beam="1">  1        2 0.28234103E+00 0.14436923E+04</pdfrwt>
<pdfrwt beam="2">  1       -2 0.43680595E-01 0.14436923E+04</pdfrwt>
<totfact> 0.39779616E+01</totfact>
</mgrwt>
</event>
<event>
12    1  0.1097093E-007  0.2795868E+04  0.7818608E-02  0.8304552E-01
          1   -1    0    0  501    0  0.00000000000E+00  0.00000000000E+00  0.24691843877E+04  0.24691843877E+04  0.00000000000E+00 0. -1.
         -1   -1    0    0    0  501 -0.00000000000E+00 -0.00000000000E+00 -0.79144315953E+03  0.79144315953E+03  0.00000000000E+00 0.  1.
         23    2    1    2    0    0 -0.25727081029E+03 -0.92301532638E+03  0.16925952127E+04  0.19471505872E+04  0.91494768390E+02 0.  0.
        254    2    1    2    0    0  0.25727081029E+03  0.92301532638E+03 -0.14853984518E+02  0.13134769600E+04  0.89825136855E+03 0.  0.
        -24    2    4    4    0    0 -0.20407067566E+03  0.76979601543E+03  0.10269206462E+03  0.80690128858E+03  0.79456172447E+02 0.  0.
         24    2    4    4    0    0  0.46134148595E+03  0.15321931095E+03 -0.11754604914E+03  0.50657567144E+03  0.80558756985E+02 0.  0.
         13    1    3    3    0    0 -0.13143735000E+03 -0.46022590876E+03  0.93779023045E+03  0.10528694983E+04  0.00000000000E+00 0. -1.
        -13    1    3    3    0    0 -0.12583346029E+03 -0.46278941762E+03  0.75480498221E+03  0.89428108889E+03  0.00000000000E+00 0.  1.
          4    1    6    6  502    0  0.15327502605E+03  0.87072847273E+02 -0.24082409063E+02  0.17791817437E+03  0.00000000000E+00 0. -1.
          1    1    5    5  503    0 -0.17958912411E+03  0.59669247409E+03  0.10578402027E+03  0.63204779968E+03  0.00000000000E+00 0. -1.
         -2    1    5    5    0  503 -0.24481551544E+02  0.17310354135E+03 -0.30919556516E+01  0.17485348891E+03  0.00000000000E+00 0.  1.
         -3    1    6    6    0  502  0.30806645989E+03  0.66146463674E+02 -0.93463640075E+02  0.32865749707E+03  0.00000000000E+00 0.  1.
<mgrwt>
<rscale>  0 0.27958677E+04</rscale>
<asrwt>0</asrwt>
<pdfrwt beam="1">  1        1 0.37987452E+00 0.27958677E+04</pdfrwt>
<pdfrwt beam="2">  1       -1 0.12176049E+00 0.27958677E+04</pdfrwt>
<totfact> 0.73580694E-01</totfact>
</mgrwt>
</event>
<event>
12    1  0.1097093E-007  0.4516805E+04  0.7818608E-02  0.7907701E-01
          1   -1    0    0  501    0  0.00000000000E+00  0.00000000000E+00  0.18817842595E+04  0.18817842595E+04  0.00000000000E+00 0. -1.
         -1   -1    0    0    0  501 -0.00000000000E+00 -0.00000000000E+00 -0.27103965897E+04  0.27103965897E+04  0.00000000000E+00 0.  1.
         23    2    1    2    0    0  0.45898305559E+03  0.70151234562E+03 -0.24386584933E+04  0.25803860981E+04  0.92477845664E+02 0.  0.
        254    2    1    2    0    0 -0.45898305559E+03 -0.70151234562E+03  0.16100461632E+04  0.20117947511E+04  0.86734333250E+03 0.  0.
        -24    2    4    4    0    0 -0.62282337864E+03 -0.68597975673E+03  0.96079910243E+03  0.13369757426E+04  0.76759582888E+02 0.  0.
         24    2    4    4    0    0  0.16384032305E+03 -0.15532588890E+02  0.64924706076E+03  0.67481900842E+03  0.82304528679E+02 0.  0.
         11    1    3    3    0    0  0.40891002052E+03  0.65898432145E+03 -0.21929951293E+04  0.23260901483E+04  0.00000000000E+00 0.  1.
        -11    1    3    3    0    0  0.50073035072E+02  0.42528024168E+02 -0.24566336404E+03  0.25429594985E+03  0.00000000000E+00 0. -1.
          2    1    6    6  502    0 -0.73125402518E+01 -0.72379642553E+01  0.70205069182E+02  0.70955007649E+02  0.00000000000E+00 0. -1.
          1    1    5    5  503    0 -0.12014648038E+03 -0.13278754555E+03  0.14403037731E+03  0.22980961379E+03  0.00000000000E+00 0. -1.
         -2    1    5    5    0  503 -0.50267689827E+03 -0.55319221118E+03  0.81676872512E+03  0.11071661289E+04  0.00000000000E+00 0.  1.
         -1    1    6    6    0  502  0.17115286330E+03 -0.82946246346E+01  0.57904199158E+03  0.60386400077E+03  0.00000000000E+00 0.  1.
<mgrwt>
<rscale>  0 0.45168049E+04</rscale>
<asrwt>0</asrwt>
<pdfrwt beam="1">  1        1 0.28950527E+00 0.45168049E+04</pdfrwt>
<pdfrwt beam="2">  1       -1 0.41698409E+00 0.45168049E+04</pdfrwt>
<totfact> 0.14713754E-02</totfact>
</mgrwt>
</event>
<event>
12    1  0.1097093E-007  0.2895329E+04  0.7818608E-02  0.8274268E-01
         -1   -1    0    0    0  501 -0.00000000000E+00  0.00000000000E+00  0.12562407308E+04  0.12562407308E+04  0.00000000000E+00 0.  1.
          1   -1    0    0  501    0  0.00000000000E+00 -0.00000000000E+00 -0.16682575724E+04  0.16682575724E+04  0.00000000000E+00 0. -1.
         23    2    1    2    0    0 -0.11947917764E+04 -0.49921152923E+03 -0.34107967938E+03  0.13424645547E+04  0.95583434248E+02 0.  0.
        254    2    1    2    0    0  0.11947917764E+04  0.49921152923E+03 -0.70937162204E+02  0.15820337485E+04  0.90612314867E+03 0.  0.
        -24    2    4    4    0    0  0.42920171808E+03 -0.89812001390E+02 -0.35740508092E+03  0.57105813621E+03  0.78030075409E+02 0.  0.
         24    2    4    4    0    0  0.76559005836E+03  0.58902353062E+03  0.28646791871E+03  0.10109756123E+04  0.83252406468E+02 0.  0.
         13    1    3    3    0    0 -0.10393621866E+04 -0.41795989982E+03 -0.32446223440E+03  0.11662932626E+04  0.00000000000E+00 0.  1.
        -13    1    3    3    0    0 -0.15542958988E+03 -0.81251629401E+02 -0.16617444976E+02  0.17617129212E+03  0.00000000000E+00 0. -1.
          2    1    6    6  502    0  0.31194701265E+03  0.26401384006E+03  0.15924877810E+03  0.43860508407E+03  0.00000000000E+00 0. -1.
          1    1    5    5  503    0  0.28884014892E+03 -0.96727584708E+02 -0.23563218680E+03  0.38510697829E+03  0.00000000000E+00 0. -1.
         -2    1    5    5    0  503  0.14036156916E+03  0.69155833182E+01 -0.12177289411E+03  0.18595115792E+03  0.00000000000E+00 0.  1.
         -1    1    6    6    0  502  0.45364304571E+03  0.32500969055E+03  0.12721914061E+03  0.57237052825E+03  0.00000000000E+00 0.  1.
<mgrwt>
<rscale>  0 0.28953294E+04</rscale>
<asrwt>0</asrwt>
<pdfrwt beam="1">  1        1 0.25665501E+00 0.28953294E+04</pdfrwt>
<pdfrwt beam="2">  1       -1 0.19326780E+00 0.28953294E+04</pdfrwt>
<totfact> 0.72117832E-01</totfact>
</mgrwt>
</event>
<event>
12    1  0.1097093E-007  0.2560587E+04  0.7818608E-02  0.8381713E-01
         -2   -1    0    0    0  501 -0.00000000000E+00  0.00000000000E+00  0.11759106764E+04  0.11759106764E+04  0.00000000000E+00 0.  1.
          2   -1    0    0  501    0  0.00000000000E+00 -0.00000000000E+00 -0.13939424031E+04  0.13939424031E+04  0.00000000000E+00 0. -1.
         23    2    1    2    0    0 -0.55912423813E+03  0.19787951738E+03  0.85635384405E+03  0.10455417552E+04  0.89662916478E+02 0.  0.
        254    2    1    2    0    0  0.55912423813E+03 -0.19787951738E+03 -0.10743855707E+04  0.15243113243E+04  0.90412634179E+03 0.  0.
        -24    2    4    4    0    0  0.71416505348E+02  0.32080119775E+03 -0.51213598617E+03  0.61349863796E+03  0.77997338000E+02 0.  0.
         24    2    4    4    0    0  0.48770773278E+03 -0.51868071514E+03 -0.56224958454E+03  0.91081268638E+03  0.81034791849E+02 0.  0.
         11    1    3    3    0    0 -0.29845674143E+03  0.10607747764E+03  0.37872046497E+03  0.49371859227E+03  0.00000000000E+00 0. -1.
        -11    1    3    3    0    0 -0.26066749669E+03  0.91802039743E+02  0.47763337908E+03  0.55182316293E+03  0.00000000000E+00 0.  1.
          4    1    6    6  502    0  0.18625047010E+03 -0.24311465757E+03 -0.27370833579E+03  0.41074350563E+03  0.00000000000E+00 0. -1.
          3    1    5    5  503    0  0.68186136965E+02  0.15900662689E+03 -0.22406840085E+03  0.28308851077E+03  0.00000000000E+00 0. -1.
         -4    1    5    5    0  503  0.32303683830E+01  0.16179457086E+03 -0.28806758532E+03  0.33041012719E+03  0.00000000000E+00 0.  1.
         -3    1    6    6    0  502  0.30145726268E+03 -0.27556605757E+03 -0.28854124875E+03  0.50006918075E+03  0.00000000000E+00 0.  1.
<mgrwt>
<rscale>  0 0.25605872E+04</rscale>
<asrwt>0</asrwt>
<pdfrwt beam="1">  1        2 0.21445268E+00 0.25605872E+04</pdfrwt>
<pdfrwt beam="2">  1       -2 0.18090933E+00 0.25605872E+04</pdfrwt>
<totfact> 0.23138313E+00</totfact>
</mgrwt>
</event>
<event>
12    1  0.1097093E-007  0.1956925E+04  0.7818608E-02  0.8627029E-01
         -2   -1    0    0    0  501 -0.00000000000E+00  0.00000000000E+00  0.11953059119E+04  0.11953059119E+04  0.00000000000E+00 0.  1.
          2   -1    0    0  501    0  0.00000000000E+00 -0.00000000000E+00 -0.80095716766E+03  0.80095716766E+03  0.00000000000E+00 0. -1.
         23    2    1    2    0    0  0.38263762381E+03 -0.10173856819E+03  0.83919912223E+03  0.93246675291E+03  0.92069490714E+02 0.  0.
        254    2    1    2    0    0 -0.38263762381E+03  0.10173856819E+03 -0.44485037802E+03  0.10637963266E+04  0.88148084397E+03 0.  0.
        -24    2    4    4    0    0  0.25517034684E+02  0.13552484588E+03  0.22432986396E+03  0.27490589805E+03  0.78938343102E+02 0.  0.
         24    2    4    4    0    0 -0.40815465849E+03 -0.33786277688E+02 -0.66918024198E+03  0.78889042856E+03  0.82548011569E+02 0.  0.
         11    1    3    3    0    0  0.35069297991E+03 -0.65609607590E+02  0.71094163914E+03  0.79544214185E+03  0.00000000000E+00 0.  1.
        -11    1    3    3    0    0  0.31944643895E+02 -0.36128960597E+02  0.12825748309E+03  0.13702461106E+03  0.00000000000E+00 0. -1.
          2    1    6    6  502    0 -0.64546805321E+02 -0.26129839649E+02 -0.74070163807E+02  0.10166340425E+03  0.00000000000E+00 0. -1.
          1    1    5    5  503    0  0.24433851870E+01  0.70690242287E+02  0.47620100395E+02  0.85268719044E+02  0.00000000000E+00 0. -1.
         -2    1    5    5    0  503  0.23073649497E+02  0.64834603588E+02  0.17670976356E+03  0.18963717901E+03  0.00000000000E+00 0.  1.
         -1    1    6    6    0  502 -0.34360785317E+03 -0.76564380392E+01 -0.59511007817E+03  0.68722702431E+03  0.00000000000E+00 0.  1.
<mgrwt>
<rscale>  0 0.19569250E+04</rscale>
<asrwt>0</asrwt>
<pdfrwt beam="1">  1        2 0.12322418E+00 0.19569250E+04</pdfrwt>
<pdfrwt beam="2">  1       -2 0.18389322E+00 0.19569250E+04</pdfrwt>
<totfact> 0.54635494E+00</totfact>
</mgrwt>
</event>
<event>
12    1  0.1272883E-007  0.1987673E+04  0.7818608E-02  0.8612406E-01
         -1   -1    0    0    0  501 -0.00000000000E+00  0.00000000000E+00  0.34526911399E+03  0.34526911399E+03  0.00000000000E+00 0.  1.
          1   -1    0    0  501    0  0.00000000000E+00 -0.00000000000E+00 -0.28606985180E+04  0.28606985180E+04  0.00000000000E+00 0. -1.
         23    2    1    2    0    0 -0.17165990396E+03 -0.46131336041E+03 -0.20106579018E+04  0.20719639146E+04  0.89510481404E+02 0.  0.
        254    2    1    2    0    0  0.17165990396E+03  0.46131336041E+03 -0.50477150230E+03  0.11340037175E+04  0.88819649997E+03 0.  0.
        -24    2    4    4    0    0  0.10394585224E+03 -0.11687978823E+03 -0.51741649933E+03  0.54638254631E+03  0.79677023285E+02 0.  0.
         24    2    4    4    0    0  0.67714051719E+02  0.57819314864E+03  0.12644997031E+02  0.58762117115E+03  0.79033125353E+02 0.  0.
         13    1    3    3    0    0 -0.90659786054E+02 -0.29551970001E+03 -0.10892760106E+04  0.11322867645E+04  0.00000000000E+00 0. -1.
        -13    1    3    3    0    0 -0.81000117902E+02 -0.16579366041E+03 -0.92138189120E+03  0.93967715007E+03  0.00000000000E+00 0.  1.
          4    1    6    6  502    0  0.65952338308E+02  0.41125201891E+03  0.40082926556E+02  0.41843108750E+03  0.00000000000E+00 0. -1.
          3    1    5    5  503    0  0.76978215481E+02 -0.10620581626E+03 -0.48699677907E+03  0.50435224188E+03  0.00000000000E+00 0. -1.
         -4    1    5    5    0  503  0.26967636756E+02 -0.10673971965E+02 -0.30419720266E+02  0.42030304434E+02  0.00000000000E+00 0.  1.
         -3    1    6    6    0  502  0.17617134118E+01  0.16694112973E+03 -0.27437929525E+02  0.16919008365E+03  0.00000000000E+00 0.  1.
<mgrwt>
<rscale>  0 0.19876729E+04</rscale>
<asrwt>0</asrwt>
<pdfrwt beam="1">  1        1 0.44010745E+00 0.19876729E+04</pdfrwt>
<pdfrwt beam="2">  1       -1 0.53118327E-01 0.19876729E+04</pdfrwt>
<totfact> 0.25063326E+00</totfact>
</mgrwt>
</event>
<event>
12    1  0.1097093E-007  0.1627937E+04  0.7818608E-02  0.8803566E-01
          1   -1    0    0  501    0  0.00000000000E+00  0.00000000000E+00  0.21237756073E+04  0.21237756073E+04  0.00000000000E+00 0. -1.
         -1   -1    0    0    0  501 -0.00000000000E+00 -0.00000000000E+00 -0.31196567081E+03  0.31196567081E+03  0.00000000000E+00 0.  1.
         23    2    1    2    0    0  0.27442361593E+03  0.32325818836E+03  0.84115794675E+02  0.44214287433E+03  0.92793734056E+02 0.  0.
        254    2    1    2    0    0 -0.27442361593E+03 -0.32325818836E+03  0.17276941418E+04  0.19935984037E+04  0.89983519076E+03 0.  0.
        -24    2    4    4    0    0  0.21256516064E+03 -0.28250313346E+01  0.74561694612E+02  0.23889836495E+03  0.79505057397E+02 0.  0.
         24    2    4    4    0    0 -0.48698877657E+03 -0.32043315703E+03  0.16531324472E+04  0.17547000388E+04  0.79308647917E+02 0.  0.
         13    1    3    3    0    0  0.22247732864E+03  0.26908309082E+03  0.31667440754E+02  0.35057766376E+03  0.00000000000E+00 0.  1.
        -13    1    3    3    0    0  0.51946287289E+02  0.54175097547E+02  0.52448353922E+02  0.91565210569E+02  0.00000000000E+00 0. -1.
          2    1    6    6  502    0 -0.34265069551E+03 -0.25361151450E+03  0.12786036379E+04  0.13477965582E+04  0.00000000000E+00 0. -1.
          1    1    5    5  503    0  0.14951130411E+03 -0.19586297843E+01  0.11896050277E+02  0.14999660763E+03  0.00000000000E+00 0. -1.
         -2    1    5    5    0  503  0.63053856529E+02 -0.86640155027E+00  0.62665644335E+02  0.88901757321E+02  0.00000000000E+00 0.  1.
         -1    1    6    6    0  502 -0.14433808105E+03 -0.66821642530E+02  0.37452880922E+03  0.40690348056E+03  0.00000000000E+00 0.  1.
<mgrwt>
<rscale>  0 0.16279374E+04</rscale>
<asrwt>0</asrwt>
<pdfrwt beam="1">  1        1 0.32673470E+00 0.16279374E+04</pdfrwt>
<pdfrwt beam="2">  1       -1 0.47994720E-01 0.16279374E+04</pdfrwt>
<totfact> 0.10204129E+01</totfact>
</mgrwt>
</event>
<event>
12    1  0.1097093E-007  0.1634027E+04  0.7818608E-02  0.8799912E-01
         -1   -1    0    0    0  501 -0.00000000000E+00  0.00000000000E+00  0.95688174632E+03  0.95688174632E+03  0.00000000000E+00 0.  1.
          1   -1    0    0  501    0  0.00000000000E+00 -0.00000000000E+00 -0.69759030479E+03  0.69759030479E+03  0.00000000000E+00 0. -1.
         23    2    1    2    0    0 -0.18646444992E+03 -0.24628151715E+03  0.56950108936E+03  0.65449512128E+03  0.92783598910E+02 0.  0.
        254    2    1    2    0    0  0.18646444992E+03  0.24628151715E+03 -0.31020964784E+03  0.99997692983E+03  0.89905520286E+03 0.  0.
        -24    2    4    4    0    0  0.23124950790E+03  0.16150803101E+03 -0.60906970300E+03  0.67613985142E+03  0.81474023959E+02 0.  0.
         24    2    4    4    0    0 -0.44785057975E+02  0.84773486144E+02  0.29886005516E+03  0.32383707841E+03  0.79755096438E+02 0.  0.
         11    1    3    3    0    0 -0.56027702817E+02 -0.44857142386E+02  0.69584289210E+02  0.99966194340E+02  0.00000000000E+00 0. -1.
        -11    1    3    3    0    0 -0.13043674711E+03 -0.20142437477E+03  0.49991680015E+03  0.55452892694E+03  0.00000000000E+00 0.  1.
          2    1    6    6  502    0  0.12007370636E+02  0.47755607438E+02  0.73256666528E+02  0.88268421206E+02  0.00000000000E+00 0. -1.
          3    1    5    5  503    0  0.18447563593E+02  0.64569473971E+01 -0.10425202351E+02  0.22151514988E+02  0.00000000000E+00 0. -1.
         -4    1    5    5    0  503  0.21280194430E+03  0.15505108361E+03 -0.59864450065E+03  0.65398833643E+03  0.00000000000E+00 0.  1.
         -1    1    6    6    0  502 -0.56792428612E+02  0.37017878705E+02  0.22560338864E+03  0.23556865720E+03  0.00000000000E+00 0.  1.
<mgrwt>
<rscale>  0 0.16340275E+04</rscale>
<asrwt>0</asrwt>
<pdfrwt beam="1">  1        1 0.10732159E+00 0.16340275E+04</pdfrwt>
<pdfrwt beam="2">  1       -1 0.14721258E+00 0.16340275E+04</pdfrwt>
<totfact> 0.96170596E+00</totfact>
</mgrwt>
</event>
<event>
12    1  0.1097093E-007  0.1731474E+04  0.7818608E-02  0.8743614E-01
         -2   -1    0    0    0  501 -0.00000000000E+00  0.00000000000E+00  0.41709434116E+03  0.41709434116E+03  0.00000000000E+00 0. -1.
          2   -1    0    0  501    0  0.00000000000E+00 -0.00000000000E+00 -0.17969578065E+04  0.17969578065E+04  0.00000000000E+00 0.  1.
         23    2    1    2    0    0 -0.16350664699E+03  0.39474690546E+03  0.77739630922E+02  0.44662329837E+03  0.10425630651E+03 0.  0.
        254    2    1    2    0    0  0.16350664699E+03 -0.39474690546E+03 -0.14576030963E+04  0.17674288493E+04  0.90368047898E+03 0.  0.
        -24    2    4    4    0    0  0.36062212490E+03 -0.52152895365E+03 -0.60787500222E+03  0.88210162092E+03  0.80935065606E+02 0.  0.
         24    2    4    4    0    0 -0.19711547790E+03  0.12678204819E+03 -0.84972809404E+03  0.88532722837E+03  0.82693821485E+02 0.  0.
         11    1    3    3    0    0 -0.13122747053E+03  0.19991364370E+03  0.69210053078E+02  0.24895008617E+03  0.00000000000E+00 0.  1.
        -11    1    3    3    0    0 -0.32279176466E+02  0.19483326176E+03  0.85295778435E+01  0.19767321219E+03  0.00000000000E+00 0. -1.
          2    1    6    6  502    0 -0.12153449458E+03  0.32011776047E+02 -0.38182518854E+03  0.40197743939E+03  0.00000000000E+00 0. -1.
          1    1    5    5  503    0  0.15354525556E+03 -0.17872309315E+03 -0.26779181724E+03  0.35669391207E+03  0.00000000000E+00 0. -1.
         -2    1    5    5    0  503  0.20707686934E+03 -0.34280586051E+03 -0.34008318498E+03  0.52540770885E+03  0.00000000000E+00 0.  1.
         -1    1    6    6    0  502 -0.75580983320E+02  0.94770272145E+02 -0.46790290550E+03  0.48334978897E+03  0.00000000000E+00 0.  1.
<mgrwt>
<rscale>  0 0.17314744E+04</rscale>
<asrwt>0</asrwt>
<pdfrwt beam="1">  1        2 0.27645504E+00 0.17314744E+04</pdfrwt>
<pdfrwt beam="2">  1       -2 0.64168361E-01 0.17314744E+04</pdfrwt>
<totfact> 0.18452815E+01</totfact>
</mgrwt>
</event>
<event>
12    1  0.1097093E-007  0.1465723E+04  0.7818608E-02  0.8907572E-01
         -2   -1    0    0    0  501 -0.00000000000E+00  0.00000000000E+00  0.10389114922E+04  0.10389114922E+04  0.00000000000E+00 0. -1.
          2   -1    0    0  501    0  0.00000000000E+00 -0.00000000000E+00 -0.51696990953E+03  0.51696990953E+03  0.00000000000E+00 0.  1.
         23    2    1    2    0    0  0.39580137907E+03  0.20255056774E+03  0.19345355146E+03  0.49353561825E+03  0.92019920392E+02 0.  0.
        254    2    1    2    0    0 -0.39580137907E+03 -0.20255056774E+03  0.32848803118E+03  0.10623457834E+04  0.90718725345E+03 0.  0.
        -24    2    4    4    0    0 -0.54930311951E+03 -0.42217424183E+02  0.51753708350E+03  0.76018096393E+03  0.80710824036E+02 0.  0.
         24    2    4    4    0    0  0.15350174045E+03 -0.16033314356E+03 -0.18904905233E+03  0.30216481951E+03  0.79338091242E+02 0.  0.
         11    1    3    3    0    0  0.31715050169E+02  0.30289260692E+02  0.48692000864E+02  0.65530105056E+02  0.00000000000E+00 0. -1.
        -11    1    3    3    0    0  0.36408632890E+03  0.17226130705E+03  0.14476155060E+03  0.42800551320E+03  0.00000000000E+00 0.  1.
          2    1    6    6  502    0  0.10255975019E+03 -0.14411902654E+03 -0.11556322762E+03  0.21129045352E+03  0.00000000000E+00 0. -1.
          1    1    5    5  503    0 -0.30542590274E+03  0.78297156444E+01  0.31941546114E+03  0.44200964166E+03  0.00000000000E+00 0. -1.
         -2    1    5    5    0  503 -0.24387721677E+03 -0.50047139827E+02  0.19812162237E+03  0.31817132227E+03  0.00000000000E+00 0.  1.
         -3    1    6    6    0  502  0.50941990259E+02 -0.16214117017E+02 -0.73485824707E+02  0.90874365995E+02  0.00000000000E+00 0.  1.
<mgrwt>
<rscale>  0 0.14657230E+04</rscale>
<asrwt>0</asrwt>
<pdfrwt beam="1">  1        2 0.79533833E-01 0.14657230E+04</pdfrwt>
<pdfrwt beam="2">  1       -2 0.15983254E+00 0.14657230E+04</pdfrwt>
<totfact> 0.14477664E+01</totfact>
</mgrwt>
</event>
<event>
12    1  0.1097093E-007  0.1413776E+04  0.7818608E-02  0.8943907E-01
          1   -1    0    0  501    0  0.00000000000E+00  0.00000000000E+00  0.97378890954E+03  0.97378890954E+03  0.00000000000E+00 0. -1.
         -1   -1    0    0    0  501 -0.00000000000E+00 -0.00000000000E+00 -0.51314051938E+03  0.51314051938E+03  0.00000000000E+00 0.  1.
         23    2    1    2    0    0 -0.25304523394E+03  0.32269871659E+03  0.15870157243E+03  0.44936376987E+03  0.92602680692E+02 0.  0.
        254    2    1    2    0    0  0.25304523394E+03 -0.32269871659E+03  0.30194681773E+03  0.10375656591E+04  0.90399350883E+03 0.  0.
        -24    2    4    4    0    0  0.49606356186E+03 -0.39206115898E+02 -0.64155750807E+02  0.50788233835E+03  0.78818350168E+02 0.  0.
         24    2    4    4    0    0 -0.24301832791E+03 -0.28349260069E+03  0.36610256854E+03  0.52968332071E+03  0.84305202672E+02 0.  0.
         11    1    3    3    0    0 -0.23426579758E+03  0.23929468934E+03  0.12883870888E+03  0.35880611083E+03  0.00000000000E+00 0.  1.
        -11    1    3    3    0    0 -0.18779436359E+02  0.83404027248E+02  0.29862863550E+02  0.90557659038E+02  0.00000000000E+00 0. -1.
          4    1    6    6  502    0 -0.78631808141E+02 -0.40347907456E+02  0.69727760215E+02  0.11257386656E+03  0.00000000000E+00 0. -1.
          3    1    5    5  503    0  0.61597144984E+02 -0.17076589685E+02  0.15130053200E+02  0.65686655382E+02  0.00000000000E+00 0. -1.
         -4    1    5    5    0  503  0.43446641687E+03 -0.22129526213E+02 -0.79285804007E+02  0.44219568297E+03  0.00000000000E+00 0.  1.
         -3    1    6    6    0  502 -0.16438651977E+03 -0.24314469323E+03  0.29637480833E+03  0.41710945415E+03  0.00000000000E+00 0.  1.
<mgrwt>
<rscale>  0 0.14137759E+04</rscale>
<asrwt>0</asrwt>
<pdfrwt beam="1">  1        1 0.14981368E+00 0.14137759E+04</pdfrwt>
<pdfrwt beam="2">  1       -1 0.78944695E-01 0.14137759E+04</pdfrwt>
<totfact> 0.24805723E+01</totfact>
</mgrwt>
</event>
<event>
12    1  0.1097093E-007  0.1614073E+04  0.7818608E-02  0.8811949E-01
         -2   -1    0    0    0  501 -0.00000000000E+00  0.00000000000E+00  0.19911962354E+03  0.19911962354E+03  0.00000000000E+00 0.  1.
          2   -1    0    0  501    0  0.00000000000E+00 -0.00000000000E+00 -0.32709394585E+04  0.32709394585E+04  0.00000000000E+00 0. -1.
         23    2    1    2    0    0  0.19705161233E+03  0.12539000534E+03  0.10867896415E+02  0.24994694786E+03  0.88336709295E+02 0.  0.
        254    2    1    2    0    0 -0.19705161233E+03 -0.12539000534E+03 -0.30826877314E+04  0.32201121342E+04  0.90089206688E+03 0.  0.
        -24    2    4    4    0    0 -0.19076340204E+03  0.37282191499E+03 -0.14003573786E+04  0.14637613883E+04  0.78802019670E+02 0.  0.
         24    2    4    4    0    0 -0.62882102907E+01 -0.49821192033E+03 -0.16823303528E+04  0.17563507459E+04  0.79232994721E+02 0.  0.
         11    1    3    3    0    0  0.13833118923E+03  0.77728603302E+02 -0.33630769045E+02  0.16219828085E+03  0.00000000000E+00 0.  1.
        -11    1    3    3    0    0  0.58720423104E+02  0.47661402039E+02  0.44498665460E+02  0.87748667008E+02  0.00000000000E+00 0. -1.
          4    1    6    6  502    0  0.12348158184E+02 -0.19190927138E+03 -0.52810861146E+03  0.56203233977E+03  0.00000000000E+00 0. -1.
          1    1    5    5  503    0 -0.14432527193E+03  0.31287045257E+03 -0.12287722720E+04  0.12761657418E+04  0.00000000000E+00 0. -1.
         -2    1    5    5    0  503 -0.46438130118E+02  0.59951462412E+02 -0.17158510662E+03  0.18759564650E+03  0.00000000000E+00 0.  1.
         -3    1    6    6    0  502 -0.18636368474E+02 -0.30630264895E+03 -0.11542217413E+04  0.11943184061E+04  0.00000000000E+00 0.  1.
<mgrwt>
<rscale>  0 0.16140734E+04</rscale>
<asrwt>0</asrwt>
<pdfrwt beam="1">  1        2 0.50322141E+00 0.16140734E+04</pdfrwt>
<pdfrwt beam="2">  1       -2 0.30633791E-01 0.16140734E+04</pdfrwt>
<totfact> 0.11096281E+01</totfact>
</mgrwt>
</event>
<event>
12    1  0.1097093E-007  0.2205154E+04  0.7818608E-02  0.8516286E-01
          2   -1    0    0  501    0  0.00000000000E+00  0.00000000000E+00  0.20207535606E+04  0.20207535606E+04  0.00000000000E+00 0. -1.
         -2   -1    0    0    0  501 -0.00000000000E+00 -0.00000000000E+00 -0.60159555027E+03  0.60159555027E+03  0.00000000000E+00 0.  1.
         23    2    1    2    0    0  0.95631406862E+02  0.24427448112E+03  0.16242286696E+04  0.16478242788E+04  0.91600735128E+02 0.  0.
        254    2    1    2    0    0 -0.95631406862E+02 -0.24427448112E+03 -0.20507065924E+03  0.97452483206E+03  0.91587623886E+03 0.  0.
        -24    2    4    4    0    0 -0.10721657361E+03 -0.50644457074E+03  0.13166138937E+03  0.54027920733E+03  0.81150499247E+02 0.  0.
         24    2    4    4    0    0  0.11585166747E+02  0.26217008962E+03 -0.33673204861E+03  0.43424562473E+03  0.79457020177E+02 0.  0.
         11    1    3    3    0    0  0.23794254668E+02  0.84998276858E+01  0.28385462346E+03  0.28497694799E+03  0.00000000000E+00 0.  1.
        -11    1    3    3    0    0  0.71837152193E+02  0.23577465343E+03  0.13403740461E+04  0.13628473308E+04  0.00000000000E+00 0. -1.
          2    1    6    6  502    0 -0.13625550469E+02  0.19429718452E+03 -0.19792189550E+03  0.27768710495E+03  0.00000000000E+00 0. -1.
          3    1    5    5  503    0 -0.50064205207E+02 -0.12901646486E+03  0.64580124703E+01  0.13854017025E+03  0.00000000000E+00 0. -1.
         -4    1    5    5    0  503 -0.57152368401E+02 -0.37742810588E+03  0.12520337690E+03  0.40173903708E+03  0.00000000000E+00 0.  1.
         -1    1    6    6    0  502  0.25210717216E+02  0.67872905107E+02 -0.13881015310E+03  0.15655851978E+03  0.00000000000E+00 0.  1.
<mgrwt>
<rscale>  0 0.22051543E+04</rscale>
<asrwt>0</asrwt>
<pdfrwt beam="1">  1        2 0.31088516E+00 0.22051543E+04</pdfrwt>
<pdfrwt beam="2">  1       -2 0.92553163E-01 0.22051543E+04</pdfrwt>
<totfact> 0.58868978E+00</totfact>
</mgrwt>
</event>
<event>
12    1  0.1097093E-007  0.1939190E+04  0.7818608E-02  0.8635591E-01
          1   -1    0    0  501    0  0.00000000000E+00  0.00000000000E+00  0.67655815967E+03  0.67655815967E+03  0.00000000000E+00 0. -1.
         -1   -1    0    0    0  501 -0.00000000000E+00 -0.00000000000E+00 -0.13895546521E+04  0.13895546521E+04  0.00000000000E+00 0.  1.
         23    2    1    2    0    0 -0.47609849230E+03 -0.28143879264E+03  0.27455787270E+03  0.62438163004E+03  0.92697497802E+02 0.  0.
        254    2    1    2    0    0  0.47609849230E+03  0.28143879264E+03 -0.98755436511E+03  0.14417311817E+04  0.89299922055E+03 0.  0.
        -24    2    4    4    0    0 -0.10999061964E+03  0.64441334274E+02 -0.75529146276E+03  0.77039407725E+03  0.82408850110E+02 0.  0.
         24    2    4    4    0    0  0.58608911194E+03  0.21699745837E+03 -0.23226290236E+03  0.67133710447E+03  0.78479984419E+02 0.  0.
         11    1    3    3    0    0 -0.38869960838E+02 -0.52978708257E+02  0.48869334095E+02  0.81889127477E+02  0.00000000000E+00 0.  1.
        -11    1    3    3    0    0 -0.43722853146E+03 -0.22846008439E+03  0.22568853860E+03  0.54249250256E+03  0.00000000000E+00 0. -1.
          2    1    6    6  502    0  0.63023490981E+02  0.16216021013E+01 -0.35920246439E+02  0.72559314448E+02  0.00000000000E+00 0. -1.
          1    1    5    5  503    0 -0.24203977555E+01  0.12160568093E+02 -0.11064837697E+02  0.16618314442E+02  0.00000000000E+00 0. -1.
         -2    1    5    5    0  503 -0.10757022189E+03  0.52280766182E+02 -0.74422662506E+03  0.75377576281E+03  0.00000000000E+00 0.  1.
         -1    1    6    6    0  502  0.52306562096E+03  0.21537585627E+03 -0.19634265592E+03  0.59877779002E+03  0.00000000000E+00 0.  1.
<mgrwt>
<rscale>  0 0.19391901E+04</rscale>
<asrwt>0</asrwt>
<pdfrwt beam="1">  1        1 0.10408587E+00 0.19391901E+04</pdfrwt>
<pdfrwt beam="2">  1       -1 0.21377764E+00 0.19391901E+04</pdfrwt>
<totfact> 0.32414806E+00</totfact>
</mgrwt>
</event>
<event>
12    1  0.1097093E-007  0.1663816E+04  0.7818608E-02  0.8782275E-01
          2   -1    0    0  501    0  0.00000000000E+00  0.00000000000E+00  0.13921703963E+04  0.13921703963E+04  0.00000000000E+00 0. -1.
         -2   -1    0    0    0  501 -0.00000000000E+00 -0.00000000000E+00 -0.49711645888E+03  0.49711645888E+03  0.00000000000E+00 0.  1.
         23    2    1    2    0    0  0.28187719014E+03 -0.38140071428E+03  0.80110304760E+03  0.93539819803E+03  0.91007916299E+02 0.  0.
        254    2    1    2    0    0 -0.28187719014E+03  0.38140071428E+03  0.93950889821E+02  0.95388865715E+03  0.82228677806E+03 0.  0.
        -24    2    4    4    0    0 -0.51390702639E+03  0.30169241755E+03  0.25158607173E+03  0.65213415789E+03  0.82853254746E+02 0.  0.
         24    2    4    4    0    0  0.23202983625E+03  0.79708296728E+02 -0.15763518191E+03  0.30175449926E+03  0.77560748881E+02 0.  0.
         11    1    3    3    0    0  0.23318603784E+03 -0.27389073309E+03  0.53973027891E+03  0.64861439691E+03  0.00000000000E+00 0. -1.
        -11    1    3    3    0    0  0.48691152302E+02 -0.10750998118E+03  0.26137276870E+03  0.28678380112E+03  0.00000000000E+00 0.  1.
          4    1    6    6  502    0  0.19092958523E+02 -0.12594284622E+02 -0.34681937149E+01  0.23134075256E+02  0.00000000000E+00 0. -1.
          3    1    5    5  503    0 -0.48327827092E+02  0.23233692220E+02  0.50229996706E+02  0.73474049124E+02  0.00000000000E+00 0. -1.
         -4    1    5    5    0  503 -0.46557919930E+03  0.27845872533E+03  0.20135607502E+03  0.57866010877E+03  0.00000000000E+00 0.  1.
         -3    1    6    6    0  502  0.21293687773E+03  0.92302581350E+02 -0.15416698819E+03  0.27862042400E+03  0.00000000000E+00 0.  1.
<mgrwt>
<rscale>  0 0.16638159E+04</rscale>
<asrwt>0</asrwt>
<pdfrwt beam="1">  1        2 0.21418006E+00 0.16638159E+04</pdfrwt>
<pdfrwt beam="2">  1       -2 0.76479455E-01 0.16638159E+04</pdfrwt>
<totfact> 0.21331534E+01</totfact>
</mgrwt>
</event>
<event>
12    1  0.1097093E-007  0.2004860E+04  0.7818608E-02  0.8604352E-01
         -2   -1    0    0    0  501 -0.00000000000E+00  0.00000000000E+00  0.52380810855E+03  0.52380810855E+03  0.00000000000E+00 0.  1.
          2   -1    0    0  501    0  0.00000000000E+00 -0.00000000000E+00 -0.19183856046E+04  0.19183856046E+04  0.00000000000E+00 0. -1.
         23    2    1    2    0    0 -0.17954039679E+03 -0.52263287193E+03  0.13461596798E+03  0.57587668652E+03  0.90181075312E+02 0.  0.
        254    2    1    2    0    0  0.17954039679E+03  0.52263287193E+03 -0.15291934640E+04  0.18663170266E+04  0.91614776132E+03 0.  0.
        -24    2    4    4    0    0  0.10116369736E+03  0.76605195769E+03 -0.12981383943E+04  0.15127441779E+04  0.78498162751E+02 0.  0.
         24    2    4    4    0    0  0.78376699427E+02 -0.24341908576E+03 -0.23105506968E+03  0.35357284866E+03  0.78940203689E+02 0.  0.
         11    1    3    3    0    0 -0.10563723728E+03 -0.20682475712E+03  0.25321522940E+02  0.23361696339E+03  0.00000000000E+00 0. -1.
        -11    1    3    3    0    0 -0.73903159508E+02 -0.31580811480E+03  0.10929444504E+03  0.34225972313E+03  0.00000000000E+00 0.  1.
          2    1    6    6  502    0  0.85136681792E+02 -0.24223395401E+03 -0.23269694285E+03  0.34651610392E+03  0.00000000000E+00 0. -1.
          1    1    5    5  503    0  0.11445427862E+03  0.69600513088E+03 -0.11750693385E+04  0.13705148209E+04  0.00000000000E+00 0. -1.
         -4    1    5    5    0  503 -0.13290581262E+02  0.70046826809E+02 -0.12306905586E+03  0.14222935705E+03  0.00000000000E+00 0.  1.
         -1    1    6    6    0  502 -0.67599823647E+01 -0.11851317551E+01  0.16418731738E+01  0.70567447430E+01  0.00000000000E+00 0.  1.
<mgrwt>
<rscale>  0 0.20048600E+04</rscale>
<asrwt>0</asrwt>
<pdfrwt beam="1">  1        2 0.29513624E+00 0.20048600E+04</pdfrwt>
<pdfrwt beam="2">  1       -2 0.80585864E-01 0.20048600E+04</pdfrwt>
<totfact> 0.93654372E+00</totfact>
</mgrwt>
</event>
<event>
12    1  0.1097093E-007  0.1660695E+04  0.7818608E-02  0.8784105E-01
         -2   -1    0    0    0  501 -0.00000000000E+00  0.00000000000E+00  0.13158683634E+04  0.13158683634E+04  0.00000000000E+00 0.  1.
          2   -1    0    0  501    0  0.00000000000E+00 -0.00000000000E+00 -0.52397093877E+03  0.52397093877E+03  0.00000000000E+00 0. -1.
         23    2    1    2    0    0  0.40811984214E+03  0.85355909494E+02 -0.17470887302E+03  0.46126768778E+03  0.91636524636E+02 0.  0.
        254    2    1    2    0    0 -0.40811984214E+03 -0.85355909494E+02  0.96660629762E+03  0.13785716144E+04  0.89010365942E+03 0.  0.
        -24    2    4    4    0    0 -0.74381376740E+02  0.21779302133E+03 -0.62917802951E+02  0.25146127613E+03  0.79421244759E+02 0.  0.
         24    2    4    4    0    0 -0.33373846540E+03 -0.30314893083E+03  0.10295241006E+04  0.11271103382E+04  0.84718376687E+02 0.  0.
         11    1    3    3    0    0  0.29419547086E+03  0.97649181694E+02 -0.10568781277E+03  0.32750000233E+03  0.00000000000E+00 0. -1.
        -11    1    3    3    0    0  0.11392437128E+03 -0.12293272199E+02 -0.69021060246E+02  0.13376768545E+03  0.00000000000E+00 0.  1.
          2    1    6    6  502    0 -0.69804261612E+02 -0.52634143695E+02  0.29022776345E+03  0.30310912672E+03  0.00000000000E+00 0. -1.
          3    1    5    5  503    0  0.88275419776E+01  0.93454419634E+01 -0.18720053159E+02  0.22709098906E+02  0.00000000000E+00 0. -1.
         -4    1    5    5    0  503 -0.83208918718E+02  0.20844757937E+03 -0.44197749792E+02  0.22875217723E+03  0.00000000000E+00 0.  1.
         -3    1    6    6    0  502 -0.26393420379E+03 -0.25051478713E+03  0.73929633711E+03  0.82400121151E+03  0.00000000000E+00 0.  1.
<mgrwt>
<rscale>  0 0.16606948E+04</rscale>
<asrwt>0</asrwt>
<pdfrwt beam="1">  1        2 0.80610914E-01 0.16606948E+04</pdfrwt>
<pdfrwt beam="2">  1       -2 0.20244129E+00 0.16606948E+04</pdfrwt>
<totfact> 0.71260445E+00</totfact>
</mgrwt>
</event>
<event>
12    1  0.1097093E-007  0.1932892E+04  0.7818608E-02  0.8638655E-01
          2   -1    0    0  501    0  0.00000000000E+00  0.00000000000E+00  0.33339424319E+04  0.33339424319E+04  0.00000000000E+00 0. -1.
         -2   -1    0    0    0  501 -0.00000000000E+00 -0.00000000000E+00 -0.28015409161E+03  0.28015409161E+03  0.00000000000E+00 0.  1.
         23    2    1    2    0    0 -0.33060577306E+03 -0.45971033584E+02  0.26200010812E+04  0.26429520640E+04  0.96831988069E+02 0.  0.
        254    2    1    2    0    0  0.33060577306E+03  0.45971033584E+02  0.43378725902E+03  0.97114445945E+03  0.80220736841E+03 0.  0.
        -24    2    4    4    0    0  0.58724501999E+03  0.46237603158E+02  0.34936836125E+03  0.68957424082E+03  0.80372584290E+02 0.  0.
         24    2    4    4    0    0 -0.25663924693E+03 -0.26656957323E+00  0.84418897777E+02  0.28157021864E+03  0.79318746812E+02 0.  0.
         13    1    3    3    0    0 -0.14670054139E+03 -0.10588987271E+02  0.80608094899E+03  0.81938981677E+03  0.00000000000E+00 0.  1.
        -13    1    3    3    0    0 -0.18390523167E+03 -0.35382046313E+02  0.18139201322E+04  0.18235622472E+04  0.00000000000E+00 0. -1.
          4    1    6    6  502    0 -0.20838761658E+03 -0.79404001745E+01  0.98631052378E+02  0.23068708935E+03  0.00000000000E+00 0. -1.
          1    1    5    5  503    0  0.34013975877E+03  0.15294483792E+02  0.15722885994E+03  0.37503318670E+03  0.00000000000E+00 0. -1.
         -2    1    5    5    0  503  0.24710526122E+03  0.30943119366E+02  0.19213950131E+03  0.31454105411E+03  0.00000000000E+00 0.  1.
         -3    1    6    6    0  502 -0.48251630353E+02  0.76738306013E+01 -0.14212154601E+02  0.50883129289E+02  0.00000000000E+00 0.  1.
<mgrwt>
<rscale>  0 0.19328917E+04</rscale>
<asrwt>0</asrwt>
<pdfrwt beam="1">  1        2 0.51291419E+00 0.19328917E+04</pdfrwt>
<pdfrwt beam="2">  1       -2 0.43100632E-01 0.19328917E+04</pdfrwt>
<totfact> 0.50648979E+00</totfact>
</mgrwt>
</event>
<event>
12    1  0.1097093E-007  0.1874062E+04  0.7818608E-02  0.8667876E-01
         -1   -1    0    0    0  501 -0.00000000000E+00  0.00000000000E+00  0.80122804270E+03  0.80122804270E+03  0.00000000000E+00 0.  1.
          1   -1    0    0  501    0  0.00000000000E+00 -0.00000000000E+00 -0.10958520979E+04  0.10958520979E+04  0.00000000000E+00 0. -1.
         23    2    1    2    0    0  0.39962831807E+03  0.41520661790E+03 -0.53910583186E+03  0.79663554164E+03  0.10905851686E+03 0.  0.
        254    2    1    2    0    0 -0.39962831807E+03 -0.41520661790E+03  0.24448177667E+03  0.11004445990E+04  0.90504566078E+03 0.  0.
        -24    2    4    4    0    0 -0.27254185138E+03  0.15400621581E+03 -0.18458558472E+03  0.37221306520E+03  0.80459633101E+02 0.  0.
         24    2    4    4    0    0 -0.12708646670E+03 -0.56921283371E+03  0.42906736139E+03  0.72823153376E+03  0.77898305919E+02 0.  0.
         11    1    3    3    0    0  0.32259031079E+02  0.41655957620E+00 -0.34065737662E+02  0.46917939964E+02  0.00000000000E+00 0.  1.
        -11    1    3    3    0    0  0.36736928699E+03  0.41479005832E+03 -0.50504009420E+03  0.74971760168E+03  0.00000000000E+00 0. -1.
          4    1    6    6  502    0 -0.13736984194E+03 -0.50388619226E+03  0.38084539669E+03  0.64638609546E+03  0.00000000000E+00 0. -1.
          3    1    5    5  503    0 -0.20333395766E+03  0.14958231828E+03 -0.15881165357E+03  0.29822929029E+03  0.00000000000E+00 0. -1.
         -4    1    5    5    0  503 -0.69207893721E+02  0.44238975285E+01 -0.25773931152E+02  0.73983774908E+02  0.00000000000E+00 0.  1.
         -3    1    6    6    0  502  0.10283375248E+02 -0.65326641452E+02  0.48221964698E+02  0.81845438292E+02  0.00000000000E+00 0.  1.
<mgrwt>
<rscale>  0 0.18740624E+04</rscale>
<asrwt>0</asrwt>
<pdfrwt beam="1">  1        1 0.16859263E+00 0.18740624E+04</pdfrwt>
<pdfrwt beam="2">  1       -1 0.12326585E+00 0.18740624E+04</pdfrwt>
<totfact> 0.69390697E+00</totfact>
</mgrwt>
</event>
<event>
12    1  0.1097093E-007  0.2079695E+04  0.7818608E-02  0.8570241E-01
         -1   -1    0    0    0  501 -0.00000000000E+00  0.00000000000E+00  0.13203809817E+04  0.13203809817E+04  0.00000000000E+00 0.  1.
          1   -1    0    0  501    0  0.00000000000E+00 -0.00000000000E+00 -0.81891721894E+03  0.81891721894E+03  0.00000000000E+00 0. -1.
         23    2    1    2    0    0  0.18175268852E+03  0.65035554234E+03 -0.32049508101E+03  0.75309729911E+03  0.91880758289E+02 0.  0.
        254    2    1    2    0    0 -0.18175268852E+03 -0.65035554234E+03  0.82195884374E+03  0.13862009015E+04  0.88878581631E+03 0.  0.
        -24    2    4    4    0    0  0.27703935011E+03 -0.41209297346E+03  0.67736789497E+03  0.84335659466E+03  0.76496145856E+02 0.  0.
         24    2    4    4    0    0 -0.45879203862E+03 -0.23826256887E+03  0.14459094877E+03  0.54284430684E+03  0.80710671961E+02 0.  0.
         11    1    3    3    0    0  0.88366060994E+02  0.32579969800E+03 -0.10952523644E+03  0.35489404246E+03  0.00000000000E+00 0.  1.
        -11    1    3    3    0    0  0.93386627521E+02  0.32455584434E+03 -0.21096984457E+03  0.39820325665E+03  0.00000000000E+00 0. -1.
          2    1    6    6  502    0 -0.36540727924E+03 -0.17117201440E+03  0.81408584672E+02  0.41164267988E+03  0.00000000000E+00 0. -1.
          1    1    5    5  503    0  0.20266585061E+03 -0.33003334105E+03  0.47711482425E+03  0.61451933145E+03  0.00000000000E+00 0. -1.
         -2    1    5    5    0  503  0.74373499493E+02 -0.82059632417E+02  0.20025307072E+03  0.22883726321E+03  0.00000000000E+00 0.  1.
         -3    1    6    6    0  502 -0.93384759380E+02 -0.67090554475E+02  0.63182364096E+02  0.13120162696E+03  0.00000000000E+00 0.  1.
<mgrwt>
<rscale>  0 0.20796949E+04</rscale>
<asrwt>0</asrwt>
<pdfrwt beam="1">  1        1 0.12598726E+00 0.20796949E+04</pdfrwt>
<pdfrwt beam="2">  1       -1 0.20313553E+00 0.20796949E+04</pdfrwt>
<totfact> 0.28085323E+00</totfact>
</mgrwt>
</event>
<event>
12    1  0.1097093E-007  0.3130832E+04  0.7818608E-02  0.8207327E-01
          1   -1    0    0  501    0  0.00000000000E+00  0.00000000000E+00  0.33181199482E+04  0.33181199482E+04  0.00000000000E+00 0.  1.
         -1   -1    0    0    0  501 -0.00000000000E+00 -0.00000000000E+00 -0.73852873404E+03  0.73852873404E+03  0.00000000000E+00 0. -1.
         23    2    1    2    0    0  0.30946304311E+03  0.56681634188E+03 -0.46286628863E+03  0.79975080492E+03  0.91148276673E+02 0.  0.
        254    2    1    2    0    0 -0.30946304311E+03 -0.56681634188E+03  0.30424575028E+04  0.32568978774E+04  0.96632705983E+03 0.  0.
        -24    2    4    4    0    0 -0.64787625673E+03 -0.30428627371E+03  0.17266825325E+04  0.18708649919E+04  0.79808956049E+02 0.  0.
         24    2    4    4    0    0  0.33841321362E+03 -0.26253006817E+03  0.13157749703E+04  0.13860328855E+04  0.79861424990E+02 0.  0.
         13    1    3    3    0    0  0.23389469188E+02  0.83126775702E+02 -0.33854334584E+02  0.92753674200E+02  0.00000000000E+00 0.  1.
        -13    1    3    3    0    0  0.28607357392E+03  0.48368956618E+03 -0.42901195405E+03  0.70699713072E+03  0.00000000000E+00 0. -1.
          2    1    6    6  502    0  0.27475290244E+03 -0.17456087440E+03  0.93305771781E+03  0.98820916867E+03  0.00000000000E+00 0. -1.
          1    1    5    5  503    0 -0.48517953648E+03 -0.25992241206E+03  0.13651970401E+04  0.14719788725E+04  0.00000000000E+00 0. -1.
         -2    1    5    5    0  503 -0.16269672025E+03 -0.44363861652E+02  0.36148549245E+03  0.39888611940E+03  0.00000000000E+00 0.  1.
         -1    1    6    6    0  502  0.63660311171E+02 -0.87969193765E+02  0.38271725251E+03  0.39782371679E+03  0.00000000000E+00 0.  1.
<mgrwt>
<rscale>  0 0.31308318E+04</rscale>
<asrwt>0</asrwt>
<pdfrwt beam="1">  1        1 0.51047998E+00 0.31308318E+04</pdfrwt>
<pdfrwt beam="2">  1       -1 0.11361981E+00 0.31308318E+04</pdfrwt>
<totfact> 0.20549045E-01</totfact>
</mgrwt>
</event>
<event>
12    1  0.1097093E-007  0.1767635E+04  0.7818608E-02  0.8723703E-01
          3   -1    0    0  501    0  0.00000000000E+00  0.00000000000E+00  0.17909630345E+04  0.17909630345E+04  0.00000000000E+00 0. -1.
         -3   -1    0    0    0  501 -0.00000000000E+00 -0.00000000000E+00 -0.43615280756E+03  0.43615280756E+03  0.00000000000E+00 0.  1.
         23    2    1    2    0    0 -0.11485119719E+03  0.30142478307E+03  0.12062827285E+04  0.12522583047E+04  0.94789995848E+02 0.  0.
        254    2    1    2    0    0  0.11485119719E+03 -0.30142478307E+03  0.14852749841E+03  0.97485753731E+03  0.90787614955E+03 0.  0.
        -24    2    4    4    0    0 -0.11737238450E+03  0.38362322530E+02  0.43981306658E+03  0.46427669351E+03  0.82881663690E+02 0.  0.
         24    2    4    4    0    0  0.23222358169E+03 -0.33978710560E+03 -0.29128556817E+03  0.51058084379E+03  0.80389345068E+02 0.  0.
         13    1    3    3    0    0 -0.26147077824E+02  0.13839619272E+03  0.67362850141E+03  0.68819512767E+03  0.00000000000E+00 0.  1.
        -13    1    3    3    0    0 -0.88704119364E+02  0.16302859035E+03  0.53265422711E+03  0.56406317707E+03  0.00000000000E+00 0. -1.
          2    1    6    6  502    0  0.11573735539E+03 -0.15896976307E+03 -0.90979776402E+02  0.21666527345E+03  0.00000000000E+00 0. -1.
          1    1    5    5  503    0 -0.90153225306E+02  0.37879365075E+02  0.19692675784E+03  0.21986950285E+03  0.00000000000E+00 0. -1.
         -2    1    5    5    0  503 -0.27219159192E+02  0.48295745465E+00  0.24288630873E+03  0.24440719066E+03  0.00000000000E+00 0.  1.
         -1    1    6    6    0  502  0.11648622629E+03 -0.18081734253E+03 -0.20030579177E+03  0.29391557035E+03  0.00000000000E+00 0.  1.
<mgrwt>
<rscale>  0 0.17676352E+04</rscale>
<asrwt>0</asrwt>
<pdfrwt beam="1">  1        3 0.27553277E+00 0.17676352E+04</pdfrwt>
<pdfrwt beam="2">  1       -3 0.67100433E-01 0.17676352E+04</pdfrwt>
<totfact> 0.28066227E-01</totfact>
</mgrwt>
</event>
<event>
12    1  0.1097093E-007  0.2048261E+04  0.7818608E-02  0.8584384E-01
          1   -1    0    0  501    0  0.00000000000E+00  0.00000000000E+00  0.24665784346E+04  0.24665784346E+04  0.00000000000E+00 0. -1.
         -1   -1    0    0    0  501 -0.00000000000E+00 -0.00000000000E+00 -0.42522179937E+03  0.42522179937E+03  0.00000000000E+00 0.  1.
         23    2    1    2    0    0 -0.56652051038E+03 -0.42947556314E+01 -0.65640825665E+01  0.57617682711E+03  0.10475072939E+03 0.  0.
        254    2    1    2    0    0  0.56652051038E+03  0.42947556314E+01  0.20479207178E+04  0.23156234069E+04  0.92041760221E+03 0.  0.
        -24    2    4    4    0    0 -0.12507621961E+03 -0.26171660437E+03  0.35196572318E+03  0.46312211865E+03  0.80390203233E+02 0.  0.
         24    2    4    4    0    0  0.69159672999E+03  0.26601136000E+03  0.16959549946E+04  0.18525012882E+04  0.80184777187E+02 0.  0.
         13    1    3    3    0    0 -0.17380822584E+02  0.17149723441E+02 -0.10562614448E+02  0.26604037884E+02  0.00000000000E+00 0. -1.
        -13    1    3    3    0    0 -0.54913968780E+03 -0.21444479072E+02  0.39985318812E+01  0.54957278922E+03  0.00000000000E+00 0.  1.
          2    1    6    6  502    0  0.66976910963E+03  0.24031318459E+03  0.16161161648E+04  0.17658348012E+04  0.00000000000E+00 0. -1.
          1    1    5    5  503    0 -0.30590146002E+02 -0.13621549150E+03  0.12696625488E+03  0.18870836503E+03  0.00000000000E+00 0. -1.
         -2    1    5    5    0  503 -0.94486073613E+02 -0.12550111288E+03  0.22499946830E+03  0.27441375362E+03  0.00000000000E+00 0.  1.
         -1    1    6    6    0  502  0.21827620360E+02  0.25698175410E+02  0.79838829774E+02  0.86666487004E+02  0.00000000000E+00 0.  1.
<mgrwt>
<rscale>  0 0.20482606E+04</rscale>
<asrwt>0</asrwt>
<pdfrwt beam="1">  1        1 0.37947360E+00 0.20482606E+04</pdfrwt>
<pdfrwt beam="2">  1       -1 0.65418740E-01 0.20482606E+04</pdfrwt>
<totfact> 0.31279726E+00</totfact>
</mgrwt>
</event>
<event>
12    1  0.1097093E-007  0.1559605E+04  0.7818608E-02  0.8845756E-01
          2   -1    0    0  501    0  0.00000000000E+00  0.00000000000E+00  0.23207915106E+04  0.23207915106E+04  0.00000000000E+00 0. -1.
         -2   -1    0    0    0  501 -0.00000000000E+00 -0.00000000000E+00 -0.26201930981E+03  0.26201930981E+03  0.00000000000E+00 0.  1.
         23    2    1    2    0    0  0.43866709358E+03  0.18094613024E+03  0.33850606221E+03  0.58966769714E+03  0.89170162410E+02 0.  0.
        254    2    1    2    0    0 -0.43866709358E+03 -0.18094613024E+03  0.17202661386E+04  0.19931431233E+04  0.88776888954E+03 0.  0.
        -24    2    4    4    0    0 -0.25530303153E+03  0.34720285881E+03  0.82480729144E+03  0.93375131727E+03  0.76517915688E+02 0.  0.
         24    2    4    4    0    0 -0.18336406205E+03 -0.52814898905E+03  0.89545884718E+03  0.10593918060E+04  0.88885982039E+02 0.  0.
         13    1    3    3    0    0  0.37834819345E+03  0.17025014361E+03  0.32477376556E+03  0.52688752659E+03  0.00000000000E+00 0.  1.
        -13    1    3    3    0    0  0.60318900131E+02  0.10695986627E+02  0.13732296653E+02  0.62780170551E+02  0.00000000000E+00 0. -1.
          4    1    6    6  502    0 -0.12815213118E+03 -0.46334999607E+03  0.77105161694E+03  0.90864557644E+03  0.00000000000E+00 0. -1.
          1    1    5    5  503    0 -0.23514566589E+03  0.34485348485E+03  0.78484658533E+03  0.88893282801E+03  0.00000000000E+00 0. -1.
         -2    1    5    5    0  503 -0.20157365634E+02  0.23493739601E+01  0.39960706106E+02  0.44818489263E+02  0.00000000000E+00 0.  1.
         -3    1    6    6    0  502 -0.55211930871E+02 -0.64798992977E+02  0.12440723024E+03  0.15074622960E+03  0.00000000000E+00 0.  1.
<mgrwt>
<rscale>  0 0.15596053E+04</rscale>
<asrwt>0</asrwt>
<pdfrwt beam="1">  1        2 0.35704483E+00 0.15596053E+04</pdfrwt>
<pdfrwt beam="2">  1       -2 0.40310665E-01 0.15596053E+04</pdfrwt>
<totfact> 0.24755103E+01</totfact>
</mgrwt>
</event>
<event>
12    1  0.1097093E-007  0.2209477E+04  0.7818608E-02  0.8514494E-01
          2   -1    0    0  501    0  0.00000000000E+00  0.00000000000E+00  0.84393736647E+03  0.84393736647E+03  0.00000000000E+00 0. -1.
         -2   -1    0    0    0  501 -0.00000000000E+00 -0.00000000000E+00 -0.14461342134E+04  0.14461342134E+04  0.00000000000E+00 0.  1.
         23    2    1    2    0    0  0.70591745732E+03  0.43201326337E+03 -0.67256795150E+03  0.10704858204E+04  0.92937215702E+02 0.  0.
        254    2    1    2    0    0 -0.70591745732E+03 -0.43201326337E+03  0.70371104619E+02  0.12195857594E+04  0.89301870972E+03 0.  0.
        -24    2    4    4    0    0 -0.63417102803E+03  0.11689880292E+03 -0.35839910412E+02  0.65046720849E+03  0.77361923634E+02 0.  0.
         24    2    4    4    0    0 -0.71746429285E+02 -0.54891206629E+03  0.10621101503E+03  0.56911855091E+03  0.78505659929E+02 0.  0.
         13    1    3    3    0    0  0.68380684111E+03  0.41798435969E+03 -0.66918223571E+03  0.10440821737E+04  0.00000000000E+00 0.  1.
        -13    1    3    3    0    0  0.22110616210E+02  0.14028903682E+02 -0.33857157910E+01  0.26403646701E+02  0.00000000000E+00 0. -1.
          4    1    6    6  502    0 -0.69887937373E+02 -0.54081795713E+03  0.11469527792E+03  0.55724625913E+03  0.00000000000E+00 0. -1.
          1    1    5    5  503    0 -0.43426125058E+03  0.43697378264E+02 -0.17876293653E+02  0.43682016494E+03  0.00000000000E+00 0. -1.
         -2    1    5    5    0  503 -0.19990977745E+03  0.73201424658E+02 -0.17963616760E+02  0.21364704355E+03  0.00000000000E+00 0.  1.
         -3    1    6    6    0  502 -0.18584919118E+01 -0.80941091644E+01 -0.84842628849E+01  0.11872291778E+02  0.00000000000E+00 0.  1.
<mgrwt>
<rscale>  0 0.22094766E+04</rscale>
<asrwt>0</asrwt>
<pdfrwt beam="1">  1        2 0.12983652E+00 0.22094766E+04</pdfrwt>
<pdfrwt beam="2">  1       -2 0.22248219E+00 0.22094766E+04</pdfrwt>
<totfact> 0.27894403E+00</totfact>
</mgrwt>
</event>
<event>
12    1  0.1097093E-007  0.1905675E+04  0.7818608E-02  0.8652037E-01
         -2   -1    0    0    0  501 -0.00000000000E+00  0.00000000000E+00  0.55051056841E+03  0.55051056841E+03  0.00000000000E+00 0.  1.
          2   -1    0    0  501    0  0.00000000000E+00 -0.00000000000E+00 -0.16491946888E+04  0.16491946888E+04  0.00000000000E+00 0. -1.
         23    2    1    2    0    0  0.71563766742E+03  0.64954521050E+02 -0.64264147792E+03  0.96789615236E+03  0.86478504725E+02 0.  0.
        254    2    1    2    0    0 -0.71563766742E+03 -0.64954521050E+02 -0.45604264242E+03  0.12318091048E+04  0.89051806166E+03 0.  0.
        -24    2    4    4    0    0 -0.72841668119E+03 -0.37517713725E+03 -0.31444673852E+03  0.88129606088E+03  0.80357014692E+02 0.  0.
         24    2    4    4    0    0  0.12779013772E+02  0.31022261620E+03 -0.14159590390E+03  0.35051304392E+03  0.80053851624E+02 0.  0.
         13    1    3    3    0    0  0.22033506689E+03  0.35696084338E+02 -0.15157961175E+03  0.26981128745E+03  0.00000000000E+00 0. -1.
        -13    1    3    3    0    0  0.49530260053E+03  0.29258436712E+02 -0.49106186617E+03  0.69808486491E+03  0.00000000000E+00 0.  1.
          4    1    6    6  502    0  0.19504267453E+02  0.13272204676E+02 -0.11492624204E+02  0.26242108850E+02  0.00000000000E+00 0. -1.
          3    1    5    5  503    0 -0.37035988026E+03 -0.14704378899E+03 -0.16308130162E+03  0.43056222283E+03  0.00000000000E+00 0. -1.
         -4    1    5    5    0  503 -0.35805680093E+03 -0.22813334827E+03 -0.15136543690E+03  0.45073383806E+03  0.00000000000E+00 0.  1.
         -3    1    6    6    0  502 -0.67252536809E+01  0.29695041153E+03 -0.13010327969E+03  0.32427093507E+03  0.00000000000E+00 0.  1.
<mgrwt>
<rscale>  0 0.19056748E+04</rscale>
<asrwt>0</asrwt>
<pdfrwt beam="1">  1        2 0.25372226E+00 0.19056748E+04</pdfrwt>
<pdfrwt beam="2">  1       -2 0.84693934E-01 0.19056748E+04</pdfrwt>
<totfact> 0.11904260E+01</totfact>
</mgrwt>
</event>
<event>
12    1  0.1097093E-007  0.2667460E+04  0.7818608E-02  0.8345641E-01
          2   -1    0    0  501    0  0.00000000000E+00  0.00000000000E+00  0.20013641904E+04  0.20013641904E+04  0.00000000000E+00 0. -1.
         -2   -1    0    0    0  501 -0.00000000000E+00 -0.00000000000E+00 -0.88881186192E+03  0.88881186192E+03  0.00000000000E+00 0.  1.
         23    2    1    2    0    0  0.66633066294E+03 -0.72676388166E+03 -0.20875146109E+03  0.10118170151E+04  0.89522106317E+02 0.  0.
        254    2    1    2    0    0 -0.66633066294E+03  0.72676388166E+03  0.13213037896E+04  0.18783590372E+04  0.90011481281E+03 0.  0.
        -24    2    4    4    0    0 -0.48763417663E+03  0.13557063332E+03  0.11079749907E+04  0.12209099159E+04  0.82740291754E+02 0.  0.
         24    2    4    4    0    0 -0.17869648632E+03  0.59119324834E+03  0.21332879890E+03  0.65744912133E+03  0.72720558191E+02 0.  0.
         11    1    3    3    0    0  0.49985249542E+03 -0.49973866069E+03 -0.12231410071E+03  0.71732279024E+03  0.00000000000E+00 0.  1.
        -11    1    3    3    0    0  0.16647816752E+03 -0.22702522098E+03 -0.86437360385E+02  0.29449422489E+03  0.00000000000E+00 0. -1.
          2    1    6    6  502    0 -0.77782579806E+02  0.14665534122E+03  0.54485680451E+02  0.17471865443E+03  0.00000000000E+00 0. -1.
          3    1    5    5  503    0 -0.10586144775E+02  0.18169317028E+02  0.57688285604E+02  0.61401374890E+02  0.00000000000E+00 0. -1.
         -4    1    5    5    0  503 -0.47704803185E+03  0.11740131629E+03  0.10502867051E+04  0.11595085410E+04  0.00000000000E+00 0.  1.
         -1    1    6    6    0  502 -0.10091390651E+03  0.44453790712E+03  0.15884311845E+03  0.48273046690E+03  0.00000000000E+00 0.  1.
<mgrwt>
<rscale>  0 0.26674604E+04</rscale>
<asrwt>0</asrwt>
<pdfrwt beam="1">  1        2 0.30790218E+00 0.26674604E+04</pdfrwt>
<pdfrwt beam="2">  1       -2 0.13674029E+00 0.26674604E+04</pdfrwt>
<totfact> 0.22399359E+00</totfact>
</mgrwt>
</event>
<event>
12    1  0.1097093E-007  0.2047945E+04  0.7818608E-02  0.8584527E-01
         -2   -1    0    0    0  501 -0.00000000000E+00  0.00000000000E+00  0.69568731509E+03  0.69568731509E+03  0.00000000000E+00 0.  1.
          2   -1    0    0  501    0  0.00000000000E+00 -0.00000000000E+00 -0.15071715223E+04  0.15071715223E+04  0.00000000000E+00 0. -1.
         23    2    1    2    0    0 -0.66444195950E+03  0.33805086971E+03  0.62733359710E+02  0.75369715302E+03  0.91446246470E+02 0.  0.
        254    2    1    2    0    0  0.66444195950E+03 -0.33805086971E+03 -0.87421756692E+03  0.14491616844E+04  0.88320536969E+03 0.  0.
        -24    2    4    4    0    0  0.68742482702E+03 -0.33945812304E+00 -0.25247379645E+03  0.73660808528E+03  0.79343842695E+02 0.  0.
         24    2    4    4    0    0 -0.22982867516E+02 -0.33771141158E+03 -0.62174377047E+03  0.71255359908E+03  0.81179466187E+02 0.  0.
         11    1    3    3    0    0 -0.22416940841E+03  0.80813082209E+02  0.50793066979E+02  0.24364444089E+03  0.00000000000E+00 0. -1.
        -11    1    3    3    0    0 -0.44027255110E+03  0.25723778750E+03  0.11940292731E+02  0.51005271213E+03  0.00000000000E+00 0.  1.
          2    1    6    6  502    0 -0.20880504473E+02 -0.18498930332E+03 -0.25898538184E+03  0.31895213719E+03  0.00000000000E+00 0. -1.
          1    1    5    5  503    0  0.60110185152E+02 -0.14260332485E+02 -0.42310982965E+02  0.74878639952E+02  0.00000000000E+00 0. -1.
         -2    1    5    5    0  503  0.62731464187E+03  0.13920874362E+02 -0.21016281349E+03  0.66172944533E+03  0.00000000000E+00 0.  1.
         -1    1    6    6    0  502 -0.21023630432E+01 -0.15272210827E+03 -0.36275838863E+03  0.39360146189E+03  0.00000000000E+00 0.  1.
<mgrwt>
<rscale>  0 0.20479454E+04</rscale>
<asrwt>0</asrwt>
<pdfrwt beam="1">  1        2 0.23187254E+00 0.20479454E+04</pdfrwt>
<pdfrwt beam="2">  1       -2 0.10702882E+00 0.20479454E+04</pdfrwt>
<totfact> 0.81711765E+00</totfact>
</mgrwt>
</event>
<event>
12    1  0.1097093E-007  0.1456908E+04  0.7818608E-02  0.8913625E-01
          2   -1    0    0  501    0  0.00000000000E+00  0.00000000000E+00  0.82702787342E+03  0.82702787342E+03  0.00000000000E+00 0. -1.
         -2   -1    0    0    0  501 -0.00000000000E+00 -0.00000000000E+00 -0.64162897210E+03  0.64162897210E+03  0.00000000000E+00 0.  1.
         23    2    1    2    0    0 -0.34711065102E+03  0.75627095261E+02 -0.20922554782E+03  0.42234346283E+03  0.91615550774E+02 0.  0.
        254    2    1    2    0    0  0.34711065102E+03 -0.75627095261E+02  0.39462444915E+03  0.10463133827E+04  0.90157527548E+03 0.  0.
        -24    2    4    4    0    0 -0.26402863490E+03 -0.17146962055E+03  0.35716824540E+02  0.32679689424E+03  0.80047284216E+02 0.  0.
         24    2    4    4    0    0  0.61113928592E+03  0.95842525288E+02  0.35890762461E+03  0.71951648846E+03  0.78818003722E+02 0.  0.
         13    1    3    3    0    0 -0.10867445808E+03 -0.17238642771E+02 -0.49116703038E+02  0.12049796331E+03  0.00000000000E+00 0. -1.
        -13    1    3    3    0    0 -0.23843619294E+03  0.92865738033E+02 -0.16010884478E+03  0.30184549952E+03  0.00000000000E+00 0.  1.
          4    1    6    6  502    0  0.33865713862E+03  0.73196979492E+02  0.16143146725E+03  0.38223889646E+03  0.00000000000E+00 0. -1.
          1    1    5    5  503    0 -0.13813547999E+03 -0.10895139323E+03  0.56335513228E+02  0.18473090421E+03  0.00000000000E+00 0. -1.
         -2    1    5    5    0  503 -0.12589315491E+03 -0.62518227325E+02 -0.20618688689E+02  0.14206599003E+03  0.00000000000E+00 0.  1.
         -3    1    6    6    0  502  0.27248214730E+03  0.22645545796E+02  0.19747615735E+03  0.33727759200E+03  0.00000000000E+00 0.  1.
<mgrwt>
<rscale>  0 0.14569077E+04</rscale>
<asrwt>0</asrwt>
<pdfrwt beam="1">  1        2 0.12723506E+00 0.14569077E+04</pdfrwt>
<pdfrwt beam="2">  1       -2 0.98712150E-01 0.14569077E+04</pdfrwt>
<totfact> 0.27203350E+01</totfact>
</mgrwt>
</event>
<event>
12    1  0.1097093E-007  0.1665689E+04  0.7818608E-02  0.8781179E-01
         -2   -1    0    0    0  501 -0.00000000000E+00  0.00000000000E+00  0.23291418545E+04  0.23291418545E+04  0.00000000000E+00 0.  1.
          2   -1    0    0  501    0  0.00000000000E+00 -0.00000000000E+00 -0.29780487015E+03  0.29780487015E+03  0.00000000000E+00 0. -1.
         23    2    1    2    0    0  0.29594436596E+03  0.31181042003E+03  0.13850369582E+04  0.14529769209E+04  0.89474862828E+02 0.  0.
        254    2    1    2    0    0 -0.29594436596E+03 -0.31181042003E+03  0.64630002606E+03  0.11739698037E+04  0.88073410892E+03 0.  0.
        -24    2    4    4    0    0 -0.42419750845E+03  0.16492901531E+03  0.19404294225E+03  0.50079202162E+03  0.77426605370E+02 0.  0.
         24    2    4    4    0    0  0.12825314248E+03 -0.47673943534E+03  0.45225708380E+03  0.67317778211E+03  0.70017845648E+02 0.  0.
         11    1    3    3    0    0  0.12385181843E+03  0.11472232238E+03  0.68914880106E+03  0.70952558388E+03  0.00000000000E+00 0. -1.
        -11    1    3    3    0    0  0.17209254753E+03  0.19708809765E+03  0.69588815719E+03  0.74345133699E+03  0.00000000000E+00 0.  1.
          4    1    6    6  502    0  0.17868298420E+02 -0.11478506941E+03  0.14458115576E+03  0.18546859262E+03  0.00000000000E+00 0. -1.
          1    1    5    5  503    0 -0.25660430891E+02 -0.28848649613E+01  0.26617332782E+02  0.37084532676E+02  0.00000000000E+00 0. -1.
         -2    1    5    5    0  503 -0.39853707756E+03  0.16781388027E+03  0.16742560947E+03  0.46370748895E+03  0.00000000000E+00 0.  1.
         -3    1    6    6    0  502  0.11038484406E+03 -0.36195436593E+03  0.30767592805E+03  0.48770918949E+03  0.00000000000E+00 0.  1.
<mgrwt>
<rscale>  0 0.16656888E+04</rscale>
<asrwt>0</asrwt>
<pdfrwt beam="1">  1        2 0.45816135E-01 0.16656888E+04</pdfrwt>
<pdfrwt beam="2">  1       -2 0.35832950E+00 0.16656888E+04</pdfrwt>
<totfact> 0.14632154E+00</totfact>
</mgrwt>
</event>
<event>
12    1  0.1097093E-007  0.1593935E+04  0.7818608E-02  0.8824282E-01
          3   -1    0    0  501    0  0.00000000000E+00  0.00000000000E+00  0.25896653508E+04  0.25896653508E+04  0.00000000000E+00 0. -1.
         -3   -1    0    0    0  501 -0.00000000000E+00 -0.00000000000E+00 -0.24526625331E+03  0.24526625331E+03  0.00000000000E+00 0.  1.
         23    2    1    2    0    0 -0.70808028588E+02 -0.31322681671E+03  0.37272053610E+02  0.33576081733E+03  0.90671411451E+02 0.  0.
        254    2    1    2    0    0  0.70808028588E+02  0.31322681671E+03  0.23071270439E+04  0.24991707868E+04  0.90548031964E+03 0.  0.
        -24    2    4    4    0    0 -0.29864560241E+03 -0.65042565378E+02  0.35632173256E+03  0.47642133699E+03  0.81193485563E+02 0.  0.
         24    2    4    4    0    0  0.36945363100E+03  0.37826938209E+03  0.19508053113E+04  0.20227494498E+04  0.79311178588E+02 0.  0.
         13    1    3    3    0    0 -0.76937488593E+02 -0.27284903408E+03  0.58906083566E+02  0.28954429580E+03  0.00000000000E+00 0.  1.
        -13    1    3    3    0    0  0.61294600052E+01 -0.40377782632E+02 -0.21634029957E+02  0.46216521531E+02  0.00000000000E+00 0. -1.
          2    1    6    6  502    0  0.79897012718E+02  0.72552921919E+02  0.52926190660E+03  0.54015333462E+03  0.00000000000E+00 0. -1.
          1    1    5    5  503    0 -0.94378021930E+01 -0.17281977360E+02  0.82088206491E+01  0.21333625762E+02  0.00000000000E+00 0. -1.
         -2    1    5    5    0  503 -0.28920780021E+03 -0.47760588018E+02  0.34811291191E+03  0.45508771123E+03  0.00000000000E+00 0.  1.
         -1    1    6    6    0  502  0.28955661828E+03  0.30571646017E+03  0.14215434047E+04  0.14825961152E+04  0.00000000000E+00 0.  1.
<mgrwt>
<rscale>  0 0.15939354E+04</rscale>
<asrwt>0</asrwt>
<pdfrwt beam="1">  1        3 0.39841004E+00 0.15939354E+04</pdfrwt>
<pdfrwt beam="2">  1       -3 0.37733271E-01 0.15939354E+04</pdfrwt>
<totfact> 0.20035102E-01</totfact>
</mgrwt>
</event>
<event>
12    1  0.1097093E-007  0.2930413E+04  0.7818608E-02  0.8263886E-01
         -1   -1    0    0    0  501 -0.00000000000E+00  0.00000000000E+00  0.12485262759E+04  0.12485262759E+04  0.00000000000E+00 0.  1.
          1   -1    0    0  501    0  0.00000000000E+00 -0.00000000000E+00 -0.17194913826E+04  0.17194913826E+04  0.00000000000E+00 0. -1.
         23    2    1    2    0    0 -0.40847459964E+03  0.93115421369E+03  0.64586261245E+03  0.12079166995E+04  0.89579967569E+02 0.  0.
        254    2    1    2    0    0  0.40847459964E+03 -0.93115421369E+03 -0.11168277192E+04  0.17601009589E+04  0.90374308463E+03 0.  0.
        -24    2    4    4    0    0 -0.60858194061E+02 -0.52181516982E+03 -0.98289329602E+03  0.11180692862E+04  0.89470140697E+02 0.  0.
         24    2    4    4    0    0  0.46933279370E+03 -0.40933904387E+03 -0.13393442314E+03  0.64203167273E+03  0.80215428774E+02 0.  0.
         13    1    3    3    0    0 -0.32744525457E+03  0.79839988480E+03  0.57531031933E+03  0.10371329396E+04  0.00000000000E+00 0.  1.
        -13    1    3    3    0    0 -0.81029345068E+02  0.13275432890E+03  0.70552293119E+02  0.17078375996E+03  0.00000000000E+00 0. -1.
          4    1    6    6  502    0  0.31306754165E+03 -0.26202755397E+03 -0.49366083972E+02  0.41122589282E+03  0.00000000000E+00 0. -1.
          3    1    5    5  503    0 -0.22878867001E+02 -0.42693527098E+03 -0.83791056026E+03  0.94068659773E+03  0.00000000000E+00 0. -1.
         -4    1    5    5    0  503 -0.37979327060E+02 -0.94879898846E+02 -0.14498273576E+03  0.17738268843E+03  0.00000000000E+00 0.  1.
         -3    1    6    6    0  502  0.15626525204E+03 -0.14731148990E+03 -0.84568339165E+02  0.23080577992E+03  0.00000000000E+00 0.  1.
<mgrwt>
<rscale>  0 0.29304131E+04</rscale>
<asrwt>0</asrwt>
<pdfrwt beam="1">  1        1 0.26453714E+00 0.29304131E+04</pdfrwt>
<pdfrwt beam="2">  1       -1 0.19208097E+00 0.29304131E+04</pdfrwt>
<totfact> 0.67616986E-01</totfact>
</mgrwt>
</event>
<event>
12    1  0.1097093E-007  0.1253217E+04  0.7818608E-02  0.9067510E-01
         -2   -1    0    0    0  501 -0.00000000000E+00  0.00000000000E+00  0.62485336201E+03  0.62485336201E+03  0.00000000000E+00 0.  1.
          2   -1    0    0  501    0  0.00000000000E+00 -0.00000000000E+00 -0.62836870710E+03  0.62836870710E+03  0.00000000000E+00 0. -1.
         23    2    1    2    0    0 -0.27579711313E+03 -0.43682193482E+02  0.79584978800E+02  0.30474420901E+03  0.92536924713E+02 0.  0.
        254    2    1    2    0    0  0.27579711313E+03  0.43682193482E+02 -0.83100323891E+02  0.94847786011E+03  0.90262528529E+03 0.  0.
        -24    2    4    4    0    0  0.65908137723E+02  0.41458491704E+03 -0.23681138034E+03  0.48861060121E+03  0.80225642378E+02 0.  0.
         24    2    4    4    0    0  0.20988897540E+03 -0.37090272356E+03  0.15371105645E+03  0.45986725890E+03  0.78921445687E+02 0.  0.
         13    1    3    3    0    0 -0.19938772552E+03 -0.33270037244E+02  0.99199800061E+02  0.22517317957E+03  0.00000000000E+00 0. -1.
        -13    1    3    3    0    0 -0.76409387612E+02 -0.10412156238E+02 -0.19614821261E+02  0.79571029438E+02  0.00000000000E+00 0.  1.
          2    1    6    6  502    0  0.18849590571E+02 -0.86189886089E+02  0.51186687036E+02  0.10200039440E+03  0.00000000000E+00 0. -1.
          3    1    5    5  503    0  0.41221568911E+02  0.76317521736E+02 -0.65120908053E+02  0.10846342486E+03  0.00000000000E+00 0. -1.
         -4    1    5    5    0  503  0.24686568811E+02  0.33826739531E+03 -0.17169047229E+03  0.38014717635E+03  0.00000000000E+00 0.  1.
         -1    1    6    6    0  502  0.19103938483E+03 -0.28471283747E+03  0.10252436942E+03  0.35786686450E+03  0.00000000000E+00 0.  1.
<mgrwt>
<rscale>  0 0.12532171E+04</rscale>
<asrwt>0</asrwt>
<pdfrwt beam="1">  1        2 0.96672109E-01 0.12532171E+04</pdfrwt>
<pdfrwt beam="2">  1       -2 0.96131286E-01 0.12532171E+04</pdfrwt>
<totfact> 0.41799875E+01</totfact>
</mgrwt>
</event>
<event>
12    1  0.1097093E-007  0.4205825E+04  0.7818608E-02  0.7964265E-01
          2   -1    0    0  501    0  0.00000000000E+00  0.00000000000E+00  0.28333600939E+04  0.28333600939E+04  0.00000000000E+00 0. -1.
         -2   -1    0    0    0  501 -0.00000000000E+00 -0.00000000000E+00 -0.15607759923E+04  0.15607759923E+04  0.00000000000E+00 0.  1.
         23    2    1    2    0    0  0.16241970525E+04 -0.14072843406E+03  0.18285833231E+04  0.24515379453E+04  0.92199622699E+02 0.  0.
        254    2    1    2    0    0 -0.16241970525E+04  0.14072843406E+03 -0.55599922143E+03  0.19425981409E+04  0.89818252329E+03 0.  0.
        -24    2    4    4    0    0 -0.35512075404E+03  0.37838887373E+03 -0.35454351622E+03  0.63350646237E+03  0.79626900389E+02 0.  0.
         24    2    4    4    0    0 -0.12690762985E+04 -0.23766043967E+03 -0.20145570521E+03  0.13090916785E+04  0.78099203637E+02 0.  0.
         13    1    3    3    0    0  0.83508018981E+03 -0.41814493388E+02  0.98910153174E+03  0.12951560583E+04  0.00000000000E+00 0.  1.
        -13    1    3    3    0    0  0.78911686271E+03 -0.98913940673E+02  0.83948179133E+03  0.11563818870E+04  0.00000000000E+00 0. -1.
          2    1    6    6  502    0 -0.97523249617E+03 -0.16664187587E+03 -0.18361433230E+03  0.10062614767E+04  0.00000000000E+00 0. -1.
          1    1    5    5  503    0 -0.51668035652E+02  0.84366939426E+02 -0.39818154323E+02  0.10664357360E+03  0.00000000000E+00 0. -1.
         -2    1    5    5    0  503 -0.30345271838E+03  0.29402193430E+03 -0.31472536190E+03  0.52686288877E+03  0.00000000000E+00 0.  1.
         -1    1    6    6    0  502 -0.29384380232E+03 -0.71018563793E+02 -0.17841372901E+02  0.30283020185E+03  0.00000000000E+00 0.  1.
<mgrwt>
<rscale>  0 0.42058247E+04</rscale>
<asrwt>0</asrwt>
<pdfrwt beam="1">  1        2 0.43590155E+00 0.42058247E+04</pdfrwt>
<pdfrwt beam="2">  1       -2 0.24011938E+00 0.42058247E+04</pdfrwt>
<totfact> 0.12659583E-01</totfact>
</mgrwt>
</event>
<event>
12    1  0.1097093E-007  0.1372901E+04  0.7818608E-02  0.8973671E-01
         -1   -1    0    0    0  501 -0.00000000000E+00  0.00000000000E+00  0.11315920037E+04  0.11315920037E+04  0.00000000000E+00 0.  1.
          1   -1    0    0  501    0  0.00000000000E+00 -0.00000000000E+00 -0.41641712571E+03  0.41641712571E+03  0.00000000000E+00 0. -1.
         23    2    1    2    0    0 -0.34326457182E+02  0.21312102457E+03 -0.15247734456E+03  0.27946816102E+03  0.90852824102E+02 0.  0.
        254    2    1    2    0    0  0.34326457182E+02 -0.21312102457E+03  0.86765222253E+03  0.12685409684E+04  0.89987606501E+03 0.  0.
        -24    2    4    4    0    0 -0.42442088783E+03 -0.14048426589E+03  0.43595685639E+03  0.62937918987E+03  0.78682050193E+02 0.  0.
         24    2    4    4    0    0  0.45874734501E+03 -0.72636758676E+02  0.43169536614E+03  0.63916177849E+03  0.80259981802E+02 0.  0.
         13    1    3    3    0    0 -0.15730343448E+02  0.13588767818E+02  0.84646103348E+01  0.22444329884E+02  0.00000000000E+00 0.  1.
        -13    1    3    3    0    0 -0.18596113735E+02  0.19953225675E+03 -0.16094195489E+03  0.25702383114E+03  0.00000000000E+00 0. -1.
          2    1    6    6  502    0  0.41075932918E+03 -0.86117413387E+02  0.36721461218E+03  0.55766119356E+03  0.00000000000E+00 0. -1.
          3    1    5    5  503    0 -0.40698009474E+03 -0.12441730222E+03  0.38807398972E+03  0.57594607742E+03  0.00000000000E+00 0. -1.
         -4    1    5    5    0  503 -0.17440793089E+02 -0.16066963667E+02  0.47882866668E+02  0.53433112444E+02  0.00000000000E+00 0.  1.
         -1    1    6    6    0  502  0.47988015824E+02  0.13480654711E+02  0.64480753954E+02  0.81500584935E+02  0.00000000000E+00 0.  1.
<mgrwt>
<rscale>  0 0.13729010E+04</rscale>
<asrwt>0</asrwt>
<pdfrwt beam="1">  1        1 0.64064174E-01 0.13729010E+04</pdfrwt>
<pdfrwt beam="2">  1       -1 0.17409108E+00 0.13729010E+04</pdfrwt>
<totfact> 0.12756835E+01</totfact>
</mgrwt>
</event>
<event>
12    1  0.1097093E-007  0.1891358E+04  0.7818608E-02  0.8659170E-01
         -2   -1    0    0    0  501 -0.00000000000E+00  0.00000000000E+00  0.50001980872E+03  0.50001980872E+03  0.00000000000E+00 0.  1.
          2   -1    0    0  501    0  0.00000000000E+00 -0.00000000000E+00 -0.17885461099E+04  0.17885461099E+04  0.00000000000E+00 0. -1.
         23    2    1    2    0    0  0.44409653274E+03  0.41215500102E+03 -0.88267600593E+01  0.61290091161E+03  0.92065957393E+02 0.  0.
        254    2    1    2    0    0 -0.44409653274E+03 -0.41215500102E+03 -0.12796995412E+04  0.16756650070E+04  0.89617455047E+03 0.  0.
        -24    2    4    4    0    0 -0.53362475824E+03 -0.55390897982E+03 -0.12722357075E+04  0.14888811326E+04  0.81319068380E+02 0.  0.
         24    2    4    4    0    0  0.89528225498E+02  0.14175397880E+03 -0.74638336217E+01  0.18678387446E+03  0.81993983189E+02 0.  0.
         11    1    3    3    0    0  0.10377497985E+03  0.15247474432E+03 -0.11718304751E+02  0.18481101906E+03  0.00000000000E+00 0. -1.
        -11    1    3    3    0    0  0.34032155289E+03  0.25968025669E+03  0.28915446912E+01  0.42808989256E+03  0.00000000000E+00 0.  1.
          2    1    6    6  502    0  0.91456603997E+02  0.72146959616E+02 -0.11362979963E+02  0.11704106762E+03  0.00000000000E+00 0. -1.
          1    1    5    5  503    0 -0.38137586391E+03 -0.34945310446E+03 -0.81189699533E+03  0.96267427140E+03  0.00000000000E+00 0. -1.
         -2    1    5    5    0  503 -0.15224889433E+03 -0.20445587536E+03 -0.46033871220E+03  0.52620686117E+03  0.00000000000E+00 0.  1.
         -1    1    6    6    0  502 -0.19283784990E+01  0.69607019184E+02  0.38991463414E+01  0.69742806837E+02  0.00000000000E+00 0.  1.
<mgrwt>
<rscale>  0 0.18913577E+04</rscale>
<asrwt>0</asrwt>
<pdfrwt beam="1">  1        2 0.27516095E+00 0.18913577E+04</pdfrwt>
<pdfrwt beam="2">  1       -2 0.76926122E-01 0.18913577E+04</pdfrwt>
<totfact> 0.12383704E+01</totfact>
</mgrwt>
</event>
<event>
12    1  0.1097093E-007  0.1868182E+04  0.7818608E-02  0.8670858E-01
         -2   -1    0    0    0  501 -0.00000000000E+00  0.00000000000E+00  0.13864426016E+04  0.13864426016E+04  0.00000000000E+00 0.  1.
          2   -1    0    0  501    0  0.00000000000E+00 -0.00000000000E+00 -0.62932735751E+03  0.62932735751E+03  0.00000000000E+00 0. -1.
         23    2    1    2    0    0  0.67100576857E+02  0.61884038291E+03 -0.95736678406E+02  0.63687746241E+03  0.94770689587E+02 0.  0.
        254    2    1    2    0    0 -0.67100576857E+02 -0.61884038291E+03  0.85285192248E+03  0.13788924967E+04  0.88686087343E+03 0.  0.
        -24    2    4    4    0    0 -0.30622286107E+03 -0.35962042253E+03  0.30502927634E+02  0.48039696791E+03  0.82167689772E+02 0.  0.
         24    2    4    4    0    0  0.23912228421E+03 -0.25921996038E+03  0.82234899485E+03  0.89849552878E+03  0.81620409463E+02 0.  0.
         13    1    3    3    0    0  0.64501209449E+02  0.42237263757E+03 -0.10566773819E+03  0.44014170659E+03  0.00000000000E+00 0. -1.
        -13    1    3    3    0    0  0.25993674083E+01  0.19646774534E+03  0.99310597887E+01  0.19673575582E+03  0.00000000000E+00 0.  1.
          4    1    6    6  502    0  0.15106057111E+03 -0.18595055188E+03  0.46274064297E+03  0.52108138188E+03  0.00000000000E+00 0. -1.
          3    1    5    5  503    0 -0.10539453452E+03 -0.81677904706E+02  0.33482894882E+02  0.13747869753E+03  0.00000000000E+00 0. -1.
         -4    1    5    5    0  503 -0.20082832655E+03 -0.27794251783E+03 -0.29799672477E+01  0.34291827039E+03  0.00000000000E+00 0.  1.
         -3    1    6    6    0  502  0.88061713099E+02 -0.73269408498E+02  0.35960835188E+03  0.37741414689E+03  0.00000000000E+00 0.  1.
<mgrwt>
<rscale>  0 0.18681823E+04</rscale>
<asrwt>0</asrwt>
<pdfrwt beam="1">  1        2 0.96819594E-01 0.18681823E+04</pdfrwt>
<pdfrwt beam="2">  1       -2 0.21329886E+00 0.18681823E+04</pdfrwt>
<totfact> 0.47878053E+00</totfact>
</mgrwt>
</event>
<event>
12    1  0.1097093E-007  0.1226101E+04  0.7818608E-02  0.9090312E-01
          2   -1    0    0  501    0  0.00000000000E+00  0.00000000000E+00  0.66324956100E+03  0.66324956100E+03  0.00000000000E+00 0. -1.
         -2   -1    0    0    0  501 -0.00000000000E+00 -0.00000000000E+00 -0.56665059044E+03  0.56665059044E+03  0.00000000000E+00 0.  1.
         23    2    1    2    0    0 -0.88888548333E+02 -0.25715967190E+03  0.27206239862E+02  0.28804413169E+03  0.90537127416E+02 0.  0.
        254    2    1    2    0    0  0.88888548333E+02  0.25715967190E+03  0.69392730695E+02  0.94185601975E+03  0.89902454916E+03 0.  0.
        -24    2    4    4    0    0  0.42411336854E+03  0.19914929963E+03 -0.18469539225E+03  0.50992152574E+03  0.79843481743E+02 0.  0.
         24    2    4    4    0    0 -0.33522482020E+03  0.58010372266E+02  0.25408812295E+03  0.43193449401E+03  0.79156487539E+02 0.  0.
         11    1    3    3    0    0 -0.45981849943E+02 -0.19830666732E+03  0.53717419910E+02  0.21053604449E+03  0.00000000000E+00 0. -1.
        -11    1    3    3    0    0 -0.42906698390E+02 -0.58853004581E+02 -0.26511180048E+02  0.77508087207E+02  0.00000000000E+00 0.  1.
          4    1    6    6  502    0  0.56176960920E+00 -0.62872068669E+01  0.10114835492E+02  0.11922854202E+02  0.00000000000E+00 0. -1.
          3    1    5    5  503    0  0.21784185856E+03  0.87947630827E+02 -0.51958994844E+02  0.24060257325E+03  0.00000000000E+00 0. -1.
         -4    1    5    5    0  503  0.20627150998E+03  0.11120166881E+03 -0.13273639741E+03  0.26931895249E+03  0.00000000000E+00 0.  1.
         -3    1    6    6    0  502 -0.33578658981E+03  0.64297579132E+02  0.24397328745E+03  0.42001163981E+03  0.00000000000E+00 0.  1.
<mgrwt>
<rscale>  0 0.12261007E+04</rscale>
<asrwt>0</asrwt>
<pdfrwt beam="1">  1        2 0.10203839E+00 0.12261007E+04</pdfrwt>
<pdfrwt beam="2">  1       -2 0.87177013E-01 0.12261007E+04</pdfrwt>
<totfact> 0.49142956E+01</totfact>
</mgrwt>
</event>
<event>
12    1  0.1097093E-007  0.1467296E+04  0.7818608E-02  0.8906496E-01
         -1   -1    0    0    0  501 -0.00000000000E+00  0.00000000000E+00  0.18599314165E+04  0.18599314165E+04  0.00000000000E+00 0.  1.
          1   -1    0    0  501    0  0.00000000000E+00 -0.00000000000E+00 -0.28938687958E+03  0.28938687958E+03  0.00000000000E+00 0. -1.
         23    2    1    2    0    0 -0.15615441030E+03  0.94738228729E+02  0.10792208905E+04  0.10981690806E+04  0.88871071281E+02 0.  0.
        254    2    1    2    0    0  0.15615441030E+03 -0.94738228729E+02  0.49132364644E+03  0.10511492155E+04  0.91112908844E+03 0.  0.
        -24    2    4    4    0    0 -0.16097755569E+03  0.20691390049E+03  0.53844668864E+03  0.60375518893E+03  0.76605195623E+02 0.  0.
         24    2    4    4    0    0  0.31713196599E+03 -0.30165212922E+03 -0.47123042203E+02  0.44739402654E+03  0.79838229967E+02 0.  0.
         13    1    3    3    0    0 -0.11825772584E+03  0.38854883078E+02  0.85464270149E+03  0.86366008294E+03  0.00000000000E+00 0.  1.
        -13    1    3    3    0    0 -0.37896684463E+02  0.55883345650E+02  0.22457818897E+03  0.23450899765E+03  0.00000000000E+00 0. -1.
          4    1    6    6  502    0  0.12776196843E+02  0.93146050353E+00  0.73646289205E+01  0.14776216823E+02  0.00000000000E+00 0. -1.
          3    1    5    5  503    0  0.29959573943E+01  0.16175172481E+02  0.71527985607E+02  0.73395263406E+02  0.00000000000E+00 0. -1.
         -4    1    5    5    0  503 -0.16397351309E+03  0.19073872801E+03  0.46691870304E+03  0.53035992553E+03  0.00000000000E+00 0.  1.
         -3    1    6    6    0  502  0.30435576915E+03 -0.30258358972E+03 -0.54487671123E+02  0.43261780972E+03  0.00000000000E+00 0.  1.
<mgrwt>
<rscale>  0 0.14672965E+04</rscale>
<asrwt>0</asrwt>
<pdfrwt beam="1">  1        1 0.44521060E-01 0.14672965E+04</pdfrwt>
<pdfrwt beam="2">  1       -1 0.28614329E+00 0.14672965E+04</pdfrwt>
<totfact> 0.36276221E+00</totfact>
</mgrwt>
</event>
<event>
12    1  0.1097093E-007  0.1350927E+04  0.7818608E-02  0.8990127E-01
          1   -1    0    0  501    0  0.00000000000E+00  0.00000000000E+00  0.98633662821E+03  0.98633662821E+03  0.00000000000E+00 0. -1.
         -1   -1    0    0    0  501 -0.00000000000E+00 -0.00000000000E+00 -0.46257097975E+03  0.46257097975E+03  0.00000000000E+00 0.  1.
         23    2    1    2    0    0  0.20905320907E+03 -0.22199392717E+03  0.36747617136E+03  0.48619653125E+03  0.91453718118E+02 0.  0.
        254    2    1    2    0    0 -0.20905320907E+03  0.22199392717E+03  0.15628947710E+03  0.96271107671E+03  0.89966753228E+03 0.  0.
        -24    2    4    4    0    0 -0.29858913238E+03  0.52137540491E+03  0.19699546081E+03  0.63759190155E+03  0.82027059716E+02 0.  0.
         24    2    4    4    0    0  0.89535923315E+02 -0.29938147774E+03 -0.40705983710E+02  0.32511917515E+03  0.79997188474E+02 0.  0.
         13    1    3    3    0    0 -0.73901319725E+01 -0.19874359818E+02  0.35297219284E+02  0.41176424297E+02  0.00000000000E+00 0.  1.
        -13    1    3    3    0    0  0.21644334104E+03 -0.20211956735E+03  0.33217895208E+03  0.44502010695E+03  0.00000000000E+00 0. -1.
          2    1    6    6  502    0  0.26954498313E+02 -0.18050829427E+03  0.67741795619E+01  0.18263537114E+03  0.00000000000E+00 0. -1.
          1    1    5    5  503    0 -0.13559728857E+02  0.73568673077E+02  0.35076433390E+02  0.82623072349E+02  0.00000000000E+00 0. -1.
         -2    1    5    5    0  503 -0.28502940353E+03  0.44780673183E+03  0.16191902742E+03  0.55496882920E+03  0.00000000000E+00 0.  1.
         -1    1    6    6    0  502  0.62581425002E+02 -0.11887318347E+03 -0.47480163272E+02  0.14248380402E+03  0.00000000000E+00 0.  1.
<mgrwt>
<rscale>  0 0.13509266E+04</rscale>
<asrwt>0</asrwt>
<pdfrwt beam="1">  1        1 0.15174410E+00 0.13509266E+04</pdfrwt>
<pdfrwt beam="2">  1       -1 0.71164766E-01 0.13509266E+04</pdfrwt>
<totfact> 0.30277847E+01</totfact>
</mgrwt>
</event>
<event>
12    1  0.1097093E-007  0.1427397E+04  0.7818608E-02  0.8934222E-01
          1   -1    0    0  501    0  0.00000000000E+00  0.00000000000E+00  0.20957473932E+04  0.20957473932E+04  0.00000000000E+00 0. -1.
         -1   -1    0    0    0  501 -0.00000000000E+00 -0.00000000000E+00 -0.24304730299E+03  0.24304730299E+03  0.00000000000E+00 0.  1.
         23    2    1    2    0    0  0.40900841198E+03  0.87744505168E+02  0.62532458809E+03  0.75769555753E+03  0.89915172071E+02 0.  0.
        254    2    1    2    0    0 -0.40900841198E+03 -0.87744505168E+02  0.12273755021E+04  0.15810991387E+04  0.90467501559E+03 0.  0.
        -24    2    4    4    0    0 -0.63464895797E+03  0.14772994597E+03  0.88250981898E+03  0.10998932787E+04  0.79612857604E+02 0.  0.
         24    2    4    4    0    0  0.22564054599E+03 -0.23547445114E+03  0.34486568316E+03  0.48120586001E+03  0.79150913758E+02 0.  0.
         13    1    3    3    0    0  0.20635796300E+03  0.63334499402E+02  0.24867058207E+03  0.32929003340E+03  0.00000000000E+00 0. -1.
        -13    1    3    3    0    0  0.20265044898E+03  0.24410005766E+02  0.37665400602E+03  0.42840552413E+03  0.00000000000E+00 0.  1.
          2    1    6    6  502    0  0.22048808754E+03 -0.20112558286E+03  0.32480810200E+03  0.44109726813E+03  0.00000000000E+00 0. -1.
          1    1    5    5  503    0 -0.57878230161E+03  0.15368967930E+03  0.78474383121E+03  0.98713340071E+03  0.00000000000E+00 0. -1.
         -2    1    5    5    0  503 -0.55866656365E+02 -0.59597333279E+01  0.97765987774E+02  0.11275987797E+03  0.00000000000E+00 0.  1.
         -1    1    6    6    0  502  0.51524584464E+01 -0.34348868281E+02  0.20057581166E+02  0.40108591878E+02  0.00000000000E+00 0.  1.
<mgrwt>
<rscale>  0 0.14273973E+04</rscale>
<asrwt>0</asrwt>
<pdfrwt beam="1">  1        1 0.32242266E+00 0.14273973E+04</pdfrwt>
<pdfrwt beam="2">  1       -1 0.37391894E-01 0.14273973E+04</pdfrwt>
<totfact> 0.17212213E+01</totfact>
</mgrwt>
</event>
<event>
12    1  0.1097093E-007  0.1160441E+04  0.7818608E-02  0.9148205E-01
          2   -1    0    0  501    0  0.00000000000E+00  0.00000000000E+00  0.10932633764E+04  0.10932633764E+04  0.00000000000E+00 0. -1.
         -2   -1    0    0    0  501 -0.00000000000E+00 -0.00000000000E+00 -0.30793685755E+03  0.30793685755E+03  0.00000000000E+00 0.  1.
         23    2    1    2    0    0  0.74251474900E+02 -0.51062163842E+02  0.41486539717E+03  0.43473105202E+03  0.93579718505E+02 0.  0.
        254    2    1    2    0    0 -0.74251474900E+02  0.51062163842E+02  0.37046112164E+03  0.96646918189E+03  0.88808817738E+03 0.  0.
        -24    2    4    4    0    0 -0.49584123306E+02 -0.97360298717E+02 -0.27059127984E+03  0.30303349004E+03  0.81682570413E+02 0.  0.
         24    2    4    4    0    0 -0.24667351593E+02  0.14842246256E+03  0.64105240148E+03  0.66343569185E+03  0.81000186150E+02 0.  0.
         13    1    3    3    0    0  0.19177724302E+02 -0.42061674166E+02  0.32961054095E+03  0.33283641365E+03  0.00000000000E+00 0. -1.
        -13    1    3    3    0    0  0.55073750598E+02 -0.90004896759E+01  0.85254856224E+02  0.10189463837E+03  0.00000000000E+00 0.  1.
          2    1    6    6  502    0 -0.41656720141E+02  0.10755444941E+03  0.33728420661E+03  0.35646020528E+03  0.00000000000E+00 0. -1.
          1    1    5    5  503    0 -0.34101311873E+02 -0.11026954246E+03 -0.24118884762E+03  0.26738423978E+03  0.00000000000E+00 0. -1.
         -2    1    5    5    0  503 -0.15482811433E+02  0.12909243738E+02 -0.29402432217E+02  0.35649250260E+02  0.00000000000E+00 0.  1.
         -1    1    6    6    0  502  0.16989368548E+02  0.40868013152E+02  0.30376819487E+03  0.30697548657E+03  0.00000000000E+00 0.  1.
<mgrwt>
<rscale>  0 0.11604414E+04</rscale>
<asrwt>0</asrwt>
<pdfrwt beam="1">  1        2 0.16819436E+00 0.11604414E+04</pdfrwt>
<pdfrwt beam="2">  1       -2 0.47374902E-01 0.11604414E+04</pdfrwt>
<totfact> 0.91850070E+01</totfact>
</mgrwt>
</event>
<event>
12    1  0.1097093E-007  0.1759556E+04  0.7818608E-02  0.8728108E-01
         -2   -1    0    0    0  501 -0.00000000000E+00  0.00000000000E+00  0.36110460032E+03  0.36110460032E+03  0.00000000000E+00 0.  1.
          2   -1    0    0  501    0  0.00000000000E+00 -0.00000000000E+00 -0.21434479682E+04  0.21434479682E+04  0.00000000000E+00 0. -1.
         23    2    1    2    0    0 -0.26221359481E+03  0.40366847409E+03 -0.41812790093E+02  0.49166426958E+03  0.91001309300E+02 0.  0.
        254    2    1    2    0    0  0.26221359481E+03 -0.40366847409E+03 -0.17405305778E+04  0.20128882990E+04  0.88913913732E+03 0.  0.
        -24    2    4    4    0    0  0.23348383072E+03 -0.66871009470E+03 -0.14185118326E+04  0.15875937656E+04  0.81180387953E+02 0.  0.
         24    2    4    4    0    0  0.28729764088E+02  0.26504162061E+03 -0.32201874518E+03  0.42529453333E+03  0.78146707093E+02 0.  0.
         13    1    3    3    0    0 -0.89952927794E+02  0.15686948377E+03 -0.58975855979E+02  0.19020440517E+03  0.00000000000E+00 0. -1.
        -13    1    3    3    0    0 -0.17226066701E+03  0.24679899032E+03  0.17163065886E+02  0.30145986441E+03  0.00000000000E+00 0.  1.
          4    1    6    6  502    0  0.51581860382E+02  0.14833258127E+03 -0.15874599756E+03  0.22330144363E+03  0.00000000000E+00 0. -1.
          3    1    5    5  503    0  0.14968888157E+03 -0.47509835478E+03 -0.10687683068E+04  0.11791483798E+04  0.00000000000E+00 0. -1.
         -4    1    5    5    0  503  0.83794949147E+02 -0.19361173992E+03 -0.34974352581E+03  0.40844538580E+03  0.00000000000E+00 0.  1.
         -3    1    6    6    0  502 -0.22852096294E+02  0.11670903934E+03 -0.16327274762E+03  0.20199308970E+03  0.00000000000E+00 0.  1.
<mgrwt>
<rscale>  0 0.17595555E+04</rscale>
<asrwt>0</asrwt>
<pdfrwt beam="1">  1        2 0.32976123E+00 0.17595555E+04</pdfrwt>
<pdfrwt beam="2">  1       -2 0.55554554E-01 0.17595555E+04</pdfrwt>
<totfact> 0.16024800E+01</totfact>
</mgrwt>
</event>
<event>
12    1  0.1097093E-007  0.1325247E+04  0.7818608E-02  0.9009780E-01
         -1   -1    0    0    0  501 -0.00000000000E+00  0.00000000000E+00  0.77652927867E+03  0.77652927867E+03  0.00000000000E+00 0.  1.
          1   -1    0    0  501    0  0.00000000000E+00 -0.00000000000E+00 -0.56542616330E+03  0.56542616330E+03  0.00000000000E+00 0. -1.
         23    2    1    2    0    0  0.10612299992E+03  0.39215743714E+00  0.38894434279E+03  0.41370780648E+03  0.92812727880E+02 0.  0.
        254    2    1    2    0    0 -0.10612299992E+03 -0.39215743714E+00 -0.17784122742E+03  0.92824763548E+03  0.90485022281E+03 0.  0.
        -24    2    4    4    0    0 -0.13012014551E+03 -0.39487962538E+03 -0.28706468743E+03  0.51110695372E+03  0.77220544978E+02 0.  0.
         24    2    4    4    0    0  0.23997145586E+02  0.39448746795E+03  0.10922346001E+03  0.41714068176E+03  0.76683497571E+02 0.  0.
         13    1    3    3    0    0  0.24589188516E+02 -0.36063761656E+02  0.20014103203E+03  0.20484544368E+03  0.00000000000E+00 0. -1.
        -13    1    3    3    0    0  0.81533811405E+02  0.36455919094E+02  0.18880331076E+03  0.20886236280E+03  0.00000000000E+00 0.  1.
          2    1    6    6  502    0 -0.14511842499E+02  0.14488072825E+02  0.32137686456E+01  0.20756351698E+02  0.00000000000E+00 0. -1.
          1    1    5    5  503    0 -0.85281315275E+02 -0.25292492238E+03 -0.13817243705E+03  0.30055871549E+03  0.00000000000E+00 0. -1.
         -2    1    5    5    0  503 -0.44838830232E+02 -0.14195470300E+03 -0.14889225038E+03  0.21054823823E+03  0.00000000000E+00 0.  1.
         -1    1    6    6    0  502  0.38508988085E+02  0.37999939512E+03  0.10600969136E+03  0.39638433006E+03  0.00000000000E+00 0.  1.
<mgrwt>
<rscale>  0 0.13252471E+04</rscale>
<asrwt>0</asrwt>
<pdfrwt beam="1">  1        1 0.86988640E-01 0.13252471E+04</pdfrwt>
<pdfrwt beam="2">  1       -1 0.11946604E+00 0.13252471E+04</pdfrwt>
<totfact> 0.22901024E+01</totfact>
</mgrwt>
</event>
<event>
12    1  0.1097093E-007  0.1359818E+04  0.7818608E-02  0.8983429E-01
         -1   -1    0    0    0  501 -0.00000000000E+00  0.00000000000E+00  0.88570120157E+03  0.88570120157E+03  0.00000000000E+00 0.  1.
          1   -1    0    0  501    0  0.00000000000E+00 -0.00000000000E+00 -0.52193260946E+03  0.52193260946E+03  0.00000000000E+00 0. -1.
         23    2    1    2    0    0  0.10270881808E+03  0.10766631439E+03 -0.25370557408E+03  0.30859540833E+03  0.93399524400E+02 0.  0.
        254    2    1    2    0    0 -0.10270881808E+03 -0.10766631439E+03  0.61747416619E+03  0.10990384027E+04  0.89692247611E+03 0.  0.
        -24    2    4    4    0    0  0.24671705390E+03 -0.31512084299E+03  0.54191137647E+03  0.67838252931E+03  0.79777601891E+02 0.  0.
         24    2    4    4    0    0 -0.34942587198E+03  0.20745452860E+03  0.75562789724E+02  0.42065587339E+03  0.78139664616E+02 0.  0.
         13    1    3    3    0    0 -0.15610255198E+02  0.80493213946E+01 -0.10774047913E+02  0.20604653618E+02  0.00000000000E+00 0.  1.
        -13    1    3    3    0    0  0.11831907328E+03  0.99616992993E+02 -0.24293152617E+03  0.28799075471E+03  0.00000000000E+00 0. -1.
          4    1    6    6  502    0 -0.85238052598E+02  0.15790401274E+02  0.26151892833E+02  0.90547136243E+02  0.00000000000E+00 0. -1.
          1    1    5    5  503    0  0.47266568357E+02 -0.44247275411E+02  0.47124818967E+02  0.80079325847E+02  0.00000000000E+00 0. -1.
         -2    1    5    5    0  503  0.19945048554E+03 -0.27087356757E+03  0.49478655750E+03  0.59830320347E+03  0.00000000000E+00 0.  1.
         -3    1    6    6    0  502 -0.26418781938E+03  0.19166412732E+03  0.49410896891E+02  0.33010873715E+03  0.00000000000E+00 0.  1.
<mgrwt>
<rscale>  0 0.13598181E+04</rscale>
<asrwt>0</asrwt>
<pdfrwt beam="1">  1        1 0.80297325E-01 0.13598181E+04</pdfrwt>
<pdfrwt beam="2">  1       -1 0.13626172E+00 0.13598181E+04</pdfrwt>
<totfact> 0.18371572E+01</totfact>
</mgrwt>
</event>
<event>
12    1  0.1097093E-007  0.1875034E+04  0.7818608E-02  0.8667384E-01
         -2   -1    0    0    0  501 -0.00000000000E+00  0.00000000000E+00  0.21697874987E+03  0.21697874987E+03  0.00000000000E+00 0.  1.
          2   -1    0    0  501    0  0.00000000000E+00 -0.00000000000E+00 -0.40508029665E+04  0.40508029665E+04  0.00000000000E+00 0. -1.
         23    2    1    2    0    0 -0.48261849957E+03  0.38989236796E+03 -0.65791124476E+03  0.90911508545E+03  0.93307866116E+02 0.  0.
        254    2    1    2    0    0  0.48261849957E+03 -0.38989236796E+03 -0.31759129718E+04  0.33586666309E+04  0.89960083266E+03 0.  0.
        -24    2    4    4    0    0  0.64667928981E+03 -0.54597390849E+03 -0.23676811782E+04  0.25156128824E+04  0.78181839565E+02 0.  0.
         24    2    4    4    0    0 -0.16406079023E+03  0.15608154053E+03 -0.80823179366E+03  0.84305374849E+03  0.78889798914E+02 0.  0.
         11    1    3    3    0    0 -0.43610373787E+03  0.38294113663E+03 -0.60976324919E+03  0.84180853190E+03  0.00000000000E+00 0.  1.
        -11    1    3    3    0    0 -0.46514761701E+02  0.69512313248E+01 -0.48147995569E+02  0.67306553546E+02  0.00000000000E+00 0. -1.
          2    1    6    6  502    0 -0.64954547226E+01  0.46761952648E+02 -0.18889043679E+03  0.19470097139E+03  0.00000000000E+00 0. -1.
          1    1    5    5  503    0  0.42780151814E+03 -0.38238747550E+03 -0.15040126405E+04  0.16097479129E+04  0.00000000000E+00 0. -1.
         -2    1    5    5    0  503  0.21887777166E+03 -0.16358643299E+03 -0.86366853771E+03  0.90586496953E+03  0.00000000000E+00 0.  1.
         -1    1    6    6    0  502 -0.15756533551E+03  0.10931958788E+03 -0.61934135686E+03  0.64835277710E+03  0.00000000000E+00 0.  1.
<mgrwt>
<rscale>  0 0.18750340E+04</rscale>
<asrwt>0</asrwt>
<pdfrwt beam="1">  1        2 0.62320047E+00 0.18750340E+04</pdfrwt>
<pdfrwt beam="2">  1       -2 0.33381345E-01 0.18750340E+04</pdfrwt>
<totfact> 0.24802986E+00</totfact>
</mgrwt>
</event>
<event>
12    1  0.1097093E-007  0.2097417E+04  0.7818608E-02  0.8562382E-01
          1   -1    0    0  501    0  0.00000000000E+00  0.00000000000E+00  0.14243633732E+04  0.14243633732E+04  0.00000000000E+00 0. -1.
         -1   -1    0    0    0  501 -0.00000000000E+00 -0.00000000000E+00 -0.77212687347E+03  0.77212687347E+03  0.00000000000E+00 0.  1.
         23    2    1    2    0    0 -0.15302824312E+03  0.81880750780E+03  0.44347872489E+03  0.94848689442E+03  0.95344802839E+02 0.  0.
        254    2    1    2    0    0  0.15302824312E+03 -0.81880750780E+03  0.20875777483E+03  0.12480033522E+04  0.90557671162E+03 0.  0.
        -24    2    4    4    0    0  0.15846067390E+03  0.15641414735E+03 -0.35555761267E+02  0.24009855348E+03  0.82510196723E+02 0.  0.
         24    2    4    4    0    0 -0.54324307813E+01 -0.97522165515E+03  0.24431353609E+03  0.10079047988E+04  0.71387614264E+02 0.  0.
         11    1    3    3    0    0 -0.80619160340E+02  0.47024531504E+03  0.30631414254E+03  0.56697306749E+03  0.00000000000E+00 0.  1.
        -11    1    3    3    0    0 -0.72409082779E+02  0.34856219276E+03  0.13716458235E+03  0.38151382693E+03  0.00000000000E+00 0. -1.
          4    1    6    6  502    0 -0.24670617710E-01 -0.96551064626E+03  0.24671412706E+03  0.99653332565E+03  0.00000000000E+00 0. -1.
          3    1    5    5  503    0  0.44846772272E+02  0.80138182033E+02 -0.46279417576E+02  0.10283552739E+03  0.00000000000E+00 0. -1.
         -4    1    5    5    0  503  0.11361390163E+03  0.76275965313E+02  0.10723656308E+02  0.13726302609E+03  0.00000000000E+00 0.  1.
         -3    1    6    6    0  502 -0.54077601636E+01 -0.97110088891E+01 -0.24005909639E+01  0.11371473106E+02  0.00000000000E+00 0.  1.
<mgrwt>
<rscale>  0 0.20974167E+04</rscale>
<asrwt>0</asrwt>
<pdfrwt beam="1">  1        1 0.21913283E+00 0.20974167E+04</pdfrwt>
<pdfrwt beam="2">  1       -1 0.11878875E+00 0.20974167E+04</pdfrwt>
<totfact> 0.43122506E+00</totfact>
</mgrwt>
</event>
<event>
12    1  0.1097093E-007  0.1759144E+04  0.7818608E-02  0.8728333E-01
         -2   -1    0    0    0  501 -0.00000000000E+00  0.00000000000E+00  0.71967974101E+03  0.71967974101E+03  0.00000000000E+00 0.  1.
          2   -1    0    0  501    0  0.00000000000E+00 -0.00000000000E+00 -0.10749874360E+04  0.10749874360E+04  0.00000000000E+00 0. -1.
         23    2    1    2    0    0  0.18548106532E+03  0.15875228535E+03  0.47828753768E+03  0.54479214736E+03  0.91836819625E+02 0.  0.
        254    2    1    2    0    0 -0.18548106532E+03 -0.15875228535E+03 -0.83359523269E+03  0.12498750297E+04  0.89872190589E+03 0.  0.
        -24    2    4    4    0    0  0.26141264808E+02  0.53584442223E+02  0.17121775728E+03  0.19831220140E+03  0.80358886500E+02 0.  0.
         24    2    4    4    0    0 -0.21162233013E+03 -0.21233672757E+03 -0.10048129900E+04  0.10515628283E+04  0.79147586772E+02 0.  0.
         11    1    3    3    0    0  0.19044118947E+03  0.13380563354E+03  0.40372045844E+03  0.46600644071E+03  0.00000000000E+00 0.  1.
        -11    1    3    3    0    0 -0.49601241559E+01  0.24946651811E+02  0.74567079232E+02  0.78785706657E+02  0.00000000000E+00 0. -1.
          2    1    6    6  502    0 -0.73076058906E+02 -0.12326502000E+03 -0.52816474379E+03  0.54725896258E+03  0.00000000000E+00 0. -1.
          1    1    5    5  503    0 -0.19478937394E+02  0.49432836036E+02  0.10655952367E+03  0.11907126591E+03  0.00000000000E+00 0. -1.
         -2    1    5    5    0  503  0.45620202202E+02  0.41516061861E+01  0.64658233615E+02  0.79240935489E+02  0.00000000000E+00 0.  1.
         -1    1    6    6    0  502 -0.13854627122E+03 -0.89071707572E+02 -0.47664824618E+03  0.50430386569E+03  0.00000000000E+00 0.  1.
<mgrwt>
<rscale>  0 0.17591437E+04</rscale>
<asrwt>0</asrwt>
<pdfrwt beam="1">  1        2 0.16538268E+00 0.17591437E+04</pdfrwt>
<pdfrwt beam="2">  1       -2 0.11071996E+00 0.17591437E+04</pdfrwt>
<totfact> 0.13832246E+01</totfact>
</mgrwt>
</event>
<event>
12    1  0.1097093E-007  0.1545379E+04  0.7818608E-02  0.8854825E-01
         -2   -1    0    0    0  501 -0.00000000000E+00  0.00000000000E+00  0.25383942235E+03  0.25383942235E+03  0.00000000000E+00 0.  1.
          2   -1    0    0  501    0  0.00000000000E+00 -0.00000000000E+00 -0.23520726365E+04  0.23520726365E+04  0.00000000000E+00 0. -1.
         23    2    1    2    0    0 -0.40883740105E+03 -0.27178068928E+03 -0.44417406780E+03  0.66889123223E+03  0.95457396151E+02 0.  0.
        254    2    1    2    0    0  0.40883740105E+03  0.27178068928E+03 -0.16540591463E+04  0.19370208266E+04  0.88041198285E+03 0.  0.
        -24    2    4    4    0    0  0.52365957839E+03  0.66244795154E+02 -0.15978438128E+04  0.16846175810E+04  0.78891172981E+02 0.  0.
         24    2    4    4    0    0 -0.11482217734E+03  0.20553589413E+03 -0.56215333516E+02  0.25240324559E+03  0.71540886762E+02 0.  0.
         13    1    3    3    0    0 -0.37163631462E+03 -0.27399185922E+03 -0.39821402205E+03  0.60972083499E+03  0.00000000000E+00 0.  1.
        -13    1    3    3    0    0 -0.37201086430E+02  0.22111699337E+01 -0.45960045752E+02  0.59170397241E+02  0.00000000000E+00 0. -1.
          4    1    6    6  502    0 -0.88571466146E+01  0.84738043141E+02 -0.24027456313E+02  0.88522899063E+02  0.00000000000E+00 0. -1.
          1    1    5    5  503    0  0.43204513302E+03  0.36595312219E+02 -0.13781100903E+04  0.14447109174E+04  0.00000000000E+00 0. -1.
         -2    1    5    5    0  503  0.91614445370E+02  0.29649482935E+02 -0.21973372252E+03  0.23990666362E+03  0.00000000000E+00 0.  1.
         -3    1    6    6    0  502 -0.10596503073E+03  0.12079785099E+03 -0.32187877203E+02  0.16388034653E+03  0.00000000000E+00 0.  1.
<mgrwt>
<rscale>  0 0.15453786E+04</rscale>
<asrwt>0</asrwt>
<pdfrwt beam="1">  1        2 0.36185735E+00 0.15453786E+04</pdfrwt>
<pdfrwt beam="2">  1       -2 0.39052217E-01 0.15453786E+04</pdfrwt>
<totfact> 0.25314465E+01</totfact>
</mgrwt>
</event>
<event>
12    1  0.1097093E-007  0.1600905E+04  0.7818608E-02  0.8819992E-01
          1   -1    0    0  501    0  0.00000000000E+00  0.00000000000E+00  0.42747675963E+03  0.42747675963E+03  0.00000000000E+00 0. -1.
         -1   -1    0    0    0  501 -0.00000000000E+00 -0.00000000000E+00 -0.14988515117E+04  0.14988515117E+04  0.00000000000E+00 0.  1.
         23    2    1    2    0    0  0.28166883507E+03 -0.15517900272E+02  0.19246193085E+03  0.35326366929E+03  0.90418401507E+02 0.  0.
        254    2    1    2    0    0 -0.28166883507E+03  0.15517900272E+02 -0.12638366829E+04  0.15730646021E+04  0.89312425969E+03 0.  0.
        -24    2    4    4    0    0 -0.11395289646E+03 -0.39180314905E+03 -0.30454916972E+03  0.51442099803E+03  0.73374356708E+02 0.  0.
         24    2    4    4    0    0 -0.16771593862E+03  0.40732104932E+03 -0.95928751321E+03  0.10586436040E+04  0.80340986197E+02 0.  0.
         13    1    3    3    0    0  0.70227207331E+02  0.13982837467E+02  0.93988452497E+02  0.11815756258E+03  0.00000000000E+00 0.  1.
        -13    1    3    3    0    0  0.21144162774E+03 -0.29500737739E+02  0.98473478350E+02  0.23510610670E+03  0.00000000000E+00 0. -1.
          4    1    6    6  502    0 -0.16603988597E+02  0.60038169867E+02 -0.81047641139E+02  0.10222032289E+03  0.00000000000E+00 0. -1.
          1    1    5    5  503    0 -0.27130526429E+01  0.23068076986E+01  0.74194849496E+00  0.36376508863E+01  0.00000000000E+00 0. -1.
         -2    1    5    5    0  503 -0.11123984382E+03 -0.39410995675E+03 -0.30529111822E+03  0.51078334715E+03  0.00000000000E+00 0.  1.
         -3    1    6    6    0  502 -0.15111195002E+03  0.34728287946E+03 -0.87823987207E+03  0.95642328113E+03  0.00000000000E+00 0.  1.
<mgrwt>
<rscale>  0 0.16009050E+04</rscale>
<asrwt>0</asrwt>
<pdfrwt beam="1">  1        1 0.65765654E-01 0.16009050E+04</pdfrwt>
<pdfrwt beam="2">  1       -1 0.23059254E+00 0.16009050E+04</pdfrwt>
<totfact> 0.49260267E+00</totfact>
</mgrwt>
</event>
<event>
12    1  0.1097093E-007  0.2291208E+04  0.7818608E-02  0.8481396E-01
          2   -1    0    0  501    0  0.00000000000E+00  0.00000000000E+00  0.24330919775E+04  0.24330919775E+04  0.00000000000E+00 0. -1.
         -2   -1    0    0    0  501 -0.00000000000E+00 -0.00000000000E+00 -0.53939945762E+03  0.53939945762E+03  0.00000000000E+00 0.  1.
         23    2    1    2    0    0 -0.48498780885E+03  0.47497051016E+03 -0.84408117470E+02  0.69045459407E+03  0.93769162975E+02 0.  0.
        254    2    1    2    0    0  0.48498780885E+03 -0.47497051016E+03  0.19781006373E+04  0.22820368410E+04  0.91323592360E+03 0.  0.
        -24    2    4    4    0    0  0.35032766997E+03  0.22014628908E+03  0.64943506796E+03  0.77430401582E+03  0.81159943836E+02 0.  0.
         24    2    4    4    0    0  0.13466013888E+03 -0.69511679924E+03  0.13286655694E+04  0.15077328252E+04  0.81150227193E+02 0.  0.
         11    1    3    3    0    0 -0.13675301314E+03  0.13412051894E+03 -0.66774909304E+02  0.20285114916E+03  0.00000000000E+00 0. -1.
        -11    1    3    3    0    0 -0.34823479571E+03  0.34084999122E+03 -0.17633208166E+02  0.48760344491E+03  0.00000000000E+00 0.  1.
          4    1    6    6  502    0  0.25226192883E+01  0.34254153469E+00  0.17395066942E+02  0.17580366796E+02  0.00000000000E+00 0. -1.
          3    1    5    5  503    0  0.10732725730E+03  0.93501363886E+02  0.16658146871E+03  0.21911419609E+03  0.00000000000E+00 0. -1.
         -4    1    5    5    0  503  0.24300041267E+03  0.12664492520E+03  0.48285359924E+03  0.55518981974E+03  0.00000000000E+00 0.  1.
         -3    1    6    6    0  502  0.13213751959E+03 -0.69545934078E+03  0.13112705024E+04  0.14901524584E+04  0.00000000000E+00 0.  1.
<mgrwt>
<rscale>  0 0.22912080E+04</rscale>
<asrwt>0</asrwt>
<pdfrwt beam="1">  1        2 0.37432184E+00 0.22912080E+04</pdfrwt>
<pdfrwt beam="2">  1       -2 0.82984533E-01 0.22912080E+04</pdfrwt>
<totfact> 0.43926981E+00</totfact>
</mgrwt>
</event>
<event>
12    1  0.1097093E-007  0.3533121E+04  0.7818608E-02  0.8105985E-01
         -1   -1    0    0    0  501 -0.00000000000E+00  0.00000000000E+00  0.10012048992E+04  0.10012048992E+04  0.00000000000E+00 0.  1.
          1   -1    0    0  501    0  0.00000000000E+00 -0.00000000000E+00 -0.31169801187E+04  0.31169801187E+04  0.00000000000E+00 0. -1.
         23    2    1    2    0    0 -0.10240559273E+04 -0.12867061327E+04 -0.80629241786E+03  0.18337576050E+04  0.90864056240E+02 0.  0.
        254    2    1    2    0    0  0.10240559273E+04  0.12867061327E+04 -0.13094828017E+04  0.22844274129E+04  0.89418129183E+03 0.  0.
        -24    2    4    4    0    0 -0.57932298177E+02  0.39565669019E+03 -0.56180826648E+03  0.69418509510E+03  0.79774998036E+02 0.  0.
         24    2    4    4    0    0  0.10819882255E+04  0.89104944250E+03 -0.74767453520E+03  0.15902423178E+04  0.72012426805E+02 0.  0.
         11    1    3    3    0    0 -0.82968358511E+02 -0.68699097101E+02 -0.56288371910E+02  0.12153886320E+03  0.00000000000E+00 0. -1.
        -11    1    3    3    0    0 -0.94108756878E+03 -0.12180070356E+04 -0.75000404595E+03  0.17122187418E+04  0.00000000000E+00 0.  1.
          2    1    6    6  502    0  0.59893964159E+03  0.53925683461E+03 -0.43216857185E+03  0.91449237418E+03  0.00000000000E+00 0. -1.
          3    1    5    5  503    0 -0.11952965789E+02  0.14914225649E+03 -0.27612064370E+03  0.31405237770E+03  0.00000000000E+00 0. -1.
         -4    1    5    5    0  503 -0.45979332388E+02  0.24651443369E+03 -0.28568762278E+03  0.38013271740E+03  0.00000000000E+00 0.  1.
         -1    1    6    6    0  502  0.48304858387E+03  0.35179260789E+03 -0.31550596335E+03  0.67574994359E+03  0.00000000000E+00 0.  1.
<mgrwt>
<rscale>  0 0.35331209E+04</rscale>
<asrwt>0</asrwt>
<pdfrwt beam="1">  1        1 0.47953540E+00 0.35331209E+04</pdfrwt>
<pdfrwt beam="2">  1       -1 0.15403152E+00 0.35331209E+04</pdfrwt>
<totfact> 0.12937102E-01</totfact>
</mgrwt>
</event>
<event>
12    1  0.1097093E-007  0.2302545E+04  0.7818608E-02  0.8476918E-01
          2   -1    0    0  501    0  0.00000000000E+00  0.00000000000E+00  0.16762580966E+04  0.16762580966E+04  0.00000000000E+00 0. -1.
         -2   -1    0    0    0  501 -0.00000000000E+00 -0.00000000000E+00 -0.79070693646E+03  0.79070693646E+03  0.00000000000E+00 0.  1.
         23    2    1    2    0    0 -0.17906581014E+03  0.42427064045E+03  0.12920875402E+04  0.13747423158E+04  0.91411610688E+02 0.  0.
        254    2    1    2    0    0  0.17906581014E+03 -0.42427064045E+03 -0.40653638011E+03  0.10922227172E+04  0.90311045556E+03 0.  0.
        -24    2    4    4    0    0 -0.30283070205E+03 -0.53828896222E+02 -0.35443632664E+03  0.47666014398E+03  0.83521249087E+02 0.  0.
         24    2    4    4    0    0  0.48189651219E+03 -0.37044174422E+03 -0.52100053476E+02  0.61556257324E+03  0.82167704560E+02 0.  0.
         11    1    3    3    0    0 -0.16126683604E+03  0.41994665585E+03  0.12177762177E+04  0.12982068797E+04  0.00000000000E+00 0. -1.
        -11    1    3    3    0    0 -0.17798974099E+02  0.43239846002E+01  0.74311322509E+02  0.76535436072E+02  0.00000000000E+00 0.  1.
          4    1    6    6  502    0  0.30775287387E+03 -0.24169559860E+03 -0.72717697331E+02  0.39801564953E+03  0.00000000000E+00 0. -1.
          3    1    5    5  503    0 -0.17484113685E+03  0.10153415423E+02 -0.18187827126E+03  0.25249202074E+03  0.00000000000E+00 0. -1.
         -4    1    5    5    0  503 -0.12798956520E+03 -0.63982311645E+02 -0.17255805538E+03  0.22416812324E+03  0.00000000000E+00 0.  1.
         -3    1    6    6    0  502  0.17414363831E+03 -0.12874614562E+03  0.20617643855E+02  0.21754692371E+03  0.00000000000E+00 0.  1.
<mgrwt>
<rscale>  0 0.23025455E+04</rscale>
<asrwt>0</asrwt>
<pdfrwt beam="1">  1        2 0.25788586E+00 0.23025455E+04</pdfrwt>
<pdfrwt beam="2">  1       -2 0.12164722E+00 0.23025455E+04</pdfrwt>
<totfact> 0.47041782E+00</totfact>
</mgrwt>
</event>
<event>
12    1  0.1097093E-007  0.1755827E+04  0.7818608E-02  0.8730149E-01
         -2   -1    0    0    0  501 -0.00000000000E+00  0.00000000000E+00  0.41142893726E+03  0.41142893726E+03  0.00000000000E+00 0.  1.
          2   -1    0    0  501    0  0.00000000000E+00 -0.00000000000E+00 -0.18733060752E+04  0.18733060752E+04  0.00000000000E+00 0. -1.
         23    2    1    2    0    0  0.30982948632E+03  0.28684996600E+03 -0.11863867442E+04  0.12625857919E+04  0.91280674185E+02 0.  0.
        254    2    1    2    0    0 -0.30982948632E+03 -0.28684996600E+03 -0.27549039373E+03  0.10221492205E+04  0.88916638400E+03 0.  0.
        -24    2    4    4    0    0 -0.21542737828E+02 -0.17805107302E+03 -0.56105116439E+03  0.59442094776E+03  0.79947357090E+02 0.  0.
         24    2    4    4    0    0 -0.28828674849E+03 -0.10879889298E+03  0.28556077067E+03  0.42772827279E+03  0.80374580128E+02 0.  0.
         13    1    3    3    0    0  0.68208166409E+02  0.93987824440E+02 -0.43131744314E+03  0.44667751439E+03  0.00000000000E+00 0.  1.
        -13    1    3    3    0    0  0.24162131991E+03  0.19286214156E+03 -0.75506930106E+03  0.81590827750E+03  0.00000000000E+00 0. -1.
          2    1    6    6  502    0 -0.11035745184E+03 -0.82516672337E+02  0.13886998079E+03  0.19563394377E+03  0.00000000000E+00 0. -1.
          1    1    5    5  503    0  0.70472257136E+01  0.64591281659E+01 -0.23677460464E+02  0.25534405435E+02  0.00000000000E+00 0. -1.
         -4    1    5    5    0  503 -0.28589963542E+02 -0.18451020119E+03 -0.53737370393E+03  0.56888654232E+03  0.00000000000E+00 0.  1.
         -1    1    6    6    0  502 -0.17792929665E+03 -0.26282220639E+02  0.14669078987E+03  0.23209432902E+03  0.00000000000E+00 0.  1.
<mgrwt>
<rscale>  0 0.17558272E+04</rscale>
<asrwt>0</asrwt>
<pdfrwt beam="1">  1        2 0.28820094E+00 0.17558272E+04</pdfrwt>
<pdfrwt beam="2">  1       -2 0.63296758E-01 0.17558272E+04</pdfrwt>
<totfact> 0.17202489E+01</totfact>
</mgrwt>
</event>
<event>
12    1  0.1097093E-007  0.3721107E+04  0.7818608E-02  0.8063300E-01
          2   -1    0    0  501    0  0.00000000000E+00  0.00000000000E+00  0.40275576537E+04  0.40275576537E+04  0.00000000000E+00 0. -1.
         -2   -1    0    0    0  501 -0.00000000000E+00 -0.00000000000E+00 -0.85949341083E+03  0.85949341083E+03  0.00000000000E+00 0.  1.
         23    2    1    2    0    0  0.14323663960E+04  0.70140503661E+02  0.17382379154E+03  0.14475893955E+04  0.93312189804E+02 0.  0.
        254    2    1    2    0    0 -0.14323663960E+04 -0.70140503661E+02  0.29942404513E+04  0.34394616691E+04  0.89879225078E+03 0.  0.
        -24    2    4    4    0    0 -0.72838742309E+03 -0.17367286616E+03  0.67182966639E+03  0.10091740205E+04  0.79790979513E+02 0.  0.
         24    2    4    4    0    0 -0.70397897288E+03  0.10353236250E+03  0.23224107850E+04  0.24302876486E+04  0.80005353142E+02 0.  0.
         11    1    3    3    0    0  0.73958914114E+03  0.78540881221E+02  0.70175198730E+02  0.74705108676E+03  0.00000000000E+00 0. -1.
        -11    1    3    3    0    0  0.69277725484E+03 -0.84003775599E+01  0.10364859281E+03  0.70053830870E+03  0.00000000000E+00 0.  1.
          2    1    6    6  502    0 -0.37002089866E+02 -0.10636165315E+02  0.10054965531E+03  0.10766854625E+03  0.00000000000E+00 0. -1.
          1    1    5    5  503    0 -0.34163219940E+02  0.83063045207E+01  0.26539999730E+02  0.44051014485E+02  0.00000000000E+00 0. -1.
         -4    1    5    5    0  503 -0.69422420315E+03 -0.18197917069E+03  0.64528966666E+03  0.96512300599E+03  0.00000000000E+00 0.  1.
         -1    1    6    6    0  502 -0.66697688302E+03  0.11416852782E+03  0.22218611296E+04  0.23226191024E+04  0.00000000000E+00 0.  1.
<mgrwt>
<rscale>  0 0.37211070E+04</rscale>
<asrwt>0</asrwt>
<pdfrwt beam="1">  1        2 0.61962424E+00 0.37211070E+04</pdfrwt>
<pdfrwt beam="2">  1       -2 0.13222976E+00 0.37211070E+04</pdfrwt>
<totfact> 0.10869781E-01</totfact>
</mgrwt>
</event>
<event>
12    1  0.1097093E-007  0.1986328E+04  0.7818608E-02  0.8613039E-01
          2   -1    0    0  501    0  0.00000000000E+00  0.00000000000E+00  0.36002883825E+04  0.36002883825E+04  0.00000000000E+00 0. -1.
         -2   -1    0    0    0  501 -0.00000000000E+00 -0.00000000000E+00 -0.27397114290E+03  0.27397114290E+03  0.00000000000E+00 0.  1.
         23    2    1    2    0    0  0.34864600557E+03 -0.69155288565E+03  0.15539189188E+04  0.17386371954E+04  0.91628925207E+02 0.  0.
        254    2    1    2    0    0 -0.34864600557E+03  0.69155288565E+03  0.17723983208E+04  0.21356223301E+04  0.90536594718E+03 0.  0.
        -24    2    4    4    0    0  0.36637291909E+02  0.57714150195E+03  0.41142592377E+03  0.71439414536E+03  0.81566535673E+02 0.  0.
         24    2    4    4    0    0 -0.38528329748E+03  0.11441138370E+03  0.13609723970E+04  0.14212281847E+04  0.78169709800E+02 0.  0.
         13    1    3    3    0    0  0.30054416583E+03 -0.54890619442E+03  0.11827910715E+04  0.13381403233E+04  0.00000000000E+00 0. -1.
        -13    1    3    3    0    0  0.48101839741E+02 -0.14264669123E+03  0.37112784732E+03  0.40049687210E+03  0.00000000000E+00 0.  1.
          2    1    6    6  502    0 -0.16598076167E+02 -0.89314132138E+01  0.39700458468E+02  0.43947612870E+02  0.00000000000E+00 0. -1.
          1    1    5    5  503    0 -0.23481866384E+02  0.26881535690E+03  0.19502171973E+03  0.33293627817E+03  0.00000000000E+00 0. -1.
         -2    1    5    5    0  503  0.60119158294E+02  0.30832614505E+03  0.21640420403E+03  0.38145786719E+03  0.00000000000E+00 0.  1.
         -1    1    6    6    0  502 -0.36868522131E+03  0.12334279691E+03  0.13212719386E+04  0.13772805719E+04  0.00000000000E+00 0.  1.
<mgrwt>
<rscale>  0 0.19863284E+04</rscale>
<asrwt>0</asrwt>
<pdfrwt beam="1">  1        2 0.55389049E+00 0.19863284E+04</pdfrwt>
<pdfrwt beam="2">  1       -2 0.42149409E-01 0.19863284E+04</pdfrwt>
<totfact> 0.34469336E+00</totfact>
</mgrwt>
</event>
<event>
12    1  0.1097093E-007  0.1843443E+04  0.7818608E-02  0.8683532E-01
          2   -1    0    0  501    0  0.00000000000E+00  0.00000000000E+00  0.70164834364E+03  0.70164834364E+03  0.00000000000E+00 0. -1.
         -2   -1    0    0    0  501 -0.00000000000E+00 -0.00000000000E+00 -0.12108206172E+04  0.12108206172E+04  0.00000000000E+00 0.  1.
         23    2    1    2    0    0 -0.21669806121E+03 -0.35998353904E+03 -0.76692457575E+03  0.87938606592E+03  0.92738071640E+02 0.  0.
        254    2    1    2    0    0  0.21669806121E+03  0.35998353904E+03  0.25775230218E+03  0.10330828949E+04  0.90789747240E+03 0.  0.
        -24    2    4    4    0    0 -0.16247985731E+03  0.53668143975E+03  0.21172339899E+03  0.60480320303E+03  0.80829727940E+02 0.  0.
         24    2    4    4    0    0  0.37917791852E+03 -0.17669790071E+03  0.46028903198E+02  0.42827969189E+03  0.79415316830E+02 0.  0.
         11    1    3    3    0    0 -0.46481889256E+01 -0.66530329165E+02 -0.14825805587E+03  0.16256795961E+03  0.00000000000E+00 0. -1.
        -11    1    3    3    0    0 -0.21204987229E+03 -0.29345320987E+03 -0.61866651988E+03  0.71681810631E+03  0.00000000000E+00 0.  1.
          2    1    6    6  502    0  0.64435812285E+02 -0.16091474273E+01  0.18530472268E+02  0.67066695630E+02  0.00000000000E+00 0. -1.
          3    1    5    5  503    0 -0.30180402073E+02  0.35547883725E+02  0.53986087314E+01  0.46943089830E+02  0.00000000000E+00 0. -1.
         -4    1    5    5    0  503 -0.13229945524E+03  0.50113355602E+03  0.20632479025E+03  0.55786011320E+03  0.00000000000E+00 0.  1.
         -1    1    6    6    0  502  0.31474210624E+03 -0.17508875329E+03  0.27498430930E+02  0.36121299626E+03  0.00000000000E+00 0.  1.
<mgrwt>
<rscale>  0 0.18434427E+04</rscale>
<asrwt>0</asrwt>
<pdfrwt beam="1">  1        2 0.10794590E+00 0.18434427E+04</pdfrwt>
<pdfrwt beam="2">  1       -2 0.18628009E+00 0.18434427E+04</pdfrwt>
<totfact> 0.63071589E+00</totfact>
</mgrwt>
</event>
<event>
12    1  0.1097093E-007  0.2673329E+04  0.7818608E-02  0.8343711E-01
          2   -1    0    0  501    0  0.00000000000E+00  0.00000000000E+00  0.13422075203E+04  0.13422075203E+04  0.00000000000E+00 0.  1.
         -2   -1    0    0    0  501 -0.00000000000E+00 -0.00000000000E+00 -0.13311444732E+04  0.13311444732E+04  0.00000000000E+00 0. -1.
         23    2    1    2    0    0  0.59232508196E+03  0.24975575467E+03 -0.98226167106E+03  0.11777837470E+04  0.95444353761E+02 0.  0.
        254    2    1    2    0    0 -0.59232508196E+03 -0.24975575467E+03  0.99332471817E+03  0.14955682464E+04  0.91476961264E+03 0.  0.
        -24    2    4    4    0    0 -0.63308412532E+03 -0.16556756696E+02  0.20880314406E+03  0.67209070881E+03  0.83889999240E+02 0.  0.
         24    2    4    4    0    0  0.40759043359E+02 -0.23319899797E+03  0.78452157411E+03  0.82347753760E+03  0.81228581258E+02 0.  0.
         13    1    3    3    0    0  0.47373571879E+02  0.34626722221E+02 -0.52011664633E+02  0.78412234136E+02  0.00000000000E+00 0.  1.
        -13    1    3    3    0    0  0.54495151008E+03  0.21512903245E+03 -0.93025000643E+03  0.10993715129E+04  0.00000000000E+00 0. -1.
          2    1    6    6  502    0  0.10963409789E+02 -0.34157935985E+02  0.47824905762E+02  0.59784467515E+02  0.00000000000E+00 0. -1.
          1    1    5    5  503    0 -0.24068293845E+03  0.26058591317E+02  0.53515832539E+02  0.24793400609E+03  0.00000000000E+00 0. -1.
         -2    1    5    5    0  503 -0.39240118687E+03 -0.42615348013E+02  0.15528731152E+03  0.42415670272E+03  0.00000000000E+00 0.  1.
         -1    1    6    6    0  502  0.29795633570E+02 -0.19904106199E+03  0.73669666835E+03  0.76369307008E+03  0.00000000000E+00 0.  1.
<mgrwt>
<rscale>  0 0.26733291E+04</rscale>
<asrwt>0</asrwt>
<pdfrwt beam="1">  1        2 0.20649347E+00 0.26733291E+04</pdfrwt>
<pdfrwt beam="2">  1       -2 0.20479146E+00 0.26733291E+04</pdfrwt>
<totfact> 0.16998972E+00</totfact>
</mgrwt>
</event>
<event>
12    1  0.1097093E-007  0.2204293E+04  0.7818608E-02  0.8516643E-01
          2   -1    0    0  501    0  0.00000000000E+00  0.00000000000E+00  0.24936149486E+04  0.24936149486E+04  0.00000000000E+00 0. -1.
         -2   -1    0    0    0  501 -0.00000000000E+00 -0.00000000000E+00 -0.48713509424E+03  0.48713509424E+03  0.00000000000E+00 0.  1.
         23    2    1    2    0    0 -0.25239481684E+03  0.55327059267E+03 -0.89975173551E+02  0.62137394828E+03  0.90545896998E+02 0.  0.
        254    2    1    2    0    0  0.25239481684E+03 -0.55327059267E+03  0.20964550279E+04  0.23593760945E+04  0.89538839577E+03 0.  0.
        -24    2    4    4    0    0  0.31059580882E+02  0.23676377623E+02 -0.67608177083E+02  0.10739135925E+03  0.73734456062E+02 0.  0.
         24    2    4    4    0    0  0.22133523596E+03 -0.57694697029E+03  0.21640632050E+04  0.22519847353E+04  0.80053730151E+02 0.  0.
         13    1    3    3    0    0 -0.15255943278E+03  0.26508361102E+03 -0.80371185787E+02  0.31623287126E+03  0.00000000000E+00 0. -1.
        -13    1    3    3    0    0 -0.99835384064E+02  0.28818698165E+03 -0.96039877645E+01  0.30514107702E+03  0.00000000000E+00 0.  1.
          2    1    6    6  502    0  0.97418869988E+02 -0.16646485589E+03  0.60214363809E+03  0.63227995806E+03  0.00000000000E+00 0. -1.
          1    1    5    5  503    0 -0.84397653677E+01 -0.16952052580E+02 -0.40220016686E+02  0.44455049976E+02  0.00000000000E+00 0. -1.
         -2    1    5    5    0  503  0.39499346250E+02  0.40628430202E+02 -0.27388160397E+02  0.62936309272E+02  0.00000000000E+00 0.  1.
         -1    1    6    6    0  502  0.12391636597E+03 -0.41048211440E+03  0.15619195669E+04  0.16197047772E+04  0.00000000000E+00 0.  1.
<mgrwt>
<rscale>  0 0.22042934E+04</rscale>
<asrwt>0</asrwt>
<pdfrwt beam="1">  1        2 0.38363306E+00 0.22042934E+04</pdfrwt>
<pdfrwt beam="2">  1       -2 0.74943862E-01 0.22042934E+04</pdfrwt>
<totfact> 0.51315122E+00</totfact>
</mgrwt>
</event>
<event>
12    1  0.1097093E-007  0.2009368E+04  0.7818608E-02  0.8602253E-01
          1   -1    0    0  501    0  0.00000000000E+00  0.00000000000E+00  0.82403851489E+03  0.82403851489E+03  0.00000000000E+00 0. -1.
         -1   -1    0    0    0  501 -0.00000000000E+00 -0.00000000000E+00 -0.12249309004E+04  0.12249309004E+04  0.00000000000E+00 0.  1.
         23    2    1    2    0    0 -0.19756796393E+03  0.46406021234E+03  0.41915639849E+03  0.66211517213E+03  0.91210929841E+02 0.  0.
        254    2    1    2    0    0  0.19756796393E+03 -0.46406021234E+03 -0.82004878399E+03  0.13868542432E+04  0.99824831710E+03 0.  0.
        -24    2    4    4    0    0 -0.86606772746E+02 -0.15353015662E+03 -0.92511971903E+03  0.94518508408E+03  0.80349900732E+02 0.  0.
         24    2    4    4    0    0  0.28417473667E+03 -0.31053005572E+03  0.10507093504E+03  0.44166915908E+03  0.82749913711E+02 0.  0.
         13    1    3    3    0    0 -0.16890068768E+02  0.70657726870E+01  0.30542653117E+02  0.35609734990E+02  0.00000000000E+00 0.  1.
        -13    1    3    3    0    0 -0.18067789516E+03  0.45699443965E+03  0.38861374537E+03  0.62650543714E+03  0.00000000000E+00 0. -1.
          2    1    6    6  502    0  0.10012315420E+03 -0.57794717507E+02  0.39904220017E+02  0.12229972262E+03  0.00000000000E+00 0. -1.
          1    1    5    5  503    0 -0.18059950112E+02 -0.16516893150E+02 -0.32137330461E+03  0.32230384806E+03  0.00000000000E+00 0. -1.
         -2    1    5    5    0  503 -0.68546822634E+02 -0.13701326347E+03 -0.60374641443E+03  0.62288123602E+03  0.00000000000E+00 0.  1.
         -1    1    6    6    0  502  0.18405158247E+03 -0.25273533821E+03  0.65166715025E+02  0.31936943645E+03  0.00000000000E+00 0.  1.
<mgrwt>
<rscale>  0 0.20093683E+04</rscale>
<asrwt>0</asrwt>
<pdfrwt beam="1">  1        1 0.12677516E+00 0.20093683E+04</pdfrwt>
<pdfrwt beam="2">  1       -1 0.18845091E+00 0.20093683E+04</pdfrwt>
<totfact> 0.35391020E+00</totfact>
</mgrwt>
</event>
<event>
12    1  0.1097093E-007  0.1823991E+04  0.7818608E-02  0.8693644E-01
         -1   -1    0    0    0  501 -0.00000000000E+00  0.00000000000E+00  0.42865617903E+03  0.42865617903E+03  0.00000000000E+00 0.  1.
          1   -1    0    0  501    0  0.00000000000E+00 -0.00000000000E+00 -0.19403328520E+04  0.19403328520E+04  0.00000000000E+00 0. -1.
         23    2    1    2    0    0 -0.61280317420E+03  0.30492643899E+03 -0.53453375068E+03  0.87323283944E+03  0.91112006663E+02 0.  0.
        254    2    1    2    0    0  0.61280317420E+03 -0.30492643899E+03 -0.97714292227E+03  0.14957561916E+04  0.90220309827E+03 0.  0.
        -24    2    4    4    0    0  0.19834585781E+03 -0.54616207450E+03 -0.29100138266E+03  0.65483038614E+03  0.80541535689E+02 0.  0.
         24    2    4    4    0    0  0.41445731639E+03  0.24123563550E+03 -0.68614153961E+03  0.84092580542E+03  0.79978115104E+02 0.  0.
         13    1    3    3    0    0 -0.28211522706E+02  0.10081650993E+02 -0.33966912458E+01  0.30150741476E+02  0.00000000000E+00 0. -1.
        -13    1    3    3    0    0 -0.58459165150E+03  0.29484478800E+03 -0.53113705943E+03  0.84308209797E+03  0.00000000000E+00 0.  1.
          2    1    6    6  502    0  0.12331410236E+03  0.11471582649E+03 -0.25219999546E+03  0.30326708756E+03  0.00000000000E+00 0. -1.
          1    1    5    5  503    0  0.94381233219E+02 -0.15258380272E+03 -0.82800819416E+02  0.19759961977E+03  0.00000000000E+00 0. -1.
         -2    1    5    5    0  503  0.10396462459E+03 -0.39357827177E+03 -0.20820056324E+03  0.45723076637E+03  0.00000000000E+00 0.  1.
         -1    1    6    6    0  502  0.29114321404E+03  0.12651980902E+03 -0.43394154415E+03  0.53765871786E+03  0.00000000000E+00 0.  1.
<mgrwt>
<rscale>  0 0.18239909E+04</rscale>
<asrwt>0</asrwt>
<pdfrwt beam="1">  1        1 0.29851275E+00 0.18239909E+04</pdfrwt>
<pdfrwt beam="2">  1       -1 0.65947104E-01 0.18239909E+04</pdfrwt>
<totfact> 0.71791349E+00</totfact>
</mgrwt>
</event>
<event>
12    1  0.1178022E-007  0.1895108E+04  0.7818608E-02  0.8657295E-01
         -1   -1    0    0    0  501 -0.00000000000E+00  0.00000000000E+00  0.10855394703E+04  0.10855394703E+04  0.00000000000E+00 0.  1.
          1   -1    0    0  501    0  0.00000000000E+00 -0.00000000000E+00 -0.82710783268E+03  0.82710783268E+03  0.00000000000E+00 0. -1.
         23    2    1    2    0    0  0.60405460456E+03 -0.37745121632E+03 -0.55035420228E+02  0.72206407064E+03  0.10486295170E+03 0.  0.
        254    2    1    2    0    0 -0.60405460456E+03  0.37745121632E+03  0.31346705785E+03  0.11905832323E+04  0.90104131469E+03 0.  0.
        -24    2    4    4    0    0  0.59980823261E+02  0.24555135646E+03  0.42279052267E+03  0.49972056708E+03  0.84116890577E+02 0.  0.
         24    2    4    4    0    0 -0.66403542782E+03  0.13189985986E+03 -0.10932346482E+03  0.69086266526E+03  0.83659905930E+02 0.  0.
         11    1    3    3    0    0  0.46082598683E+03 -0.29678773002E+03  0.18145340382E+01  0.54813031239E+03  0.00000000000E+00 0.  1.
        -11    1    3    3    0    0  0.14322861773E+03 -0.80663486298E+02 -0.56849954267E+02  0.17393375825E+03  0.00000000000E+00 0. -1.
          2    1    6    6  502    0 -0.22361750080E+02  0.21541198666E+02 -0.40561488926E+01  0.31313311074E+02  0.00000000000E+00 0. -1.
          3    1    5    5  503    0  0.26954131360E+00  0.48448210002E+01 -0.38780072552E+01  0.62115926553E+01  0.00000000000E+00 0. -1.
         -4    1    5    5    0  503  0.59711281948E+02  0.24070653546E+03  0.42666852993E+03  0.49350897442E+03  0.00000000000E+00 0.  1.
         -1    1    6    6    0  502 -0.64167367774E+03  0.11035866119E+03 -0.10526731593E+03  0.65954935419E+03  0.00000000000E+00 0.  1.
<mgrwt>
<rscale>  0 0.18951076E+04</rscale>
<asrwt>0</asrwt>
<pdfrwt beam="1">  1        1 0.12724736E+00 0.18951076E+04</pdfrwt>
<pdfrwt beam="2">  1       -1 0.16700607E+00 0.18951076E+04</pdfrwt>
<totfact> 0.50766227E+00</totfact>
</mgrwt>
</event>
<event>
12    1  0.1097093E-007  0.2333315E+04  0.7818608E-02  0.8464900E-01
         -1   -1    0    0    0  501 -0.00000000000E+00  0.00000000000E+00  0.92816162238E+03  0.92816162238E+03  0.00000000000E+00 0.  1.
          1   -1    0    0  501    0  0.00000000000E+00 -0.00000000000E+00 -0.14664360178E+04  0.14664360178E+04  0.00000000000E+00 0. -1.
         23    2    1    2    0    0 -0.65588346013E+03 -0.27554854325E+03 -0.94115418258E+03  0.11832293465E+04  0.90279444438E+02 0.  0.
        254    2    1    2    0    0  0.65588346013E+03  0.27554854325E+03  0.40287978718E+03  0.12113682937E+04  0.89386291287E+03 0.  0.
        -24    2    4    4    0    0  0.40438384593E+03  0.10457100134E+03 -0.24536780388E+03  0.49103750187E+03  0.80318614865E+02 0.  0.
         24    2    4    4    0    0  0.25149961420E+03  0.17097754191E+03  0.64824759105E+03  0.72033079178E+03  0.78524738188E+02 0.  0.
         13    1    3    3    0    0  0.12064816613E+01 -0.33854008878E+01 -0.38248713722E-01  0.35941619516E+01  0.00000000000E+00 0.  1.
        -13    1    3    3    0    0 -0.65708994179E+03 -0.27216314236E+03 -0.94111593387E+03  0.11796351846E+04  0.00000000000E+00 0. -1.
          2    1    6    6  502    0  0.15885056241E+03  0.93803770433E+02  0.30422719607E+03  0.35579043741E+03  0.00000000000E+00 0. -1.
          1    1    5    5  503    0  0.28346894690E+03  0.10005504084E+03 -0.20344546472E+03  0.36298169674E+03  0.00000000000E+00 0. -1.
         -2    1    5    5    0  503  0.12091489903E+03  0.45159605026E+01 -0.41922339151E+02  0.12805580513E+03  0.00000000000E+00 0.  1.
         -1    1    6    6    0  502  0.92649051786E+02  0.77173771473E+02  0.34402039498E+03  0.36454035437E+03  0.00000000000E+00 0.  1.
<mgrwt>
<rscale>  0 0.23333149E+04</rscale>
<asrwt>0</asrwt>
<pdfrwt beam="1">  1        1 0.22560554E+00 0.23333149E+04</pdfrwt>
<pdfrwt beam="2">  1       -1 0.14279410E+00 0.23333149E+04</pdfrwt>
<totfact> 0.24757850E+00</totfact>
</mgrwt>
</event>
<event>
12    1  0.1097093E-007  0.1264100E+04  0.7818608E-02  0.9058529E-01
          2   -1    0    0  501    0  0.00000000000E+00  0.00000000000E+00  0.13684992546E+04  0.13684992546E+04  0.00000000000E+00 0. -1.
         -2   -1    0    0    0  501 -0.00000000000E+00 -0.00000000000E+00 -0.29191634599E+03  0.29191634599E+03  0.00000000000E+00 0.  1.
         23    2    1    2    0    0  0.18855895528E+03 -0.14442580281E+03  0.65534202230E+03  0.70361201673E+03  0.95830119289E+02 0.  0.
        254    2    1    2    0    0 -0.18855895528E+03  0.14442580281E+03  0.42124088626E+03  0.95680358382E+03  0.82560034012E+03 0.  0.
        -24    2    4    4    0    0 -0.12294169862E+03 -0.31278230109E+03  0.33396575668E+03  0.48041494200E+03  0.79485600743E+02 0.  0.
         24    2    4    4    0    0 -0.65617256659E+02  0.45720810390E+03  0.87275129583E+02  0.47638864182E+03  0.77358355488E+02 0.  0.
         13    1    3    3    0    0  0.20568397359E+02  0.43397245366E+01  0.17179940002E+02  0.27148526984E+02  0.00000000000E+00 0.  1.
        -13    1    3    3    0    0  0.16799055792E+03 -0.14876552735E+03  0.63816208230E+03  0.67646348975E+03  0.00000000000E+00 0. -1.
          2    1    6    6  502    0 -0.87642534390E+01  0.31058961721E+03  0.49135887352E+02  0.31457440754E+03  0.00000000000E+00 0. -1.
          3    1    5    5  503    0 -0.12032235473E+03 -0.30927940977E+03  0.30374804434E+03  0.44988231438E+03  0.00000000000E+00 0. -1.
         -4    1    5    5    0  503 -0.26193438878E+01 -0.35028913223E+01  0.30217712338E+02  0.30532627613E+02  0.00000000000E+00 0.  1.
         -1    1    6    6    0  502 -0.56853003220E+02  0.14661848669E+03  0.38139242231E+02  0.16181423427E+03  0.00000000000E+00 0.  1.
<mgrwt>
<rscale>  0 0.12641002E+04</rscale>
<asrwt>0</asrwt>
<pdfrwt beam="1">  1        2 0.21053834E+00 0.12641002E+04</pdfrwt>
<pdfrwt beam="2">  1       -2 0.44910208E-01 0.12641002E+04</pdfrwt>
<totfact> 0.69669478E+01</totfact>
</mgrwt>
</event>
<event>
12    1  0.1097093E-007  0.3852347E+04  0.7818608E-02  0.8035014E-01
         -2   -1    0    0    0  501 -0.00000000000E+00  0.00000000000E+00  0.19273334530E+04  0.19273334530E+04  0.00000000000E+00 0. -1.
          2   -1    0    0  501    0  0.00000000000E+00 -0.00000000000E+00 -0.19250141307E+04  0.19250141307E+04  0.00000000000E+00 0.  1.
         23    2    1    2    0    0  0.13902215419E+04 -0.10743228114E+04  0.47949963309E+03  0.18235955041E+04  0.93248196275E+02 0.  0.
        254    2    1    2    0    0 -0.13902215419E+04  0.10743228114E+04 -0.47718031079E+03  0.20287520796E+04  0.89512485886E+03 0.  0.
        -24    2    4    4    0    0 -0.78796493042E+03  0.89851401485E+03  0.59129355715E+02  0.11997131521E+04  0.87173391965E+02 0.  0.
         24    2    4    4    0    0 -0.60225661144E+03  0.17580879652E+03 -0.53630966651E+03  0.82903892745E+03  0.77818544558E+02 0.  0.
         13    1    3    3    0    0  0.10416361389E+04 -0.79608584834E+03  0.39890757977E+03  0.13703597269E+04  0.00000000000E+00 0.  1.
        -13    1    3    3    0    0  0.34858540295E+03 -0.27823696303E+03  0.80592053314E+02  0.45323577727E+03  0.00000000000E+00 0. -1.
          4    1    6    6  502    0 -0.15380172131E+03  0.18277453477E+02 -0.10428329305E+03  0.18671914737E+03  0.00000000000E+00 0. -1.
          1    1    5    5  503    0 -0.14825477358E+03  0.13105447833E+03  0.30333095102E+02  0.20018703963E+03  0.00000000000E+00 0. -1.
         -2    1    5    5    0  503 -0.63971015684E+03  0.76745953652E+03  0.28796260613E+02  0.99952611251E+03  0.00000000000E+00 0.  1.
         -3    1    6    6    0  502 -0.44845489013E+03  0.15753134304E+03 -0.43202637346E+03  0.64231978008E+03  0.00000000000E+00 0.  1.
<mgrwt>
<rscale>  0 0.38523469E+04</rscale>
<asrwt>0</asrwt>
<pdfrwt beam="1">  1        2 0.29615602E+00 0.38523469E+04</pdfrwt>
<pdfrwt beam="2">  1       -2 0.29651284E+00 0.38523469E+04</pdfrwt>
<totfact> 0.19602357E-01</totfact>
</mgrwt>
</event>
<event>
12    1  0.1097093E-007  0.2308886E+04  0.7818608E-02  0.8474426E-01
          1   -1    0    0  501    0  0.00000000000E+00  0.00000000000E+00  0.24158439614E+04  0.24158439614E+04  0.00000000000E+00 0. -1.
         -1   -1    0    0    0  501 -0.00000000000E+00 -0.00000000000E+00 -0.55166603541E+03  0.55166603541E+03  0.00000000000E+00 0.  1.
         23    2    1    2    0    0 -0.32704497828E+03 -0.79962233531E+03  0.21354307988E+03  0.89460910745E+03  0.91490497901E+02 0.  0.
        254    2    1    2    0    0  0.32704497828E+03  0.79962233531E+03  0.16506348461E+04  0.20729008894E+04  0.90882803928E+03 0.  0.
        -24    2    4    4    0    0 -0.95545645607E+02  0.79301536381E+03  0.12466691003E+04  0.14828876303E+04  0.82277219420E+02 0.  0.
         24    2    4    4    0    0  0.42259062389E+03  0.66069715061E+01  0.40396574582E+03  0.59001325906E+03  0.79377796684E+02 0.  0.
         11    1    3    3    0    0 -0.22539474605E+03 -0.54487746653E+03  0.18914391262E+03  0.61924927514E+03  0.00000000000E+00 0.  1.
        -11    1    3    3    0    0 -0.10165023223E+03 -0.25474486878E+03  0.24399167261E+02  0.27535983230E+03  0.00000000000E+00 0. -1.
          4    1    6    6  502    0  0.21819465446E+03 -0.16743418220E+02  0.25494508484E+03  0.33598548417E+03  0.00000000000E+00 0. -1.
          1    1    5    5  503    0 -0.74108857497E+02  0.31537040922E+03  0.46953632728E+03  0.57045155833E+03  0.00000000000E+00 0. -1.
         -2    1    5    5    0  503 -0.21436788111E+02  0.47764495459E+03  0.77713277304E+03  0.91243607199E+03  0.00000000000E+00 0.  1.
         -3    1    6    6    0  502  0.20439596943E+03  0.23350389726E+02  0.14902066097E+03  0.25402777489E+03  0.00000000000E+00 0.  1.
<mgrwt>
<rscale>  0 0.23088864E+04</rscale>
<asrwt>0</asrwt>
<pdfrwt beam="1">  1        1 0.37166830E+00 0.23088864E+04</pdfrwt>
<pdfrwt beam="2">  1       -1 0.84871699E-01 0.23088864E+04</pdfrwt>
<totfact> 0.19216582E+00</totfact>
</mgrwt>
</event>
<event>
12    1  0.1097093E-007  0.1072860E+04  0.7818608E-02  0.9232056E-01
          2   -1    0    0  501    0  0.00000000000E+00  0.00000000000E+00  0.72642973131E+03  0.72642973131E+03  0.00000000000E+00 0.  1.
         -2   -1    0    0    0  501 -0.00000000000E+00 -0.00000000000E+00 -0.39612528017E+03  0.39612528017E+03  0.00000000000E+00 0. -1.
         23    2    1    2    0    0  0.61849554580E+01 -0.39786078712E+02 -0.76528492168E+02  0.12462126593E+03  0.89736637305E+02 0.  0.
        254    2    1    2    0    0 -0.61849554580E+01  0.39786078712E+02  0.40683294331E+03  0.99793374555E+03  0.91035022437E+03 0.  0.
        -24    2    4    4    0    0 -0.16062871282E+02  0.46770022304E+03  0.18847866011E+03  0.51070733591E+03  0.79348995980E+02 0.  0.
         24    2    4    4    0    0  0.98779158241E+01 -0.42791414433E+03  0.21835428320E+03  0.48722640965E+03  0.80640517896E+02 0.  0.
         13    1    3    3    0    0 -0.37114351958E+02 -0.47701095315E+00 -0.44486643417E+02  0.57937587999E+02  0.00000000000E+00 0.  1.
        -13    1    3    3    0    0  0.43299307416E+02 -0.39309067759E+02 -0.32041848751E+02  0.66683677929E+02  0.00000000000E+00 0. -1.
          2    1    6    6  502    0 -0.32288191979E+02 -0.10717129629E+03  0.51035874363E+02  0.12301574924E+03  0.00000000000E+00 0. -1.
          3    1    5    5  503    0  0.21121383011E+02  0.33915709136E+03  0.11991834800E+03  0.36035268228E+03  0.00000000000E+00 0. -1.
         -4    1    5    5    0  503 -0.37184254293E+02  0.12854313168E+03  0.68560312106E+02  0.15035465362E+03  0.00000000000E+00 0.  1.
         -1    1    6    6    0  502  0.42166107803E+02 -0.32074284805E+03  0.16731840884E+03  0.36421066041E+03  0.00000000000E+00 0.  1.
<mgrwt>
<rscale>  0 0.10728601E+04</rscale>
<asrwt>0</asrwt>
<pdfrwt beam="1">  1        2 0.11175842E+00 0.10728601E+04</pdfrwt>
<pdfrwt beam="2">  1       -2 0.60942351E-01 0.10728601E+04</pdfrwt>
<totfact> 0.97423529E+01</totfact>
</mgrwt>
</event>
<event>
12    1  0.1097093E-007  0.1317168E+04  0.7818608E-02  0.9016061E-01
          1   -1    0    0  501    0  0.00000000000E+00  0.00000000000E+00  0.32196440466E+03  0.32196440466E+03  0.00000000000E+00 0. -1.
         -1   -1    0    0    0  501 -0.00000000000E+00 -0.00000000000E+00 -0.13471446384E+04  0.13471446384E+04  0.00000000000E+00 0.  1.
         23    2    1    2    0    0  0.43801310156E+02 -0.11268204947E+03  0.12857851721E+03  0.20492887566E+03  0.10415186002E+03 0.  0.
        254    2    1    2    0    0 -0.43801310156E+02  0.11268204947E+03 -0.11537587510E+04  0.14641801674E+04  0.89333560782E+03 0.  0.
        -24    2    4    4    0    0 -0.97114879662E+02 -0.26471243020E+03 -0.55104404796E+02  0.29849377379E+03  0.80981893081E+02 0.  0.
         24    2    4    4    0    0  0.53313569506E+02  0.37739447967E+03 -0.10986543462E+04  0.11656863937E+04  0.80712241639E+02 0.  0.
         11    1    3    3    0    0 -0.26662260249E+02 -0.68260002944E+02  0.80043283820E+02  0.10852295337E+03  0.00000000000E+00 0. -1.
        -11    1    3    3    0    0  0.70463570405E+02 -0.44422046524E+02  0.48535233392E+02  0.96405922287E+02  0.00000000000E+00 0.  1.
          4    1    6    6  502    0 -0.20766050542E+01  0.24831131225E+03 -0.66502432440E+03  0.70987334935E+03  0.00000000000E+00 0. -1.
          3    1    5    5  503    0 -0.97369576364E+02 -0.24729046826E+03 -0.29330630483E+02  0.26738305103E+03  0.00000000000E+00 0. -1.
         -4    1    5    5    0  503  0.25469670159E+00 -0.17421961948E+02 -0.25773774313E+02  0.31110722763E+02  0.00000000000E+00 0.  1.
         -3    1    6    6    0  502  0.55390174560E+02  0.12908316743E+03 -0.43363002180E+03  0.45581304430E+03  0.00000000000E+00 0.  1.
<mgrwt>
<rscale>  0 0.13171676E+04</rscale>
<asrwt>0</asrwt>
<pdfrwt beam="1">  1        1 0.49532984E-01 0.13171676E+04</pdfrwt>
<pdfrwt beam="2">  1       -1 0.20725303E+00 0.13171676E+04</pdfrwt>
<totfact> 0.10527796E+01</totfact>
</mgrwt>
</event>
<event>
12    1  0.1097093E-007  0.2231611E+04  0.7818608E-02  0.8505385E-01
          2   -1    0    0  501    0  0.00000000000E+00  0.00000000000E+00  0.21667169672E+04  0.21667169672E+04  0.00000000000E+00 0. -1.
         -2   -1    0    0    0  501 -0.00000000000E+00 -0.00000000000E+00 -0.57461202427E+03  0.57461202427E+03  0.00000000000E+00 0.  1.
         23    2    1    2    0    0  0.79901245844E+02  0.44285302321E+03  0.16623581819E+04  0.17242635053E+04  0.84539348460E+02 0.  0.
        254    2    1    2    0    0 -0.79901245844E+02 -0.44285302321E+03 -0.70253238994E+02  0.10170654862E+04  0.90938642850E+03 0.  0.
        -24    2    4    4    0    0  0.15033297518E+03 -0.66295719987E+03 -0.17838241931E+02  0.68477638826E+03  0.80549654061E+02 0.  0.
         24    2    4    4    0    0 -0.23023422102E+03  0.22010417666E+03 -0.52414997063E+02  0.33228909791E+03  0.78835699804E+02 0.  0.
         13    1    3    3    0    0  0.44972536633E+02  0.22423372578E+03  0.10024945631E+04  0.10282502817E+04  0.00000000000E+00 0.  1.
        -13    1    3    3    0    0  0.34928709211E+02  0.21861929743E+03  0.65986361882E+03  0.69601322357E+03  0.00000000000E+00 0. -1.
          2    1    6    6  502    0 -0.13131929375E+03  0.14778525684E+03 -0.67333833779E+02  0.20885182360E+03  0.00000000000E+00 0. -1.
          1    1    5    5  503    0  0.53197996104E+02 -0.38377131674E+03  0.12351501095E+02  0.38763773026E+03  0.00000000000E+00 0. -1.
         -2    1    5    5    0  503  0.97134979075E+02 -0.27918588312E+03 -0.30189743026E+02  0.29713865800E+03  0.00000000000E+00 0.  1.
         -3    1    6    6    0  502 -0.98914927273E+02  0.72318919821E+02  0.14918836716E+02  0.12343727432E+03  0.00000000000E+00 0.  1.
<mgrwt>
<rscale>  0 0.22316107E+04</rscale>
<asrwt>0</asrwt>
<pdfrwt beam="1">  1        2 0.33334107E+00 0.22316107E+04</pdfrwt>
<pdfrwt beam="2">  1       -2 0.88401851E-01 0.22316107E+04</pdfrwt>
<totfact> 0.54125569E+00</totfact>
</mgrwt>
</event>
<event>
12    1  0.1097093E-007  0.1906259E+04  0.7818608E-02  0.8651747E-01
          1   -1    0    0  501    0  0.00000000000E+00  0.00000000000E+00  0.51423397358E+03  0.51423397358E+03  0.00000000000E+00 0. -1.
         -1   -1    0    0    0  501 -0.00000000000E+00 -0.00000000000E+00 -0.17666188783E+04  0.17666188783E+04  0.00000000000E+00 0.  1.
         23    2    1    2    0    0 -0.29469200781E+03 -0.58080226743E+03 -0.94425190700E+03  0.11503774791E+04  0.87074837567E+02 0.  0.
        254    2    1    2    0    0  0.29469200781E+03  0.58080226743E+03 -0.30813299771E+03  0.11304753727E+04  0.87112224787E+03 0.  0.
        -24    2    4    4    0    0  0.38799997030E+03  0.76772317615E+03 -0.22191892092E+03  0.89190968640E+03  0.79448279229E+02 0.  0.
         24    2    4    4    0    0 -0.93307962491E+02 -0.18692090873E+03 -0.86214076794E+02  0.23856568632E+03  0.76386632791E+02 0.  0.
         11    1    3    3    0    0 -0.71632753323E+02 -0.16462179201E+03 -0.32922073141E+03  0.37499050087E+03  0.00000000000E+00 0. -1.
        -11    1    3    3    0    0 -0.22305925449E+03 -0.41618047542E+03 -0.61503117559E+03  0.77538697828E+03  0.00000000000E+00 0.  1.
          2    1    6    6  502    0 -0.81917294515E+02 -0.13334084772E+03 -0.28632866513E+02  0.15909137580E+03  0.00000000000E+00 0. -1.
          3    1    5    5  503    0  0.37264910740E+03  0.75876249976E+03 -0.22250219035E+03  0.87412534169E+03  0.00000000000E+00 0. -1.
         -4    1    5    5    0  503  0.15350862902E+02  0.89606763974E+01  0.58326943003E+00  0.17784344705E+02  0.00000000000E+00 0.  1.
         -3    1    6    6    0  502 -0.11390667976E+02 -0.53580061009E+02 -0.57581210281E+02  0.79474310517E+02  0.00000000000E+00 0.  1.
<mgrwt>
<rscale>  0 0.19062586E+04</rscale>
<asrwt>0</asrwt>
<pdfrwt beam="1">  1        1 0.79112920E-01 0.19062586E+04</pdfrwt>
<pdfrwt beam="2">  1       -1 0.27178752E+00 0.19062586E+04</pdfrwt>
<totfact> 0.20060918E+00</totfact>
</mgrwt>
</event>
<event>
12    1  0.1097093E-007  0.2436077E+04  0.7818608E-02  0.8426119E-01
          2   -1    0    0  501    0  0.00000000000E+00  0.00000000000E+00  0.16635785953E+04  0.16635785953E+04  0.00000000000E+00 0.  1.
         -2   -1    0    0    0  501 -0.00000000000E+00 -0.00000000000E+00 -0.89182337448E+03  0.89182337448E+03  0.00000000000E+00 0. -1.
         23    2    1    2    0    0 -0.13466469607E+03 -0.10318697038E+04  0.21074898055E+03  0.10657785448E+04  0.92623473078E+02 0.  0.
        254    2    1    2    0    0  0.13466469607E+03  0.10318697038E+04  0.56100624026E+03  0.14896234250E+04  0.90628929205E+03 0.  0.
        -24    2    4    4    0    0  0.16461164608E+03 -0.77827909865E+01 -0.14099880090E+03  0.23194799775E+03  0.82229228040E+02 0.  0.
         24    2    4    4    0    0 -0.29946950013E+02  0.10396524947E+04  0.70200504116E+03  0.12576754273E+04  0.84630212720E+02 0.  0.
         11    1    3    3    0    0 -0.14807267078E+03 -0.89490827788E+03  0.17975019581E+03  0.92471426644E+03  0.00000000000E+00 0. -1.
        -11    1    3    3    0    0  0.13407974712E+02 -0.13696142587E+03  0.30998784740E+02  0.14106427832E+03  0.00000000000E+00 0.  1.
          2    1    6    6  502    0  0.22062241891E+02  0.22998280185E+03  0.13155710239E+03  0.26586858192E+03  0.00000000000E+00 0. -1.
          1    1    5    5  503    0 -0.97617124183E+00 -0.11316047326E+02 -0.31277600877E+02  0.33276029721E+02  0.00000000000E+00 0. -1.
         -2    1    5    5    0  503  0.16558781733E+03  0.35332563391E+01 -0.10972120003E+03  0.19867196803E+03  0.00000000000E+00 0.  1.
         -1    1    6    6    0  502 -0.52009191904E+02  0.80966969289E+03  0.57044793877E+03  0.99180684535E+03  0.00000000000E+00 0.  1.
<mgrwt>
<rscale>  0 0.24360774E+04</rscale>
<asrwt>0</asrwt>
<pdfrwt beam="1">  1        2 0.25593517E+00 0.24360774E+04</pdfrwt>
<pdfrwt beam="2">  1       -2 0.13720360E+00 0.24360774E+04</pdfrwt>
<totfact> 0.34873319E+00</totfact>
</mgrwt>
</event>
<event>
12    1  0.1097093E-007  0.1529024E+04  0.7818608E-02  0.8865378E-01
          1   -1    0    0  501    0  0.00000000000E+00  0.00000000000E+00  0.18997518253E+04  0.18997518253E+04  0.00000000000E+00 0. -1.
         -1   -1    0    0    0  501 -0.00000000000E+00 -0.00000000000E+00 -0.30766063211E+03  0.30766063211E+03  0.00000000000E+00 0.  1.
         23    2    1    2    0    0  0.68518380354E+02 -0.22873860026E+03 -0.10049148591E+03  0.27525710236E+03  0.93015149114E+02 0.  0.
        254    2    1    2    0    0 -0.68518380354E+02  0.22873860026E+03  0.16925826791E+04  0.19321553550E+04  0.90076194121E+03 0.  0.
        -24    2    4    4    0    0 -0.27472558052E+03  0.18142723068E+03  0.16708847985E+04  0.17049372668E+04  0.81025238505E+02 0.  0.
         24    2    4    4    0    0  0.20620720016E+03  0.47311369584E+02  0.21697880575E+02  0.22721808821E+03  0.79984289076E+02 0.  0.
         13    1    3    3    0    0  0.54055192546E+02 -0.21054880291E+03 -0.55082908873E+02  0.22424738370E+03  0.00000000000E+00 0.  1.
        -13    1    3    3    0    0  0.14463187808E+02 -0.18189797349E+02 -0.45408577033E+02  0.51009718655E+02  0.00000000000E+00 0. -1.
          2    1    6    6  502    0  0.39130928037E+02 -0.87476167671E+01  0.31089747262E+02  0.50737783879E+02  0.00000000000E+00 0. -1.
          1    1    5    5  503    0 -0.45339657066E+02  0.36291944218E+02  0.16849581794E+03  0.17822354048E+03  0.00000000000E+00 0. -1.
         -2    1    5    5    0  503 -0.22938592345E+03  0.14513528646E+03  0.15023889806E+04  0.15267137263E+04  0.00000000000E+00 0.  1.
         -1    1    6    6    0  502  0.16707627212E+03  0.56058986351E+02 -0.93918666867E+01  0.17648030433E+03  0.00000000000E+00 0.  1.
<mgrwt>
<rscale>  0 0.15290243E+04</rscale>
<asrwt>0</asrwt>
<pdfrwt beam="1">  1        1 0.29226951E+00 0.15290243E+04</pdfrwt>
<pdfrwt beam="2">  1       -1 0.47332406E-01 0.15290243E+04</pdfrwt>
<totfact> 0.14986622E+01</totfact>
</mgrwt>
</event>
<event>
12    1  0.1097093E-007  0.1065538E+04  0.7818608E-02  0.9239448E-01
          2   -1    0    0  501    0  0.00000000000E+00  0.00000000000E+00  0.88095982888E+03  0.88095982888E+03  0.00000000000E+00 0. -1.
         -2   -1    0    0    0  501 -0.00000000000E+00 -0.00000000000E+00 -0.32219717855E+03  0.32219717855E+03  0.00000000000E+00 0.  1.
         23    2    1    2    0    0  0.76902581538E+02 -0.92492106868E+02  0.58122467067E+02  0.15852161754E+03  0.85335134446E+02 0.  0.
        254    2    1    2    0    0 -0.76902581538E+02  0.92492106868E+02  0.50064018326E+03  0.10446353899E+04  0.90892997961E+03 0.  0.
        -24    2    4    4    0    0  0.23907231627E+03 -0.30833562231E+03  0.18745629843E+03  0.44028678321E+03  0.80536695101E+02 0.  0.
         24    2    4    4    0    0 -0.31597489781E+03  0.40082772918E+03  0.31318388483E+03  0.60434860668E+03  0.81548072624E+02 0.  0.
         11    1    3    3    0    0  0.23615660761E+02 -0.85584081570E+01  0.53372744828E+02  0.58988097730E+02  0.00000000000E+00 0.  1.
        -11    1    3    3    0    0  0.53286920777E+02 -0.83933698711E+02  0.47497222383E+01  0.99533519813E+02  0.00000000000E+00 0. -1.
          4    1    6    6  502    0 -0.15784885791E+03  0.21932130988E+03  0.21097367899E+03  0.34282355831E+03  0.00000000000E+00 0. -1.
          3    1    5    5  503    0  0.24007913859E+02 -0.10778795235E+02 -0.33412415702E+01  0.26527839147E+02  0.00000000000E+00 0. -1.
         -4    1    5    5    0  503  0.21506440241E+03 -0.29755682707E+03  0.19079754000E+03  0.41375894407E+03  0.00000000000E+00 0.  1.
         -3    1    6    6    0  502 -0.15812603990E+03  0.18150641930E+03  0.10221020585E+03  0.26152504836E+03  0.00000000000E+00 0.  1.
<mgrwt>
<rscale>  0 0.10655379E+04</rscale>
<asrwt>0</asrwt>
<pdfrwt beam="1">  1        2 0.13553228E+00 0.10655379E+04</pdfrwt>
<pdfrwt beam="2">  1       -2 0.49568797E-01 0.10655379E+04</pdfrwt>
<totfact> 0.11575120E+02</totfact>
</mgrwt>
</event>
<event>
12    1  0.1097093E-007  0.1720052E+04  0.7818608E-02  0.8750010E-01
          2   -1    0    0  501    0  0.00000000000E+00  0.00000000000E+00  0.42598135602E+04  0.42598135602E+04  0.00000000000E+00 0.  1.
         -2   -1    0    0    0  501 -0.00000000000E+00 -0.00000000000E+00 -0.17363312243E+03  0.17363312243E+03  0.00000000000E+00 0. -1.
         23    2    1    2    0    0  0.55798793726E+03  0.27607495950E+03  0.15563311482E+04  0.16786479404E+04  0.90135139545E+02 0.  0.
        254    2    1    2    0    0 -0.55798793726E+03 -0.27607495950E+03  0.25298492895E+04  0.27547987422E+04  0.89510377119E+03 0.  0.
        -24    2    4    4    0    0 -0.48126950478E+02 -0.38446868433E+03  0.18618910473E+04  0.19037303063E+04  0.86130334506E+02 0.  0.
         24    2    4    4    0    0 -0.50986098678E+03  0.10839372483E+03  0.66795824220E+03  0.85106843592E+03  0.80261098146E+02 0.  0.
         13    1    3    3    0    0  0.29474012511E+03  0.10685199908E+03  0.85484183553E+03  0.91051834404E+03  0.00000000000E+00 0. -1.
        -13    1    3    3    0    0  0.26324781215E+03  0.16922296042E+03  0.70148931268E+03  0.76812959632E+03  0.00000000000E+00 0.  1.
          4    1    6    6  502    0 -0.21939923459E+03  0.72936640154E+02  0.24622175541E+03  0.33775868672E+03  0.00000000000E+00 0. -1.
          1    1    5    5  503    0 -0.18374698120E+02 -0.10134231360E+02  0.80466286807E+02  0.83157413914E+02  0.00000000000E+00 0. -1.
         -2    1    5    5    0  503 -0.29752252358E+02 -0.37433445297E+03  0.17814247605E+04  0.18205728924E+04  0.00000000000E+00 0.  1.
         -3    1    6    6    0  502 -0.29046175219E+03  0.35457084679E+02  0.42173648678E+03  0.51330974920E+03  0.00000000000E+00 0.  1.
<mgrwt>
<rscale>  0 0.17200520E+04</rscale>
<asrwt>0</asrwt>
<pdfrwt beam="1">  1        2 0.65535586E+00 0.17200520E+04</pdfrwt>
<pdfrwt beam="2">  1       -2 0.26712791E-01 0.17200520E+04</pdfrwt>
<totfact> 0.25415520E+00</totfact>
</mgrwt>
</event>
<event>
12    1  0.1097093E-007  0.1861563E+04  0.7818608E-02  0.8674229E-01
          1   -1    0    0  501    0  0.00000000000E+00  0.00000000000E+00  0.20189053361E+04  0.20189053361E+04  0.00000000000E+00 0. -1.
         -1   -1    0    0    0  501 -0.00000000000E+00 -0.00000000000E+00 -0.42912064512E+03  0.42912064512E+03  0.00000000000E+00 0.  1.
         23    2    1    2    0    0 -0.34686572318E+03  0.93066743223E+02 -0.18948974637E+03  0.41956349561E+03  0.10559315442E+03 0.  0.
        254    2    1    2    0    0  0.34686572318E+03 -0.93066743223E+02  0.17792744373E+04  0.20284624856E+04  0.90546412604E+03 0.  0.
        -24    2    4    4    0    0  0.59323637119E+03  0.61549669562E+02  0.15071051047E+04  0.16227506961E+04  0.78970064563E+02 0.  0.
         24    2    4    4    0    0 -0.24637064802E+03 -0.15461641279E+03  0.27216933265E+03  0.40571178954E+03  0.76949199003E+02 0.  0.
         13    1    3    3    0    0 -0.55690973919E+02  0.42866685885E+01  0.84037208446E+01  0.56484357371E+02  0.00000000000E+00 0. -1.
        -13    1    3    3    0    0 -0.29117474926E+03  0.88780074635E+02 -0.19789346721E+03  0.36307913824E+03  0.00000000000E+00 0.  1.
          2    1    6    6  502    0 -0.24040931585E+02  0.80131826046E+01  0.25463761112E+02  0.35924651939E+02  0.00000000000E+00 0. -1.
          3    1    5    5  503    0  0.16037042486E+03 -0.17255436899E+02  0.38019880763E+03  0.41299825253E+03  0.00000000000E+00 0. -1.
         -4    1    5    5    0  503  0.43286594633E+03  0.78805106461E+02  0.11269062971E+04  0.12097524435E+04  0.00000000000E+00 0.  1.
         -1    1    6    6    0  502 -0.22232971643E+03 -0.16262959539E+03  0.24670557154E+03  0.36978713760E+03  0.00000000000E+00 0.  1.
<mgrwt>
<rscale>  0 0.18615627E+04</rscale>
<asrwt>0</asrwt>
<pdfrwt beam="1">  1        1 0.31060081E+00 0.18615627E+04</pdfrwt>
<pdfrwt beam="2">  1       -1 0.66018562E-01 0.18615627E+04</pdfrwt>
<totfact> 0.63154952E+00</totfact>
</mgrwt>
</event>
<event>
12    1  0.1097093E-007  0.2728904E+04  0.7818608E-02  0.8325687E-01
          1   -1    0    0  501    0  0.00000000000E+00  0.00000000000E+00  0.10094247880E+04  0.10094247880E+04  0.00000000000E+00 0. -1.
         -1   -1    0    0    0  501 -0.00000000000E+00 -0.00000000000E+00 -0.18443460827E+04  0.18443460827E+04  0.00000000000E+00 0.  1.
         23    2    1    2    0    0  0.10486804049E+04  0.38003282298E+03  0.12906604267E+03  0.11269434939E+04  0.95854353160E+02 0.  0.
        254    2    1    2    0    0 -0.10486804049E+04 -0.38003282298E+03 -0.96398733734E+03  0.17268273767E+04  0.89916943024E+03 0.  0.
        -24    2    4    4    0    0  0.39861588958E+02 -0.32189208734E+03 -0.29282459190E+03  0.44420944235E+03  0.79826843093E+02 0.  0.
         24    2    4    4    0    0 -0.10885419939E+04 -0.58140735641E+02 -0.67116274544E+03  0.12826179344E+04  0.79657499212E+02 0.  0.
         11    1    3    3    0    0  0.36147346075E+03  0.10728638372E+03  0.39593232440E+01  0.37707970934E+03  0.00000000000E+00 0. -1.
        -11    1    3    3    0    0  0.68720694415E+03  0.27274643926E+03  0.12510671942E+03  0.74986378461E+03  0.00000000000E+00 0.  1.
          2    1    6    6  502    0 -0.36476972329E+03 -0.92887599855E+00 -0.18651070186E+03  0.40968775397E+03  0.00000000000E+00 0. -1.
          3    1    5    5  503    0  0.50709326411E+02 -0.11079699333E+03 -0.92410548044E+02  0.15292847644E+03  0.00000000000E+00 0. -1.
         -4    1    5    5    0  503 -0.10847737453E+02 -0.21109509402E+03 -0.20041404386E+03  0.29128096591E+03  0.00000000000E+00 0.  1.
         -1    1    6    6    0  502 -0.72377227057E+03 -0.57211859642E+02 -0.48465204358E+03  0.87293018041E+03  0.00000000000E+00 0.  1.
<mgrwt>
<rscale>  0 0.27289036E+04</rscale>
<asrwt>0</asrwt>
<pdfrwt beam="1">  1        1 0.15529612E+00 0.27289036E+04</pdfrwt>
<pdfrwt beam="2">  1       -1 0.28374555E+00 0.27289036E+04</pdfrwt>
<totfact> 0.54535632E-01</totfact>
</mgrwt>
</event>
<event>
12    1  0.1097093E-007  0.1631857E+04  0.7818608E-02  0.8801213E-01
          1   -1    0    0  501    0  0.00000000000E+00  0.00000000000E+00  0.20152677567E+04  0.20152677567E+04  0.00000000000E+00 0. -1.
         -1   -1    0    0    0  501 -0.00000000000E+00 -0.00000000000E+00 -0.33034786071E+03  0.33034786071E+03  0.00000000000E+00 0.  1.
         23    2    1    2    0    0 -0.10268670750E+03 -0.20596946228E+03  0.13621181777E+04  0.13843974866E+04  0.90677955511E+02 0.  0.
        254    2    1    2    0    0  0.10268670750E+03  0.20596946228E+03  0.32280171834E+03  0.96121813085E+03  0.87565482150E+03 0.  0.
        -24    2    4    4    0    0 -0.17008914073E+03  0.42103097019E+03 -0.27484778045E+02  0.46148577679E+03  0.77564911540E+02 0.  0.
         24    2    4    4    0    0  0.27277584822E+03 -0.21506150791E+03  0.35028649638E+03  0.49973235406E+03  0.79835334216E+02 0.  0.
         11    1    3    3    0    0 -0.46004475817E+02 -0.17127904128E+03  0.10866068663E+04  0.11009847427E+04  0.00000000000E+00 0. -1.
        -11    1    3    3    0    0 -0.56682231680E+02 -0.34690420996E+02  0.27551131141E+03  0.28341274391E+03  0.00000000000E+00 0.  1.
          4    1    6    6  502    0  0.19746296615E+03 -0.18827884431E+03  0.29893490910E+03  0.40472537120E+03  0.00000000000E+00 0. -1.
          3    1    5    5  503    0 -0.15489714969E+03  0.39441779360E+03 -0.55139371795E+01  0.42377933691E+03  0.00000000000E+00 0. -1.
         -4    1    5    5    0  503 -0.15191991036E+02  0.26613176590E+02 -0.21970840866E+02  0.37706439877E+02  0.00000000000E+00 0.  1.
         -3    1    6    6    0  502  0.75312882076E+02 -0.26782663597E+02  0.51351587288E+02  0.95006982864E+02  0.00000000000E+00 0.  1.
<mgrwt>
<rscale>  0 0.16318571E+04</rscale>
<asrwt>0</asrwt>
<pdfrwt beam="1">  1        1 0.31004118E+00 0.16318571E+04</pdfrwt>
<pdfrwt beam="2">  1       -1 0.50822749E-01 0.16318571E+04</pdfrwt>
<totfact> 0.10838622E+01</totfact>
</mgrwt>
</event>
<event>
12    1  0.1097093E-007  0.1684348E+04  0.7818608E-02  0.8770342E-01
         -1   -1    0    0    0  501 -0.00000000000E+00  0.00000000000E+00  0.72448210690E+03  0.72448210690E+03  0.00000000000E+00 0.  1.
          1   -1    0    0  501    0  0.00000000000E+00 -0.00000000000E+00 -0.97898509995E+03  0.97898509995E+03  0.00000000000E+00 0. -1.
         23    2    1    2    0    0  0.30069863031E+03  0.81946534329E+02  0.41881824988E+03  0.52971669729E+03  0.89756070487E+02 0.  0.
        254    2    1    2    0    0 -0.30069863031E+03 -0.81946534329E+02 -0.67332124293E+03  0.11737505096E+04  0.90950198556E+03 0.  0.
        -24    2    4    4    0    0 -0.36858597415E+02 -0.26674406477E+03 -0.77725058716E+03  0.82617471675E+03  0.77040476779E+02 0.  0.
         24    2    4    4    0    0 -0.26384003290E+03  0.18479753044E+03  0.10392934423E+03  0.34757579280E+03  0.79031214939E+02 0.  0.
         13    1    3    3    0    0  0.16467192971E+03  0.60468658471E+02  0.16439372387E+03  0.24041339301E+03  0.00000000000E+00 0. -1.
        -13    1    3    3    0    0  0.13602670060E+03  0.21477875858E+02  0.25442452601E+03  0.28930330427E+03  0.00000000000E+00 0.  1.
          4    1    6    6  502    0 -0.16039103852E+03  0.15725122711E+03  0.69777952741E+02  0.23520670984E+03  0.00000000000E+00 0. -1.
          1    1    5    5  503    0 -0.36291827188E+02 -0.20791835582E+03 -0.49948100150E+03  0.54224386605E+03  0.00000000000E+00 0. -1.
         -2    1    5    5    0  503 -0.56677022682E+00 -0.58825708947E+02 -0.27776958566E+03  0.28393085070E+03  0.00000000000E+00 0.  1.
         -3    1    6    6    0  502 -0.10344899438E+03  0.27546303326E+02  0.34151391489E+02  0.11236908296E+03  0.00000000000E+00 0.  1.
<mgrwt>
<rscale>  0 0.16843482E+04</rscale>
<asrwt>0</asrwt>
<pdfrwt beam="1">  1        1 0.15061309E+00 0.16843482E+04</pdfrwt>
<pdfrwt beam="2">  1       -1 0.11145879E+00 0.16843482E+04</pdfrwt>
<totfact> 0.11080689E+01</totfact>
</mgrwt>
</event>
<event>
12    1  0.1097093E-007  0.2319493E+04  0.7818608E-02  0.8470275E-01
         -1   -1    0    0    0  501 -0.00000000000E+00  0.00000000000E+00  0.53256953932E+03  0.53256953932E+03  0.00000000000E+00 0.  1.
          1   -1    0    0  501    0  0.00000000000E+00 -0.00000000000E+00 -0.25255133322E+04  0.25255133322E+04  0.00000000000E+00 0. -1.
         23    2    1    2    0    0  0.42680922097E+03  0.72635435214E+03 -0.21551671907E+03  0.87393602470E+03  0.86948048236E+02 0.  0.
        254    2    1    2    0    0 -0.42680922097E+03 -0.72635435214E+03 -0.17774270738E+04  0.21841468468E+04  0.94947021534E+03 0.  0.
        -24    2    4    4    0    0 -0.46928246597E+03  0.28709407490E+02 -0.93269653409E+03  0.10475692334E+04  0.80176125096E+02 0.  0.
         24    2    4    4    0    0  0.42473244995E+02 -0.75506375963E+03 -0.84473053972E+03  0.11365776135E+04  0.79458977172E+02 0.  0.
         11    1    3    3    0    0  0.25357685075E+02  0.13269496730E+02 -0.69194995338E+01  0.29444374838E+02  0.00000000000E+00 0. -1.
        -11    1    3    3    0    0  0.40145153590E+03  0.71308485541E+03 -0.20859721954E+03  0.84449164986E+03  0.00000000000E+00 0.  1.
          2    1    6    6  502    0  0.26361537182E+02 -0.73087978889E+03 -0.81329259445E+03  0.10937664470E+04  0.00000000000E+00 0. -1.
          3    1    5    5  503    0 -0.41111149360E+03  0.48027834534E+02 -0.84000426204E+03  0.93644353450E+03  0.00000000000E+00 0. -1.
         -4    1    5    5    0  503 -0.58170972361E+02 -0.19318427043E+02 -0.92692272054E+02  0.11112569886E+03  0.00000000000E+00 0.  1.
         -1    1    6    6    0  502  0.16111707813E+02 -0.24183970744E+02 -0.31437945266E+02  0.42811166442E+02  0.00000000000E+00 0.  1.
<mgrwt>
<rscale>  0 0.23194926E+04</rscale>
<asrwt>0</asrwt>
<pdfrwt beam="1">  1        1 0.38854051E+00 0.23194926E+04</pdfrwt>
<pdfrwt beam="2">  1       -1 0.81933776E-01 0.23194926E+04</pdfrwt>
<totfact> 0.17392026E+00</totfact>
</mgrwt>
</event>
<event>
12    1  0.1097093E-007  0.2716120E+04  0.7818608E-02  0.8329793E-01
         -1   -1    0    0    0  501 -0.00000000000E+00  0.00000000000E+00  0.93217970086E+03  0.93217970086E+03  0.00000000000E+00 0.  1.
          1   -1    0    0  501    0  0.00000000000E+00 -0.00000000000E+00 -0.19785107780E+04  0.19785107780E+04  0.00000000000E+00 0. -1.
         23    2    1    2    0    0 -0.44321523593E+02  0.78450901917E+03 -0.14347758526E+04  0.16383912135E+04  0.91242656593E+02 0.  0.
        254    2    1    2    0    0  0.44321523593E+02 -0.78450901917E+03  0.38844477552E+03  0.12722992654E+04  0.92219156278E+03 0.  0.
        -24    2    4    4    0    0  0.28649625116E+03  0.80804777528E+02  0.11826276509E+03  0.32987495649E+03  0.78878966213E+02 0.  0.
         24    2    4    4    0    0 -0.24217472757E+03 -0.86531379670E+03  0.27018201044E+03  0.94242430890E+03  0.88026665388E+02 0.  0.
         13    1    3    3    0    0 -0.41123172643E+01  0.46174975308E+03 -0.92178290648E+03  0.10309769504E+04  0.00000000000E+00 0. -1.
        -13    1    3    3    0    0 -0.40209206329E+02  0.32275926609E+03 -0.51299294616E+03  0.60741426303E+03  0.00000000000E+00 0.  1.
          2    1    6    6  502    0 -0.46910869270E+02 -0.83912453140E+02  0.44761778127E+02  0.10604501982E+03  0.00000000000E+00 0. -1.
          3    1    5    5  503    0  0.14380074755E+03  0.92056104341E+01  0.83301368501E+02  0.16644072895E+03  0.00000000000E+00 0. -1.
         -4    1    5    5    0  503  0.14269550361E+03  0.71599167094E+02  0.34961396585E+02  0.16343422754E+03  0.00000000000E+00 0.  1.
         -1    1    6    6    0  502 -0.19526385830E+03 -0.78140134356E+03  0.22542023231E+03  0.83637928908E+03  0.00000000000E+00 0.  1.
<mgrwt>
<rscale>  0 0.27161205E+04</rscale>
<asrwt>0</asrwt>
<pdfrwt beam="1">  1        1 0.30438627E+00 0.27161205E+04</pdfrwt>
<pdfrwt beam="2">  1       -1 0.14341226E+00 0.27161205E+04</pdfrwt>
<totfact> 0.10570347E+00</totfact>
</mgrwt>
</event>
<event>
12    1  0.1097093E-007  0.3202015E+04  0.7818608E-02  0.8188285E-01
          1   -1    0    0  501    0  0.00000000000E+00  0.00000000000E+00  0.24955786271E+04  0.24955786271E+04  0.00000000000E+00 0.  1.
         -1   -1    0    0    0  501 -0.00000000000E+00 -0.00000000000E+00 -0.10271065367E+04  0.10271065367E+04  0.00000000000E+00 0. -1.
         23    2    1    2    0    0  0.12485450998E+04 -0.76881298128E+03  0.65725333427E+03  0.16095277515E+04  0.93055741962E+02 0.  0.
        254    2    1    2    0    0 -0.12485450998E+04  0.76881298128E+03  0.81121875610E+03  0.19131574123E+04  0.92312358207E+03 0.  0.
        -24    2    4    4    0    0 -0.12534910030E+04  0.41199910559E+03  0.44314431398E+03  0.13941512899E+04  0.79359804078E+02 0.  0.
         24    2    4    4    0    0  0.49459032516E+01  0.35681387568E+03  0.36807444212E+03  0.51900612242E+03  0.80919443444E+02 0.  0.
         13    1    3    3    0    0  0.10649073247E+04 -0.65648976702E+03  0.59597423899E+03  0.13857098246E+04  0.00000000000E+00 0. -1.
        -13    1    3    3    0    0  0.18363777506E+03 -0.11232321425E+03  0.61279095278E+02  0.22381792691E+03  0.00000000000E+00 0.  1.
          2    1    6    6  502    0 -0.28689052772E+02  0.74215009053E+02  0.60429395784E+02  0.99913168264E+02  0.00000000000E+00 0. -1.
          3    1    5    5  503    0 -0.68659507263E+03  0.20487098007E+03  0.20436577864E+03  0.74508407829E+03  0.00000000000E+00 0. -1.
         -4    1    5    5    0  503 -0.56689593037E+03  0.20712812553E+03  0.23877853534E+03  0.64906721161E+03  0.00000000000E+00 0.  1.
         -1    1    6    6    0  502  0.33634956024E+02  0.28259886663E+03  0.30764504633E+03  0.41909295415E+03  0.00000000000E+00 0.  1.
<mgrwt>
<rscale>  0 0.32020151E+04</rscale>
<asrwt>0</asrwt>
<pdfrwt beam="1">  1        1 0.38393517E+00 0.32020151E+04</pdfrwt>
<pdfrwt beam="2">  1       -1 0.15801639E+00 0.32020151E+04</pdfrwt>
<totfact> 0.34521449E-01</totfact>
</mgrwt>
</event>
<event>
12    1  0.1097093E-007  0.1055030E+04  0.7818608E-02  0.9250166E-01
          1   -1    0    0  501    0  0.00000000000E+00  0.00000000000E+00  0.30359634119E+03  0.30359634119E+03  0.00000000000E+00 0. -1.
         -1   -1    0    0    0  501 -0.00000000000E+00 -0.00000000000E+00 -0.91658646765E+03  0.91658646765E+03  0.00000000000E+00 0.  1.
         23    2    1    2    0    0 -0.81404451355E+02  0.73980094712E+02 -0.40434821344E+02  0.14812827120E+03  0.90593988973E+02 0.  0.
        254    2    1    2    0    0  0.81404451355E+02 -0.73980094712E+02 -0.57255530512E+03  0.10720545376E+04  0.89965638726E+03 0.  0.
        -24    2    4    4    0    0 -0.38511215944E+03  0.13500665391E+02 -0.39863710719E+03  0.56032124400E+03  0.80961163088E+02 0.  0.
         24    2    4    4    0    0  0.46651661080E+03 -0.87480760103E+02 -0.17391819793E+03  0.51173329364E+03  0.79578845875E+02 0.  0.
         11    1    3    3    0    0 -0.26404867651E+00  0.11543193934E+02 -0.44193603818E+02  0.45677014639E+02  0.00000000000E+00 0.  1.
        -11    1    3    3    0    0 -0.81140402679E+02  0.62436900778E+02  0.37587824740E+01  0.10245125656E+03  0.00000000000E+00 0. -1.
          2    1    6    6  502    0  0.42574296761E+03 -0.76926880691E+02 -0.18109317733E+03  0.46900912391E+03  0.00000000000E+00 0. -1.
          1    1    5    5  503    0 -0.30752580522E+03 -0.19625240425E+02 -0.33058000458E+03  0.45192965201E+03  0.00000000000E+00 0. -1.
         -2    1    5    5    0  503 -0.77586354219E+02  0.33125905817E+02 -0.68057102611E+02  0.10839159198E+03  0.00000000000E+00 0.  1.
         -1    1    6    6    0  502  0.40773643189E+02 -0.10553879412E+02  0.71749793937E+01  0.42724169727E+02  0.00000000000E+00 0.  1.
<mgrwt>
<rscale>  0 0.10550304E+04</rscale>
<asrwt>0</asrwt>
<pdfrwt beam="1">  1        1 0.46707130E-01 0.10550304E+04</pdfrwt>
<pdfrwt beam="2">  1       -1 0.14101330E+00 0.10550304E+04</pdfrwt>
<totfact> 0.35486504E+01</totfact>
</mgrwt>
</event>
<event>
12    1  0.1097093E-007  0.1215137E+04  0.7818608E-02  0.9099710E-01
          1   -1    0    0  501    0  0.00000000000E+00  0.00000000000E+00  0.95230081497E+03  0.95230081497E+03  0.00000000000E+00 0. -1.
         -1   -1    0    0    0  501 -0.00000000000E+00 -0.00000000000E+00 -0.38762878052E+03  0.38762878052E+03  0.00000000000E+00 0.  1.
         23    2    1    2    0    0  0.21054520134E+03 -0.14648107000E+03  0.55097743842E+02  0.27689532234E+03  0.88596120008E+02 0.  0.
        254    2    1    2    0    0 -0.21054520134E+03  0.14648107000E+03  0.50957429061E+03  0.10630342732E+04  0.89698936592E+03 0.  0.
        -24    2    4    4    0    0 -0.15686285220E+03  0.46552731643E+03  0.53243304736E+03  0.72886794042E+03  0.80261372512E+02 0.  0.
         24    2    4    4    0    0 -0.53682349139E+02 -0.31904624642E+03 -0.22858756746E+02  0.33416633273E+03  0.80450688030E+02 0.  0.
         11    1    3    3    0    0  0.18231905624E+03 -0.15706887495E+03  0.43240661414E+02  0.24450076594E+03  0.00000000000E+00 0.  1.
        -11    1    3    3    0    0  0.28226145099E+02  0.10587804943E+02  0.11857082428E+02  0.32394556400E+02  0.00000000000E+00 0. -1.
          4    1    6    6  502    0  0.19129420413E+02 -0.82246603091E+02  0.65001851316E+01  0.84691740164E+02  0.00000000000E+00 0. -1.
          1    1    5    5  503    0 -0.89666777187E+02  0.27273109810E+03  0.25212788923E+03  0.38208749695E+03  0.00000000000E+00 0. -1.
         -2    1    5    5    0  503 -0.67196075011E+02  0.19279621833E+03  0.28030515813E+03  0.34678044347E+03  0.00000000000E+00 0.  1.
         -3    1    6    6    0  502 -0.72811769552E+02 -0.23679964333E+03 -0.29358941878E+02  0.24947459257E+03  0.00000000000E+00 0.  1.
<mgrwt>
<rscale>  0 0.12151365E+04</rscale>
<asrwt>0</asrwt>
<pdfrwt beam="1">  1        1 0.14650782E+00 0.12151365E+04</pdfrwt>
<pdfrwt beam="2">  1       -1 0.59635198E-01 0.12151365E+04</pdfrwt>
<totfact> 0.46517497E+01</totfact>
</mgrwt>
</event>
<event>
12    1  0.1097093E-007  0.1331459E+04  0.7818608E-02  0.9004983E-01
         -1   -1    0    0    0  501 -0.00000000000E+00  0.00000000000E+00  0.28235894877E+03  0.28235894877E+03  0.00000000000E+00 0.  1.
          1   -1    0    0  501    0  0.00000000000E+00 -0.00000000000E+00 -0.15696184454E+04  0.15696184454E+04  0.00000000000E+00 0. -1.
         23    2    1    2    0    0  0.73335059358E+02 -0.22276449033E+03  0.81852067331E+01  0.25260255476E+03  0.93482639999E+02 0.  0.
        254    2    1    2    0    0 -0.73335059358E+02  0.22276449033E+03 -0.12954447034E+04  0.15993748394E+04  0.90819648116E+03 0.  0.
        -24    2    4    4    0    0 -0.22787188395E+03  0.34162261250E+02 -0.13193861380E+04  0.13418189136E+04  0.81274598103E+02 0.  0.
         24    2    4    4    0    0  0.15453682459E+03  0.18860222908E+03  0.23941434621E+02  0.25755592578E+03  0.79431930888E+02 0.  0.
         13    1    3    3    0    0  0.62152167368E+02 -0.22913258559E+03  0.15287095731E+02  0.23790403314E+03  0.00000000000E+00 0.  1.
        -13    1    3    3    0    0  0.11182891990E+02  0.63680952638E+01 -0.71018889975E+01  0.14698521622E+02  0.00000000000E+00 0. -1.
          2    1    6    6  502    0  0.14006247926E+03  0.18471615184E+03  0.30360565034E+01  0.23183350165E+03  0.00000000000E+00 0. -1.
          1    1    5    5  503    0 -0.16178824997E+03 -0.52653235355E+00 -0.10455652633E+04  0.10580087121E+04  0.00000000000E+00 0. -1.
         -2    1    5    5    0  503 -0.66083633982E+02  0.34688793603E+02 -0.27382087469E+03  0.28381020154E+03  0.00000000000E+00 0.  1.
         -1    1    6    6    0  502  0.14474345333E+02  0.38860772401E+01  0.20905378117E+02  0.25722424135E+02  0.00000000000E+00 0.  1.
<mgrwt>
<rscale>  0 0.13314591E+04</rscale>
<asrwt>0</asrwt>
<pdfrwt beam="1">  1        1 0.24147976E+00 0.13314591E+04</pdfrwt>
<pdfrwt beam="2">  1       -1 0.43439838E-01 0.13314591E+04</pdfrwt>
<totfact> 0.30018635E+01</totfact>
</mgrwt>
</event>
<event>
12    1  0.1097093E-007  0.2039977E+04  0.7818608E-02  0.8588155E-01
          2   -1    0    0  501    0  0.00000000000E+00  0.00000000000E+00  0.97046066447E+03  0.97046066447E+03  0.00000000000E+00 0.  1.
         -2   -1    0    0    0  501 -0.00000000000E+00 -0.00000000000E+00 -0.10720437137E+04  0.10720437137E+04  0.00000000000E+00 0. -1.
         23    2    1    2    0    0 -0.76698709866E+03  0.21207745090E+03 -0.82569107384E+02  0.80532933870E+03  0.92150049275E+02 0.  0.
        254    2    1    2    0    0  0.76698709866E+03 -0.21207745090E+03 -0.19013941824E+02  0.12371750394E+04  0.94709793239E+03 0.  0.
        -24    2    4    4    0    0  0.16927970566E+02 -0.39092096827E+03 -0.19229999739E+03  0.44265792313E+03  0.76557091749E+02 0.  0.
         24    2    4    4    0    0  0.75005912810E+03  0.17884351737E+03  0.17328605557E+03  0.79451711630E+03  0.81582422735E+02 0.  0.
         11    1    3    3    0    0 -0.56291969338E+03  0.12773908777E+03 -0.90997785089E+02  0.58435986569E+03  0.00000000000E+00 0.  1.
        -11    1    3    3    0    0 -0.20406740528E+03  0.84338363125E+02  0.84286777042E+01  0.22096947301E+03  0.00000000000E+00 0. -1.
          2    1    6    6  502    0  0.58690143256E+03  0.13459869207E+03  0.16903119055E+03  0.62541317769E+03  0.00000000000E+00 0. -1.
          1    1    5    5  503    0  0.36002303707E+02 -0.35911085473E+03 -0.16642905751E+03  0.39743603642E+03  0.00000000000E+00 0. -1.
         -2    1    5    5    0  503 -0.19074333141E+02 -0.31810113535E+02 -0.25870939878E+02  0.45221886715E+02  0.00000000000E+00 0.  1.
         -1    1    6    6    0  502  0.16315769553E+03  0.44244825299E+02  0.42548650149E+01  0.16910393861E+03  0.00000000000E+00 0.  1.
<mgrwt>
<rscale>  0 0.20399767E+04</rscale>
<asrwt>0</asrwt>
<pdfrwt beam="1">  1        2 0.14930164E+00 0.20399767E+04</pdfrwt>
<pdfrwt beam="2">  1       -2 0.16492980E+00 0.20399767E+04</pdfrwt>
<totfact> 0.56492063E+00</totfact>
</mgrwt>
</event>
<event>
12    1  0.1097093E-007  0.3175182E+04  0.7818608E-02  0.8195402E-01
          2   -1    0    0  501    0  0.00000000000E+00  0.00000000000E+00  0.13750643067E+04  0.13750643067E+04  0.00000000000E+00 0. -1.
         -2   -1    0    0    0  501 -0.00000000000E+00 -0.00000000000E+00 -0.18329656958E+04  0.18329656958E+04  0.00000000000E+00 0.  1.
         23    2    1    2    0    0  0.83256285829E+03 -0.43359522723E+03  0.92017314229E+03  0.13176361507E+04  0.90998240663E+02 0.  0.
        254    2    1    2    0    0 -0.83256285829E+03  0.43359522723E+03 -0.13780745314E+04  0.18903938518E+04  0.89069285776E+03 0.  0.
        -24    2    4    4    0    0 -0.56196334780E+02  0.44148926517E+03 -0.80038167850E+03  0.91928519399E+03  0.80022729937E+02 0.  0.
         24    2    4    4    0    0 -0.77636652351E+03 -0.78940379359E+01 -0.57769285287E+03  0.97110865782E+03  0.80719875963E+02 0.  0.
         13    1    3    3    0    0  0.19921554101E+03 -0.10772558736E+03  0.27845794778E+03  0.35892960679E+03  0.00000000000E+00 0.  1.
        -13    1    3    3    0    0  0.63334731728E+03 -0.32586963987E+03  0.64171519451E+03  0.95870654392E+03  0.00000000000E+00 0. -1.
          2    1    6    6  502    0 -0.72926033545E+03 -0.13574001556E+02 -0.56312831621E+03  0.92147620203E+03  0.00000000000E+00 0. -1.
          3    1    5    5  503    0 -0.29964629301E+02  0.27641423266E+03 -0.57495715223E+03  0.63865361028E+03  0.00000000000E+00 0. -1.
         -4    1    5    5    0  503 -0.26231705479E+02  0.16507503251E+03 -0.22542452628E+03  0.28063158371E+03  0.00000000000E+00 0.  1.
         -1    1    6    6    0  502 -0.47106188056E+02  0.56799636205E+01 -0.14564536657E+02  0.49632455792E+02  0.00000000000E+00 0.  1.
<mgrwt>
<rscale>  0 0.31751823E+04</rscale>
<asrwt>0</asrwt>
<pdfrwt beam="1">  1        2 0.21154835E+00 0.31751823E+04</pdfrwt>
<pdfrwt beam="2">  1       -2 0.28199472E+00 0.31751823E+04</pdfrwt>
<totfact> 0.51672491E-01</totfact>
</mgrwt>
</event>
<event>
12    1  0.1097093E-007  0.1878007E+04  0.7818608E-02  0.8665882E-01
          2   -1    0    0  501    0  0.00000000000E+00  0.00000000000E+00  0.12142022166E+04  0.12142022166E+04  0.00000000000E+00 0. -1.
         -2   -1    0    0    0  501 -0.00000000000E+00 -0.00000000000E+00 -0.72617870525E+03  0.72617870525E+03  0.00000000000E+00 0.  1.
         23    2    1    2    0    0 -0.18765632155E+03  0.61494918632E+03 -0.14300542869E+03  0.66469658641E+03  0.89406949279E+02 0.  0.
        254    2    1    2    0    0  0.18765632155E+03 -0.61494918632E+03  0.63102894008E+03  0.12756843355E+04  0.90321404097E+03 0.  0.
        -24    2    4    4    0    0 -0.32108614496E+03 -0.45777557157E+03  0.38563500384E+03  0.68392171494E+03  0.79873459742E+02 0.  0.
         24    2    4    4    0    0  0.50874246651E+03 -0.15717361475E+03  0.24539393624E+03  0.59176262054E+03  0.80264392647E+02 0.  0.
         11    1    3    3    0    0 -0.33831656487E+02  0.47299687191E+02  0.45967408359E+01  0.58334993060E+02  0.00000000000E+00 0. -1.
        -11    1    3    3    0    0 -0.15382466506E+03  0.56764949913E+03 -0.14760216952E+03  0.60636159335E+03  0.00000000000E+00 0.  1.
          4    1    6    6  502    0  0.25033219164E+03 -0.73200921220E+02  0.76362237309E+02  0.27176418514E+03  0.00000000000E+00 0. -1.
          3    1    5    5  503    0 -0.95985519277E+02 -0.10723836267E+03  0.63475715661E+02  0.15729733888E+03  0.00000000000E+00 0. -1.
         -4    1    5    5    0  503 -0.22510062568E+03 -0.35053720890E+03  0.32215928818E+03  0.52662437606E+03  0.00000000000E+00 0.  1.
         -3    1    6    6    0  502  0.25841027487E+03 -0.83972693525E+02  0.16903169893E+03  0.31999843540E+03  0.00000000000E+00 0.  1.
<mgrwt>
<rscale>  0 0.18780072E+04</rscale>
<asrwt>0</asrwt>
<pdfrwt beam="1">  1        2 0.18680034E+00 0.18780072E+04</pdfrwt>
<pdfrwt beam="2">  1       -2 0.11171980E+00 0.18780072E+04</pdfrwt>
<totfact> 0.11028480E+01</totfact>
</mgrwt>
</event>
<event>
12    1  0.1097093E-007  0.2417055E+04  0.7818608E-02  0.8433146E-01
          2   -1    0    0  501    0  0.00000000000E+00  0.00000000000E+00  0.19771337465E+04  0.19771337465E+04  0.00000000000E+00 0. -1.
         -2   -1    0    0    0  501 -0.00000000000E+00 -0.00000000000E+00 -0.73871526532E+03  0.73871526532E+03  0.00000000000E+00 0.  1.
         23    2    1    2    0    0 -0.51131225453E+03  0.80054632775E+03  0.62907582917E+02  0.95645586416E+03  0.92389456087E+02 0.  0.
        254    2    1    2    0    0  0.51131225453E+03 -0.80054632775E+03  0.11755108983E+04  0.17593931477E+04  0.90073510626E+03 0.  0.
        -24    2    4    4    0    0  0.29441927747E+03 -0.84815114904E+03  0.12218470342E+04  0.15182787434E+04  0.78848495108E+02 0.  0.
         24    2    4    4    0    0  0.21689297706E+03  0.47604821293E+02 -0.46336135916E+02  0.24111440427E+03  0.81733322113E+02 0.  0.
         13    1    3    3    0    0 -0.32427223677E+03  0.51450632851E+03  0.84495707574E+02  0.61401039910E+03  0.00000000000E+00 0.  1.
        -13    1    3    3    0    0 -0.18704001776E+03  0.28603999924E+03 -0.21588124657E+02  0.34244546506E+03  0.00000000000E+00 0. -1.
          2    1    6    6  502    0  0.18502059699E+02  0.32665127080E+02 -0.10253635636E+02  0.38916240620E+02  0.00000000000E+00 0. -1.
          1    1    5    5  503    0  0.16596213606E+02 -0.22065906038E+02  0.58321270114E+02  0.64526808870E+02  0.00000000000E+00 0. -1.
         -2    1    5    5    0  503  0.27782306386E+03 -0.82608524300E+03  0.11635257641E+04  0.14537519346E+04  0.00000000000E+00 0.  1.
         -1    1    6    6    0  502  0.19839091736E+03  0.14939694214E+02 -0.36082500280E+02  0.20219816365E+03  0.00000000000E+00 0.  1.
<mgrwt>
<rscale>  0 0.24170551E+04</rscale>
<asrwt>0</asrwt>
<pdfrwt beam="1">  1        2 0.30417442E+00 0.24170551E+04</pdfrwt>
<pdfrwt beam="2">  1       -2 0.11364850E+00 0.24170551E+04</pdfrwt>
<totfact> 0.37494182E+00</totfact>
</mgrwt>
</event>
<event>
12    1  0.1097093E-007  0.2078946E+04  0.7818608E-02  0.8570575E-01
         -2   -1    0    0    0  501 -0.00000000000E+00  0.00000000000E+00  0.66153318618E+03  0.66153318618E+03  0.00000000000E+00 0.  1.
          2   -1    0    0  501    0  0.00000000000E+00 -0.00000000000E+00 -0.16333327157E+04  0.16333327157E+04  0.00000000000E+00 0. -1.
         23    2    1    2    0    0  0.79426981630E+03  0.26525128925E+03 -0.56948916378E+03  0.10170504862E+04  0.94079733082E+02 0.  0.
        254    2    1    2    0    0 -0.79426981630E+03 -0.26525128925E+03 -0.40231036578E+03  0.12778154158E+04  0.87734589462E+03 0.  0.
        -24    2    4    4    0    0  0.18411799449E+03 -0.26189874260E+02 -0.76365197819E+02  0.21634526088E+03  0.79926735555E+02 0.  0.
         24    2    4    4    0    0 -0.97838781079E+03 -0.23906141499E+03 -0.32594516796E+03  0.10614701549E+04  0.78010055474E+02 0.  0.
         11    1    3    3    0    0  0.55727003210E+03  0.20683407873E+03 -0.44838283692E+03  0.74456523774E+03  0.00000000000E+00 0. -1.
        -11    1    3    3    0    0  0.23699978420E+03  0.58417210515E+02 -0.12110632686E+03  0.27248524841E+03  0.00000000000E+00 0.  1.
          2    1    6    6  502    0 -0.74800931936E+03 -0.15906240277E+03 -0.22144842147E+03  0.79615211687E+03  0.00000000000E+00 0. -1.
          3    1    5    5  503    0  0.16529013193E+03 -0.17093303326E+02 -0.34741493789E+02  0.16976448428E+03  0.00000000000E+00 0. -1.
         -4    1    5    5    0  503  0.18827862565E+02 -0.90965709340E+01 -0.41623704030E+02  0.46580776600E+02  0.00000000000E+00 0.  1.
         -1    1    6    6    0  502 -0.23037849144E+03 -0.79999012218E+02 -0.10449674649E+03  0.26531803802E+03  0.00000000000E+00 0.  1.
<mgrwt>
<rscale>  0 0.20789457E+04</rscale>
<asrwt>0</asrwt>
<pdfrwt beam="1">  1        2 0.25128195E+00 0.20789457E+04</pdfrwt>
<pdfrwt beam="2">  1       -2 0.10177434E+00 0.20789457E+04</pdfrwt>
<totfact> 0.78125674E+00</totfact>
</mgrwt>
</event>
<event>
12    1  0.1097093E-007  0.1014342E+04  0.7818608E-02  0.9292953E-01
         -2   -1    0    0    0  501 -0.00000000000E+00  0.00000000000E+00  0.27052673278E+03  0.27052673278E+03  0.00000000000E+00 0.  1.
          2   -1    0    0  501    0  0.00000000000E+00 -0.00000000000E+00 -0.95082036089E+03  0.95082036089E+03  0.00000000000E+00 0. -1.
         23    2    1    2    0    0  0.12147807460E+02  0.72664390644E+02 -0.59337671239E+02  0.12599900927E+03  0.83229250955E+02 0.  0.
        254    2    1    2    0    0 -0.12147807460E+02 -0.72664390644E+02 -0.62095595687E+03  0.10953480844E+04  0.89931832114E+03 0.  0.
        -24    2    4    4    0    0 -0.19923806019E+03 -0.41342574788E+03 -0.49289572313E+03  0.67806265724E+03  0.78778928852E+02 0.  0.
         24    2    4    4    0    0  0.18709025273E+03  0.34076135723E+03 -0.12806023373E+03  0.41728542716E+03  0.81281234027E+02 0.  0.
         13    1    3    3    0    0  0.13783780807E+02 -0.14958119503E-01 -0.50993942349E+02  0.52824000164E+02  0.00000000000E+00 0.  1.
        -13    1    3    3    0    0 -0.16359733466E+01  0.72679348764E+02 -0.83437288901E+01  0.73175009103E+02  0.00000000000E+00 0. -1.
          2    1    6    6  502    0  0.18569412846E+03  0.32744924823E+03 -0.10531164082E+03  0.39089111170E+03  0.00000000000E+00 0. -1.
          1    1    5    5  503    0 -0.10084743567E+03 -0.27762174392E+03 -0.27943284857E+03  0.40660392871E+03  0.00000000000E+00 0. -1.
         -2    1    5    5    0  503 -0.98390624516E+02 -0.13580400396E+03 -0.21346287456E+03  0.27145872854E+03  0.00000000000E+00 0.  1.
         -1    1    6    6    0  502  0.13961242716E+01  0.13312108999E+02 -0.22748592915E+02  0.26394315460E+02  0.00000000000E+00 0.  1.
<mgrwt>
<rscale>  0 0.10143418E+04</rscale>
<asrwt>0</asrwt>
<pdfrwt beam="1">  1        2 0.14628006E+00 0.10143418E+04</pdfrwt>
<pdfrwt beam="2">  1       -2 0.41619496E-01 0.10143418E+04</pdfrwt>
<totfact> 0.14786941E+02</totfact>
</mgrwt>
</event>
<event>
12    1  0.1097093E-007  0.1004932E+04  0.7818608E-02  0.9303152E-01
          2   -1    0    0  501    0  0.00000000000E+00  0.00000000000E+00  0.53253397168E+03  0.53253397168E+03  0.00000000000E+00 0. -1.
         -2   -1    0    0    0  501 -0.00000000000E+00 -0.00000000000E+00 -0.47409555330E+03  0.47409555330E+03  0.00000000000E+00 0.  1.
         23    2    1    2    0    0 -0.83088588360E+01 -0.52882694726E+02  0.17558503386E+02  0.10680000449E+03  0.90732151858E+02 0.  0.
        254    2    1    2    0    0  0.83088588360E+01  0.52882694726E+02  0.40879914991E+02  0.89982952049E+03  0.89730506627E+03 0.  0.
        -24    2    4    4    0    0  0.10851054768E+03 -0.21390516049E+02  0.44687068036E+03  0.46715753025E+03  0.79439662424E+02 0.  0.
         24    2    4    4    0    0 -0.10020168884E+03  0.74273210775E+02 -0.40599076537E+03  0.43267199025E+03  0.82581240563E+02 0.  0.
         13    1    3    3    0    0  0.25992476359E+02  0.44683313567E+01  0.28781821915E+02  0.39038033828E+02  0.00000000000E+00 0.  1.
        -13    1    3    3    0    0 -0.34301335195E+02 -0.57351026083E+02 -0.11223318530E+02  0.67761970660E+02  0.00000000000E+00 0. -1.
          4    1    6    6  502    0 -0.11114606759E+03  0.77199833882E+02 -0.34412199472E+03  0.36977453934E+03  0.00000000000E+00 0. -1.
          3    1    5    5  503    0  0.11675957866E+03 -0.73726566649E+01  0.41752166152E+03  0.43360292101E+03  0.00000000000E+00 0. -1.
         -4    1    5    5    0  503 -0.82490309787E+01 -0.14017859384E+02  0.29349018844E+02  0.33554609235E+02  0.00000000000E+00 0.  1.
         -3    1    6    6    0  502  0.10944378752E+02 -0.29266231067E+01 -0.61868770646E+02  0.62897450905E+02  0.00000000000E+00 0.  1.
<mgrwt>
<rscale>  0 0.10049318E+04</rscale>
<asrwt>0</asrwt>
<pdfrwt beam="1">  1        2 0.81928303E-01 0.10049318E+04</pdfrwt>
<pdfrwt beam="2">  1       -2 0.72937777E-01 0.10049318E+04</pdfrwt>
<totfact> 0.97034828E+01</totfact>
</mgrwt>
</event>
<event>
12    1  0.1097093E-007  0.1327052E+04  0.7818608E-02  0.9008383E-01
         -1   -1    0    0    0  501 -0.00000000000E+00  0.00000000000E+00  0.19028904297E+03  0.19028904297E+03  0.00000000000E+00 0.  1.
          1   -1    0    0  501    0  0.00000000000E+00 -0.00000000000E+00 -0.23136745697E+04  0.23136745697E+04  0.00000000000E+00 0. -1.
         23    2    1    2    0    0  0.28619808359E+03  0.63005713785E+01 -0.17914341227E+03  0.34992796185E+03  0.91696107198E+02 0.  0.
        254    2    1    2    0    0 -0.28619808359E+03 -0.63005713785E+01 -0.19442421145E+04  0.21540356509E+04  0.88195416271E+03 0.  0.
        -24    2    4    4    0    0 -0.14525850575E+03  0.18211584894E+03 -0.18826942222E+04  0.18987378157E+04  0.80009641113E+02 0.  0.
         24    2    4    4    0    0 -0.14093957784E+03 -0.18841642032E+03 -0.61547892310E+02  0.25529783513E+03  0.77615266074E+02 0.  0.
         11    1    3    3    0    0 -0.36122582538E+01  0.95024775094E+01 -0.10458053106E+02  0.14584799048E+02  0.00000000000E+00 0. -1.
        -11    1    3    3    0    0  0.28981034184E+03 -0.32019061309E+01 -0.16868535916E+03  0.33534316280E+03  0.00000000000E+00 0.  1.
          4    1    6    6  502    0 -0.90885142223E+02 -0.57789656340E+02 -0.31562965533E+02  0.11223178805E+03  0.00000000000E+00 0. -1.
          1    1    5    5  503    0 -0.60363841579E+02  0.93966927885E+02 -0.11977870564E+04  0.12029827137E+04  0.00000000000E+00 0. -1.
         -4    1    5    5    0  503 -0.84894664167E+02  0.88148921054E+02 -0.68490716578E+03  0.69575510204E+03  0.00000000000E+00 0.  1.
         -3    1    6    6    0  502 -0.50054435618E+02 -0.13062676398E+03 -0.29984926777E+02  0.14306604708E+03  0.00000000000E+00 0.  1.
<mgrwt>
<rscale>  0 0.13270523E+04</rscale>
<asrwt>0</asrwt>
<pdfrwt beam="1">  1        1 0.35594991E+00 0.13270523E+04</pdfrwt>
<pdfrwt beam="2">  1       -1 0.29275239E-01 0.13270523E+04</pdfrwt>
<totfact> 0.19078516E+01</totfact>
</mgrwt>
</event>
<event>
12    1  0.1097093E-007  0.1196761E+04  0.7818608E-02  0.9115697E-01
          2   -1    0    0  501    0  0.00000000000E+00  0.00000000000E+00  0.73031231562E+03  0.73031231562E+03  0.00000000000E+00 0. -1.
         -2   -1    0    0    0  501 -0.00000000000E+00 -0.00000000000E+00 -0.49028211961E+03  0.49028211961E+03  0.00000000000E+00 0.  1.
         23    2    1    2    0    0 -0.11286742510E+03  0.15053614232E+03 -0.11531978593E+03  0.23872941172E+03  0.91065323812E+02 0.  0.
        254    2    1    2    0    0  0.11286742510E+03 -0.15053614232E+03  0.35534998194E+03  0.98186502351E+03  0.89575952629E+03 0.  0.
        -24    2    4    4    0    0  0.41135853363E+03  0.19434514290E+02 -0.70835742719E+02  0.42711642064E+03  0.88414878829E+02 0.  0.
         24    2    4    4    0    0 -0.29849110853E+03 -0.16997065661E+03  0.42618572466E+03  0.55474860287E+03  0.90137531070E+02 0.  0.
         11    1    3    3    0    0 -0.98656558758E+02  0.11506030862E+03 -0.12808422096E+03  0.19843779596E+03  0.00000000000E+00 0.  1.
        -11    1    3    3    0    0 -0.14210866342E+02  0.35475833706E+02  0.12764435033E+02  0.40291615766E+02  0.00000000000E+00 0. -1.
          4    1    6    6  502    0 -0.32080321781E+02 -0.22635928252E+02  0.10550654965E+03  0.11257514962E+03  0.00000000000E+00 0. -1.
          1    1    5    5  503    0  0.13093466566E+03  0.33993684413E+02  0.78363423294E+01  0.13550227124E+03  0.00000000000E+00 0. -1.
         -2    1    5    5    0  503  0.28042386797E+03 -0.14559170122E+02 -0.78672085048E+02  0.29161414940E+03  0.00000000000E+00 0.  1.
         -3    1    6    6    0  502 -0.26641078675E+03 -0.14733472836E+03  0.32067917501E+03  0.44217345325E+03  0.00000000000E+00 0.  1.
<mgrwt>
<rscale>  0 0.11967607E+04</rscale>
<asrwt>0</asrwt>
<pdfrwt beam="1">  1        2 0.11235574E+00 0.11967607E+04</pdfrwt>
<pdfrwt beam="2">  1       -2 0.75428019E-01 0.11967607E+04</pdfrwt>
<totfact> 0.60430229E+01</totfact>
</mgrwt>
</event>
<event>
12    1  0.1097093E-007  0.1514706E+04  0.7818608E-02  0.8874732E-01
         -2   -1    0    0    0  501 -0.00000000000E+00  0.00000000000E+00  0.14051613953E+03  0.14051613953E+03  0.00000000000E+00 0.  1.
          2   -1    0    0  501    0  0.00000000000E+00 -0.00000000000E+00 -0.40819756987E+04  0.40819756987E+04  0.00000000000E+00 0. -1.
         23    2    1    2    0    0 -0.38318956980E+03 -0.27877591160E+03 -0.15401282912E+04  0.16140067153E+04  0.92044927363E+02 0.  0.
        254    2    1    2    0    0  0.38318956980E+03  0.27877591160E+03 -0.24013312680E+04  0.26084851229E+04  0.90180514654E+03 0.  0.
        -24    2    4    4    0    0  0.65968006441E+03  0.90831883857E+02 -0.14478296068E+04  0.15955658762E+04  0.78687207095E+02 0.  0.
         24    2    4    4    0    0 -0.27649049460E+03  0.18794402774E+03 -0.95350166120E+03  0.10129192467E+04  0.71204151275E+02 0.  0.
         11    1    3    3    0    0 -0.23063862439E+03 -0.12189693311E+03 -0.74674304448E+03  0.79099823757E+03  0.00000000000E+00 0. -1.
        -11    1    3    3    0    0 -0.15255094542E+03 -0.15687897849E+03 -0.79338524667E+03  0.82300847777E+03  0.00000000000E+00 0.  1.
          4    1    6    6  502    0 -0.15296096916E+03  0.10107971424E+03 -0.62564396674E+03  0.65195440012E+03  0.00000000000E+00 0. -1.
          1    1    5    5  503    0  0.53538311338E+03  0.86469453227E+02 -0.11058554050E+04  0.12316769955E+04  0.00000000000E+00 0. -1.
         -2    1    5    5    0  503  0.12429695103E+03  0.43624306301E+01 -0.34197420176E+03  0.36388888072E+03  0.00000000000E+00 0.  1.
         -3    1    6    6    0  502 -0.12352952544E+03  0.86864313503E+02 -0.32785769446E+03  0.36096484653E+03  0.00000000000E+00 0.  1.
<mgrwt>
<rscale>  0 0.15147059E+04</rscale>
<asrwt>0</asrwt>
<pdfrwt beam="1">  1        2 0.62799630E+00 0.15147059E+04</pdfrwt>
<pdfrwt beam="2">  1       -2 0.21617866E-01 0.15147059E+04</pdfrwt>
<totfact> 0.54001926E+00</totfact>
</mgrwt>
</event>
<event>
12    1  0.1097093E-007  0.2038679E+04  0.7818608E-02  0.8588747E-01
          2   -1    0    0  501    0  0.00000000000E+00  0.00000000000E+00  0.21860986062E+04  0.21860986062E+04  0.00000000000E+00 0. -1.
         -2   -1    0    0    0  501 -0.00000000000E+00 -0.00000000000E+00 -0.47530030902E+03  0.47530030902E+03  0.00000000000E+00 0.  1.
         23    2    1    2    0    0 -0.19823045872E+03 -0.39037447720E+03  0.15928882111E+04  0.16545367419E+04  0.92257412867E+02 0.  0.
        254    2    1    2    0    0  0.19823045872E+03  0.39037447720E+03  0.11791008612E+03  0.10068621733E+04  0.89898893230E+03 0.  0.
        -24    2    4    4    0    0  0.46738653698E+03 -0.32582973180E+02 -0.30075153608E+02  0.47744974603E+03  0.86844228544E+02 0.  0.
         24    2    4    4    0    0 -0.26915607825E+03  0.42295745037E+03  0.14798523972E+03  0.52941242727E+03  0.83904038543E+02 0.  0.
         11    1    3    3    0    0 -0.20421392915E+03 -0.37122224688E+03  0.15547085928E+04  0.16114056267E+04  0.00000000000E+00 0. -1.
        -11    1    3    3    0    0  0.59834704292E+01 -0.19152230320E+02  0.38179618268E+02  0.43131115169E+02  0.00000000000E+00 0.  1.
          4    1    6    6  502    0 -0.22636729157E+03  0.33158826045E+03  0.14974518296E+03  0.42850501162E+03  0.00000000000E+00 0. -1.
          1    1    5    5  503    0  0.19738327170E+03 -0.42677086526E+02 -0.44811211972E+02  0.20685631336E+03  0.00000000000E+00 0. -1.
         -2    1    5    5    0  503  0.27000326528E+03  0.10094113346E+02  0.14736058364E+02  0.27059343267E+03  0.00000000000E+00 0.  1.
         -3    1    6    6    0  502 -0.42788786678E+02  0.91369189925E+02 -0.17599432392E+01  0.10090741565E+03  0.00000000000E+00 0.  1.
<mgrwt>
<rscale>  0 0.20386793E+04</rscale>
<asrwt>0</asrwt>
<pdfrwt beam="1">  1        2 0.33632286E+00 0.20386793E+04</pdfrwt>
<pdfrwt beam="2">  1       -2 0.73123126E-01 0.20386793E+04</pdfrwt>
<totfact> 0.82239964E+00</totfact>
</mgrwt>
</event>
<event>
12    1  0.1097093E-007  0.2092673E+04  0.7818608E-02  0.8564478E-01
          2   -1    0    0  501    0  0.00000000000E+00  0.00000000000E+00  0.88953594376E+03  0.88953594376E+03  0.00000000000E+00 0.  1.
         -2   -1    0    0    0  501 -0.00000000000E+00 -0.00000000000E+00 -0.12307762467E+04  0.12307762467E+04  0.00000000000E+00 0. -1.
         23    2    1    2    0    0  0.14974476333E+03  0.57247579775E+03 -0.73882097010E+03  0.95065115618E+03  0.87915651203E+02 0.  0.
        254    2    1    2    0    0 -0.14974476333E+03 -0.57247579775E+03  0.39758066713E+03  0.11696610343E+04  0.92729958220E+03 0.  0.
        -24    2    4    4    0    0 -0.51373880411E+03 -0.17467628419E+03  0.26230539974E+03  0.60790565063E+03  0.79409031093E+02 0.  0.
         24    2    4    4    0    0  0.36399404078E+03 -0.39779951357E+03  0.13527526739E+03  0.56175538368E+03  0.80830677407E+02 0.  0.
         13    1    3    3    0    0  0.12810546780E+03  0.52196890819E+03 -0.70357873193E+03  0.88537313265E+03  0.00000000000E+00 0. -1.
        -13    1    3    3    0    0  0.21639295530E+02  0.50506889563E+02 -0.35242238171E+02  0.65278023528E+02  0.00000000000E+00 0.  1.
          2    1    6    6  502    0  0.16716747667E+03 -0.13723605295E+03  0.79757013473E+02  0.23052088990E+03  0.00000000000E+00 0. -1.
          3    1    5    5  503    0 -0.69037134176E+02 -0.53909244484E+02  0.42535533318E+02  0.97373528901E+02  0.00000000000E+00 0. -1.
         -4    1    5    5    0  503 -0.44470166994E+03 -0.12076703970E+03  0.21976986643E+03  0.51053212173E+03  0.00000000000E+00 0.  1.
         -1    1    6    6    0  502  0.19682656411E+03 -0.26056346062E+03  0.55518253914E+02  0.33123449378E+03  0.00000000000E+00 0.  1.
<mgrwt>
<rscale>  0 0.20926727E+04</rscale>
<asrwt>0</asrwt>
<pdfrwt beam="1">  1        2 0.13685169E+00 0.20926727E+04</pdfrwt>
<pdfrwt beam="2">  1       -2 0.18935019E+00 0.20926727E+04</pdfrwt>
<totfact> 0.43014634E+00</totfact>
</mgrwt>
</event>
<event>
12    1  0.1979195E-007  0.2624013E+04  0.7818608E-02  0.8360090E-01
         -2   -1    0    0    0  501 -0.00000000000E+00  0.00000000000E+00  0.75011572458E+03  0.75011572458E+03  0.00000000000E+00 0.  1.
          2   -1    0    0  501    0  0.00000000000E+00 -0.00000000000E+00 -0.22947943614E+04  0.22947943614E+04  0.00000000000E+00 0. -1.
         23    2    1    2    0    0 -0.15217120061E+03 -0.10805808416E+04 -0.25721980703E+03  0.11247884194E+04  0.90420847720E+02 0.  0.
        254    2    1    2    0    0  0.15217120061E+03  0.10805808416E+04 -0.12874588298E+04  0.19201216665E+04  0.91569970316E+03 0.  0.
        -24    2    4    4    0    0  0.36364644487E+03  0.30398101180E+03 -0.90666669499E+03  0.10261653955E+04  0.79547035192E+02 0.  0.
         24    2    4    4    0    0 -0.21147524426E+03  0.77659982984E+03 -0.38079213478E+03  0.89395627100E+03  0.79536720522E+02 0.  0.
         11    1    3    3    0    0 -0.61054880765E+02 -0.39781284657E+03 -0.13962177387E+03  0.42600117265E+03  0.00000000000E+00 0.  1.
        -11    1    3    3    0    0 -0.91116319846E+02 -0.68276799507E+03 -0.11759803316E+03  0.69878724677E+03  0.00000000000E+00 0. -1.
          2    1    6    6  502    0 -0.18723417704E+03  0.72018537442E+03 -0.32893420041E+03  0.81358547110E+03  0.00000000000E+00 0. -1.
          1    1    5    5  503    0  0.35700141512E+03  0.28093625750E+03 -0.87971386853E+03  0.99008670412E+03  0.00000000000E+00 0. -1.
         -2    1    5    5    0  503  0.66450297495E+01  0.23044754303E+02 -0.26952826452E+02  0.36078691426E+02  0.00000000000E+00 0.  1.
         -1    1    6    6    0  502 -0.24241067217E+02  0.56414455417E+02 -0.51857934370E+02  0.80370799902E+02  0.00000000000E+00 0.  1.
<mgrwt>
<rscale>  0 0.26240132E+04</rscale>
<asrwt>0</asrwt>
<pdfrwt beam="1">  1        2 0.35304528E+00 0.26240132E+04</pdfrwt>
<pdfrwt beam="2">  1       -2 0.11540242E+00 0.26240132E+04</pdfrwt>
<totfact> 0.23555218E+00</totfact>
</mgrwt>
</event>
<event>
12    1  0.1097093E-007  0.1824697E+04  0.7818608E-02  0.8693275E-01
          2   -1    0    0  501    0  0.00000000000E+00  0.00000000000E+00  0.10446927005E+04  0.10446927005E+04  0.00000000000E+00 0. -1.
         -2   -1    0    0    0  501 -0.00000000000E+00 -0.00000000000E+00 -0.79677002301E+03  0.79677002301E+03  0.00000000000E+00 0.  1.
         23    2    1    2    0    0  0.43891802732E+03 -0.27976224113E+03 -0.36563866568E+03  0.64272060841E+03  0.92098861891E+02 0.  0.
        254    2    1    2    0    0 -0.43891802732E+03  0.27976224113E+03  0.61356134320E+03  0.11987421151E+04  0.88859956699E+03 0.  0.
        -24    2    4    4    0    0 -0.56421759070E+03  0.18856440788E+03  0.43031079886E+02  0.60210122786E+03  0.82317611591E+02 0.  0.
         24    2    4    4    0    0  0.12529956339E+03  0.91197833252E+02  0.57053026332E+03  0.59664088727E+03  0.80365052278E+02 0.  0.
         13    1    3    3    0    0  0.44103888948E+03 -0.27521884318E+03 -0.35104716002E+03  0.62729165644E+03  0.00000000000E+00 0.  1.
        -13    1    3    3    0    0 -0.21208621659E+01 -0.45433979462E+01 -0.14591505669E+02  0.15428951971E+02  0.00000000000E+00 0. -1.
          2    1    6    6  502    0  0.13078922937E+03  0.78975106216E+02  0.44707252781E+03  0.47245818338E+03  0.00000000000E+00 0. -1.
          1    1    5    5  503    0 -0.52794854400E+03  0.18182414889E+03  0.20259025158E+02  0.55874870410E+03  0.00000000000E+00 0. -1.
         -2    1    5    5    0  503 -0.36269046702E+02  0.67402589852E+01  0.22772054728E+02  0.43352523760E+02  0.00000000000E+00 0.  1.
         -1    1    6    6    0  502 -0.54896659836E+01  0.12222727037E+02  0.12345773551E+03  0.12418270389E+03  0.00000000000E+00 0.  1.
<mgrwt>
<rscale>  0 0.18246970E+04</rscale>
<asrwt>0</asrwt>
<pdfrwt beam="1">  1        2 0.16072195E+00 0.18246970E+04</pdfrwt>
<pdfrwt beam="2">  1       -2 0.12258000E+00 0.18246970E+04</pdfrwt>
<totfact> 0.11193158E+01</totfact>
</mgrwt>
</event>
<event>
12    1  0.1097093E-007  0.2262441E+04  0.7818608E-02  0.8492879E-01
         -2   -1    0    0    0  501 -0.00000000000E+00  0.00000000000E+00  0.68057684492E+03  0.68057684492E+03  0.00000000000E+00 0.  1.
          2   -1    0    0  501    0  0.00000000000E+00 -0.00000000000E+00 -0.18802581555E+04  0.18802581555E+04  0.00000000000E+00 0. -1.
         23    2    1    2    0    0 -0.48604089220E+03  0.84062953504E+02 -0.14315519497E+04  0.15168358378E+04  0.90264307063E+02 0.  0.
        254    2    1    2    0    0  0.48604089220E+03 -0.84062953504E+02  0.23187063910E+03  0.10439991626E+04  0.89043131641E+03 0.  0.
        -24    2    4    4    0    0  0.13219551799E+03 -0.41939663267E+03 -0.88191724270E+02  0.45548419529E+03  0.79491392347E+02 0.  0.
         24    2    4    4    0    0  0.35384537421E+03  0.33533367916E+03  0.32006236337E+03  0.58851496734E+03  0.79086820071E+02 0.  0.
         13    1    3    3    0    0 -0.26015616226E+03  0.88068274800E+02 -0.74080039790E+03  0.79007751475E+03  0.00000000000E+00 0. -1.
        -13    1    3    3    0    0 -0.22588472994E+03 -0.40053212957E+01 -0.69075155178E+03  0.72675832304E+03  0.00000000000E+00 0.  1.
          2    1    6    6  502    0  0.26548718956E+03  0.22312111329E+03  0.19045942259E+03  0.39565296747E+03  0.00000000000E+00 0. -1.
          1    1    5    5  503    0  0.13508453774E+03 -0.42077658453E+03 -0.83412237272E+02  0.44973143958E+03  0.00000000000E+00 0. -1.
         -2    1    5    5    0  503 -0.28890197485E+01  0.13799518590E+01 -0.47794869980E+01  0.57527557052E+01  0.00000000000E+00 0.  1.
         -1    1    6    6    0  502  0.88358184644E+02  0.11221256588E+03  0.12960294078E+03  0.19286199987E+03  0.00000000000E+00 0.  1.
<mgrwt>
<rscale>  0 0.22624413E+04</rscale>
<asrwt>0</asrwt>
<pdfrwt beam="1">  1        2 0.28927048E+00 0.22624413E+04</pdfrwt>
<pdfrwt beam="2">  1       -2 0.10470413E+00 0.22624413E+04</pdfrwt>
<totfact> 0.52411629E+00</totfact>
</mgrwt>
</event>
<event>
12    1  0.1097093E-007  0.1286027E+04  0.7818608E-02  0.9040720E-01
          2   -1    0    0  501    0  0.00000000000E+00  0.00000000000E+00  0.30565115144E+03  0.30565115144E+03  0.00000000000E+00 0. -1.
         -2   -1    0    0    0  501 -0.00000000000E+00 -0.00000000000E+00 -0.13527400786E+04  0.13527400786E+04  0.00000000000E+00 0.  1.
         23    2    1    2    0    0 -0.87985707376E+02  0.10418935720E+03 -0.63524896044E+03  0.65615048659E+03  0.91625937714E+02 0.  0.
        254    2    1    2    0    0  0.87985707376E+02 -0.10418935720E+03 -0.41183996676E+03  0.10022407435E+04  0.90348073738E+03 0.  0.
        -24    2    4    4    0    0 -0.18664716920E+03  0.21602001136E+03  0.11867460938E+03  0.31945941135E+03  0.80429108599E+02 0.  0.
         24    2    4    4    0    0  0.27463287657E+03 -0.32020936857E+03 -0.53051457614E+03  0.68278133213E+03  0.82385529072E+02 0.  0.
         11    1    3    3    0    0 -0.85325574186E+02  0.97593857917E+02 -0.39362872840E+03  0.41442561521E+03  0.00000000000E+00 0.  1.
        -11    1    3    3    0    0 -0.26601331904E+01  0.65954992875E+01 -0.24162023203E+03  0.24172487139E+03  0.00000000000E+00 0. -1.
          2    1    6    6  502    0  0.25661115349E+03 -0.27137757550E+03 -0.49355051232E+03  0.61894036933E+03  0.00000000000E+00 0. -1.
          1    1    5    5  503    0 -0.72503164806E+02  0.75273724454E+02  0.85948592224E+02  0.13531445971E+03  0.00000000000E+00 0. -1.
         -2    1    5    5    0  503 -0.11414400439E+03  0.14074628691E+03  0.32726017153E+02  0.18414495164E+03  0.00000000000E+00 0.  1.
         -1    1    6    6    0  502  0.18021723084E+02 -0.48831793069E+02 -0.36964063817E+02  0.63840962799E+02  0.00000000000E+00 0.  1.
<mgrwt>
<rscale>  0 0.12860273E+04</rscale>
<asrwt>0</asrwt>
<pdfrwt beam="1">  1        2 0.47023253E-01 0.12860273E+04</pdfrwt>
<pdfrwt beam="2">  1       -2 0.20811386E+00 0.12860273E+04</pdfrwt>
<totfact> 0.12416624E+01</totfact>
</mgrwt>
</event>
<event>
12    1  0.1173229E-007  0.1847385E+04  0.7818608E-02  0.8681499E-01
         -1   -1    0    0    0  501 -0.00000000000E+00  0.00000000000E+00  0.44272236889E+03  0.44272236889E+03  0.00000000000E+00 0.  1.
          1   -1    0    0  501    0  0.00000000000E+00 -0.00000000000E+00 -0.19271855633E+04  0.19271855633E+04  0.00000000000E+00 0. -1.
         23    2    1    2    0    0 -0.70664664198E+03  0.12584989867E+02 -0.59244850895E+03  0.92661810645E+03  0.90100060150E+02 0.  0.
        254    2    1    2    0    0  0.70664664198E+03 -0.12584989867E+02 -0.89201468541E+03  0.14432898257E+04  0.88763025152E+03 0.  0.
        -24    2    4    4    0    0  0.89799023120E+03 -0.97480026873E+02 -0.75633980135E+03  0.11810705241E+04  0.83599503107E+02 0.  0.
         24    2    4    4    0    0 -0.19134358922E+03  0.84895037006E+02 -0.13567488407E+03  0.26221930157E+03  0.80819252063E+02 0.  0.
         13    1    3    3    0    0 -0.77562813543E+02  0.17079538715E+02 -0.37929597669E+02  0.88013380044E+02  0.00000000000E+00 0.  1.
        -13    1    3    3    0    0 -0.62908382844E+03 -0.44945488474E+01 -0.55451891128E+03  0.83860472640E+03  0.00000000000E+00 0. -1.
          2    1    6    6  502    0 -0.56199476714E+02  0.65110773241E+02 -0.36541663080E+02  0.93450987772E+02  0.00000000000E+00 0. -1.
          3    1    5    5  503    0  0.74872550605E+02 -0.23216177575E+02 -0.90735263366E+02  0.11990737156E+03  0.00000000000E+00 0. -1.
         -4    1    5    5    0  503  0.82311768060E+03 -0.74263849298E+02 -0.66560453798E+03  0.10611631526E+04  0.00000000000E+00 0.  1.
         -1    1    6    6    0  502 -0.13514411251E+03  0.19784263764E+02 -0.99133220989E+02  0.16876831380E+03  0.00000000000E+00 0.  1.
<mgrwt>
<rscale>  0 0.18473854E+04</rscale>
<asrwt>0</asrwt>
<pdfrwt beam="1">  1        1 0.29649008E+00 0.18473854E+04</pdfrwt>
<pdfrwt beam="2">  1       -1 0.68111134E-01 0.18473854E+04</pdfrwt>
<totfact> 0.68482088E+00</totfact>
</mgrwt>
</event>
<event>
12    1  0.1097093E-007  0.1345690E+04  0.7818608E-02  0.8994097E-01
         -1   -1    0    0    0  501 -0.00000000000E+00  0.00000000000E+00  0.40714187254E+03  0.40714187254E+03  0.00000000000E+00 0.  1.
          1   -1    0    0  501    0  0.00000000000E+00 -0.00000000000E+00 -0.11119475299E+04  0.11119475299E+04  0.00000000000E+00 0. -1.
         23    2    1    2    0    0  0.13976275310E+03 -0.34131022073E+03 -0.35191957642E+03  0.51681145317E+03  0.84972912926E+02 0.  0.
        254    2    1    2    0    0 -0.13976275310E+03  0.34131022073E+03 -0.35288608096E+03  0.10022779493E+04  0.86255794446E+03 0.  0.
        -24    2    4    4    0    0 -0.23152364206E+03  0.51397571065E+03 -0.48899437286E+03  0.75069910761E+03  0.81605303257E+02 0.  0.
         24    2    4    4    0    0  0.91760888963E+02 -0.17266548992E+03  0.13610829189E+03  0.25157884167E+03  0.80827064174E+02 0.  0.
         13    1    3    3    0    0  0.37115976947E+01 -0.87844515930E+02 -0.56752330249E+02  0.10464827722E+03  0.00000000000E+00 0.  1.
        -13    1    3    3    0    0  0.13605115540E+03 -0.25346570480E+03 -0.29516724617E+03  0.41216317595E+03  0.00000000000E+00 0. -1.
          2    1    6    6  502    0  0.52856504662E+02 -0.27133586295E+02  0.25322780262E+02  0.64585484363E+02  0.00000000000E+00 0. -1.
          3    1    5    5  503    0 -0.16782586911E+03  0.30345024781E+03 -0.33536317222E+03  0.48240650132E+03  0.00000000000E+00 0. -1.
         -4    1    5    5    0  503 -0.63697772957E+02  0.21052546283E+03 -0.15363120064E+03  0.26829260629E+03  0.00000000000E+00 0.  1.
         -1    1    6    6    0  502  0.38904384302E+02 -0.14553190362E+03  0.11078551163E+03  0.18699335731E+03  0.00000000000E+00 0.  1.
<mgrwt>
<rscale>  0 0.13456900E+04</rscale>
<asrwt>0</asrwt>
<pdfrwt beam="1">  1        1 0.17106885E+00 0.13456900E+04</pdfrwt>
<pdfrwt beam="2">  1       -1 0.62637211E-01 0.13456900E+04</pdfrwt>
<totfact> 0.31436520E+01</totfact>
</mgrwt>
</event>
<event>
12    1  0.1097093E-007  0.2049234E+04  0.7818608E-02  0.8583942E-01
          2   -1    0    0  501    0  0.00000000000E+00  0.00000000000E+00  0.52337666141E+03  0.52337666141E+03  0.00000000000E+00 0. -1.
         -2   -1    0    0    0  501 -0.00000000000E+00 -0.00000000000E+00 -0.20058979279E+04  0.20058979279E+04  0.00000000000E+00 0.  1.
         23    2    1    2    0    0 -0.32890224142E+03  0.49900503111E+03 -0.12946638270E+04  0.14285779187E+04  0.86589487154E+02 0.  0.
        254    2    1    2    0    0  0.32890224142E+03 -0.49900503111E+03 -0.18785743941E+03  0.11006966706E+04  0.90501935757E+03 0.  0.
        -24    2    4    4    0    0  0.28786341962E+03 -0.48768998467E+02  0.30422934665E+03  0.42808570281E+03  0.73879022900E+02 0.  0.
         24    2    4    4    0    0  0.41038821796E+02 -0.45023603264E+03 -0.49208678606E+03  0.67261096776E+03  0.76546972147E+02 0.  0.
         13    1    3    3    0    0 -0.24733112303E+03  0.39828168480E+03 -0.10868683581E+04  0.11836738625E+04  0.00000000000E+00 0.  1.
        -13    1    3    3    0    0 -0.81571118387E+02  0.10072334631E+03 -0.20779546895E+03  0.24490405624E+03  0.00000000000E+00 0. -1.
          2    1    6    6  502    0  0.60894080684E+02 -0.27270139417E+03 -0.31503740452E+03  0.42109702645E+03  0.00000000000E+00 0. -1.
          3    1    5    5  503    0  0.22517539696E+02 -0.26319565987E+01  0.61401314986E+02  0.65452947004E+02  0.00000000000E+00 0. -1.
         -4    1    5    5    0  503  0.26534587993E+03 -0.46137041868E+02  0.24282803166E+03  0.36263275581E+03  0.00000000000E+00 0.  1.
         -1    1    6    6    0  502 -0.19855258888E+02 -0.17753463848E+03 -0.17704938154E+03  0.25151394130E+03  0.00000000000E+00 0.  1.
<mgrwt>
<rscale>  0 0.20492342E+04</rscale>
<asrwt>0</asrwt>
<pdfrwt beam="1">  1        2 0.80519485E-01 0.20492342E+04</pdfrwt>
<pdfrwt beam="2">  1       -2 0.30859969E+00 0.20492342E+04</pdfrwt>
<totfact> 0.15221783E+00</totfact>
</mgrwt>
</event>
<event>
12    1  0.1097093E-007  0.1901493E+04  0.7818608E-02  0.8654114E-01
         -2   -1    0    0    0  501 -0.00000000000E+00  0.00000000000E+00  0.11678252412E+04  0.11678252412E+04  0.00000000000E+00 0.  1.
          2   -1    0    0  501    0  0.00000000000E+00 -0.00000000000E+00 -0.77401894151E+03  0.77401894151E+03  0.00000000000E+00 0. -1.
         23    2    1    2    0    0  0.61481323589E+03  0.10087716011E+03 -0.23770575964E+03  0.67323316427E+03  0.92559974353E+02 0.  0.
        254    2    1    2    0    0 -0.61481323589E+03 -0.10087716011E+03  0.63151205934E+03  0.12686110185E+04  0.90685992225E+03 0.  0.
        -24    2    4    4    0    0  0.35704477047E+02 -0.32948858500E+03  0.17340808189E+02  0.34175183489E+03  0.81584776131E+02 0.  0.
         24    2    4    4    0    0 -0.65051771294E+03  0.22861142489E+03  0.61417125115E+03  0.92685918356E+03  0.80156983378E+02 0.  0.
         13    1    3    3    0    0  0.49404190156E+03  0.48658079514E+02 -0.16640851372E+03  0.52358075083E+03  0.00000000000E+00 0. -1.
        -13    1    3    3    0    0  0.12077133433E+03  0.52219080591E+02 -0.71297245921E+02  0.14965241344E+03  0.00000000000E+00 0.  1.
          4    1    6    6  502    0 -0.11561722550E+02 -0.64246573893E+01  0.14193821679E+02  0.19401397494E+02  0.00000000000E+00 0. -1.
          1    1    5    5  503    0  0.45487080001E+02 -0.10299077245E+03  0.23257876562E+02  0.11496565783E+03  0.00000000000E+00 0. -1.
         -2    1    5    5    0  503 -0.97826029545E+01 -0.22649781254E+03 -0.59170683722E+01  0.22678617706E+03  0.00000000000E+00 0.  1.
         -3    1    6    6    0  502 -0.63895599039E+03  0.23503608228E+03  0.59997742947E+03  0.90745778607E+03  0.00000000000E+00 0.  1.
<mgrwt>
<rscale>  0 0.19014929E+04</rscale>
<asrwt>0</asrwt>
<pdfrwt beam="1">  1        2 0.11907984E+00 0.19014929E+04</pdfrwt>
<pdfrwt beam="2">  1       -2 0.17966542E+00 0.19014929E+04</pdfrwt>
<totfact> 0.61397092E+00</totfact>
</mgrwt>
</event>
<event>
12    1  0.1097093E-007  0.1690344E+04  0.7818608E-02  0.8766891E-01
          2   -1    0    0  501    0  0.00000000000E+00  0.00000000000E+00  0.86319354040E+03  0.86319354040E+03  0.00000000000E+00 0. -1.
         -2   -1    0    0    0  501 -0.00000000000E+00 -0.00000000000E+00 -0.82752712968E+03  0.82752712968E+03  0.00000000000E+00 0.  1.
         23    2    1    2    0    0 -0.43815776841E+03 -0.19008782483E+03  0.40380277598E+03  0.63252980311E+03  0.94454532798E+02 0.  0.
        254    2    1    2    0    0  0.43815776841E+03  0.19008782483E+03 -0.36813636526E+03  0.10581908670E+04  0.86955616056E+03 0.  0.
        -24    2    4    4    0    0  0.56579608209E+03 -0.16889188844E+03 -0.28125155357E+03  0.65872443969E+03  0.78522446225E+02 0.  0.
         24    2    4    4    0    0 -0.12763831369E+03  0.35897971327E+03 -0.86884811694E+02  0.39946642729E+03  0.82864240574E+02 0.  0.
         11    1    3    3    0    0 -0.38065329678E+02  0.10103034170E+02  0.36234895032E+02  0.53516429635E+02  0.00000000000E+00 0. -1.
        -11    1    3    3    0    0 -0.40009243873E+03 -0.20019085900E+03  0.36756788095E+03  0.57901337347E+03  0.00000000000E+00 0.  1.
          2    1    6    6  502    0 -0.13408318923E+03  0.27817254415E+03 -0.71078324115E+02  0.31687599169E+03  0.00000000000E+00 0. -1.
          3    1    5    5  503    0  0.36494859405E+03 -0.90709313217E+02 -0.21533791327E+03  0.43334290428E+03  0.00000000000E+00 0. -1.
         -4    1    5    5    0  503  0.20084748805E+03 -0.78182575225E+02 -0.65913640301E+02  0.22538153541E+03  0.00000000000E+00 0.  1.
         -1    1    6    6    0  502  0.64448755398E+01  0.80807169129E+02 -0.15806487579E+02  0.82590435602E+02  0.00000000000E+00 0.  1.
<mgrwt>
<rscale>  0 0.16903444E+04</rscale>
<asrwt>0</asrwt>
<pdfrwt beam="1">  1        2 0.13279901E+00 0.16903444E+04</pdfrwt>
<pdfrwt beam="2">  1       -2 0.12731187E+00 0.16903444E+04</pdfrwt>
<totfact> 0.13547578E+01</totfact>
</mgrwt>
</event>
<event>
12    1  0.1097093E-007  0.1734052E+04  0.7818608E-02  0.8742178E-01
          1   -1    0    0  501    0  0.00000000000E+00  0.00000000000E+00  0.84696554037E+03  0.84696554037E+03  0.00000000000E+00 0. -1.
         -1   -1    0    0    0  501 -0.00000000000E+00 -0.00000000000E+00 -0.88756154049E+03  0.88756154049E+03  0.00000000000E+00 0.  1.
         23    2    1    2    0    0  0.14109948802E+01 -0.11481109142E+03 -0.64443527819E+03  0.66086417638E+03  0.90890341777E+02 0.  0.
        254    2    1    2    0    0 -0.14109948802E+01  0.11481109142E+03  0.60383927806E+03  0.10736629045E+04  0.88031050267E+03 0.  0.
        -24    2    4    4    0    0  0.11506670939E+03  0.17041911677E+03  0.79789955989E+03  0.82764936902E+03  0.77953495080E+02 0.  0.
         24    2    4    4    0    0 -0.11647770427E+03 -0.55608025356E+02 -0.19406028182E+03  0.24601353546E+03  0.78765211696E+02 0.  0.
         11    1    3    3    0    0 -0.14945230856E+02  0.54826742266E+00 -0.22646078240E+03  0.22695406250E+03  0.00000000000E+00 0. -1.
        -11    1    3    3    0    0  0.16356225736E+02 -0.11535935884E+03 -0.41797449579E+03  0.43391011387E+03  0.00000000000E+00 0.  1.
          4    1    6    6  502    0 -0.10399097905E+01 -0.31865643205E+02 -0.28325163868E+02  0.42647573640E+02  0.00000000000E+00 0. -1.
          3    1    5    5  503    0  0.19716329565E+02  0.98558588350E+02  0.36533120598E+03  0.37890555426E+03  0.00000000000E+00 0. -1.
         -4    1    5    5    0  503  0.95350379821E+02  0.71860528424E+02  0.43256835391E+03  0.44874381476E+03  0.00000000000E+00 0.  1.
         -3    1    6    6    0  502 -0.11543779448E+03 -0.23742382151E+02 -0.16573511796E+03  0.20336596182E+03  0.00000000000E+00 0.  1.
<mgrwt>
<rscale>  0 0.17340519E+04</rscale>
<asrwt>0</asrwt>
<pdfrwt beam="1">  1        1 0.13030239E+00 0.17340519E+04</pdfrwt>
<pdfrwt beam="2">  1       -1 0.13654793E+00 0.17340519E+04</pdfrwt>
<totfact> 0.85527264E+00</totfact>
</mgrwt>
</event>
<event>
12    1  0.1097093E-007  0.1831793E+04  0.7818608E-02  0.8689573E-01
          3   -1    0    0  501    0  0.00000000000E+00  0.00000000000E+00  0.20057076849E+04  0.20057076849E+04  0.00000000000E+00 0. -1.
         -3   -1    0    0    0  501 -0.00000000000E+00 -0.00000000000E+00 -0.41823940730E+03  0.41823940730E+03  0.00000000000E+00 0.  1.
         23    2    1    2    0    0  0.51854073430E+02 -0.22022441055E+03  0.14462355933E+04  0.14668265962E+04  0.93782919274E+02 0.  0.
        254    2    1    2    0    0 -0.51854073430E+02  0.22022441055E+03  0.14123268431E+03  0.95712049605E+03  0.91920908226E+03 0.  0.
        -24    2    4    4    0    0 -0.29598686676E+03  0.96934478833E+02  0.43952441618E+03  0.54472002360E+03  0.80831140139E+02 0.  0.
         24    2    4    4    0    0  0.24413279333E+03  0.12328993172E+03 -0.29829173188E+03  0.41240047245E+03  0.79340811248E+02 0.  0.
         11    1    3    3    0    0  0.34022344228E-01  0.20126218990E+01 -0.60398943608E+00  0.21015726652E+01  0.00000000000E+00 0.  1.
        -11    1    3    3    0    0  0.51820051086E+02 -0.22223703245E+03  0.14468395828E+04  0.14647250235E+04  0.00000000000E+00 0. -1.
          2    1    6    6  502    0  0.18658477582E+03  0.12829684261E+03 -0.22679266933E+03  0.32048225107E+03  0.00000000000E+00 0. -1.
          1    1    5    5  503    0 -0.18744288071E+03  0.32656089303E+02  0.31132888955E+03  0.36486563440E+03  0.00000000000E+00 0. -1.
         -2    1    5    5    0  503 -0.10854398605E+03  0.64278389530E+02  0.12819552663E+03  0.17985438920E+03  0.00000000000E+00 0.  1.
         -1    1    6    6    0  502  0.57548017509E+02 -0.50069108923E+01 -0.71499062548E+02  0.91918221377E+02  0.00000000000E+00 0.  1.
<mgrwt>
<rscale>  0 0.18317926E+04</rscale>
<asrwt>0</asrwt>
<pdfrwt beam="1">  1        3 0.30857041E+00 0.18317926E+04</pdfrwt>
<pdfrwt beam="2">  1       -3 0.64344525E-01 0.18317926E+04</pdfrwt>
<totfact> 0.20044191E-01</totfact>
</mgrwt>
</event>
<event>
12    1  0.1097093E-007  0.1280035E+04  0.7818608E-02  0.9045549E-01
         -4   -1    0    0    0  501 -0.00000000000E+00  0.00000000000E+00  0.38780627468E+03  0.38780627468E+03  0.00000000000E+00 0.  1.
          4   -1    0    0  501    0  0.00000000000E+00 -0.00000000000E+00 -0.10562557873E+04  0.10562557873E+04  0.00000000000E+00 0. -1.
         23    2    1    2    0    0  0.25198871438E+03  0.17561576610E+03 -0.22920893173E+03  0.39398241472E+03  0.91357535259E+02 0.  0.
        254    2    1    2    0    0 -0.25198871438E+03 -0.17561576610E+03 -0.43924058084E+03  0.10500796472E+04  0.90299267337E+03 0.  0.
        -24    2    4    4    0    0 -0.10040920792E+03  0.29000756353E+03  0.85877875415E+02  0.32809398017E+03  0.78001630713E+02 0.  0.
         24    2    4    4    0    0 -0.15157950646E+03 -0.46562332964E+03 -0.52511845625E+03  0.72198566705E+03  0.75713132553E+02 0.  0.
         11    1    3    3    0    0  0.18843706615E+03  0.17457250430E+03 -0.18239328709E+03  0.31504189933E+03  0.00000000000E+00 0. -1.
        -11    1    3    3    0    0  0.63551648229E+02  0.10432618024E+01 -0.46815644645E+02  0.78940515398E+02  0.00000000000E+00 0.  1.
          2    1    6    6  502    0 -0.27035979296E+02 -0.98421147806E+02 -0.15743993844E+03  0.18762995690E+03  0.00000000000E+00 0. -1.
          3    1    5    5  503    0 -0.42858889830E+02  0.67875119511E+02 -0.69242076173E+01  0.80572085347E+02  0.00000000000E+00 0. -1.
         -2    1    5    5    0  503 -0.57550318089E+02  0.22213244402E+03  0.92802083032E+02  0.24752189482E+03  0.00000000000E+00 0.  1.
         -1    1    6    6    0  502 -0.12454352716E+03 -0.36720218183E+03 -0.36767851782E+03  0.53435571014E+03  0.00000000000E+00 0.  1.
<mgrwt>
<rscale>  0 0.12800353E+04</rscale>
<asrwt>0</asrwt>
<pdfrwt beam="1">  1        4 0.16250089E+00 0.12800353E+04</pdfrwt>
<pdfrwt beam="2">  1       -4 0.59662504E-01 0.12800353E+04</pdfrwt>
<totfact> 0.12468193E+00</totfact>
</mgrwt>
</event>
<event>
12    1  0.1097093E-007  0.1528901E+04  0.7818608E-02  0.8865458E-01
          1   -1    0    0  501    0  0.00000000000E+00  0.00000000000E+00  0.22364956043E+04  0.22364956043E+04  0.00000000000E+00 0. -1.
         -1   -1    0    0    0  501 -0.00000000000E+00 -0.00000000000E+00 -0.26129484226E+03  0.26129484226E+03  0.00000000000E+00 0.  1.
         23    2    1    2    0    0  0.18100829734E+03 -0.33910380727E+02 -0.10275126481E+03  0.22916008759E+03  0.89680575910E+02 0.  0.
        254    2    1    2    0    0 -0.18100829734E+03  0.33910380727E+02  0.20779520269E+04  0.22686303590E+04  0.89156332483E+03 0.  0.
        -24    2    4    4    0    0 -0.51540832671E+03  0.13506705242E+03  0.10533066234E+04  0.11831075047E+04  0.79997955404E+02 0.  0.
         24    2    4    4    0    0  0.33440002937E+03 -0.10115667169E+03  0.10246454035E+04  0.10855228543E+04  0.80035070460E+02 0.  0.
         13    1    3    3    0    0  0.91458352377E+01  0.64286036360E+01 -0.40433504133E+02  0.41950464877E+02  0.00000000000E+00 0. -1.
        -13    1    3    3    0    0  0.17186246210E+03 -0.40338984363E+02 -0.62317760678E+02  0.18720962271E+03  0.00000000000E+00 0.  1.
          2    1    6    6  502    0  0.11096639552E+03 -0.33641797956E+02  0.46317415627E+03  0.47746791572E+03  0.00000000000E+00 0. -1.
          3    1    5    5  503    0 -0.34350661744E+03  0.10933318092E+03  0.77901805549E+03  0.85838200788E+03  0.00000000000E+00 0. -1.
         -4    1    5    5    0  503 -0.17190170927E+03  0.25733871496E+02  0.27428856790E+03  0.32472549680E+03  0.00000000000E+00 0.  1.
         -1    1    6    6    0  502  0.22343363385E+03 -0.67514873735E+02  0.56147124719E+03  0.60805493858E+03  0.00000000000E+00 0.  1.
<mgrwt>
<rscale>  0 0.15289013E+04</rscale>
<asrwt>0</asrwt>
<pdfrwt beam="1">  1        1 0.34407623E+00 0.15289013E+04</pdfrwt>
<pdfrwt beam="2">  1       -1 0.40199208E-01 0.15289013E+04</pdfrwt>
<totfact> 0.11997475E+01</totfact>
</mgrwt>
</event>
<event>
12    1  0.1097093E-007  0.1934948E+04  0.7818608E-02  0.8637653E-01
         -2   -1    0    0    0  501 -0.00000000000E+00  0.00000000000E+00  0.93675940070E+03  0.93675940070E+03  0.00000000000E+00 0.  1.
          2   -1    0    0  501    0  0.00000000000E+00 -0.00000000000E+00 -0.99919562039E+03  0.99919562039E+03  0.00000000000E+00 0. -1.
         23    2    1    2    0    0  0.51832201422E+03 -0.53114586605E+03  0.18830209431E+03  0.77078860817E+03  0.88790530535E+02 0.  0.
        254    2    1    2    0    0 -0.51832201422E+03  0.53114586605E+03 -0.25073831400E+03  0.11651664129E+04  0.86253662315E+03 0.  0.
        -24    2    4    4    0    0 -0.24305264389E+03  0.73901891604E+03 -0.20320682200E+03  0.80803798643E+03  0.80055162515E+02 0.  0.
         24    2    4    4    0    0 -0.27526937033E+03 -0.20787304999E+03 -0.47531492000E+02  0.35712842650E+03  0.79353885425E+02 0.  0.
         11    1    3    3    0    0  0.40555782039E+03 -0.45790076979E+03  0.17158925047E+03  0.63528980122E+03  0.00000000000E+00 0.  1.
        -11    1    3    3    0    0  0.11276419382E+03 -0.73245096256E+02  0.16712843849E+02  0.13549880695E+03  0.00000000000E+00 0. -1.
          4    1    6    6  502    0 -0.21913694414E+03 -0.13940135275E+03 -0.62994207522E+02  0.26724896187E+03  0.00000000000E+00 0. -1.
          1    1    5    5  503    0 -0.22946182675E+03  0.71881412490E+03 -0.20909435139E+03  0.78298590274E+03  0.00000000000E+00 0. -1.
         -2    1    5    5    0  503 -0.13590817137E+02  0.20204791131E+02  0.58875293897E+01  0.25052083694E+02  0.00000000000E+00 0.  1.
         -3    1    6    6    0  502 -0.56132426183E+02 -0.68471697235E+02  0.15462715522E+02  0.89879464633E+02  0.00000000000E+00 0.  1.
<mgrwt>
<rscale>  0 0.19349479E+04</rscale>
<asrwt>0</asrwt>
<pdfrwt beam="1">  1        2 0.15372240E+00 0.19349479E+04</pdfrwt>
<pdfrwt beam="2">  1       -2 0.14411683E+00 0.19349479E+04</pdfrwt>
<totfact> 0.78418437E+00</totfact>
</mgrwt>
</event>
<event>
12    1  0.1097093E-007  0.1744445E+04  0.7818608E-02  0.8736414E-01
         -2   -1    0    0    0  501 -0.00000000000E+00  0.00000000000E+00  0.93647596606E+03  0.93647596606E+03  0.00000000000E+00 0.  1.
          2   -1    0    0  501    0  0.00000000000E+00 -0.00000000000E+00 -0.81237751063E+03  0.81237751063E+03  0.00000000000E+00 0. -1.
         23    2    1    2    0    0 -0.31267216969E+03  0.53951116263E+03 -0.66087443771E+02  0.63574199529E+03  0.10470985651E+03 0.  0.
        254    2    1    2    0    0  0.31267216969E+03 -0.53951116263E+03  0.19018589920E+03  0.11131114814E+04  0.90222520108E+03 0.  0.
        -24    2    4    4    0    0  0.49820567076E+03 -0.57737528872E+03 -0.83140664913E+02  0.77139395064E+03  0.81025567056E+02 0.  0.
         24    2    4    4    0    0 -0.18553350108E+03  0.37864126090E+02  0.27332656411E+03  0.34171753076E+03  0.78785075432E+02 0.  0.
         13    1    3    3    0    0 -0.31626625184E+03  0.51993671480E+03 -0.50877963108E+02  0.61069394673E+03  0.00000000000E+00 0. -1.
        -13    1    3    3    0    0  0.35940821509E+01  0.19574447838E+02 -0.15209480663E+02  0.25048048561E+02  0.00000000000E+00 0.  1.
          2    1    6    6  502    0 -0.12867800395E+03 -0.11819748198E+02  0.16250609679E+03  0.20761976458E+03  0.00000000000E+00 0. -1.
          1    1    5    5  503    0  0.27305003346E+03 -0.37562054846E+03 -0.58914553936E+02  0.46810046129E+03  0.00000000000E+00 0. -1.
         -2    1    5    5    0  503  0.22515563731E+03 -0.20175474027E+03 -0.24226110978E+02  0.30329348935E+03  0.00000000000E+00 0.  1.
         -1    1    6    6    0  502 -0.56855497130E+02  0.49683874288E+02  0.11082046732E+03  0.13409776618E+03  0.00000000000E+00 0.  1.
<mgrwt>
<rscale>  0 0.17444449E+04</rscale>
<asrwt>0</asrwt>
<pdfrwt beam="1">  1        2 0.12498116E+00 0.17444449E+04</pdfrwt>
<pdfrwt beam="2">  1       -2 0.14407322E+00 0.17444449E+04</pdfrwt>
<totfact> 0.10659976E+01</totfact>
</mgrwt>
</event>
<event>
12    1  0.1097093E-007  0.1473055E+04  0.7818608E-02  0.8902571E-01
          1   -1    0    0  501    0  0.00000000000E+00  0.00000000000E+00  0.99290106145E+03  0.99290106145E+03  0.00000000000E+00 0. -1.
         -1   -1    0    0    0  501 -0.00000000000E+00 -0.00000000000E+00 -0.54635143558E+03  0.54635143558E+03  0.00000000000E+00 0.  1.
         23    2    1    2    0    0  0.10011272583E+03  0.44117819696E+03  0.87019928025E+02  0.46962494594E+03  0.91183126881E+02 0.  0.
        254    2    1    2    0    0 -0.10011272583E+03 -0.44117819696E+03  0.35952969784E+03  0.10696275511E+04  0.90010040279E+03 0.  0.
        -24    2    4    4    0    0  0.71298852375E+02 -0.60458304702E+03  0.49215312452E+03  0.78691007376E+03  0.80053601513E+02 0.  0.
         24    2    4    4    0    0 -0.17141157821E+03  0.16340485006E+03 -0.13262342667E+03  0.28271747734E+03  0.79101988117E+02 0.  0.
         13    1    3    3    0    0  0.19612526174E+02  0.13679339469E+03  0.68481906913E+02  0.15422987904E+03  0.00000000000E+00 0. -1.
        -13    1    3    3    0    0  0.80500199661E+02  0.30438480227E+03  0.18538021112E+02  0.31539506690E+03  0.00000000000E+00 0.  1.
          4    1    6    6  502    0 -0.41949986264E+02  0.87241777812E+02 -0.32129301447E+02  0.10199618206E+03  0.00000000000E+00 0. -1.
          3    1    5    5  503    0 -0.12977642793E+02 -0.40611488179E+02  0.47313977398E+02  0.63689282001E+02  0.00000000000E+00 0. -1.
         -4    1    5    5    0  503  0.84276495168E+02 -0.56397155884E+03  0.44483914712E+03  0.72322079176E+03  0.00000000000E+00 0.  1.
         -3    1    6    6    0  502 -0.12946159194E+03  0.76163072253E+02 -0.10049412523E+03  0.18072129528E+03  0.00000000000E+00 0.  1.
<mgrwt>
<rscale>  0 0.14730552E+04</rscale>
<asrwt>0</asrwt>
<pdfrwt beam="1">  1        1 0.15275401E+00 0.14730552E+04</pdfrwt>
<pdfrwt beam="2">  1       -1 0.84054067E-01 0.14730552E+04</pdfrwt>
<totfact> 0.20846660E+01</totfact>
</mgrwt>
</event>
<event>
12    1  0.1097093E-007  0.1580867E+04  0.7818608E-02  0.8832389E-01
         -2   -1    0    0    0  501 -0.00000000000E+00  0.00000000000E+00  0.12966280222E+04  0.12966280222E+04  0.00000000000E+00 0.  1.
          2   -1    0    0  501    0  0.00000000000E+00 -0.00000000000E+00 -0.48185375060E+03  0.48185375060E+03  0.00000000000E+00 0. -1.
         23    2    1    2    0    0  0.33925336708E+03 -0.39015561762E+03  0.32144271017E+03  0.61560869502E+03  0.91292915512E+02 0.  0.
        254    2    1    2    0    0 -0.33925336708E+03  0.39015561762E+03  0.49333156146E+03  0.11628730778E+04  0.91737860915E+03 0.  0.
        -24    2    4    4    0    0  0.25299508784E+03  0.60310577008E+02  0.38556089479E+03  0.47193883819E+03  0.80157240665E+02 0.  0.
         24    2    4    4    0    0 -0.59224845492E+03  0.32984504061E+03  0.10777066667E+03  0.69093423962E+03  0.78864591040E+02 0.  0.
         13    1    3    3    0    0  0.31799442894E+03 -0.31860807730E+03  0.28208757438E+03  0.53122967103E+03  0.00000000000E+00 0.  1.
        -13    1    3    3    0    0  0.21258938138E+02 -0.71547540318E+02  0.39355135790E+02  0.84379023989E+02  0.00000000000E+00 0. -1.
          2    1    6    6  502    0 -0.44586464717E+03  0.21752171585E+03  0.10115442524E+03  0.50630346455E+03  0.00000000000E+00 0. -1.
          1    1    5    5  503    0  0.19922886390E+03  0.65776381399E+02  0.25230464318E+03  0.32814067948E+03  0.00000000000E+00 0. -1.
         -2    1    5    5    0  503  0.53766223936E+02 -0.54658043907E+01  0.13325625161E+03  0.14379815871E+03  0.00000000000E+00 0.  1.
         -1    1    6    6    0  502 -0.14638380774E+03  0.11232332476E+03  0.66162414324E+01  0.18463077507E+03  0.00000000000E+00 0.  1.
<mgrwt>
<rscale>  0 0.15808669E+04</rscale>
<asrwt>0</asrwt>
<pdfrwt beam="1">  1        2 0.74131347E-01 0.15808669E+04</pdfrwt>
<pdfrwt beam="2">  1       -2 0.19948123E+00 0.15808669E+04</pdfrwt>
<totfact> 0.82666854E+00</totfact>
</mgrwt>
</event>
<event>
12    1  0.1097093E-007  0.1330210E+04  0.7818608E-02  0.9005946E-01
          1   -1    0    0  501    0  0.00000000000E+00  0.00000000000E+00  0.82391111580E+03  0.82391111580E+03  0.00000000000E+00 0. -1.
         -1   -1    0    0    0  501 -0.00000000000E+00 -0.00000000000E+00 -0.53690824184E+03  0.53690824184E+03  0.00000000000E+00 0.  1.
         23    2    1    2    0    0  0.15717253376E+02 -0.27874928457E+03  0.23379413081E+03  0.37544869167E+03  0.91399282120E+02 0.  0.
        254    2    1    2    0    0 -0.15717253376E+02  0.27874928457E+03  0.53208743142E+02  0.98537066597E+03  0.94349137956E+03 0.  0.
        -24    2    4    4    0    0 -0.33315135471E+03 -0.14028917471E+02 -0.27431900810E+03  0.43769620506E+03  0.71696680867E+02 0.  0.
         24    2    4    4    0    0  0.31743410133E+03  0.29277820204E+03  0.32752775125E+03  0.54767446091E+03  0.78672759097E+02 0.  0.
         13    1    3    3    0    0 -0.13843664409E+02 -0.45199396745E+02  0.56232042198E+01  0.47605177619E+02  0.00000000000E+00 0.  1.
        -13    1    3    3    0    0  0.29560917785E+02 -0.23354988782E+03  0.22817092659E+03  0.32784351405E+03  0.00000000000E+00 0. -1.
          4    1    6    6  502    0  0.49923017762E+01  0.41165816066E+01 -0.46464507232E+01  0.79661047866E+01  0.00000000000E+00 0. -1.
          1    1    5    5  503    0 -0.66879956583E+02 -0.26702111926E+02 -0.81129551865E+02  0.10848011596E+03  0.00000000000E+00 0. -1.
         -2    1    5    5    0  503 -0.26627139813E+03  0.12673194456E+02 -0.19318945624E+03  0.32921608909E+03  0.00000000000E+00 0.  1.
         -3    1    6    6    0  502  0.31244179956E+03  0.28866162043E+03  0.33217420197E+03  0.53970835613E+03  0.00000000000E+00 0.  1.
<mgrwt>
<rscale>  0 0.13302100E+04</rscale>
<asrwt>0</asrwt>
<pdfrwt beam="1">  1        1 0.12675556E+00 0.13302100E+04</pdfrwt>
<pdfrwt beam="2">  1       -1 0.82601268E-01 0.13302100E+04</pdfrwt>
<totfact> 0.30110080E+01</totfact>
</mgrwt>
</event>
<event>
12    1  0.1097093E-007  0.2044502E+04  0.7818608E-02  0.8586093E-01
         -2   -1    0    0    0  501 -0.00000000000E+00  0.00000000000E+00  0.31365280490E+03  0.31365280490E+03  0.00000000000E+00 0. -1.
          2   -1    0    0  501    0  0.00000000000E+00 -0.00000000000E+00 -0.33317003414E+04  0.33317003414E+04  0.00000000000E+00 0.  1.
         23    2    1    2    0    0 -0.24829817653E+03  0.47803325292E+03 -0.11552774232E+03  0.55840225338E+03  0.91096882282E+02 0.  0.
        254    2    1    2    0    0  0.24829817653E+03 -0.47803325292E+03 -0.29025197941E+04  0.30869508929E+04  0.90248373082E+03 0.  0.
        -24    2    4    4    0    0 -0.13507759834E+02 -0.24775634919E+03 -0.12896710781E+03  0.29041714543E+03  0.78383259174E+02 0.  0.
         24    2    4    4    0    0  0.26180593636E+03 -0.23027690373E+03 -0.27735526863E+04  0.27965337475E+04  0.80229023313E+02 0.  0.
         11    1    3    3    0    0 -0.10653862140E+03  0.27240002156E+03 -0.28351605631E+02  0.29386402151E+03  0.00000000000E+00 0.  1.
        -11    1    3    3    0    0 -0.14175955513E+03  0.20563323137E+03 -0.87176136693E+02  0.26453823187E+03  0.00000000000E+00 0. -1.
          4    1    6    6  502    0  0.11206692725E+03 -0.13532592381E+03 -0.16081956090E+04  0.16177655018E+04  0.00000000000E+00 0. -1.
          1    1    5    5  503    0 -0.13435831508E+02 -0.24928916794E+03 -0.11241361412E+03  0.27379267971E+03  0.00000000000E+00 0. -1.
         -2    1    5    5    0  503 -0.71928326096E-01  0.15328187503E+01 -0.16553493691E+02  0.16624465718E+02  0.00000000000E+00 0.  1.
         -3    1    6    6    0  502  0.14973900912E+03 -0.94950979923E+02 -0.11653570773E+04  0.11787682457E+04  0.00000000000E+00 0.  1.
<mgrwt>
<rscale>  0 0.20445020E+04</rscale>
<asrwt>0</asrwt>
<pdfrwt beam="1">  1        2 0.51256932E+00 0.20445020E+04</pdfrwt>
<pdfrwt beam="2">  1       -2 0.48254274E-01 0.20445020E+04</pdfrwt>
<totfact> 0.40104247E+00</totfact>
</mgrwt>
</event>
<event>
12    1  0.1097093E-007  0.2029060E+04  0.7818608E-02  0.8593154E-01
          1   -1    0    0  501    0  0.00000000000E+00  0.00000000000E+00  0.93924059891E+03  0.93924059891E+03  0.00000000000E+00 0. -1.
         -1   -1    0    0    0  501 -0.00000000000E+00 -0.00000000000E+00 -0.10958543918E+04  0.10958543918E+04  0.00000000000E+00 0.  1.
         23    2    1    2    0    0  0.39378118240E+03  0.27295019767E+03  0.58522318907E+03  0.76190724345E+03  0.91929519655E+02 0.  0.
        254    2    1    2    0    0 -0.39378118240E+03 -0.27295019767E+03 -0.74183698200E+03  0.12731877473E+04  0.91712567404E+03 0.  0.
        -24    2    4    4    0    0 -0.38128809629E+03  0.22490277287E+03 -0.59791400668E+03  0.74803601279E+03  0.78069503883E+02 0.  0.
         24    2    4    4    0    0 -0.12493086116E+02 -0.49785297054E+03 -0.14392297532E+03  0.52515173451E+03  0.84005142439E+02 0.  0.
         13    1    3    3    0    0  0.28033781621E+03  0.14191855595E+03  0.36346489586E+03  0.48045488679E+03  0.00000000000E+00 0. -1.
        -13    1    3    3    0    0  0.11344336619E+03  0.13103164172E+03  0.22175829320E+03  0.28145235666E+03  0.00000000000E+00 0.  1.
          2    1    6    6  502    0  0.26471224118E+02 -0.21237502181E+03 -0.89266347027E+02  0.23188867222E+03  0.00000000000E+00 0. -1.
          1    1    5    5  503    0 -0.32621289288E+03  0.16324344392E+03 -0.45791607193E+03  0.58544888965E+03  0.00000000000E+00 0. -1.
         -2    1    5    5    0  503 -0.55075203410E+02  0.61659328955E+02 -0.13999793475E+03  0.16258712314E+03  0.00000000000E+00 0.  1.
         -1    1    6    6    0  502 -0.38964310235E+02 -0.28547794873E+03 -0.54656628295E+02  0.29326306229E+03  0.00000000000E+00 0.  1.
<mgrwt>
<rscale>  0 0.20290598E+04</rscale>
<asrwt>0</asrwt>
<pdfrwt beam="1">  1        1 0.14449855E+00 0.20290598E+04</pdfrwt>
<pdfrwt beam="2">  1       -1 0.16859298E+00 0.20290598E+04</pdfrwt>
<totfact> 0.39428890E+00</totfact>
</mgrwt>
</event>
<event>
12    1  0.1097093E-007  0.1539724E+04  0.7818608E-02  0.8858458E-01
          2   -1    0    0  501    0  0.00000000000E+00  0.00000000000E+00  0.95458456330E+03  0.95458456330E+03  0.00000000000E+00 0.  1.
         -2   -1    0    0    0  501 -0.00000000000E+00 -0.00000000000E+00 -0.62088536251E+03  0.62088536251E+03  0.00000000000E+00 0. -1.
         23    2    1    2    0    0 -0.13331574531E+03  0.14022856965E+03 -0.36483630291E+03  0.42148552181E+03  0.84305263672E+02 0.  0.
        254    2    1    2    0    0  0.13331574531E+03 -0.14022856965E+03  0.69853550370E+03  0.11539844040E+04  0.89793708859E+03 0.  0.
        -24    2    4    4    0    0 -0.17643045829E+03  0.15671603152E+03  0.67221267466E+03  0.71697121456E+03  0.80561910236E+02 0.  0.
         24    2    4    4    0    0  0.30974620359E+03 -0.29694460117E+03  0.26322829039E+02  0.43701318945E+03  0.78541897240E+02 0.  0.
         11    1    3    3    0    0 -0.64877086675E+02  0.39896873560E+02 -0.21805140223E+03  0.23097015156E+03  0.00000000000E+00 0. -1.
        -11    1    3    3    0    0 -0.68438658631E+02  0.10033169609E+03 -0.14678490068E+03  0.19051537025E+03  0.00000000000E+00 0.  1.
          4    1    6    6  502    0  0.28528093847E+03 -0.29586626168E+03  0.18948076212E+02  0.41143783035E+03  0.00000000000E+00 0. -1.
          3    1    5    5  503    0 -0.18294322170E+03  0.15902443302E+03  0.65118232654E+03  0.69483481135E+03  0.00000000000E+00 0. -1.
         -4    1    5    5    0  503  0.65127634152E+01 -0.23084015063E+01  0.21030348122E+02  0.22136403207E+02  0.00000000000E+00 0.  1.
         -3    1    6    6    0  502  0.24465265127E+02 -0.10783394884E+01  0.73747528269E+01  0.25575359099E+02  0.00000000000E+00 0.  1.
<mgrwt>
<rscale>  0 0.15397241E+04</rscale>
<asrwt>0</asrwt>
<pdfrwt beam="1">  1        2 0.14685916E+00 0.15397241E+04</pdfrwt>
<pdfrwt beam="2">  1       -2 0.95520825E-01 0.15397241E+04</pdfrwt>
<totfact> 0.23904491E+01</totfact>
</mgrwt>
</event>
<event>
12    1  0.1097093E-007  0.2809770E+04  0.7818608E-02  0.8300241E-01
          1   -1    0    0  501    0  0.00000000000E+00  0.00000000000E+00  0.92991343377E+03  0.92991343377E+03  0.00000000000E+00 0.  1.
         -1   -1    0    0    0  501 -0.00000000000E+00 -0.00000000000E+00 -0.21224580931E+04  0.21224580931E+04  0.00000000000E+00 0. -1.
         23    2    1    2    0    0  0.47214603355E+03  0.10644623980E+04 -0.10624262174E+04  0.15789685646E+04  0.91597962906E+02 0.  0.
        254    2    1    2    0    0 -0.47214603355E+03 -0.10644623980E+04 -0.13011844197E+03  0.14734029623E+04  0.89329916968E+03 0.  0.
        -24    2    4    4    0    0 -0.12416925253E+03 -0.88543489785E+03  0.23977299747E+03  0.92905558273E+03  0.78995087719E+02 0.  0.
         24    2    4    4    0    0 -0.34797678103E+03 -0.17902750018E+03 -0.36989143944E+03  0.54434737957E+03  0.79722686385E+02 0.  0.
         13    1    3    3    0    0  0.25655254201E+03  0.54097637538E+03 -0.60437829584E+03  0.85073366573E+03  0.00000000000E+00 0.  1.
        -13    1    3    3    0    0  0.21559349154E+03  0.52348602265E+03 -0.45804792157E+03  0.72823489889E+03  0.00000000000E+00 0. -1.
          2    1    6    6  502    0 -0.26386733057E+02  0.25345502308E+01 -0.90182739688E+01  0.28000230207E+02  0.00000000000E+00 0. -1.
          1    1    5    5  503    0 -0.14656389173E+02 -0.19610563304E+02  0.22366951489E+01  0.24584278348E+02  0.00000000000E+00 0. -1.
         -2    1    5    5    0  503 -0.10951286335E+03 -0.86582433454E+03  0.23753630232E+03  0.90447130438E+03  0.00000000000E+00 0.  1.
         -1    1    6    6    0  502 -0.32159004797E+03 -0.18156205041E+03 -0.36087316547E+03  0.51634714936E+03  0.00000000000E+00 0.  1.
<mgrwt>
<rscale>  0 0.28097703E+04</rscale>
<asrwt>0</asrwt>
<pdfrwt beam="1">  1        1 0.14306361E+00 0.28097703E+04</pdfrwt>
<pdfrwt beam="2">  1       -1 0.32653201E+00 0.28097703E+04</pdfrwt>
<totfact> 0.33006673E-01</totfact>
</mgrwt>
</event>
<event>
12    1  0.1097093E-007  0.1964159E+04  0.7818608E-02  0.8623563E-01
         -2   -1    0    0    0  501 -0.00000000000E+00  0.00000000000E+00  0.47150569215E+03  0.47150569215E+03  0.00000000000E+00 0. -1.
          2   -1    0    0  501    0  0.00000000000E+00 -0.00000000000E+00 -0.20455318214E+04  0.20455318214E+04  0.00000000000E+00 0.  1.
         23    2    1    2    0    0 -0.28033669118E+03  0.62508394910E+03 -0.10724372592E+04  0.12758090927E+04  0.90821596004E+02 0.  0.
        254    2    1    2    0    0  0.28033669118E+03 -0.62508394910E+03 -0.50158887006E+03  0.12412284208E+04  0.90539383380E+03 0.  0.
        -24    2    4    4    0    0  0.15455933435E+02 -0.55016220441E+03  0.10960320686E+03  0.56622882633E+03  0.75398168284E+02 0.  0.
         24    2    4    4    0    0  0.26488075775E+03 -0.74921744694E+02 -0.61119207692E+03  0.67499959451E+03  0.79332301397E+02 0.  0.
         11    1    3    3    0    0 -0.86125355855E+02  0.20092640790E+03 -0.42348799128E+03  0.47658270748E+03  0.00000000000E+00 0. -1.
        -11    1    3    3    0    0 -0.19421133533E+03  0.42415754120E+03 -0.64894926793E+03  0.79922638524E+03  0.00000000000E+00 0.  1.
          4    1    6    6  502    0  0.12666720587E+03 -0.12447436923E+02 -0.20370009148E+03  0.24019418602E+03  0.00000000000E+00 0. -1.
          3    1    5    5  503    0 -0.23285688245E+02 -0.19929763418E+03  0.62140856961E+02  0.21005536501E+03  0.00000000000E+00 0. -1.
         -4    1    5    5    0  503  0.38741621680E+02 -0.35086457023E+03  0.47462349896E+02  0.35617346132E+03  0.00000000000E+00 0.  1.
         -3    1    6    6    0  502  0.13821355188E+03 -0.62474307771E+02 -0.40749198544E+03  0.43480540849E+03  0.00000000000E+00 0.  1.
<mgrwt>
<rscale>  0 0.19641587E+04</rscale>
<asrwt>0</asrwt>
<pdfrwt beam="1">  1        2 0.31469720E+00 0.19641587E+04</pdfrwt>
<pdfrwt beam="2">  1       -2 0.72539337E-01 0.19641587E+04</pdfrwt>
<totfact> 0.10093791E+01</totfact>
</mgrwt>
</event>
<event>
12    1  0.1097093E-007  0.2356930E+04  0.7818608E-02  0.8455807E-01
          2   -1    0    0  501    0  0.00000000000E+00  0.00000000000E+00  0.97080696651E+03  0.97080696651E+03  0.00000000000E+00 0. -1.
         -2   -1    0    0    0  501 -0.00000000000E+00 -0.00000000000E+00 -0.14305412858E+04  0.14305412858E+04  0.00000000000E+00 0.  1.
         23    2    1    2    0    0  0.98560027856E+03  0.14790424989E+03 -0.27955245485E+03  0.10430344944E+04  0.12840484882E+03 0.  0.
        254    2    1    2    0    0 -0.98560027856E+03 -0.14790424989E+03 -0.18018186442E+03  0.13583137579E+04  0.90513379368E+03 0.  0.
        -24    2    4    4    0    0 -0.13601378681E+03 -0.28224638068E+03  0.23513640699E+03  0.39984161165E+03  0.80133731376E+02 0.  0.
         24    2    4    4    0    0 -0.84958649176E+03  0.13434213079E+03 -0.41531827141E+03  0.95847214628E+03  0.79590034200E+02 0.  0.
         13    1    3    3    0    0  0.18192014300E+03 -0.19928631306E+02 -0.67653793855E+02  0.19511310719E+03  0.00000000000E+00 0.  1.
        -13    1    3    3    0    0  0.80368013557E+03  0.16783288119E+03 -0.21189866100E+03  0.84792138718E+03  0.00000000000E+00 0. -1.
          4    1    6    6  502    0 -0.29009193737E+03  0.78643639043E+02 -0.16672018181E+03  0.34370593988E+03  0.00000000000E+00 0. -1.
          1    1    5    5  503    0 -0.71031637244E+02 -0.93962963955E+02  0.50196075845E+02  0.12803975209E+03  0.00000000000E+00 0. -1.
         -4    1    5    5    0  503 -0.64982149562E+02 -0.18828341673E+03  0.18494033114E+03  0.27180185956E+03  0.00000000000E+00 0.  1.
         -3    1    6    6    0  502 -0.55949455439E+03  0.55698491751E+02 -0.24859808960E+03  0.61476620639E+03  0.00000000000E+00 0.  1.
<mgrwt>
<rscale>  0 0.23569297E+04</rscale>
<asrwt>0</asrwt>
<pdfrwt beam="1">  1        2 0.14935492E+00 0.23569297E+04</pdfrwt>
<pdfrwt beam="2">  1       -2 0.22008327E+00 0.23569297E+04</pdfrwt>
<totfact> 0.23431849E+00</totfact>
</mgrwt>
</event>
<event>
12    1  0.1097093E-007  0.1869792E+04  0.7818608E-02  0.8670041E-01
         -1   -1    0    0    0  501 -0.00000000000E+00  0.00000000000E+00  0.38894175739E+03  0.38894175739E+03  0.00000000000E+00 0.  1.
          1   -1    0    0  501    0  0.00000000000E+00 -0.00000000000E+00 -0.22472010822E+04  0.22472010822E+04  0.00000000000E+00 0. -1.
         23    2    1    2    0    0 -0.59391815089E+03 -0.34679706400E+03 -0.42847642684E+03  0.81483744460E+03  0.85796498747E+02 0.  0.
        254    2    1    2    0    0  0.59391815089E+03  0.34679706400E+03 -0.14297828980E+04  0.18213053950E+04  0.89435296889E+03 0.  0.
        -24    2    4    4    0    0  0.44696577314E+03  0.51324371571E+03 -0.46384251941E+03  0.82691400040E+03  0.73752065533E+02 0.  0.
         24    2    4    4    0    0  0.14695237775E+03 -0.16644665170E+03 -0.96594037857E+03  0.99439139460E+03  0.80460807420E+02 0.  0.
         13    1    3    3    0    0 -0.56472841574E+03 -0.34591566708E+03 -0.42083407314E+03  0.78465097298E+03  0.00000000000E+00 0.  1.
        -13    1    3    3    0    0 -0.29189735149E+02 -0.88139692152E+00 -0.76423536988E+01  0.30186471617E+02  0.00000000000E+00 0. -1.
          2    1    6    6  502    0  0.81891320671E+02 -0.13143939004E+03 -0.52722613157E+03  0.54949967740E+03  0.00000000000E+00 0. -1.
          1    1    5    5  503    0  0.19415540838E+03  0.27891797014E+03 -0.23380322052E+03  0.41249909406E+03  0.00000000000E+00 0. -1.
         -2    1    5    5    0  503  0.25281036476E+03  0.23432574556E+03 -0.23003929889E+03  0.41441490634E+03  0.00000000000E+00 0.  1.
         -1    1    6    6    0  502  0.65061057077E+02 -0.35007261659E+02 -0.43871424699E+03  0.44489171720E+03  0.00000000000E+00 0.  1.
<mgrwt>
<rscale>  0 0.18697918E+04</rscale>
<asrwt>0</asrwt>
<pdfrwt beam="1">  1        1 0.34572324E+00 0.18697918E+04</pdfrwt>
<pdfrwt beam="2">  1       -1 0.59837194E-01 0.18697918E+04</pdfrwt>
<totfact> 0.53744481E+00</totfact>
</mgrwt>
</event>
<event>
12    1  0.1097093E-007  0.2580189E+04  0.7818608E-02  0.8374962E-01
          1   -1    0    0  501    0  0.00000000000E+00  0.00000000000E+00  0.24473601432E+04  0.24473601432E+04  0.00000000000E+00 0. -1.
         -1   -1    0    0    0  501 -0.00000000000E+00 -0.00000000000E+00 -0.68005682736E+03  0.68005682736E+03  0.00000000000E+00 0.  1.
         23    2    1    2    0    0 -0.14004712929E+03  0.54609084771E+03  0.19701516087E+04  0.20511406576E+04  0.88612774573E+02 0.  0.
        254    2    1    2    0    0  0.14004712929E+03 -0.54609084771E+03 -0.20284829284E+03  0.10762763129E+04  0.89408884317E+03 0.  0.
        -24    2    4    4    0    0  0.21653675032E+03 -0.65141462211E+03 -0.42139343116E+03  0.80940782053E+03  0.79620487073E+02 0.  0.
         24    2    4    4    0    0 -0.76489621030E+02  0.10532377440E+03  0.21854513832E+03  0.26686849240E+03  0.80703501613E+02 0.  0.
         11    1    3    3    0    0 -0.14199968427E+03  0.50131911826E+03  0.18735066470E+04  0.19446109958E+04  0.00000000000E+00 0. -1.
        -11    1    3    3    0    0  0.19525549815E+01  0.44771729455E+02  0.96644961656E+02  0.10652966180E+03  0.00000000000E+00 0.  1.
          2    1    6    6  502    0 -0.58252283812E+02  0.10814353229E+03  0.14028680041E+03  0.18646377267E+03  0.00000000000E+00 0. -1.
          3    1    5    5  503    0  0.16233470668E+03 -0.38348140202E+03 -0.27829168398E+03  0.50085607120E+03  0.00000000000E+00 0. -1.
         -4    1    5    5    0  503  0.54202043634E+02 -0.26793322010E+03 -0.14310174719E+03  0.30855174933E+03  0.00000000000E+00 0.  1.
         -1    1    6    6    0  502 -0.18237337218E+02 -0.28197578957E+01  0.78258337905E+02  0.80404719731E+02  0.00000000000E+00 0.  1.
<mgrwt>
<rscale>  0 0.25801891E+04</rscale>
<asrwt>0</asrwt>
<pdfrwt beam="1">  1        1 0.37651694E+00 0.25801891E+04</pdfrwt>
<pdfrwt beam="2">  1       -1 0.10462413E+00 0.25801891E+04</pdfrwt>
<totfact> 0.11156109E+00</totfact>
</mgrwt>
</event>
<event>
12    1  0.1291236E-007  0.2088974E+04  0.7818608E-02  0.8566116E-01
         -2   -1    0    0    0  501 -0.00000000000E+00  0.00000000000E+00  0.70943554785E+03  0.70943554785E+03  0.00000000000E+00 0.  1.
          2   -1    0    0  501    0  0.00000000000E+00 -0.00000000000E+00 -0.15377760198E+04  0.15377760198E+04  0.00000000000E+00 0. -1.
         23    2    1    2    0    0 -0.50789344296E+03 -0.19002512071E+03  0.31516914311E+03  0.63438703283E+03  0.95131607532E+02 0.  0.
        254    2    1    2    0    0  0.50789344296E+03  0.19002512071E+03 -0.11435096151E+04  0.16128245349E+04  0.99976169385E+03 0.  0.
        -24    2    4    4    0    0  0.46728223748E+03 -0.33763864906E+03 -0.44185891549E+03  0.73074152803E+03  0.79945811563E+02 0.  0.
         24    2    4    4    0    0  0.40611205482E+02  0.52766376977E+03 -0.70165069961E+03  0.88208300683E+03  0.75355177204E+02 0.  0.
         11    1    3    3    0    0 -0.48651938725E+03 -0.18463375358E+03  0.27500964059E+03  0.58857543233E+03  0.00000000000E+00 0.  1.
        -11    1    3    3    0    0 -0.21374055712E+02 -0.53913671294E+01  0.40159502527E+02  0.45811600499E+02  0.00000000000E+00 0. -1.
          4    1    6    6  502    0  0.11096578368E+02  0.42802506154E+02 -0.96029153532E+02  0.10572032403E+03  0.00000000000E+00 0. -1.
          3    1    5    5  503    0  0.13321032036E+02  0.30659500293E+01 -0.16651893451E+02  0.21543804204E+02  0.00000000000E+00 0. -1.
         -4    1    5    5    0  503  0.45396120544E+03 -0.34070459909E+03 -0.42520702204E+03  0.70919772382E+03  0.00000000000E+00 0.  1.
         -3    1    6    6    0  502  0.29514627114E+02  0.48486126361E+03 -0.60562154608E+03  0.77636268280E+03  0.00000000000E+00 0.  1.
<mgrwt>
<rscale>  0 0.20889739E+04</rscale>
<asrwt>0</asrwt>
<pdfrwt beam="1">  1        2 0.23658092E+00 0.20889739E+04</pdfrwt>
<pdfrwt beam="2">  1       -2 0.10914393E+00 0.20889739E+04</pdfrwt>
<totfact> 0.74652494E+00</totfact>
</mgrwt>
</event>
<event>
12    1  0.1097093E-007  0.1771301E+04  0.7818608E-02  0.8721712E-01
          2   -1    0    0  501    0  0.00000000000E+00  0.00000000000E+00  0.35234209188E+04  0.35234209188E+04  0.00000000000E+00 0. -1.
         -2   -1    0    0    0  501 -0.00000000000E+00 -0.00000000000E+00 -0.22261794487E+03  0.22261794487E+03  0.00000000000E+00 0.  1.
         23    2    1    2    0    0  0.32556276311E+03  0.56632686500E+03  0.12360187148E+04  0.14010709031E+04  0.92413101752E+02 0.  0.
        254    2    1    2    0    0 -0.32556276311E+03 -0.56632686500E+03  0.20647842591E+04  0.23449679606E+04  0.89934613399E+03 0.  0.
        -24    2    4    4    0    0  0.21104056450E+03 -0.25755870848E+03  0.13649881507E+04  0.14072974298E+04  0.80117391390E+02 0.  0.
         24    2    4    4    0    0 -0.53660332761E+03 -0.30876815652E+03  0.69979610849E+03  0.93767053078E+03  0.78933675605E+02 0.  0.
         11    1    3    3    0    0  0.22255833233E+03  0.38604575644E+03  0.74721759782E+03  0.86999866428E+03  0.00000000000E+00 0. -1.
        -11    1    3    3    0    0  0.10300443078E+03  0.18028110856E+03  0.48880111698E+03  0.53107223880E+03  0.00000000000E+00 0.  1.
          4    1    6    6  502    0 -0.33893875279E+03 -0.23772038105E+03  0.45759914045E+03  0.61707976068E+03  0.00000000000E+00 0. -1.
          1    1    5    5  503    0  0.12366778613E+03 -0.92748904591E+02  0.68144339427E+03  0.69875688206E+03  0.00000000000E+00 0. -1.
         -2    1    5    5    0  503  0.87372778377E+02 -0.16480980389E+03  0.68354475638E+03  0.70854054777E+03  0.00000000000E+00 0.  1.
         -3    1    6    6    0  502 -0.19766457482E+03 -0.71047775472E+02  0.24219696805E+03  0.32059077010E+03  0.00000000000E+00 0.  1.
<mgrwt>
<rscale>  0 0.17713009E+04</rscale>
<asrwt>0</asrwt>
<pdfrwt beam="1">  1        2 0.54206472E+00 0.17713009E+04</pdfrwt>
<pdfrwt beam="2">  1       -2 0.34248917E-01 0.17713009E+04</pdfrwt>
<totfact> 0.59676773E+00</totfact>
</mgrwt>
</event>
<event>
12    1  0.1097093E-007  0.2463505E+04  0.7818608E-02  0.8416104E-01
         -1   -1    0    0    0  501 -0.00000000000E+00  0.00000000000E+00  0.53147376367E+03  0.53147376367E+03  0.00000000000E+00 0.  1.
          1   -1    0    0  501    0  0.00000000000E+00 -0.00000000000E+00 -0.28547291991E+04  0.28547291991E+04  0.00000000000E+00 0. -1.
         23    2    1    2    0    0  0.67774891482E+03  0.45429942477E+03 -0.69914268627E+02  0.82399317322E+03  0.91351987769E+02 0.  0.
        254    2    1    2    0    0 -0.67774891482E+03 -0.45429942477E+03 -0.22533411668E+04  0.25622097896E+04  0.90644416973E+03 0.  0.
        -24    2    4    4    0    0 -0.47418940861E+03  0.14763274002E+03 -0.14538988276E+04  0.15381301264E+04  0.73290271079E+02 0.  0.
         24    2    4    4    0    0 -0.20355950621E+03 -0.60193216478E+03 -0.79944233928E+03  0.10240796632E+04  0.76630928117E+02 0.  0.
         11    1    3    3    0    0  0.23157632942E+03  0.13365526035E+03  0.16099022803E+02  0.26786284457E+03  0.00000000000E+00 0. -1.
        -11    1    3    3    0    0  0.44617258540E+03  0.32064416442E+03 -0.86013291430E+02  0.55613032865E+03  0.00000000000E+00 0.  1.
          2    1    6    6  502    0 -0.19029375664E+03 -0.48915667398E+03 -0.68371419518E+03  0.86194609240E+03  0.00000000000E+00 0. -1.
          3    1    5    5  503    0 -0.41571975568E+03  0.11438176322E+03 -0.11869199015E+04  0.12628083606E+04  0.00000000000E+00 0. -1.
         -4    1    5    5    0  503 -0.58469652938E+02  0.33250976799E+02 -0.26697892604E+03  0.27532176580E+03  0.00000000000E+00 0.  1.
         -1    1    6    6    0  502 -0.13265749567E+02 -0.11277549081E+03 -0.11572814410E+03  0.16213357078E+03  0.00000000000E+00 0.  1.
<mgrwt>
<rscale>  0 0.24635046E+04</rscale>
<asrwt>0</asrwt>
<pdfrwt beam="1">  1        1 0.43918911E+00 0.24635046E+04</pdfrwt>
<pdfrwt beam="2">  1       -1 0.81765194E-01 0.24635046E+04</pdfrwt>
<totfact> 0.10102745E+00</totfact>
</mgrwt>
</event>
<event>
12    1  0.1097093E-007  0.1835529E+04  0.7818608E-02  0.8687631E-01
          2   -1    0    0  501    0  0.00000000000E+00  0.00000000000E+00  0.28319849627E+04  0.28319849627E+04  0.00000000000E+00 0. -1.
         -2   -1    0    0    0  501 -0.00000000000E+00 -0.00000000000E+00 -0.29742092289E+03  0.29742092289E+03  0.00000000000E+00 0.  1.
         23    2    1    2    0    0  0.44876013143E+02 -0.63572951125E+03  0.48480400191E+03  0.80621285118E+03  0.93692972577E+02 0.  0.
        254    2    1    2    0    0 -0.44876013143E+02  0.63572951125E+03  0.20497600379E+04  0.23231930344E+04  0.88856276882E+03 0.  0.
        -24    2    4    4    0    0 -0.39990150576E+03  0.10122533826E+03  0.56957030983E+03  0.70778831730E+03  0.79913583566E+02 0.  0.
         24    2    4    4    0    0  0.35502549262E+03  0.53450417299E+03  0.14801897281E+04  0.16154047171E+04  0.82661706107E+02 0.  0.
         11    1    3    3    0    0  0.16664509378E+02 -0.58401562537E+03  0.45277746301E+03  0.73916127303E+03  0.00000000000E+00 0. -1.
        -11    1    3    3    0    0  0.28211503765E+02 -0.51713885884E+02  0.32026538900E+02  0.67051578146E+02  0.00000000000E+00 0.  1.
          2    1    6    6  502    0  0.21142655947E+03  0.28725304105E+03  0.72730480585E+03  0.81005418353E+03  0.00000000000E+00 0. -1.
          1    1    5    5  503    0 -0.32626248341E+02  0.33364161385E+02  0.65766159417E+02  0.80640108323E+02  0.00000000000E+00 0. -1.
         -2    1    5    5    0  503 -0.36727525742E+03  0.67861176878E+02  0.50380415042E+03  0.62714820897E+03  0.00000000000E+00 0.  1.
         -3    1    6    6    0  502  0.14359893315E+03  0.24725113194E+03  0.75288492222E+03  0.80535053359E+03  0.00000000000E+00 0.  1.
<mgrwt>
<rscale>  0 0.18355289E+04</rscale>
<asrwt>0</asrwt>
<pdfrwt beam="1">  1        2 0.43568998E+00 0.18355289E+04</pdfrwt>
<pdfrwt beam="2">  1       -2 0.45757067E-01 0.18355289E+04</pdfrwt>
<totfact> 0.94518848E+00</totfact>
</mgrwt>
</event>
<event>
12    1  0.1396348E-007  0.1876829E+04  0.7818608E-02  0.8666477E-01
          1   -1    0    0  501    0  0.00000000000E+00  0.00000000000E+00  0.46211657618E+03  0.46211657618E+03  0.00000000000E+00 0. -1.
         -1   -1    0    0    0  501 -0.00000000000E+00 -0.00000000000E+00 -0.19056271527E+04  0.19056271527E+04  0.00000000000E+00 0.  1.
         23    2    1    2    0    0  0.85385689741E+02 -0.54241927785E+03  0.25041711076E+02  0.55691560590E+03  0.89546165786E+02 0.  0.
        254    2    1    2    0    0 -0.85385689741E+02  0.54241927785E+03 -0.14685522876E+04  0.18108281230E+04  0.90605920369E+03 0.  0.
        -24    2    4    4    0    0  0.26661291815E+02  0.56827118357E+03 -0.15453084227E+04  0.16490167517E+04  0.87379423864E+02 0.  0.
         24    2    4    4    0    0 -0.11204698156E+03 -0.25851905724E+02  0.76756135058E+02  0.16181137128E+03  0.84074779220E+02 0.  0.
         11    1    3    3    0    0  0.87201535731E+02 -0.47483463477E+03 -0.53138634549E+01  0.48280459334E+03  0.00000000000E+00 0. -1.
        -11    1    3    3    0    0 -0.18158459895E+01 -0.67584643080E+02  0.30355574531E+02  0.74111012555E+02  0.00000000000E+00 0.  1.
          4    1    6    6  502    0 -0.29837079314E+01 -0.11497789574E+02 -0.14598082279E+02  0.18820352927E+02  0.00000000000E+00 0. -1.
          3    1    5    5  503    0  0.18826363211E+02  0.52709110933E+02 -0.10164595629E+03  0.11603698875E+03  0.00000000000E+00 0. -1.
         -4    1    5    5    0  503  0.78349286039E+01  0.51556207264E+03 -0.14436624664E+04  0.15329797630E+04  0.00000000000E+00 0.  1.
         -3    1    6    6    0  502 -0.10906327362E+03 -0.14354116150E+02  0.91354217337E+02  0.14299101835E+03  0.00000000000E+00 0.  1.
<mgrwt>
<rscale>  0 0.18768291E+04</rscale>
<asrwt>0</asrwt>
<pdfrwt beam="1">  1        1 0.71094859E-01 0.18768291E+04</pdfrwt>
<pdfrwt beam="2">  1       -1 0.29317340E+00 0.18768291E+04</pdfrwt>
<totfact> 0.16943292E+00</totfact>
</mgrwt>
</event>
<event>
12    1  0.1097093E-007  0.1896674E+04  0.7818608E-02  0.8656514E-01
         -2   -1    0    0    0  501 -0.00000000000E+00  0.00000000000E+00  0.10062926948E+04  0.10062926948E+04  0.00000000000E+00 0.  1.
          2   -1    0    0  501    0  0.00000000000E+00 -0.00000000000E+00 -0.89371904292E+03  0.89371904292E+03  0.00000000000E+00 0. -1.
         23    2    1    2    0    0  0.24219919737E+03  0.35383551638E+03  0.63864127036E+03  0.77461969973E+03  0.91175562197E+02 0.  0.
        254    2    1    2    0    0 -0.24219919737E+03 -0.35383551638E+03 -0.52606761847E+03  0.11253920380E+04  0.89771937496E+03 0.  0.
        -24    2    4    4    0    0 -0.20419353584E+03 -0.29736470858E+03  0.18122860812E+03  0.41031649699E+03  0.73450999412E+02 0.  0.
         24    2    4    4    0    0 -0.38005661522E+02 -0.56470807793E+02 -0.70729622658E+03  0.71507554102E+03  0.80197847784E+02 0.  0.
         11    1    3    3    0    0  0.84173144913E+02  0.17667009720E+03  0.22967109184E+03  0.30173871477E+03  0.00000000000E+00 0.  1.
        -11    1    3    3    0    0  0.15802605245E+03  0.17716541918E+03  0.40897017853E+03  0.47288098495E+03  0.00000000000E+00 0. -1.
          4    1    6    6  502    0 -0.34352689310E+01 -0.63684444365E+02 -0.55928515916E+03  0.56290976078E+03  0.00000000000E+00 0. -1.
          3    1    5    5  503    0 -0.18233926886E+03 -0.25128716568E+03  0.18087673392E+03  0.35931774445E+03  0.00000000000E+00 0. -1.
         -4    1    5    5    0  503 -0.21854266982E+02 -0.46077542904E+02  0.35187419509E+00  0.50998752542E+02  0.00000000000E+00 0.  1.
         -3    1    6    6    0  502 -0.34570392591E+02  0.72136365721E+01 -0.14801106742E+03  0.15216578024E+03  0.00000000000E+00 0.  1.
<mgrwt>
<rscale>  0 0.18966739E+04</rscale>
<asrwt>0</asrwt>
<pdfrwt beam="1">  1        2 0.13749524E+00 0.18966739E+04</pdfrwt>
<pdfrwt beam="2">  1       -2 0.15481426E+00 0.18966739E+04</pdfrwt>
<totfact> 0.76376988E+00</totfact>
</mgrwt>
</event>
<event>
12    1  0.1097093E-007  0.2495573E+04  0.7818608E-02  0.8404564E-01
         -2   -1    0    0    0  501 -0.00000000000E+00  0.00000000000E+00  0.41731719647E+03  0.41731719647E+03  0.00000000000E+00 0.  1.
          2   -1    0    0  501    0  0.00000000000E+00 -0.00000000000E+00 -0.37309064869E+04  0.37309064869E+04  0.00000000000E+00 0. -1.
         23    2    1    2    0    0 -0.12861718046E+03  0.40902991536E+03  0.20924617135E+03  0.48594757186E+03  0.92267175122E+02 0.  0.
        254    2    1    2    0    0  0.12861718046E+03 -0.40902991536E+03 -0.35228354618E+04  0.36622761116E+04  0.90446048857E+03 0.  0.
        -24    2    4    4    0    0  0.34462163361E+03 -0.60354038595E+03 -0.24861084526E+04  0.25826138944E+04  0.78321272161E+02 0.  0.
         24    2    4    4    0    0 -0.21600445315E+03  0.19451047059E+03 -0.10367270092E+04  0.10796622171E+04  0.79845879832E+02 0.  0.
         11    1    3    3    0    0 -0.80099258754E+02  0.11583235930E+03  0.55750811062E+02  0.15146345978E+03  0.00000000000E+00 0. -1.
        -11    1    3    3    0    0 -0.48517921703E+02  0.29319755606E+03  0.15349536029E+03  0.33448411208E+03  0.00000000000E+00 0.  1.
          2    1    6    6  502    0 -0.81297578424E+01 -0.16058058726E+01 -0.65021671397E+01  0.10533268846E+02  0.00000000000E+00 0. -1.
          1    1    5    5  503    0  0.10252520337E+03 -0.14952783530E+03 -0.53924336737E+03  0.56890544039E+03  0.00000000000E+00 0. -1.
         -2    1    5    5    0  503  0.24209643023E+03 -0.45401255065E+03 -0.19468650853E+04  0.20137084540E+04  0.00000000000E+00 0.  1.
         -1    1    6    6    0  502 -0.20787469531E+03  0.19611627646E+03 -0.10302248421E+04  0.10691289483E+04  0.00000000000E+00 0.  1.
<mgrwt>
<rscale>  0 0.24955732E+04</rscale>
<asrwt>0</asrwt>
<pdfrwt beam="1">  1        2 0.57398559E+00 0.24955732E+04</pdfrwt>
<pdfrwt beam="2">  1       -2 0.64202648E-01 0.24955732E+04</pdfrwt>
<totfact> 0.11098653E+00</totfact>
</mgrwt>
</event>
<event>
12    1  0.1097093E-007  0.1302930E+04  0.7818608E-02  0.9027245E-01
         -1   -1    0    0    0  501 -0.00000000000E+00  0.00000000000E+00  0.37941632046E+03  0.37941632046E+03  0.00000000000E+00 0.  1.
          1   -1    0    0  501    0  0.00000000000E+00 -0.00000000000E+00 -0.11185772495E+04  0.11185772495E+04  0.00000000000E+00 0. -1.
         23    2    1    2    0    0  0.20916345136E+03 -0.19535059938E+03 -0.48292698972E+01  0.30069285106E+03  0.92095943256E+02 0.  0.
        254    2    1    2    0    0 -0.20916345136E+03  0.19535059938E+03 -0.73433165910E+03  0.11973007189E+04  0.90131837869E+03 0.  0.
        -24    2    4    4    0    0 -0.54347396847E+03  0.14459855478E+03 -0.30424134018E+03  0.64425490710E+03  0.78923353941E+02 0.  0.
         24    2    4    4    0    0  0.33431051710E+03  0.50752044600E+02 -0.43009031892E+03  0.55304581177E+03  0.80886931002E+02 0.  0.
         11    1    3    3    0    0  0.12023520602E+03 -0.14630588643E+03  0.33179734786E+02  0.19225715063E+03  0.00000000000E+00 0. -1.
        -11    1    3    3    0    0  0.88928245349E+02 -0.49044712953E+02 -0.38009004683E+02  0.10843570042E+03  0.00000000000E+00 0.  1.
          2    1    6    6  502    0  0.32696300975E+02 -0.18184946071E+02 -0.59464655436E+02  0.70255146482E+02  0.00000000000E+00 0. -1.
          3    1    5    5  503    0 -0.13078037423E+03  0.69992445644E+02 -0.86604952897E+02  0.17176398516E+03  0.00000000000E+00 0. -1.
         -4    1    5    5    0  503 -0.41269359424E+03  0.74606109139E+02 -0.21763638728E+03  0.47249092194E+03  0.00000000000E+00 0.  1.
         -1    1    6    6    0  502  0.30161421613E+03  0.68936990671E+02 -0.37062566349E+03  0.48279066529E+03  0.00000000000E+00 0.  1.
<mgrwt>
<rscale>  0 0.13029297E+04</rscale>
<asrwt>0</asrwt>
<pdfrwt beam="1">  1        1 0.17208881E+00 0.13029297E+04</pdfrwt>
<pdfrwt beam="2">  1       -1 0.58371742E-01 0.13029297E+04</pdfrwt>
<totfact> 0.35864335E+01</totfact>
</mgrwt>
</event>
<event>
12    1  0.1097093E-007  0.1540586E+04  0.7818608E-02  0.8857904E-01
          1   -1    0    0  501    0  0.00000000000E+00  0.00000000000E+00  0.40288122624E+03  0.40288122624E+03  0.00000000000E+00 0. -1.
         -1   -1    0    0    0  501 -0.00000000000E+00 -0.00000000000E+00 -0.14727691819E+04  0.14727691819E+04  0.00000000000E+00 0.  1.
         23    2    1    2    0    0 -0.38530323479E+03  0.71030392026E+02  0.33258046028E+02  0.40228305772E+03  0.84980359914E+02 0.  0.
        254    2    1    2    0    0  0.38530323479E+03 -0.71030392026E+02 -0.11031460017E+04  0.14733673504E+04  0.89463755170E+03 0.  0.
        -24    2    4    4    0    0  0.32584102355E+03  0.38367352244E+03 -0.62910005857E+03  0.80968747548E+03  0.80306785560E+02 0.  0.
         24    2    4    4    0    0  0.59462211243E+02 -0.45470391447E+03 -0.47404594309E+03  0.66367987492E+03  0.73891919850E+02 0.  0.
         13    1    3    3    0    0 -0.71953099922E+02  0.42835382700E+02  0.25636042440E+02  0.87574683964E+02  0.00000000000E+00 0.  1.
        -13    1    3    3    0    0 -0.31335013487E+03  0.28195009326E+02  0.76220035879E+01  0.31470837376E+03  0.00000000000E+00 0. -1.
          2    1    6    6  502    0  0.50157153562E+02 -0.45086807777E+03 -0.46868873617E+03  0.65227823435E+03  0.00000000000E+00 0. -1.
          1    1    5    5  503    0  0.27599534925E+03  0.35488524233E+03 -0.58130841978E+03  0.73487172142E+03  0.00000000000E+00 0. -1.
         -2    1    5    5    0  503  0.49845674296E+02  0.28788280108E+02 -0.47791638797E+02  0.74815754066E+02  0.00000000000E+00 0.  1.
         -1    1    6    6    0  502  0.93050576807E+01 -0.38358367000E+01 -0.53572069250E+01  0.11401640569E+02  0.00000000000E+00 0.  1.
<mgrwt>
<rscale>  0 0.15405857E+04</rscale>
<asrwt>0</asrwt>
<pdfrwt beam="1">  1        1 0.61981727E-01 0.15405857E+04</pdfrwt>
<pdfrwt beam="2">  1       -1 0.22657988E+00 0.15405857E+04</pdfrwt>
<totfact> 0.56990156E+00</totfact>
</mgrwt>
</event>
<event>
12    1  0.1779853E-007  0.2514999E+04  0.7818608E-02  0.8397661E-01
          2   -1    0    0  501    0  0.00000000000E+00  0.00000000000E+00  0.16850515658E+04  0.16850515658E+04  0.00000000000E+00 0. -1.
         -2   -1    0    0    0  501 -0.00000000000E+00 -0.00000000000E+00 -0.93843149150E+03  0.93843149150E+03  0.00000000000E+00 0.  1.
         23    2    1    2    0    0  0.26878071415E+03  0.95875921643E+03  0.81684001872E+03  0.12910427146E+04  0.90007596109E+02 0.  0.
        254    2    1    2    0    0 -0.26878071415E+03 -0.95875921643E+03 -0.70219944403E+02  0.13324403427E+04  0.88261209990E+03 0.  0.
        -24    2    4    4    0    0 -0.57829420632E+02  0.55383981301E+02  0.22418515845E+03  0.25254198270E+03  0.84302078763E+02 0.  0.
         24    2    4    4    0    0 -0.21095129352E+03 -0.10141431977E+04 -0.29440510285E+03  0.10798983600E+04  0.80741746400E+02 0.  0.
         13    1    3    3    0    0  0.21895831818E+03  0.76257711328E+03  0.60244997662E+03  0.99619906300E+03  0.00000000000E+00 0. -1.
        -13    1    3    3    0    0  0.49822395975E+02  0.19618210315E+03  0.21439004211E+03  0.29484365161E+03  0.00000000000E+00 0.  1.
          4    1    6    6  502    0 -0.19146005454E+03 -0.93656578438E+03 -0.29324107603E+03  0.99990136995E+03  0.00000000000E+00 0. -1.
          1    1    5    5  503    0 -0.76173017274E+02  0.40610502804E+02  0.20404046646E+03  0.22154921225E+03  0.00000000000E+00 0. -1.
         -2    1    5    5    0  503  0.18343596642E+02  0.14773478497E+02  0.20144691992E+02  0.30992770450E+02  0.00000000000E+00 0.  1.
         -3    1    6    6    0  502 -0.19491238981E+02 -0.77577413351E+02 -0.11640268201E+01  0.79996990054E+02  0.00000000000E+00 0.  1.
<mgrwt>
<rscale>  0 0.25149994E+04</rscale>
<asrwt>0</asrwt>
<pdfrwt beam="1">  1        2 0.25923870E+00 0.25149994E+04</pdfrwt>
<pdfrwt beam="2">  1       -2 0.14437408E+00 0.25149994E+04</pdfrwt>
<totfact> 0.29517185E+00</totfact>
</mgrwt>
</event>
<event>
12    1  0.1097093E-007  0.1722418E+04  0.7818608E-02  0.8748681E-01
          2   -1    0    0  501    0  0.00000000000E+00  0.00000000000E+00  0.93283406556E+03  0.93283406556E+03  0.00000000000E+00 0. -1.
         -2   -1    0    0    0  501 -0.00000000000E+00 -0.00000000000E+00 -0.79508341084E+03  0.79508341084E+03  0.00000000000E+00 0.  1.
         23    2    1    2    0    0  0.17860693913E+03 -0.16477060811E+03  0.63082284705E+03  0.68187114744E+03  0.89224466053E+02 0.  0.
        254    2    1    2    0    0 -0.17860693913E+03  0.16477060811E+03 -0.49307219232E+03  0.10460463290E+04  0.88996794520E+03 0.  0.
        -24    2    4    4    0    0 -0.46625929423E+03  0.25584710311E+03 -0.10453960658E+03  0.54792304589E+03  0.80222598163E+02 0.  0.
         24    2    4    4    0    0  0.28765235509E+03 -0.91076494997E+02 -0.38853258575E+03  0.49812328307E+03  0.78297060086E+02 0.  0.
         13    1    3    3    0    0  0.11131803690E+03 -0.14974770554E+03  0.40836991781E+03  0.44897891980E+03  0.00000000000E+00 0. -1.
        -13    1    3    3    0    0  0.67288902233E+02 -0.15022902571E+02  0.22245292924E+03  0.23289222764E+03  0.00000000000E+00 0.  1.
          2    1    6    6  502    0 -0.20946813012E+01  0.33100781440E+01  0.49970743974E+00  0.39489257524E+01  0.00000000000E+00 0. -1.
          3    1    5    5  503    0 -0.65689425590E+02  0.28052104868E+02  0.12421413696E+02  0.72500432689E+02  0.00000000000E+00 0. -1.
         -4    1    5    5    0  503 -0.40056986864E+03  0.22779499824E+03 -0.11696102027E+03  0.47542261320E+03  0.00000000000E+00 0.  1.
         -1    1    6    6    0  502  0.28974703640E+03 -0.94386573141E+02 -0.38903229319E+03  0.49417435732E+03  0.00000000000E+00 0.  1.
<mgrwt>
<rscale>  0 0.17224179E+04</rscale>
<asrwt>0</asrwt>
<pdfrwt beam="1">  1        2 0.14351293E+00 0.17224179E+04</pdfrwt>
<pdfrwt beam="2">  1       -2 0.12232053E+00 0.17224179E+04</pdfrwt>
<totfact> 0.13401809E+01</totfact>
</mgrwt>
</event>
<event>
12    1  0.1097093E-007  0.2029073E+04  0.7818608E-02  0.8593148E-01
          1   -1    0    0  501    0  0.00000000000E+00  0.00000000000E+00  0.22356078403E+04  0.22356078403E+04  0.00000000000E+00 0. -1.
         -1   -1    0    0    0  501 -0.00000000000E+00 -0.00000000000E+00 -0.46040462702E+03  0.46040462702E+03  0.00000000000E+00 0.  1.
         23    2    1    2    0    0  0.76900710804E+03  0.80978163007E+02  0.10640293300E+04  0.13185451839E+04  0.92052114401E+02 0.  0.
        254    2    1    2    0    0 -0.76900710804E+03 -0.80978163007E+02  0.71117388326E+03  0.13774672834E+04  0.89090876613E+03 0.  0.
        -24    2    4    4    0    0 -0.35002587630E+03  0.39804688012E+03  0.28776827581E+03  0.60851363681E+03  0.80739288909E+02 0.  0.
         24    2    4    4    0    0 -0.41898123174E+03 -0.47902504313E+03  0.42340560745E+03  0.76895364661E+03  0.83708647782E+02 0.  0.
         13    1    3    3    0    0  0.15191577578E+03 -0.20080423947E+02  0.19860939540E+03  0.25085318077E+03  0.00000000000E+00 0.  1.
        -13    1    3    3    0    0  0.61709133225E+03  0.10105858695E+03  0.86541993462E+03  0.10676920031E+04  0.00000000000E+00 0. -1.
          2    1    6    6  502    0 -0.76237557392E+02 -0.44361108399E+02  0.52700313902E+02  0.10274919066E+03  0.00000000000E+00 0. -1.
          1    1    5    5  503    0 -0.10531541843E+03  0.69436407350E+02  0.76569721007E+02  0.14756583006E+03  0.00000000000E+00 0. -1.
         -2    1    5    5    0  503 -0.24471045787E+03  0.32861047277E+03  0.21119855480E+03  0.46094780676E+03  0.00000000000E+00 0.  1.
         -1    1    6    6    0  502 -0.34274367435E+03 -0.43466393473E+03  0.37070529355E+03  0.66620445595E+03  0.00000000000E+00 0.  1.
<mgrwt>
<rscale>  0 0.20290729E+04</rscale>
<asrwt>0</asrwt>
<pdfrwt beam="1">  1        1 0.34393966E+00 0.20290729E+04</pdfrwt>
<pdfrwt beam="2">  1       -1 0.70831483E-01 0.20290729E+04</pdfrwt>
<totfact> 0.38384467E+00</totfact>
</mgrwt>
</event>
<event>
12    1  0.1097093E-007  0.2612771E+04  0.7818608E-02  0.8363876E-01
         -2   -1    0    0    0  501 -0.00000000000E+00  0.00000000000E+00  0.11448227208E+04  0.11448227208E+04  0.00000000000E+00 0.  1.
          2   -1    0    0  501    0  0.00000000000E+00 -0.00000000000E+00 -0.14907490350E+04  0.14907490350E+04  0.00000000000E+00 0. -1.
         23    2    1    2    0    0  0.11154804617E+04 -0.19739526421E+03 -0.13364685162E+03  0.11438342133E+04  0.85051018888E+02 0.  0.
        254    2    1    2    0    0 -0.11154804617E+04  0.19739526421E+03 -0.21227946262E+03  0.14917375424E+04  0.94707801916E+03 0.  0.
        -24    2    4    4    0    0 -0.37740176427E+03 -0.35626324585E+03 -0.21096885130E+03  0.56568567869E+03  0.78337978333E+02 0.  0.
         24    2    4    4    0    0 -0.73807869747E+03  0.55365851006E+03 -0.13106113207E+01  0.92605186373E+03  0.79198656499E+02 0.  0.
         13    1    3    3    0    0  0.55255956451E+03 -0.13584127784E+03 -0.46750945735E+02  0.57092957186E+03  0.00000000000E+00 0. -1.
        -13    1    3    3    0    0  0.56292089723E+03 -0.61553986375E+02 -0.86895905886E+02  0.57290464149E+03  0.00000000000E+00 0.  1.
          4    1    6    6  502    0 -0.98805518357E+02  0.10073625054E+03 -0.19097843366E+02  0.14239048512E+03  0.00000000000E+00 0. -1.
          3    1    5    5  503    0 -0.18838727711E+02 -0.15466262803E+01 -0.16603716142E+02  0.25158956742E+02  0.00000000000E+00 0. -1.
         -4    1    5    5    0  503 -0.35856303655E+03 -0.35471661957E+03 -0.19436513516E+03  0.54052672195E+03  0.00000000000E+00 0.  1.
         -3    1    6    6    0  502 -0.63927317911E+03  0.45292225951E+03  0.17787232045E+02  0.78366137861E+03  0.00000000000E+00 0.  1.
<mgrwt>
<rscale>  0 0.26127712E+04</rscale>
<asrwt>0</asrwt>
<pdfrwt beam="1">  1        2 0.22934601E+00 0.26127712E+04</pdfrwt>
<pdfrwt beam="2">  1       -2 0.17612657E+00 0.26127712E+04</pdfrwt>
<totfact> 0.21906411E+00</totfact>
</mgrwt>
</event>
<event>
12    1  0.1097093E-007  0.2486515E+04  0.7818608E-02  0.8407805E-01
          2   -1    0    0  501    0  0.00000000000E+00  0.00000000000E+00  0.13398873632E+04  0.13398873632E+04  0.00000000000E+00 0. -1.
         -2   -1    0    0    0  501 -0.00000000000E+00 -0.00000000000E+00 -0.11535968329E+04  0.11535968329E+04  0.00000000000E+00 0.  1.
         23    2    1    2    0    0 -0.62761744162E+02  0.25815961501E+03  0.11314949981E+04  0.11663611435E+04  0.97631772290E+02 0.  0.
        254    2    1    2    0    0  0.62761744162E+02 -0.25815961501E+03 -0.94520446772E+03  0.13271230526E+04  0.89289343581E+03 0.  0.
        -24    2    4    4    0    0 -0.22926896861E+03  0.15807318058E+03 -0.69775612167E+03  0.75581309063E+03  0.82694813903E+02 0.  0.
         24    2    4    4    0    0  0.29203071277E+03 -0.41623279558E+03 -0.24744834605E+03  0.57130996201E+03  0.81441460039E+02 0.  0.
         11    1    3    3    0    0  0.76239978556E+01  0.12347110481E+01  0.12407882873E+03  0.12431896715E+03  0.00000000000E+00 0.  1.
        -11    1    3    3    0    0 -0.70385742017E+02  0.25692490396E+03  0.10074161694E+04  0.10420421763E+04  0.00000000000E+00 0. -1.
          4    1    6    6  502    0  0.70476188309E+02 -0.91790211311E+02 -0.95624832635E+02  0.15012143294E+03  0.00000000000E+00 0. -1.
          1    1    5    5  503    0 -0.46225262114E+02  0.55089986074E+02 -0.26801193224E+03  0.27749248143E+03  0.00000000000E+00 0. -1.
         -2    1    5    5    0  503 -0.18304370650E+03  0.10298319450E+03 -0.42974418943E+03  0.47832060920E+03  0.00000000000E+00 0.  1.
         -3    1    6    6    0  502  0.22155452447E+03 -0.32444258427E+03 -0.15182351341E+03  0.42118852908E+03  0.00000000000E+00 0.  1.
<mgrwt>
<rscale>  0 0.24865155E+04</rscale>
<asrwt>0</asrwt>
<pdfrwt beam="1">  1        2 0.20613652E+00 0.24865155E+04</pdfrwt>
<pdfrwt beam="2">  1       -2 0.17747643E+00 0.24865155E+04</pdfrwt>
<totfact> 0.26419631E+00</totfact>
</mgrwt>
</event>
<event>
12    1  0.1097093E-007  0.1675480E+04  0.7818608E-02  0.8775474E-01
         -2   -1    0    0    0  501 -0.00000000000E+00  0.00000000000E+00  0.10301654327E+04  0.10301654327E+04  0.00000000000E+00 0. -1.
          2   -1    0    0  501    0  0.00000000000E+00 -0.00000000000E+00 -0.68125760785E+03  0.68125760785E+03  0.00000000000E+00 0.  1.
         23    2    1    2    0    0  0.12832798441E+03  0.22050479991E+03 -0.42230998627E+03  0.50211860050E+03  0.93203680729E+02 0.  0.
        254    2    1    2    0    0 -0.12832798441E+03 -0.22050479991E+03  0.77121781110E+03  0.12093044400E+04  0.89585148219E+03 0.  0.
        -24    2    4    4    0    0 -0.10343941836E+03 -0.44228843557E+03  0.66628834226E+02  0.46590823013E+03  0.79450008452E+02 0.  0.
         24    2    4    4    0    0 -0.24888566056E+02  0.22178363567E+03  0.70458897687E+03  0.74339620989E+03  0.79905423967E+02 0.  0.
         11    1    3    3    0    0  0.89669480693E+02  0.20655316326E+03 -0.38787947789E+03  0.44850341625E+03  0.00000000000E+00 0.  1.
        -11    1    3    3    0    0  0.38658503720E+02  0.13951636645E+02 -0.34430508381E+02  0.53615184252E+02  0.00000000000E+00 0. -1.
          2    1    6    6  502    0  0.21990784702E+01  0.20535368088E+03  0.61162785695E+03  0.64518493906E+03  0.00000000000E+00 0. -1.
          1    1    5    5  503    0 -0.50978643515E+02 -0.35957373269E+03  0.52984087395E+02  0.36701417528E+03  0.00000000000E+00 0. -1.
         -2    1    5    5    0  503 -0.52460774842E+02 -0.82714702878E+02  0.13644746832E+02  0.98894054853E+02  0.00000000000E+00 0.  1.
         -1    1    6    6    0  502 -0.27087644526E+02  0.16429954789E+02  0.92961119922E+02  0.98211270827E+02  0.00000000000E+00 0.  1.
<mgrwt>
<rscale>  0 0.16754797E+04</rscale>
<asrwt>0</asrwt>
<pdfrwt beam="1">  1        2 0.10480886E+00 0.16754797E+04</pdfrwt>
<pdfrwt beam="2">  1       -2 0.15848699E+00 0.16754797E+04</pdfrwt>
<totfact> 0.10442361E+01</totfact>
</mgrwt>
</event>
<event>
12    1  0.1097093E-007  0.1324991E+04  0.7818608E-02  0.9009978E-01
          1   -1    0    0  501    0  0.00000000000E+00  0.00000000000E+00  0.48463208546E+03  0.48463208546E+03  0.00000000000E+00 0. -1.
         -1   -1    0    0    0  501 -0.00000000000E+00 -0.00000000000E+00 -0.90563655555E+03  0.90563655555E+03  0.00000000000E+00 0.  1.
         23    2    1    2    0    0 -0.10903567252E+03 -0.69174024155E+02  0.22346616194E+03  0.27325872003E+03  0.89774044376E+02 0.  0.
        254    2    1    2    0    0  0.10903567252E+03  0.69174024155E+02 -0.64447063203E+03  0.11170099210E+04  0.90315831641E+03 0.  0.
        -24    2    4    4    0    0  0.18855978502E+03  0.40147730038E+03 -0.89487816474E+02  0.45951213943E+03  0.80028255887E+02 0.  0.
         24    2    4    4    0    0 -0.79524112499E+02 -0.33230327623E+03 -0.55498281556E+03  0.65749778154E+03  0.86878393784E+02 0.  0.
         13    1    3    3    0    0 -0.19660669558E+02  0.17971023789E+02  0.73269609701E+02  0.77961114212E+02  0.00000000000E+00 0.  1.
        -13    1    3    3    0    0 -0.89375002963E+02 -0.87145047944E+02  0.15019655224E+03  0.19529760582E+03  0.00000000000E+00 0. -1.
          2    1    6    6  502    0 -0.46957088661E+02 -0.14526934519E+03 -0.17159999937E+03  0.22968393634E+03  0.00000000000E+00 0. -1.
          3    1    5    5  503    0  0.15276187264E+03  0.32690230351E+03 -0.39819848270E+02  0.36302469074E+03  0.00000000000E+00 0. -1.
         -4    1    5    5    0  503  0.35797912376E+02  0.74574996874E+02 -0.49667968205E+02  0.96487448691E+02  0.00000000000E+00 0.  1.
         -1    1    6    6    0  502 -0.32567023839E+02 -0.18703393104E+03 -0.38338281619E+03  0.42781384521E+03  0.00000000000E+00 0.  1.
<mgrwt>
<rscale>  0 0.13249914E+04</rscale>
<asrwt>0</asrwt>
<pdfrwt beam="1">  1        1 0.74558783E-01 0.13249914E+04</pdfrwt>
<pdfrwt beam="2">  1       -1 0.13932870E+00 0.13249914E+04</pdfrwt>
<totfact> 0.19265202E+01</totfact>
</mgrwt>
</event>
<event>
12    1  0.1097093E-007  0.1978111E+04  0.7818608E-02  0.8616923E-01
          1   -1    0    0  501    0  0.00000000000E+00  0.00000000000E+00  0.57412217265E+03  0.57412217265E+03  0.00000000000E+00 0. -1.
         -1   -1    0    0    0  501 -0.00000000000E+00 -0.00000000000E+00 -0.17038723467E+04  0.17038723467E+04  0.00000000000E+00 0.  1.
         23    2    1    2    0    0 -0.41672767306E+03  0.30902139814E+03 -0.11290291954E+04  0.12458786187E+04  0.91380689721E+02 0.  0.
        254    2    1    2    0    0  0.41672767306E+03 -0.30902139814E+03 -0.72097864897E+00  0.10321159007E+04  0.89224802302E+03 0.  0.
        -24    2    4    4    0    0  0.67098661974E+03 -0.21586128171E+03  0.13091873402E+03  0.72126400461E+03  0.79138565900E+02 0.  0.
         24    2    4    4    0    0 -0.25425894669E+03 -0.93160116431E+02 -0.13163971266E+03  0.31085189605E+03  0.77288214263E+02 0.  0.
         13    1    3    3    0    0 -0.37254931084E+02  0.57950568404E+02 -0.10872663485E+03  0.12871549788E+03  0.00000000000E+00 0. -1.
        -13    1    3    3    0    0 -0.37947274198E+03  0.25107082973E+03 -0.10203025606E+04  0.11171631208E+04  0.00000000000E+00 0.  1.
          4    1    6    6  502    0 -0.19328878942E+03 -0.33662779666E+02 -0.86173696058E+02  0.21428869485E+03  0.00000000000E+00 0. -1.
          1    1    5    5  503    0  0.50335856813E+03 -0.19676777565E+03  0.94118902697E+02  0.54858524724E+03  0.00000000000E+00 0. -1.
         -2    1    5    5    0  503  0.16762805162E+03 -0.19093506057E+02  0.36799831318E+02  0.17267875737E+03  0.00000000000E+00 0.  1.
         -3    1    6    6    0  502 -0.60970157270E+02 -0.59497336765E+02 -0.45466016606E+02  0.96563201198E+02  0.00000000000E+00 0.  1.
<mgrwt>
<rscale>  0 0.19781111E+04</rscale>
<asrwt>0</asrwt>
<pdfrwt beam="1">  1        1 0.88326488E-01 0.19781111E+04</pdfrwt>
<pdfrwt beam="2">  1       -1 0.26213421E+00 0.19781111E+04</pdfrwt>
<totfact> 0.19713021E+00</totfact>
</mgrwt>
</event>
<event>
12    1  0.1097093E-007  0.1646505E+04  0.7818608E-02  0.8792477E-01
         -2   -1    0    0    0  501 -0.00000000000E+00  0.00000000000E+00  0.54584519799E+03  0.54584519799E+03  0.00000000000E+00 0.  1.
          2   -1    0    0  501    0  0.00000000000E+00 -0.00000000000E+00 -0.12416430969E+04  0.12416430969E+04  0.00000000000E+00 0. -1.
         23    2    1    2    0    0  0.12330094525E+03  0.51911776100E+03 -0.47278651117E+03  0.71862757994E+03  0.90620861944E+02 0.  0.
        254    2    1    2    0    0 -0.12330094525E+03 -0.51911776100E+03 -0.22301138778E+03  0.10688607150E+04  0.89891199575E+03 0.  0.
        -24    2    4    4    0    0 -0.24391670137E+03  0.16193521471E+03  0.72891536281E+02  0.31228282674E+03  0.80554434057E+02 0.  0.
         24    2    4    4    0    0  0.12061575612E+03 -0.68105297570E+03 -0.29590292406E+03  0.75657788826E+03  0.80437828134E+02 0.  0.
         13    1    3    3    0    0  0.50612345783E+02  0.72547748946E+02 -0.86285887037E+02  0.12357200219E+03  0.00000000000E+00 0.  1.
        -13    1    3    3    0    0  0.72688599463E+02  0.44657001205E+03 -0.38650062413E+03  0.59505557775E+03  0.00000000000E+00 0. -1.
          2    1    6    6  502    0 -0.75922653853E+01 -0.33962275927E+02 -0.27667309872E+02  0.44458505546E+02  0.00000000000E+00 0. -1.
          3    1    5    5  503    0 -0.16922077931E+02  0.79095224631E+01 -0.15290533232E+02  0.24139545846E+02  0.00000000000E+00 0. -1.
         -4    1    5    5    0  503 -0.22699462344E+03  0.15402569224E+03  0.88182069513E+02  0.28814328089E+03  0.00000000000E+00 0.  1.
         -1    1    6    6    0  502  0.12820802151E+03 -0.64709069978E+03 -0.26823561419E+03  0.71211938271E+03  0.00000000000E+00 0.  1.
<mgrwt>
<rscale>  0 0.16465053E+04</rscale>
<asrwt>0</asrwt>
<pdfrwt beam="1">  1        2 0.19102201E+00 0.16465053E+04</pdfrwt>
<pdfrwt beam="2">  1       -2 0.83976185E-01 0.16465053E+04</pdfrwt>
<totfact> 0.21175723E+01</totfact>
</mgrwt>
</event>
<event>
12    1  0.1097093E-007  0.2184874E+04  0.7818608E-02  0.8524750E-01
         -2   -1    0    0    0  501 -0.00000000000E+00  0.00000000000E+00  0.12903923334E+04  0.12903923334E+04  0.00000000000E+00 0.  1.
          2   -1    0    0  501    0  0.00000000000E+00 -0.00000000000E+00 -0.92484957862E+03  0.92484957862E+03  0.00000000000E+00 0. -1.
         23    2    1    2    0    0  0.33761171070E+03  0.34122017481E+03  0.92505575239E+03  0.10461265703E+04  0.90773240115E+02 0.  0.
        254    2    1    2    0    0 -0.33761171070E+03 -0.34122017481E+03 -0.55951299764E+03  0.11691153417E+04  0.90739352697E+03 0.  0.
        -24    2    4    4    0    0 -0.73119226469E+01 -0.40673297902E+03  0.98296315029E+02  0.42580006210E+03  0.78475135557E+02 0.  0.
         24    2    4    4    0    0 -0.33029978805E+03  0.65512804210E+02 -0.65780931267E+03  0.74331527961E+03  0.80091420058E+02 0.  0.
         11    1    3    3    0    0  0.23044717607E+03  0.26490433883E+03  0.73998631378E+03  0.81906040942E+03  0.00000000000E+00 0.  1.
        -11    1    3    3    0    0  0.10716453462E+03  0.76315835978E+02  0.18506943861E+03  0.22706616086E+03  0.00000000000E+00 0. -1.
          2    1    6    6  502    0 -0.29744530722E+03  0.32048430875E+02 -0.56366403223E+03  0.63813631297E+03  0.00000000000E+00 0. -1.
          3    1    5    5  503    0 -0.20426190834E+02 -0.39667585828E+03  0.98653960855E+02  0.40926955641E+03  0.00000000000E+00 0. -1.
         -4    1    5    5    0  503  0.13114268187E+02 -0.10057120735E+02 -0.35764582591E+00  0.16530505682E+02  0.00000000000E+00 0.  1.
         -1    1    6    6    0  502 -0.32854480828E+02  0.33464373334E+02 -0.94145280442E+02  0.10517896664E+03  0.00000000000E+00 0.  1.
<mgrwt>
<rscale>  0 0.21848742E+04</rscale>
<asrwt>0</asrwt>
<pdfrwt beam="1">  1        2 0.14228455E+00 0.21848742E+04</pdfrwt>
<pdfrwt beam="2">  1       -2 0.19852190E+00 0.21848742E+04</pdfrwt>
<totfact> 0.35108402E+00</totfact>
</mgrwt>
</event>
<event>
12    1  0.1097093E-007  0.2105747E+04  0.7818608E-02  0.8558716E-01
          2   -1    0    0  501    0  0.00000000000E+00  0.00000000000E+00  0.10023011777E+04  0.10023011777E+04  0.00000000000E+00 0. -1.
         -2   -1    0    0    0  501 -0.00000000000E+00 -0.00000000000E+00 -0.11059977605E+04  0.11059977605E+04  0.00000000000E+00 0.  1.
         23    2    1    2    0    0 -0.15198665982E+03  0.83703976391E+03  0.64868037733E+02  0.85805687908E+03  0.91204354569E+02 0.  0.
        254    2    1    2    0    0  0.15198665982E+03 -0.83703976391E+03 -0.16856462056E+03  0.12502420592E+04  0.90053076800E+03 0.  0.
        -24    2    4    4    0    0 -0.15878861031E+03 -0.87023231134E+03 -0.24146655813E+03  0.92031394503E+03  0.78444631720E+02 0.  0.
         24    2    4    4    0    0  0.31077527014E+03  0.33192547435E+02  0.72901937571E+02  0.32992811415E+03  0.76517019506E+02 0.  0.
         11    1    3    3    0    0 -0.86683857936E+02  0.43793171634E+03 -0.11109497831E+02  0.44656656877E+03  0.00000000000E+00 0. -1.
        -11    1    3    3    0    0 -0.65302801887E+02  0.39910804757E+03  0.75977535564E+02  0.41149031031E+03  0.00000000000E+00 0.  1.
          2    1    6    6  502    0  0.43831113368E+02 -0.12194680139E+02  0.33056257284E+02  0.56236935091E+02  0.00000000000E+00 0. -1.
          3    1    5    5  503    0 -0.29360195410E+02 -0.24019755163E+03 -0.99487130163E+02  0.26163825017E+03  0.00000000000E+00 0. -1.
         -4    1    5    5    0  503 -0.12942841490E+03 -0.63003475971E+03 -0.14197942797E+03  0.65867569486E+03  0.00000000000E+00 0.  1.
         -1    1    6    6    0  502  0.26694415677E+03  0.45387227574E+02  0.39845680287E+02  0.27369117906E+03  0.00000000000E+00 0.  1.
<mgrwt>
<rscale>  0 0.21057472E+04</rscale>
<asrwt>0</asrwt>
<pdfrwt beam="1">  1        2 0.15420018E+00 0.21057472E+04</pdfrwt>
<pdfrwt beam="2">  1       -2 0.17015350E+00 0.21057472E+04</pdfrwt>
<totfact> 0.49149086E+00</totfact>
</mgrwt>
</event>
<event>
12    1  0.1097093E-007  0.1860197E+04  0.7818608E-02  0.8674927E-01
         -2   -1    0    0    0  501 -0.00000000000E+00  0.00000000000E+00  0.71970539017E+03  0.71970539017E+03  0.00000000000E+00 0.  1.
          2   -1    0    0  501    0  0.00000000000E+00 -0.00000000000E+00 -0.12019962684E+04  0.12019962684E+04  0.00000000000E+00 0. -1.
         23    2    1    2    0    0 -0.19300650393E+03 -0.15308432844E+03 -0.87042910107E+03  0.90918290343E+03  0.90996756669E+02 0.  0.
        254    2    1    2    0    0  0.19300650393E+03  0.15308432844E+03  0.38813822287E+03  0.10125187551E+04  0.90214002640E+03 0.  0.
        -24    2    4    4    0    0 -0.32702863597E+03  0.35952000918E+02  0.32617443014E+03  0.46988787037E+03  0.78514818565E+02 0.  0.
         24    2    4    4    0    0  0.52003513990E+03  0.11713232753E+03  0.61963792727E+02  0.54263088474E+03  0.80325815163E+02 0.  0.
         11    1    3    3    0    0  0.40972748512E+01 -0.38608882062E+01 -0.15808173498E+01  0.58474868483E+01  0.00000000000E+00 0.  1.
        -11    1    3    3    0    0 -0.19710377878E+03 -0.14922344024E+03 -0.86884828372E+03  0.90333541658E+03  0.00000000000E+00 0. -1.
          4    1    6    6  502    0  0.49419029374E+03  0.10410858785E+03  0.75554864145E+02  0.51065759760E+03  0.00000000000E+00 0. -1.
          3    1    5    5  503    0 -0.25857543333E+03  0.59205465414E+02  0.26813878637E+03  0.37718026276E+03  0.00000000000E+00 0. -1.
         -4    1    5    5    0  503 -0.68453202636E+02 -0.23253464496E+02  0.58035643770E+02  0.92707607617E+02  0.00000000000E+00 0.  1.
         -3    1    6    6    0  502  0.25844846160E+02  0.13023739678E+02 -0.13591071418E+02  0.31973287140E+02  0.00000000000E+00 0.  1.
<mgrwt>
<rscale>  0 0.18601970E+04</rscale>
<asrwt>0</asrwt>
<pdfrwt beam="1">  1        2 0.18492250E+00 0.18601970E+04</pdfrwt>
<pdfrwt beam="2">  1       -2 0.11072391E+00 0.18601970E+04</pdfrwt>
<totfact> 0.11478012E+01</totfact>
</mgrwt>
</event>
<event>
12    1  0.1097093E-007  0.3025056E+04  0.7818608E-02  0.8236612E-01
         -3   -1    0    0    0  501 -0.00000000000E+00  0.00000000000E+00  0.14090261515E+04  0.14090261515E+04  0.00000000000E+00 0.  1.
          3   -1    0    0  501    0  0.00000000000E+00 -0.00000000000E+00 -0.16236324821E+04  0.16236324821E+04  0.00000000000E+00 0. -1.
         23    2    1    2    0    0 -0.12493715652E+04 -0.54697885898E+03  0.99302313306E+02  0.13705392281E+04  0.91660494273E+02 0.  0.
        254    2    1    2    0    0  0.12493715652E+04  0.54697885898E+03 -0.31390864394E+03  0.16621194055E+04  0.89665327812E+03 0.  0.
        -24    2    4    4    0    0  0.15717919557E+03  0.34648242747E+03  0.19819211953E+03  0.43663904831E+03  0.81352137028E+02 0.  0.
         24    2    4    4    0    0  0.10921923696E+04  0.20049643150E+03 -0.51210076347E+03  0.12254803572E+04  0.80448259653E+02 0.  0.
         11    1    3    3    0    0 -0.54169427448E+03 -0.19833532163E+03  0.13862241124E+02  0.57702837758E+03  0.00000000000E+00 0.  1.
        -11    1    3    3    0    0 -0.70767729073E+03 -0.34864353735E+03  0.85440072182E+02  0.79351085052E+03  0.00000000000E+00 0. -1.
          4    1    6    6  502    0  0.79809024534E+03  0.12180186891E+03 -0.34248880396E+03  0.87697338375E+03  0.00000000000E+00 0. -1.
          1    1    5    5  503    0  0.69002220201E+02  0.12446492607E+03  0.11731307037E+03  0.18443204899E+03  0.00000000000E+00 0. -1.
         -4    1    5    5    0  503  0.88176975364E+02  0.22201750140E+03  0.80879049157E+02  0.25220699932E+03  0.00000000000E+00 0.  1.
         -3    1    6    6    0  502  0.29410212430E+03  0.78694562596E+02 -0.16961195951E+03  0.34850697340E+03  0.00000000000E+00 0.  1.
<mgrwt>
<rscale>  0 0.30250558E+04</rscale>
<asrwt>0</asrwt>
<pdfrwt beam="1">  1        3 0.24978961E+00 0.30250558E+04</pdfrwt>
<pdfrwt beam="2">  1       -3 0.21677325E+00 0.30250558E+04</pdfrwt>
<totfact> 0.18901783E-02</totfact>
</mgrwt>
</event>
<event>
12    1  0.1097093E-007  0.1647577E+04  0.7818608E-02  0.8791841E-01
          2   -1    0    0  501    0  0.00000000000E+00  0.00000000000E+00  0.21146787755E+04  0.21146787755E+04  0.00000000000E+00 0. -1.
         -2   -1    0    0    0  501 -0.00000000000E+00 -0.00000000000E+00 -0.32091299484E+03  0.32091299484E+03  0.00000000000E+00 0.  1.
         23    2    1    2    0    0 -0.13827732163E+03 -0.22577202412E+03 -0.11068250877E+03  0.30125258645E+03  0.91699937511E+02 0.  0.
        254    2    1    2    0    0  0.13827732163E+03  0.22577202412E+03  0.19044482894E+04  0.21343391839E+04  0.92649168386E+03 0.  0.
        -24    2    4    4    0    0 -0.16113088416E+03  0.34087937388E+03  0.27966512228E+03  0.47624138857E+03  0.80195824100E+02 0.  0.
         24    2    4    4    0    0  0.29940820579E+03 -0.11510734976E+03  0.16247831672E+04  0.16580977953E+04  0.80454850319E+02 0.  0.
         13    1    3    3    0    0 -0.20891921323E+02 -0.47933003539E+02 -0.64829359100E+02  0.83288000373E+02  0.00000000000E+00 0. -1.
        -13    1    3    3    0    0 -0.11738540031E+03 -0.17783902059E+03 -0.45853149671E+02  0.21796458608E+03  0.00000000000E+00 0.  1.
          4    1    6    6  502    0  0.50314812390E+02  0.47702272102E+01  0.35440468646E+03  0.35799024735E+03  0.00000000000E+00 0. -1.
          1    1    5    5  503    0 -0.27258346488E+01  0.32713617086E+00 -0.44963337787E+01  0.52682264622E+01  0.00000000000E+00 0. -1.
         -2    1    5    5    0  503 -0.15840504951E+03  0.34055223771E+03  0.28416145606E+03  0.47097316211E+03  0.00000000000E+00 0.  1.
         -3    1    6    6    0  502  0.24909339340E+03 -0.11987757697E+03  0.12703784807E+04  0.13001075480E+04  0.00000000000E+00 0.  1.
<mgrwt>
<rscale>  0 0.16475775E+04</rscale>
<asrwt>0</asrwt>
<pdfrwt beam="1">  1        2 0.32533519E+00 0.16475775E+04</pdfrwt>
<pdfrwt beam="2">  1       -2 0.49371231E-01 0.16475775E+04</pdfrwt>
<totfact> 0.21400998E+01</totfact>
</mgrwt>
</event>
<event>
12    1  0.1097093E-007  0.2286335E+04  0.7818608E-02  0.8483328E-01
          2   -1    0    0  501    0  0.00000000000E+00  0.00000000000E+00  0.22127525929E+04  0.22127525929E+04  0.00000000000E+00 0.  1.
         -2   -1    0    0    0  501 -0.00000000000E+00 -0.00000000000E+00 -0.59059126490E+03  0.59059126490E+03  0.00000000000E+00 0. -1.
         23    2    1    2    0    0 -0.12615401414E+03  0.32143505662E+03  0.18050212041E+04  0.18400860899E+04  0.92627964246E+02 0.  0.
        254    2    1    2    0    0  0.12615401414E+03 -0.32143505662E+03 -0.18285987618E+03  0.96325776790E+03  0.88045014748E+03 0.  0.
        -24    2    4    4    0    0 -0.21569483801E+03  0.78007845221E+02 -0.33209707275E+03  0.41107345227E+03  0.77996348466E+02 0.  0.
         24    2    4    4    0    0  0.34184885215E+03 -0.39944290184E+03  0.14923719657E+03  0.55218431563E+03  0.78870197489E+02 0.  0.
         11    1    3    3    0    0  0.34550087255E+01 -0.43503692001E+01  0.13887779941E+02  0.14957714704E+02  0.00000000000E+00 0. -1.
        -11    1    3    3    0    0 -0.12960902286E+03  0.32578542582E+03  0.17911334242E+04  0.18251283751E+04  0.00000000000E+00 0.  1.
          2    1    6    6  502    0  0.18556349686E+01 -0.23615769436E+02  0.14538012826E+02  0.27793915955E+02  0.00000000000E+00 0. -1.
          1    1    5    5  503    0 -0.71760382375E+02  0.58652121666E+02 -0.92801909397E+02  0.13115570229E+03  0.00000000000E+00 0. -1.
         -2    1    5    5    0  503 -0.14393445563E+03  0.19355723556E+02 -0.23929516335E+03  0.27991774998E+03  0.00000000000E+00 0.  1.
         -1    1    6    6    0  502  0.33999321718E+03 -0.37582713240E+03  0.13469918374E+03  0.52439039968E+03  0.00000000000E+00 0.  1.
<mgrwt>
<rscale>  0 0.22863354E+04</rscale>
<asrwt>0</asrwt>
<pdfrwt beam="1">  1        2 0.34042347E+00 0.22863354E+04</pdfrwt>
<pdfrwt beam="2">  1       -2 0.90860196E-01 0.22863354E+04</pdfrwt>
<totfact> 0.47652093E+00</totfact>
</mgrwt>
</event>
<event>
12    1  0.1097093E-007  0.1840604E+04  0.7818608E-02  0.8685000E-01
          1   -1    0    0  501    0  0.00000000000E+00  0.00000000000E+00  0.99169929535E+03  0.99169929535E+03  0.00000000000E+00 0. -1.
         -1   -1    0    0    0  501 -0.00000000000E+00 -0.00000000000E+00 -0.85404469963E+03  0.85404469963E+03  0.00000000000E+00 0.  1.
         23    2    1    2    0    0 -0.14502678016E+03 -0.21126750115E+03 -0.59534335685E+03  0.65509591497E+03  0.95132650891E+02 0.  0.
        254    2    1    2    0    0  0.14502678016E+03  0.21126750115E+03  0.73299795257E+03  0.11906480800E+04  0.90260186569E+03 0.  0.
        -24    2    4    4    0    0  0.36517355313E+03 -0.13959842394E+03  0.69946679430E+02  0.40487757929E+03  0.78701158679E+02 0.  0.
         24    2    4    4    0    0 -0.22014677298E+03  0.35086592510E+03  0.66305127314E+03  0.78577050071E+03  0.78910011630E+02 0.  0.
         13    1    3    3    0    0 -0.60441365394E+02 -0.38210759262E+02 -0.24582486586E+03  0.25601383839E+03  0.00000000000E+00 0. -1.
        -13    1    3    3    0    0 -0.84585414763E+02 -0.17305674189E+03 -0.34951849099E+03  0.39908207658E+03  0.00000000000E+00 0.  1.
          2    1    6    6  502    0 -0.10806944991E+03  0.19387372605E+03  0.42415929407E+03  0.47872448694E+03  0.00000000000E+00 0. -1.
          3    1    5    5  503    0  0.11445299427E+03 -0.32538185384E+02 -0.13546345234E+02  0.11975694082E+03  0.00000000000E+00 0. -1.
         -4    1    5    5    0  503  0.25072055887E+03 -0.10706023856E+03  0.83493024664E+02  0.28512063848E+03  0.00000000000E+00 0.  1.
         -1    1    6    6    0  502 -0.11207732307E+03  0.15699219905E+03  0.23889197907E+03  0.30704601377E+03  0.00000000000E+00 0.  1.
<mgrwt>
<rscale>  0 0.18406037E+04</rscale>
<asrwt>0</asrwt>
<pdfrwt beam="1">  1        1 0.15256912E+00 0.18406037E+04</pdfrwt>
<pdfrwt beam="2">  1       -1 0.13139149E+00 0.18406037E+04</pdfrwt>
<totfact> 0.71307852E+00</totfact>
</mgrwt>
</event>
<event>
12    1  0.1097093E-007  0.2603322E+04  0.7818608E-02  0.8367074E-01
         -1   -1    0    0    0  501 -0.00000000000E+00  0.00000000000E+00  0.76039838510E+03  0.76039838510E+03  0.00000000000E+00 0.  1.
          1   -1    0    0  501    0  0.00000000000E+00 -0.00000000000E+00 -0.22282028841E+04  0.22282028841E+04  0.00000000000E+00 0. -1.
         23    2    1    2    0    0  0.91290520983E+03 -0.47161356129E+02 -0.14154074940E+04  0.16875599816E+04  0.94128645720E+02 0.  0.
        254    2    1    2    0    0 -0.91290520983E+03  0.47161356129E+02 -0.52397005053E+02  0.13010412876E+04  0.92430669708E+03 0.  0.
        -24    2    4    4    0    0 -0.28081253641E+03 -0.41393905189E+03 -0.80517010803E+02  0.51394720161E+03  0.86356920588E+02 0.  0.
         24    2    4    4    0    0 -0.63209267343E+03  0.46110040802E+03  0.28120005750E+02  0.78709408599E+03  0.81065599391E+02 0.  0.
         11    1    3    3    0    0  0.45381901800E+03 -0.61980728461E+02 -0.75646059684E+03  0.88432230910E+03  0.00000000000E+00 0.  1.
        -11    1    3    3    0    0  0.45908619184E+03  0.14819372332E+02 -0.65894689714E+03  0.80323767253E+03  0.00000000000E+00 0. -1.
          4    1    6    6  502    0 -0.24026731101E+03  0.15932961651E+03  0.47345753350E+02  0.29215736821E+03  0.00000000000E+00 0. -1.
          1    1    5    5  503    0  0.25202803166E+01 -0.71538478440E+01 -0.11002561182E+02  0.13363596238E+02  0.00000000000E+00 0. -1.
         -2    1    5    5    0  503 -0.28333281672E+03 -0.40678520405E+03 -0.69514449621E+02  0.50058360538E+03  0.00000000000E+00 0.  1.
         -3    1    6    6    0  502 -0.39182536242E+03  0.30177079151E+03 -0.19225747600E+02  0.49493671779E+03  0.00000000000E+00 0.  1.
<mgrwt>
<rscale>  0 0.26033224E+04</rscale>
<asrwt>0</asrwt>
<pdfrwt beam="1">  1        1 0.34280044E+00 0.26033224E+04</pdfrwt>
<pdfrwt beam="2">  1       -1 0.11698437E+00 0.26033224E+04</pdfrwt>
<totfact> 0.12083266E+00</totfact>
</mgrwt>
</event>
<event>
12    1  0.1097093E-007  0.4333749E+04  0.7818608E-02  0.7940407E-01
         -2   -1    0    0    0  501 -0.00000000000E+00  0.00000000000E+00  0.10578122645E+04  0.10578122645E+04  0.00000000000E+00 0.  1.
          2   -1    0    0  501    0  0.00000000000E+00 -0.00000000000E+00 -0.44387321215E+04  0.44387321215E+04  0.00000000000E+00 0. -1.
         23    2    1    2    0    0 -0.10612952354E+04 -0.16293501974E+04 -0.73754929940E+03  0.20816566152E+04  0.90474592847E+02 0.  0.
        254    2    1    2    0    0  0.10612952354E+04  0.16293501974E+04 -0.26433705576E+04  0.34148877709E+04  0.94494494059E+03 0.  0.
        -24    2    4    4    0    0  0.10781015957E+04  0.17139036693E+04 -0.23758155193E+04  0.31225974794E+04  0.79666794008E+02 0.  0.
         24    2    4    4    0    0 -0.16806360340E+02 -0.84553471918E+02 -0.26755503824E+03  0.29229029150E+03  0.80101015297E+02 0.  0.
         13    1    3    3    0    0 -0.50132805095E+03 -0.68771852017E+03 -0.31848108459E+03  0.90868959436E+03  0.00000000000E+00 0.  1.
        -13    1    3    3    0    0 -0.55996718441E+03 -0.94163167724E+03 -0.41906821481E+03  0.11729670208E+04  0.00000000000E+00 0. -1.
          2    1    6    6  502    0 -0.39532050980E+02 -0.49209285401E+02 -0.21978306064E+03  0.22866772962E+03  0.00000000000E+00 0. -1.
          3    1    5    5  503    0  0.78289179418E+03  0.11893970524E+04 -0.16365871952E+04  0.21693322837E+04  0.00000000000E+00 0. -1.
         -4    1    5    5    0  503  0.29520980153E+03  0.52450661692E+03 -0.73922832417E+03  0.95326519572E+03  0.00000000000E+00 0.  1.
         -1    1    6    6    0  502  0.22725690640E+02 -0.35344186517E+02 -0.47771977603E+02  0.63622561877E+02  0.00000000000E+00 0.  1.
<mgrwt>
<rscale>  0 0.43337491E+04</rscale>
<asrwt>0</asrwt>
<pdfrwt beam="1">  1        2 0.68288186E+00 0.43337491E+04</pdfrwt>
<pdfrwt beam="2">  1       -2 0.16274035E+00 0.43337491E+04</pdfrwt>
<totfact> 0.25851659E-02</totfact>
</mgrwt>
</event>
<event>
12    1  0.1227006E-007  0.2458274E+04  0.7818608E-02  0.8418003E-01
         -1   -1    0    0    0  501 -0.00000000000E+00  0.00000000000E+00  0.12738398542E+04  0.12738398542E+04  0.00000000000E+00 0.  1.
          1   -1    0    0  501    0  0.00000000000E+00 -0.00000000000E+00 -0.11860030219E+04  0.11860030219E+04  0.00000000000E+00 0. -1.
         23    2    1    2    0    0  0.37399305304E+03  0.94347490438E+03 -0.27720044900E+03  0.10563010402E+04  0.94425101322E+02 0.  0.
        254    2    1    2    0    0 -0.37399305304E+03 -0.94347490438E+03  0.36503728137E+03  0.14035418359E+04  0.89814351268E+03 0.  0.
        -24    2    4    4    0    0  0.19081167165E+03 -0.23974294242E+03  0.38380769821E+03  0.49735902187E+03  0.78561281515E+02 0.  0.
         24    2    4    4    0    0 -0.56480472469E+03 -0.70373196196E+03 -0.18770416837E+02  0.90618281402E+03  0.81067333452E+02 0.  0.
         13    1    3    3    0    0  0.37854566229E+03  0.91890549274E+03 -0.27525991766E+03  0.10312381613E+04  0.00000000000E+00 0. -1.
        -13    1    3    3    0    0 -0.45526092469E+01  0.24569411644E+02 -0.19405313389E+01  0.25062878952E+02  0.00000000000E+00 0.  1.
          2    1    6    6  502    0 -0.50193054808E+02 -0.10521991805E+03  0.16105369879E+01  0.11658974112E+03  0.00000000000E+00 0. -1.
          1    1    5    5  503    0  0.22882692573E+02 -0.19245970341E+01  0.14744870310E+02  0.27289794678E+02  0.00000000000E+00 0. -1.
         -2    1    5    5    0  503  0.16792897908E+03 -0.23781834539E+03  0.36906282790E+03  0.47006922719E+03  0.00000000000E+00 0.  1.
         -1    1    6    6    0  502 -0.51461166988E+03 -0.59851204391E+03 -0.20380953825E+02  0.78959307290E+03  0.00000000000E+00 0.  1.
<mgrwt>
<rscale>  0 0.24582741E+04</rscale>
<asrwt>0</asrwt>
<pdfrwt beam="1">  1        1 0.18246200E+00 0.24582741E+04</pdfrwt>
<pdfrwt beam="2">  1       -1 0.19597536E+00 0.24582741E+04</pdfrwt>
<totfact> 0.15656809E+00</totfact>
</mgrwt>
</event>
<event>
12    1  0.1097093E-007  0.1888134E+04  0.7818608E-02  0.8660785E-01
         -1   -1    0    0    0  501 -0.00000000000E+00  0.00000000000E+00  0.47262752211E+03  0.47262752211E+03  0.00000000000E+00 0. -1.
          1   -1    0    0  501    0  0.00000000000E+00 -0.00000000000E+00 -0.18857609201E+04  0.18857609201E+04  0.00000000000E+00 0.  1.
         23    2    1    2    0    0  0.16935397194E+03 -0.60945254046E+03 -0.10011931143E+04  0.11877667597E+04  0.91044255260E+02 0.  0.
        254    2    1    2    0    0 -0.16935397194E+03  0.60945254046E+03 -0.41194028363E+03  0.11706216825E+04  0.89473301007E+03 0.  0.
        -24    2    4    4    0    0 -0.43103608344E+03  0.74499080624E+02 -0.45217002282E+01  0.44455994528E+03  0.79188893990E+02 0.  0.
         24    2    4    4    0    0  0.26168211150E+03  0.53495345984E+03 -0.40741858340E+03  0.72606173720E+03  0.80765168520E+02 0.  0.
         13    1    3    3    0    0  0.20251168806E+02 -0.10865531321E+03 -0.11876471032E+03  0.16223792203E+03  0.00000000000E+00 0. -1.
        -13    1    3    3    0    0  0.14910280313E+03 -0.50079722726E+03 -0.88242840401E+03  0.10255288377E+04  0.00000000000E+00 0.  1.
          2    1    6    6  502    0  0.15052969793E+03  0.21700173518E+03 -0.18407184159E+03  0.32191829071E+03  0.00000000000E+00 0. -1.
          1    1    5    5  503    0 -0.42790484774E+03  0.78212424858E+02  0.37010490113E+01  0.43500970091E+03  0.00000000000E+00 0. -1.
         -2    1    5    5    0  503 -0.31312356978E+01 -0.37133442343E+01 -0.82227492395E+01  0.95502443662E+01  0.00000000000E+00 0.  1.
         -1    1    6    6    0  502  0.11115241357E+03  0.31795172466E+03 -0.22334674181E+03  0.40414344648E+03  0.00000000000E+00 0.  1.
<mgrwt>
<rscale>  0 0.18881340E+04</rscale>
<asrwt>0</asrwt>
<pdfrwt beam="1">  1        1 0.29011706E+00 0.18881340E+04</pdfrwt>
<pdfrwt beam="2">  1       -1 0.72711927E-01 0.18881340E+04</pdfrwt>
<totfact> 0.63633842E+00</totfact>
</mgrwt>
</event>
<event>
12    1  0.1097093E-007  0.1479097E+04  0.7818608E-02  0.8898473E-01
         -2   -1    0    0    0  501 -0.00000000000E+00  0.00000000000E+00  0.23892935290E+03  0.23892935290E+03  0.00000000000E+00 0.  1.
          2   -1    0    0  501    0  0.00000000000E+00 -0.00000000000E+00 -0.22890953722E+04  0.22890953722E+04  0.00000000000E+00 0. -1.
         23    2    1    2    0    0  0.81462284614E+02  0.13533088061E+03  0.84053579215E+02  0.20232125726E+03  0.94436941403E+02 0.  0.
        254    2    1    2    0    0 -0.81462284614E+02 -0.13533088061E+03 -0.21342195985E+04  0.23257034679E+04  0.91052335202E+03 0.  0.
        -24    2    4    4    0    0 -0.17094268494E+03 -0.10997132641E+03 -0.21833774433E+04  0.21942921334E+04  0.80410275565E+02 0.  0.
         24    2    4    4    0    0  0.89480400329E+02 -0.25359554197E+02  0.49157844771E+02  0.13141133450E+03  0.78756562266E+02 0.  0.
         13    1    3    3    0    0  0.89258374720E+02  0.11220529831E+03  0.35083941880E+02  0.14760748424E+03  0.00000000000E+00 0.  1.
        -13    1    3    3    0    0 -0.77960901064E+01  0.23125582296E+02  0.48969637335E+02  0.54713773021E+02  0.00000000000E+00 0. -1.
          4    1    6    6  502    0  0.40552914004E+02  0.27741428011E+02  0.25965077703E+02  0.55572573473E+02  0.00000000000E+00 0. -1.
          1    1    5    5  503    0 -0.46801895661E+02 -0.61831090130E+02 -0.54146189610E+03  0.54698673300E+03  0.00000000000E+00 0. -1.
         -2    1    5    5    0  503 -0.12414078928E+03 -0.48140236278E+02 -0.16419155472E+04  0.16473054004E+04  0.00000000000E+00 0.  1.
         -3    1    6    6    0  502  0.48927486325E+02 -0.53100982208E+02  0.23192767068E+02  0.75838761025E+02  0.00000000000E+00 0.  1.
<mgrwt>
<rscale>  0 0.14790971E+04</rscale>
<asrwt>0</asrwt>
<pdfrwt beam="1">  1        2 0.35216851E+00 0.14790971E+04</pdfrwt>
<pdfrwt beam="2">  1       -2 0.36758363E-01 0.14790971E+04</pdfrwt>
<totfact> 0.31074249E+01</totfact>
</mgrwt>
</event>
<event>
12    1  0.1097093E-007  0.1387138E+04  0.7818608E-02  0.8963181E-01
          2   -1    0    0  501    0  0.00000000000E+00  0.00000000000E+00  0.55557982146E+03  0.55557982146E+03  0.00000000000E+00 0. -1.
         -2   -1    0    0    0  501 -0.00000000000E+00 -0.00000000000E+00 -0.86583084658E+03  0.86583084658E+03  0.00000000000E+00 0.  1.
         23    2    1    2    0    0  0.33654136391E+03  0.72279623263E+02 -0.29426555122E+03  0.46139727699E+03  0.88378724906E+02 0.  0.
        254    2    1    2    0    0 -0.33654136391E+03 -0.72279623263E+02 -0.15985473900E+02  0.96001339105E+03  0.89603891772E+03 0.  0.
        -24    2    4    4    0    0  0.10910198645E+03 -0.71663658051E+02 -0.35993675937E+03  0.39131962914E+03  0.80855785660E+02 0.  0.
         24    2    4    4    0    0 -0.44564335036E+03 -0.61596521132E+00  0.34395128547E+03  0.56869376191E+03  0.80695309170E+02 0.  0.
         13    1    3    3    0    0  0.32265171391E+03  0.66927577366E+02 -0.29982365563E+03  0.44550830921E+03  0.00000000000E+00 0.  1.
        -13    1    3    3    0    0  0.13889650001E+02  0.53520458965E+01  0.55581044092E+01  0.15888967778E+02  0.00000000000E+00 0. -1.
          2    1    6    6  502    0 -0.14784228436E+03  0.98743901735E+01  0.69833000585E+02  0.16380321302E+03  0.00000000000E+00 0. -1.
          1    1    5    5  503    0  0.41940443089E+02 -0.61989050703E+02 -0.11541993168E+03  0.13756236332E+03  0.00000000000E+00 0. -1.
         -2    1    5    5    0  503  0.67161543363E+02 -0.96746073485E+01 -0.24451682769E+03  0.25375726582E+03  0.00000000000E+00 0.  1.
         -1    1    6    6    0  502 -0.29780106600E+03 -0.10490355385E+02  0.27411828488E+03  0.40489054888E+03  0.00000000000E+00 0.  1.
<mgrwt>
<rscale>  0 0.13871383E+04</rscale>
<asrwt>0</asrwt>
<pdfrwt beam="1">  1        2 0.85473819E-01 0.13871383E+04</pdfrwt>
<pdfrwt beam="2">  1       -2 0.13320474E+00 0.13871383E+04</pdfrwt>
<totfact> 0.21621660E+01</totfact>
</mgrwt>
</event>
<event>
12    1  0.1097093E-007  0.1888981E+04  0.7818608E-02  0.8660361E-01
          1   -1    0    0  501    0  0.00000000000E+00  0.00000000000E+00  0.72334882444E+03  0.72334882444E+03  0.00000000000E+00 0. -1.
         -1   -1    0    0    0  501 -0.00000000000E+00 -0.00000000000E+00 -0.12332398788E+04  0.12332398788E+04  0.00000000000E+00 0.  1.
         23    2    1    2    0    0  0.68177370263E+03  0.17520265090E+03 -0.38984743580E+03  0.80952398129E+03  0.88525152402E+02 0.  0.
        254    2    1    2    0    0 -0.68177370263E+03 -0.17520265090E+03 -0.12004361855E+03  0.11470647220E+04  0.89768349406E+03 0.  0.
        -24    2    4    4    0    0  0.17832481282E+03 -0.16434037189E+03 -0.12262888408E+03  0.28310834796E+03  0.79404009823E+02 0.  0.
         24    2    4    4    0    0 -0.86009851545E+03 -0.10862279003E+02  0.25852655281E+01  0.86395637399E+03  0.80786676951E+02 0.  0.
         11    1    3    3    0    0  0.18342496258E+03  0.42042551272E+02 -0.15003503105E+03  0.24067156782E+03  0.00000000000E+00 0. -1.
        -11    1    3    3    0    0  0.49834874005E+03  0.13316009962E+03 -0.23981240475E+03  0.56885241347E+03  0.00000000000E+00 0.  1.
          2    1    6    6  502    0 -0.55634084525E+03 -0.19405945263E+01  0.39962808455E+02  0.55777766903E+03  0.00000000000E+00 0. -1.
          3    1    5    5  503    0  0.96693168843E+02 -0.10918983241E+03 -0.11225792768E+03  0.18404844669E+03  0.00000000000E+00 0. -1.
         -4    1    5    5    0  503  0.81631643975E+02 -0.55150539487E+02 -0.10370956398E+02  0.99059901274E+02  0.00000000000E+00 0.  1.
         -1    1    6    6    0  502 -0.30375767019E+03 -0.89216844767E+01 -0.37377542927E+02  0.30617870496E+03  0.00000000000E+00 0.  1.
<mgrwt>
<rscale>  0 0.18889813E+04</rscale>
<asrwt>0</asrwt>
<pdfrwt beam="1">  1        1 0.11128443E+00 0.18889813E+04</pdfrwt>
<pdfrwt beam="2">  1       -1 0.18972921E+00 0.18889813E+04</pdfrwt>
<totfact> 0.43054925E+00</totfact>
</mgrwt>
</event>
<event>
12    1  0.1097093E-007  0.1365225E+04  0.7818608E-02  0.8979382E-01
          2   -1    0    0  501    0  0.00000000000E+00  0.00000000000E+00  0.11028770356E+04  0.11028770356E+04  0.00000000000E+00 0. -1.
         -2   -1    0    0    0  501 -0.00000000000E+00 -0.00000000000E+00 -0.42249469254E+03  0.42249469254E+03  0.00000000000E+00 0.  1.
         23    2    1    2    0    0  0.21867241643E+03 -0.10331097896E+03  0.53795674209E+03  0.59675570257E+03  0.90714541881E+02 0.  0.
        254    2    1    2    0    0 -0.21867241643E+03  0.10331097896E+03  0.14242560094E+03  0.92861602555E+03  0.88518466267E+03 0.  0.
        -24    2    4    4    0    0 -0.55240011561E+03  0.13171403676E+03  0.82993676550E+02  0.57992753407E+03  0.83267756235E+02 0.  0.
         24    2    4    4    0    0  0.33372769918E+03 -0.28403057794E+02  0.59431924393E+02  0.34868849147E+03  0.76619837893E+02 0.  0.
         11    1    3    3    0    0  0.21108083168E+03 -0.80568777775E+02  0.42542211977E+03  0.48169536581E+03  0.00000000000E+00 0. -1.
        -11    1    3    3    0    0  0.75915847457E+01 -0.22742201188E+02  0.11253462233E+03  0.11506033676E+03  0.00000000000E+00 0.  1.
          4    1    6    6  502    0  0.60974050580E+02 -0.47262449108E+01  0.42326194033E+02  0.74375257555E+02  0.00000000000E+00 0. -1.
          1    1    5    5  503    0 -0.18850573473E+03  0.14783890935E+02  0.13691288480E+01  0.18908952898E+03  0.00000000000E+00 0. -1.
         -2    1    5    5    0  503 -0.36389438088E+03  0.11693014582E+03  0.81624547702E+02  0.39083800509E+03  0.00000000000E+00 0.  1.
         -3    1    6    6    0  502  0.27275364860E+03 -0.23676812884E+02  0.17105730360E+02  0.27431323392E+03  0.00000000000E+00 0.  1.
<mgrwt>
<rscale>  0 0.13652248E+04</rscale>
<asrwt>0</asrwt>
<pdfrwt beam="1">  1        2 0.16967339E+00 0.13652248E+04</pdfrwt>
<pdfrwt beam="2">  1       -2 0.64999184E-01 0.13652248E+04</pdfrwt>
<totfact> 0.46224988E+01</totfact>
</mgrwt>
</event>
<event>
12    1  0.1097093E-007  0.1520989E+04  0.7818608E-02  0.8870614E-01
          1   -1    0    0  501    0  0.00000000000E+00  0.00000000000E+00  0.12803611594E+04  0.12803611594E+04  0.00000000000E+00 0. -1.
         -1   -1    0    0    0  501 -0.00000000000E+00 -0.00000000000E+00 -0.45170987000E+03  0.45170987000E+03  0.00000000000E+00 0.  1.
         23    2    1    2    0    0 -0.33482447656E+03 -0.29988781104E+03  0.43490829627E+02  0.46081270024E+03  0.91742918692E+02 0.  0.
        254    2    1    2    0    0  0.33482447656E+03  0.29988781104E+03  0.78516045979E+03  0.12712583292E+04  0.89307371621E+03 0.  0.
        -24    2    4    4    0    0  0.26994611428E+03 -0.28012242930E+03  0.41664240884E+03  0.57544181897E+03  0.78758556094E+02 0.  0.
         24    2    4    4    0    0  0.64878362281E+02  0.58001024034E+03  0.36851805094E+03  0.69581651021E+03  0.87943056723E+02 0.  0.
         13    1    3    3    0    0 -0.14279166930E+03 -0.78033704356E+02  0.39120173157E+02  0.16735921781E+03  0.00000000000E+00 0. -1.
        -13    1    3    3    0    0 -0.19203280726E+03 -0.22185410668E+03  0.43706564700E+01  0.29345348244E+03  0.00000000000E+00 0.  1.
          2    1    6    6  502    0  0.62028588591E+01  0.28846690584E+02 -0.12272138621E+01  0.29531560568E+02  0.00000000000E+00 0. -1.
          1    1    5    5  503    0  0.56166742326E+02 -0.58952351382E+02  0.45062764753E+02  0.93063072398E+02  0.00000000000E+00 0. -1.
         -2    1    5    5    0  503  0.21377937195E+03 -0.22117007792E+03  0.37157964409E+03  0.48237874657E+03  0.00000000000E+00 0.  1.
         -1    1    6    6    0  502  0.58675503421E+02  0.55116354975E+03  0.36974526481E+03  0.66628494964E+03  0.00000000000E+00 0.  1.
<mgrwt>
<rscale>  0 0.15209889E+04</rscale>
<asrwt>0</asrwt>
<pdfrwt beam="1">  1        1 0.19697864E+00 0.15209889E+04</pdfrwt>
<pdfrwt beam="2">  1       -1 0.69493827E-01 0.15209889E+04</pdfrwt>
<totfact> 0.18897278E+01</totfact>
</mgrwt>
</event>
<event>
12    1  0.1097093E-007  0.1426431E+04  0.7818608E-02  0.8934906E-01
         -2   -1    0    0    0  501 -0.00000000000E+00  0.00000000000E+00  0.61063452374E+03  0.61063452374E+03  0.00000000000E+00 0.  1.
          2   -1    0    0  501    0  0.00000000000E+00 -0.00000000000E+00 -0.83302878775E+03  0.83302878775E+03  0.00000000000E+00 0. -1.
         23    2    1    2    0    0 -0.19732135199E+03  0.79293951950E+02 -0.40490413590E+03  0.46770250556E+03  0.97852070360E+02 0.  0.
        254    2    1    2    0    0  0.19732135199E+03 -0.79293951950E+02  0.18250987188E+03  0.97596080593E+03  0.93486169812E+03 0.  0.
        -24    2    4    4    0    0  0.48216913870E+03 -0.86504967179E+02 -0.16168289076E+03  0.52215299729E+03  0.80822074612E+02 0.  0.
         24    2    4    4    0    0 -0.28484778671E+03  0.72110152294E+01  0.34419276264E+03  0.45380780865E+03  0.79262910600E+02 0.  0.
         13    1    3    3    0    0 -0.25086971014E+02  0.54409780114E+02 -0.96453707444E+02  0.11354777834E+03  0.00000000000E+00 0.  1.
        -13    1    3    3    0    0 -0.17223438098E+03  0.24884171836E+02 -0.30845042845E+03  0.35415472722E+03  0.00000000000E+00 0. -1.
          4    1    6    6  502    0 -0.13503231746E+03  0.36694807788E+02  0.13180731884E+03  0.19223268447E+03  0.00000000000E+00 0. -1.
          1    1    5    5  503    0  0.11431167035E+03 -0.53027680008E+02 -0.56443703303E+02  0.13807600975E+03  0.00000000000E+00 0. -1.
         -2    1    5    5    0  503  0.36785746835E+03 -0.33477287171E+02 -0.10523918746E+03  0.38407698753E+03  0.00000000000E+00 0.  1.
         -3    1    6    6    0  502 -0.14981546926E+03 -0.29483792558E+02  0.21238544380E+03  0.26157512418E+03  0.00000000000E+00 0.  1.
<mgrwt>
<rscale>  0 0.14264307E+04</rscale>
<asrwt>0</asrwt>
<pdfrwt beam="1">  1        2 0.12815828E+00 0.14264307E+04</pdfrwt>
<pdfrwt beam="2">  1       -2 0.93943773E-01 0.14264307E+04</pdfrwt>
<totfact> 0.30326591E+01</totfact>
</mgrwt>
</event>
<event>
12    1  0.1097093E-007  0.2226857E+04  0.7818608E-02  0.8507332E-01
          1   -1    0    0  501    0  0.00000000000E+00  0.00000000000E+00  0.11176881471E+04  0.11176881471E+04  0.00000000000E+00 0. -1.
         -1   -1    0    0    0  501 -0.00000000000E+00 -0.00000000000E+00 -0.11091850672E+04  0.11091850672E+04  0.00000000000E+00 0.  1.
         23    2    1    2    0    0 -0.58885078378E+03  0.92621866023E+02 -0.70541118179E+03  0.92862500837E+03  0.97033062199E+02 0.  0.
        254    2    1    2    0    0  0.58885078378E+03 -0.92621866023E+02  0.71391426173E+03  0.12982482059E+04  0.90578737866E+03 0.  0.
        -24    2    4    4    0    0  0.17305251407E+03 -0.10514956169E+03  0.83068062569E+03  0.85888295543E+03  0.81523164019E+02 0.  0.
         24    2    4    4    0    0  0.41579826971E+03  0.12527695669E+02 -0.11676636396E+03  0.43936525045E+03  0.79763997485E+02 0.  0.
         11    1    3    3    0    0 -0.86118434261E+02  0.25272528734E+02 -0.16250893957E+03  0.18564547091E+03  0.00000000000E+00 0. -1.
        -11    1    3    3    0    0 -0.50273234952E+03  0.67349337288E+02 -0.54290224221E+03  0.74297953746E+03  0.00000000000E+00 0.  1.
          2    1    6    6  502    0  0.24836306107E+03  0.30954543690E+02 -0.10200748598E+03  0.27027378910E+03  0.00000000000E+00 0. -1.
          1    1    5    5  503    0  0.10228288422E+03 -0.45487579893E+02  0.59947304835E+03  0.60983509577E+03  0.00000000000E+00 0. -1.
         -2    1    5    5    0  503  0.70769629851E+02 -0.59661981798E+02  0.23120757734E+03  0.24904785966E+03  0.00000000000E+00 0.  1.
         -3    1    6    6    0  502  0.16743520864E+03 -0.18426848021E+02 -0.14758877977E+02  0.16909146135E+03  0.00000000000E+00 0.  1.
<mgrwt>
<rscale>  0 0.22268570E+04</rscale>
<asrwt>0</asrwt>
<pdfrwt beam="1">  1        1 0.17195202E+00 0.22268570E+04</pdfrwt>
<pdfrwt beam="2">  1       -1 0.17064386E+00 0.22268570E+04</pdfrwt>
<totfact> 0.27224501E+00</totfact>
</mgrwt>
</event>
<event>
12    1  0.1097093E-007  0.1430831E+04  0.7818608E-02  0.8931799E-01
          1   -1    0    0  501    0  0.00000000000E+00  0.00000000000E+00  0.14959658738E+04  0.14959658738E+04  0.00000000000E+00 0. -1.
         -1   -1    0    0    0  501 -0.00000000000E+00 -0.00000000000E+00 -0.34213315248E+03  0.34213315248E+03  0.00000000000E+00 0.  1.
         23    2    1    2    0    0 -0.34894999180E+03  0.19685373654E+03  0.73809577840E+03  0.84480728440E+03  0.91632304962E+02 0.  0.
        254    2    1    2    0    0  0.34894999180E+03 -0.19685373654E+03  0.41573694288E+03  0.99329174184E+03  0.80825354213E+03 0.  0.
        -24    2    4    4    0    0  0.18077291072E+03 -0.43827579940E+03  0.48219488514E+03  0.68102880604E+03  0.80770079947E+02 0.  0.
         24    2    4    4    0    0  0.16817708107E+03  0.24142206286E+03 -0.66457942255E+02  0.31226293580E+03  0.80767196014E+02 0.  0.
         11    1    3    3    0    0 -0.30190319600E+03  0.14362954005E+03  0.54874405135E+03  0.64256907677E+03  0.00000000000E+00 0. -1.
        -11    1    3    3    0    0 -0.47046795798E+02  0.53224196485E+02  0.18935172706E+03  0.20223820763E+03  0.00000000000E+00 0.  1.
          2    1    6    6  502    0  0.21039761369E+02  0.18047498342E+00  0.30688506603E+01  0.21263160020E+02  0.00000000000E+00 0. -1.
          1    1    5    5  503    0  0.28488667709E+02 -0.35254844979E+02  0.78339518837E+02  0.90507394692E+02  0.00000000000E+00 0. -1.
         -2    1    5    5    0  503  0.15228424301E+03 -0.40302095442E+03  0.40385536630E+03  0.59052141135E+03  0.00000000000E+00 0.  1.
         -1    1    6    6    0  502  0.14713731971E+03  0.24124158788E+03 -0.69526792915E+02  0.29099977578E+03  0.00000000000E+00 0.  1.
<mgrwt>
<rscale>  0 0.14308313E+04</rscale>
<asrwt>0</asrwt>
<pdfrwt beam="1">  1        1 0.23014859E+00 0.14308313E+04</pdfrwt>
<pdfrwt beam="2">  1       -1 0.52635870E-01 0.14308313E+04</pdfrwt>
<totfact> 0.23294020E+01</totfact>
</mgrwt>
</event>
<event>
12    1  0.1097093E-007  0.2321314E+04  0.7818608E-02  0.8469564E-01
         -2   -1    0    0    0  501 -0.00000000000E+00  0.00000000000E+00  0.82751740567E+03  0.82751740567E+03  0.00000000000E+00 0. -1.
          2   -1    0    0  501    0  0.00000000000E+00 -0.00000000000E+00 -0.16279107194E+04  0.16279107194E+04  0.00000000000E+00 0.  1.
         23    2    1    2    0    0 -0.37630769097E+03 -0.61551602476E+03  0.36723824252E+03  0.81478427626E+03  0.92423130485E+02 0.  0.
        254    2    1    2    0    0  0.37630769097E+03  0.61551602476E+03 -0.11676315563E+04  0.16406438488E+04  0.89882219181E+03 0.  0.
        -24    2    4    4    0    0  0.25979906852E+03 -0.11115731386E+03 -0.47951943203E+02  0.29828693707E+03  0.82608737693E+02 0.  0.
         24    2    4    4    0    0  0.11650862245E+03  0.72667333863E+03 -0.11196796131E+04  0.13423569118E+04  0.81309547138E+02 0.  0.
         11    1    3    3    0    0 -0.52922534658E+01 -0.44650818635E+02  0.10606441488E+02  0.46197404175E+02  0.00000000000E+00 0.  1.
        -11    1    3    3    0    0 -0.37101543750E+03 -0.57086520613E+03  0.35663180104E+03  0.76858687209E+03  0.00000000000E+00 0. -1.
          4    1    6    6  502    0  0.11685491974E+03  0.69985180190E+03 -0.10460105252E+04  0.12639563425E+04  0.00000000000E+00 0. -1.
          3    1    5    5  503    0  0.19661952446E+03 -0.11021167469E+03 -0.12301574599E+02  0.22573696945E+03  0.00000000000E+00 0. -1.
         -4    1    5    5    0  503  0.63179544055E+02 -0.94563916944E+00 -0.35650368604E+02  0.72549967623E+02  0.00000000000E+00 0.  1.
         -3    1    6    6    0  502 -0.34629729630E+00  0.26821536725E+02 -0.73669087893E+02  0.78400569291E+02  0.00000000000E+00 0.  1.
<mgrwt>
<rscale>  0 0.23213138E+04</rscale>
<asrwt>0</asrwt>
<pdfrwt beam="1">  1        2 0.25044780E+00 0.23213138E+04</pdfrwt>
<pdfrwt beam="2">  1       -2 0.12731037E+00 0.23213138E+04</pdfrwt>
<totfact> 0.44587925E+00</totfact>
</mgrwt>
</event>
<event>
12    1  0.1097093E-007  0.1222849E+04  0.7818608E-02  0.9093089E-01
          2   -1    0    0  501    0  0.00000000000E+00  0.00000000000E+00  0.79188842350E+03  0.79188842350E+03  0.00000000000E+00 0. -1.
         -2   -1    0    0    0  501 -0.00000000000E+00 -0.00000000000E+00 -0.47208633794E+03  0.47208633794E+03  0.00000000000E+00 0.  1.
         23    2    1    2    0    0  0.17503645789E+03  0.14226647503E+03 -0.75826631387E+02  0.25261856678E+03  0.84787680377E+02 0.  0.
        254    2    1    2    0    0 -0.17503645789E+03 -0.14226647503E+03  0.39562871695E+03  0.10113561947E+04  0.90301813896E+03 0.  0.
        -24    2    4    4    0    0 -0.21241161693E+02 -0.33173231161E+03  0.59538651755E+03  0.68660926248E+03  0.80309778518E+02 0.  0.
         24    2    4    4    0    0 -0.15379529620E+03  0.18946583657E+03 -0.19975780060E+03  0.32474693218E+03  0.77505449478E+02 0.  0.
         11    1    3    3    0    0  0.23138926479E+02  0.61278865027E+02 -0.40129265909E+02  0.76817102263E+02  0.00000000000E+00 0. -1.
        -11    1    3    3    0    0  0.15189753141E+03  0.80987610007E+02 -0.35697365478E+02  0.17580146451E+03  0.00000000000E+00 0.  1.
          2    1    6    6  502    0  0.71474214707E+01  0.95524812422E+01 -0.85127846311E+00  0.11960777842E+02  0.00000000000E+00 0. -1.
          1    1    5    5  503    0 -0.46895199685E+02 -0.14609638261E+03  0.24039514413E+03  0.28518965284E+03  0.00000000000E+00 0. -1.
         -2    1    5    5    0  503  0.25654037991E+02 -0.18563592900E+03  0.35499137342E+03  0.40141960964E+03  0.00000000000E+00 0.  1.
         -1    1    6    6    0  502 -0.16094271767E+03  0.17991335533E+03 -0.19890652214E+03  0.31278615434E+03  0.00000000000E+00 0.  1.
<mgrwt>
<rscale>  0 0.12228487E+04</rscale>
<asrwt>0</asrwt>
<pdfrwt beam="1">  1        2 0.12182899E+00 0.12228487E+04</pdfrwt>
<pdfrwt beam="2">  1       -2 0.72628667E-01 0.12228487E+04</pdfrwt>
<totfact> 0.59006158E+01</totfact>
</mgrwt>
</event>
<event>
12    1  0.1097093E-007  0.2034241E+04  0.7818608E-02  0.8590777E-01
         -2   -1    0    0    0  501 -0.00000000000E+00  0.00000000000E+00  0.43140685449E+03  0.43140685449E+03  0.00000000000E+00 0. -1.
          2   -1    0    0  501    0  0.00000000000E+00 -0.00000000000E+00 -0.23980475022E+04  0.23980475022E+04  0.00000000000E+00 0.  1.
         23    2    1    2    0    0  0.57766239261E+02 -0.50920417602E+03 -0.16757216298E+04  0.17546434085E+04  0.90025990255E+02 0.  0.
        254    2    1    2    0    0 -0.57766239261E+02  0.50920417602E+03 -0.29091901786E+03  0.10748109482E+04  0.89886532259E+03 0.  0.
        -24    2    4    4    0    0 -0.18158608082E+03  0.47009010989E+03  0.20950181505E+03  0.55158535606E+03  0.79982362752E+02 0.  0.
         24    2    4    4    0    0  0.12381984156E+03  0.39114066131E+02 -0.50042083291E+03  0.52322559214E+03  0.80515507395E+02 0.  0.
         11    1    3    3    0    0 -0.21103315334E+02 -0.59843084168E+02 -0.23451620974E+03  0.24294937182E+03  0.00000000000E+00 0. -1.
        -11    1    3    3    0    0  0.78869554595E+02 -0.44936109185E+03 -0.14412054201E+04  0.15116940366E+04  0.00000000000E+00 0.  1.
          2    1    6    6  502    0  0.23714538402E+02 -0.24514610146E+02 -0.10557059465E+03  0.11094366091E+03  0.00000000000E+00 0. -1.
          3    1    5    5  503    0 -0.14887729288E+03  0.35204467312E+03  0.19234075142E+03  0.42789585749E+03  0.00000000000E+00 0. -1.
         -4    1    5    5    0  503 -0.32708787942E+02  0.11804543677E+03  0.17161063632E+02  0.12368949857E+03  0.00000000000E+00 0.  1.
         -1    1    6    6    0  502  0.10010530316E+03  0.63628676277E+02 -0.39485023826E+03  0.41228193123E+03  0.00000000000E+00 0.  1.
<mgrwt>
<rscale>  0 0.20342410E+04</rscale>
<asrwt>0</asrwt>
<pdfrwt beam="1">  1        2 0.36893038E+00 0.20342410E+04</pdfrwt>
<pdfrwt beam="2">  1       -2 0.66370286E-01 0.20342410E+04</pdfrwt>
<totfact> 0.77090537E+00</totfact>
</mgrwt>
</event>
<event>
12    1  0.1097093E-007  0.1751958E+04  0.7818608E-02  0.8732273E-01
         -2   -1    0    0    0  501 -0.00000000000E+00  0.00000000000E+00  0.14394423819E+04  0.14394423819E+04  0.00000000000E+00 0.  1.
          2   -1    0    0  501    0  0.00000000000E+00 -0.00000000000E+00 -0.53308114629E+03  0.53308114629E+03  0.00000000000E+00 0. -1.
         23    2    1    2    0    0  0.28766600143E+03 -0.51369739987E+03  0.39888370046E+02  0.59734869143E+03  0.92723406243E+02 0.  0.
        254    2    1    2    0    0 -0.28766600143E+03  0.51369739987E+03  0.86647286559E+03  0.13751748368E+04  0.89089497580E+03 0.  0.
        -24    2    4    4    0    0 -0.40866501089E+03  0.82705286689E+02  0.32936139961E+02  0.42587523977E+03  0.80235122997E+02 0.  0.
         24    2    4    4    0    0  0.12099900946E+03  0.43099211318E+03  0.83353672563E+03  0.94929959701E+03  0.77403423720E+02 0.  0.
         11    1    3    3    0    0  0.17205430983E+02 -0.38486172177E+02 -0.21152938616E+02  0.47166292161E+02  0.00000000000E+00 0.  1.
        -11    1    3    3    0    0  0.27046057045E+03 -0.47521122770E+03  0.61041308662E+02  0.55018239926E+03  0.00000000000E+00 0. -1.
          2    1    6    6  502    0  0.30886497757E+02  0.31201845021E+02  0.67370341470E+02  0.80413268720E+02  0.00000000000E+00 0. -1.
          3    1    5    5  503    0 -0.12570699019E+02  0.13538463168E+02  0.14287953237E+02  0.23355043706E+02  0.00000000000E+00 0. -1.
         -4    1    5    5    0  503 -0.39609431187E+03  0.69166823521E+02  0.18648186724E+02  0.40252019606E+03  0.00000000000E+00 0.  1.
         -1    1    6    6    0  502  0.90112511699E+02  0.39979026816E+03  0.76616638416E+03  0.86888632829E+03  0.00000000000E+00 0.  1.
<mgrwt>
<rscale>  0 0.17519584E+04</rscale>
<asrwt>0</asrwt>
<pdfrwt beam="1">  1        2 0.82012485E-01 0.17519584E+04</pdfrwt>
<pdfrwt beam="2">  1       -2 0.22145267E+00 0.17519584E+04</pdfrwt>
<totfact> 0.52348824E+00</totfact>
</mgrwt>
</event>
<event>
12    1  0.1097093E-007  0.2705348E+04  0.7818608E-02  0.8333272E-01
         -2   -1    0    0    0  501 -0.00000000000E+00  0.00000000000E+00  0.57169572983E+03  0.57169572983E+03  0.00000000000E+00 0.  1.
          2   -1    0    0  501    0  0.00000000000E+00 -0.00000000000E+00 -0.32005258098E+04  0.32005258098E+04  0.00000000000E+00 0. -1.
         23    2    1    2    0    0  0.24119239902E+03 -0.11758839787E+04 -0.12459575901E+04  0.17325359053E+04  0.91615730973E+02 0.  0.
        254    2    1    2    0    0 -0.24119239902E+03  0.11758839787E+04 -0.13828724899E+04  0.20396856343E+04  0.89838981455E+03 0.  0.
        -24    2    4    4    0    0  0.26872115102E+03  0.79116083100E+03 -0.63160231379E+03  0.10504341394E+04  0.79648483534E+02 0.  0.
         24    2    4    4    0    0 -0.50991355004E+03  0.38472314769E+03 -0.75127017607E+03  0.98925149490E+03  0.78663294007E+02 0.  0.
         13    1    3    3    0    0  0.38361642543E+02 -0.29977290907E+03 -0.36164179173E+03  0.47129629551E+03  0.00000000000E+00 0.  1.
        -13    1    3    3    0    0  0.20283075647E+03 -0.87611106963E+03 -0.88431579837E+03  0.12612396098E+04  0.00000000000E+00 0. -1.
          4    1    6    6  502    0 -0.13527828129E+03  0.66410189516E+02 -0.15053041010E+03  0.21300218549E+03  0.00000000000E+00 0. -1.
          1    1    5    5  503    0  0.62996451070E+02  0.13385035402E+03 -0.14487123448E+03  0.20705589753E+03  0.00000000000E+00 0. -1.
         -2    1    5    5    0  503  0.20572469995E+03  0.65731047698E+03 -0.48673107931E+03  0.84337824189E+03  0.00000000000E+00 0.  1.
         -1    1    6    6    0  502 -0.37463526875E+03  0.31831295818E+03 -0.60073976598E+03  0.77624930941E+03  0.00000000000E+00 0.  1.
<mgrwt>
<rscale>  0 0.27053480E+04</rscale>
<asrwt>0</asrwt>
<pdfrwt beam="1">  1        2 0.49238860E+00 0.27053480E+04</pdfrwt>
<pdfrwt beam="2">  1       -2 0.87953187E-01 0.27053480E+04</pdfrwt>
<totfact> 0.12659260E+00</totfact>
</mgrwt>
</event>
<event>
12    1  0.1097093E-007  0.1413383E+04  0.7818608E-02  0.8944188E-01
         -2   -1    0    0    0  501 -0.00000000000E+00  0.00000000000E+00  0.60662382638E+03  0.60662382638E+03  0.00000000000E+00 0.  1.
          2   -1    0    0  501    0  0.00000000000E+00 -0.00000000000E+00 -0.82326571208E+03  0.82326571208E+03  0.00000000000E+00 0. -1.
         23    2    1    2    0    0  0.24462460140E+03 -0.18887648332E+03  0.22016656227E+03  0.39015473294E+03  0.90729702594E+02 0.  0.
        254    2    1    2    0    0 -0.24462460140E+03  0.18887648332E+03 -0.43680844798E+03  0.10397348055E+04  0.89147704626E+03 0.  0.
        -24    2    4    4    0    0  0.16488604763E+03  0.29908684393E+03 -0.49198740533E+03  0.60429049418E+03  0.80467667018E+02 0.  0.
         24    2    4    4    0    0 -0.40951064903E+03 -0.11021036061E+03  0.55178957355E+02  0.43544431134E+03  0.81986192047E+02 0.  0.
         13    1    3    3    0    0  0.77972837225E+02 -0.41633766042E+02  0.19271986816E+02  0.90468465752E+02  0.00000000000E+00 0. -1.
        -13    1    3    3    0    0  0.16665176417E+03 -0.14724271728E+03  0.20089457546E+03  0.29968626719E+03  0.00000000000E+00 0.  1.
          4    1    6    6  502    0 -0.21842023384E+03 -0.95954930365E+02  0.50008563022E+02  0.24375316118E+03  0.00000000000E+00 0. -1.
          1    1    5    5  503    0  0.78537175166E+02  0.70483851001E+02 -0.16968507743E+03  0.19982263795E+03  0.00000000000E+00 0. -1.
         -2    1    5    5    0  503  0.86348872465E+02  0.22860299292E+03 -0.32230232790E+03  0.40446785623E+03  0.00000000000E+00 0.  1.
         -3    1    6    6    0  502 -0.19109041519E+03 -0.14255430243E+02  0.51703943333E+01  0.19169115015E+03  0.00000000000E+00 0.  1.
<mgrwt>
<rscale>  0 0.14133826E+04</rscale>
<asrwt>0</asrwt>
<pdfrwt beam="1">  1        2 0.12665626E+00 0.14133826E+04</pdfrwt>
<pdfrwt beam="2">  1       -2 0.93326743E-01 0.14133826E+04</pdfrwt>
<totfact> 0.31321002E+01</totfact>
</mgrwt>
</event>
<event>
12    1  0.1097093E-007  0.2218255E+04  0.7818608E-02  0.8510868E-01
         -1   -1    0    0    0  501 -0.00000000000E+00  0.00000000000E+00  0.14977046706E+04  0.14977046706E+04  0.00000000000E+00 0.  1.
          1   -1    0    0  501    0  0.00000000000E+00 -0.00000000000E+00 -0.82136606206E+03  0.82136606206E+03  0.00000000000E+00 0. -1.
         23    2    1    2    0    0 -0.86081789621E+03  0.30815203686E+03  0.44240845101E+03  0.10197002328E+04  0.89989994035E+02 0.  0.
        254    2    1    2    0    0  0.86081789621E+03 -0.30815203686E+03  0.23393015754E+03  0.12993704998E+04  0.89312667019E+03 0.  0.
        -24    2    4    4    0    0  0.40832337218E+02 -0.21973387890E+03 -0.24577296062E+03  0.34188456470E+03  0.80811200374E+02 0.  0.
         24    2    4    4    0    0  0.81998555899E+03 -0.88418157966E+02  0.47970311816E+03  0.95748593515E+03  0.80437222881E+02 0.  0.
         13    1    3    3    0    0 -0.79948327003E+03  0.29480615863E+03  0.38658632019E+03  0.93569928566E+03  0.00000000000E+00 0.  1.
        -13    1    3    3    0    0 -0.61334626173E+02  0.13345878233E+02  0.55822130817E+02  0.84000947153E+02  0.00000000000E+00 0. -1.
          2    1    6    6  502    0  0.81419526726E+02 -0.65254012446E+01  0.77176986623E+02  0.11237440749E+03  0.00000000000E+00 0. -1.
          1    1    5    5  503    0  0.52339289964E+02 -0.85175374369E+02 -0.79838736044E+02  0.12793931939E+03  0.00000000000E+00 0. -1.
         -2    1    5    5    0  503 -0.11506952746E+02 -0.13455850453E+03 -0.16593422458E+03  0.21394524531E+03  0.00000000000E+00 0.  1.
         -1    1    6    6    0  502  0.73856603226E+03 -0.81892756721E+02  0.40252613154E+03  0.84511152766E+03  0.00000000000E+00 0.  1.
<mgrwt>
<rscale>  0 0.22182550E+04</rscale>
<asrwt>0</asrwt>
<pdfrwt beam="1">  1        1 0.12636401E+00 0.22182550E+04</pdfrwt>
<pdfrwt beam="2">  1       -1 0.23041610E+00 0.22182550E+04</pdfrwt>
<totfact> 0.18086813E+00</totfact>
</mgrwt>
</event>
<event>
12    1  0.1097093E-007  0.1220147E+04  0.7818608E-02  0.9095402E-01
          2   -1    0    0  501    0  0.00000000000E+00  0.00000000000E+00  0.42013137045E+03  0.42013137045E+03  0.00000000000E+00 0. -1.
         -2   -1    0    0    0  501 -0.00000000000E+00 -0.00000000000E+00 -0.88588897633E+03  0.88588897633E+03  0.00000000000E+00 0.  1.
         23    2    1    2    0    0  0.43609632155E+02 -0.71733431650E+02 -0.40101228315E+03  0.41961665156E+03  0.90663100533E+02 0.  0.
        254    2    1    2    0    0 -0.43609632155E+02  0.71733431650E+02 -0.64745322731E+02  0.88640369522E+03  0.88004094725E+03 0.  0.
        -24    2    4    4    0    0 -0.43987069182E+03 -0.50683013375E+02 -0.10610151146E+03  0.46198948185E+03  0.78241659207E+02 0.  0.
         24    2    4    4    0    0  0.39626105967E+03  0.12241644502E+03  0.41356188732E+02  0.42441421337E+03  0.80052962110E+02 0.  0.
         11    1    3    3    0    0 -0.14436383174E+02 -0.59184678276E+02 -0.25075736783E+03  0.25805133757E+03  0.00000000000E+00 0.  1.
        -11    1    3    3    0    0  0.58046015329E+02 -0.12548753374E+02 -0.15025491531E+03  0.16156531398E+03  0.00000000000E+00 0. -1.
          2    1    6    6  502    0  0.18525741160E+03  0.71654316435E+02  0.57510499901E+02  0.20679000753E+03  0.00000000000E+00 0. -1.
          1    1    5    5  503    0 -0.16652971690E+03 -0.35505729764E+02 -0.76378866388E+02  0.18661868794E+03  0.00000000000E+00 0. -1.
         -2    1    5    5    0  503 -0.27334097492E+03 -0.15177283611E+02 -0.29722645074E+02  0.27537079391E+03  0.00000000000E+00 0.  1.
         -1    1    6    6    0  502  0.21100364807E+03  0.50762128590E+02 -0.16154311170E+02  0.21762420584E+03  0.00000000000E+00 0.  1.
<mgrwt>
<rscale>  0 0.12201471E+04</rscale>
<asrwt>0</asrwt>
<pdfrwt beam="1">  1        2 0.64635595E-01 0.12201471E+04</pdfrwt>
<pdfrwt beam="2">  1       -2 0.13629061E+00 0.12201471E+04</pdfrwt>
<totfact> 0.28515664E+01</totfact>
</mgrwt>
</event>
<event>
12    1  0.1097093E-007  0.1048717E+04  0.7818608E-02  0.9256670E-01
          1   -1    0    0  501    0  0.00000000000E+00  0.00000000000E+00  0.22144207488E+04  0.22144207488E+04  0.00000000000E+00 0.  1.
         -1   -1    0    0    0  501 -0.00000000000E+00 -0.00000000000E+00 -0.12416422632E+03  0.12416422632E+03  0.00000000000E+00 0. -1.
         23    2    1    2    0    0  0.10258403609E+03 -0.25760404185E+02  0.26516741418E+03  0.30018929201E+03  0.92805013938E+02 0.  0.
        254    2    1    2    0    0 -0.10258403609E+03  0.25760404185E+02  0.18250891083E+04  0.20383956831E+04  0.90162055476E+03 0.  0.
        -24    2    4    4    0    0  0.29857858246E+02  0.44946700599E+03  0.88171559682E+03  0.99338610640E+03  0.80507648921E+02 0.  0.
         24    2    4    4    0    0 -0.13244189434E+03 -0.42370660181E+03  0.94337351146E+03  0.10450095767E+04  0.70875196277E+02 0.  0.
         13    1    3    3    0    0  0.11447826980E+03 -0.59077547697E+01  0.24016963352E+03  0.26612333360E+03  0.00000000000E+00 0.  1.
        -13    1    3    3    0    0 -0.11894233712E+02 -0.19852649415E+02  0.24997780658E+02  0.34065958407E+02  0.00000000000E+00 0. -1.
          4    1    6    6  502    0 -0.11619287607E+03 -0.25988942429E+03  0.58101452289E+03  0.64700940729E+03  0.00000000000E+00 0. -1.
          3    1    5    5  503    0  0.49489349058E+02  0.16067169273E+03  0.32036694895E+03  0.36180045673E+03  0.00000000000E+00 0. -1.
         -4    1    5    5    0  503 -0.19631490811E+02  0.28879531327E+03  0.56134864788E+03  0.63158564967E+03  0.00000000000E+00 0.  1.
         -3    1    6    6    0  502 -0.16249018272E+02 -0.16381717752E+03  0.36235898857E+03  0.39800016940E+03  0.00000000000E+00 0.  1.
<mgrwt>
<rscale>  0 0.10487170E+04</rscale>
<asrwt>0</asrwt>
<pdfrwt beam="1">  1        1 0.34068009E+00 0.10487170E+04</pdfrwt>
<pdfrwt beam="2">  1       -1 0.19102190E-01 0.10487170E+04</pdfrwt>
<totfact> 0.47326537E+01</totfact>
</mgrwt>
</event>
<event>
12    1  0.1097093E-007  0.1378033E+04  0.7818608E-02  0.8969874E-01
         -2   -1    0    0    0  501 -0.00000000000E+00  0.00000000000E+00  0.27353640779E+03  0.27353640779E+03  0.00000000000E+00 0.  1.
          2   -1    0    0  501    0  0.00000000000E+00 -0.00000000000E+00 -0.17355786925E+04  0.17355786925E+04  0.00000000000E+00 0. -1.
         23    2    1    2    0    0  0.30336314264E+03 -0.18639654898E+03 -0.65120662259E+03  0.74769917818E+03  0.90615263378E+02 0.  0.
        254    2    1    2    0    0 -0.30336314264E+03  0.18639654898E+03 -0.81083566214E+03  0.12614159221E+04  0.89829994313E+03 0.  0.
        -24    2    4    4    0    0 -0.33049388774E+03 -0.31112013088E+03 -0.41893041151E+03  0.62265118089E+03  0.78548441801E+02 0.  0.
         24    2    4    4    0    0  0.27130745100E+02  0.49751667986E+03 -0.39190525063E+03  0.63876474125E+03  0.78560455163E+02 0.  0.
         11    1    3    3    0    0 -0.28126275185E+01 -0.63226722854E+01 -0.41476472308E+02  0.42049789697E+02  0.00000000000E+00 0.  1.
        -11    1    3    3    0    0  0.30617577016E+03 -0.18007387670E+03 -0.60973015028E+03  0.70564938848E+03  0.00000000000E+00 0. -1.
          2    1    6    6  502    0  0.30841978879E+02  0.11304005186E+03 -0.64453123321E+02  0.13372915199E+03  0.00000000000E+00 0. -1.
          1    1    5    5  503    0 -0.57008765562E+02 -0.96500057919E+02 -0.85681118072E+02  0.14107981614E+03  0.00000000000E+00 0. -1.
         -2    1    5    5    0  503 -0.27348512218E+03 -0.21462007296E+03 -0.33324929343E+03  0.48157136474E+03  0.00000000000E+00 0.  1.
         -1    1    6    6    0  502 -0.37112337785E+01  0.38447662800E+03 -0.32745212731E+03  0.50503558926E+03  0.00000000000E+00 0.  1.
<mgrwt>
<rscale>  0 0.13780333E+04</rscale>
<asrwt>0</asrwt>
<pdfrwt beam="1">  1        2 0.26701211E+00 0.13780333E+04</pdfrwt>
<pdfrwt beam="2">  1       -2 0.42082524E-01 0.13780333E+04</pdfrwt>
<totfact> 0.48879585E+01</totfact>
</mgrwt>
</event>
<event>
12    1  0.1097093E-007  0.1383025E+04  0.7818608E-02  0.8966199E-01
          2   -1    0    0  501    0  0.00000000000E+00  0.00000000000E+00  0.14883401007E+04  0.14883401007E+04  0.00000000000E+00 0. -1.
         -2   -1    0    0    0  501 -0.00000000000E+00 -0.00000000000E+00 -0.32129030819E+03  0.32129030819E+03  0.00000000000E+00 0.  1.
         23    2    1    2    0    0 -0.25037568263E+03  0.51419672047E+02 -0.49321944738E+02  0.27607473985E+03  0.91938254394E+02 0.  0.
        254    2    1    2    0    0  0.25037568263E+03 -0.51419672047E+02  0.12163717372E+04  0.15335556690E+04  0.89827658420E+03 0.  0.
        -24    2    4    4    0    0  0.23943652251E+03  0.37491153978E+03  0.37858368205E+03  0.58974655150E+03  0.81159594183E+02 0.  0.
         24    2    4    4    0    0  0.10939160129E+02 -0.42633121182E+03  0.83778805518E+03  0.94380911752E+03  0.83718919612E+02 0.  0.
         11    1    3    3    0    0 -0.22381186245E+03  0.74568255258E+02 -0.37253966889E+02  0.23883055189E+03  0.00000000000E+00 0.  1.
        -11    1    3    3    0    0 -0.26563820182E+02 -0.23148583211E+02 -0.12067977849E+02  0.37244187959E+02  0.00000000000E+00 0. -1.
          2    1    6    6  502    0  0.18010845953E+02 -0.24080105867E+03  0.55817054206E+03  0.60816436467E+03  0.00000000000E+00 0. -1.
          3    1    5    5  503    0  0.42883316044E+02  0.11512125766E+03  0.71955707098E+02  0.14237101722E+03  0.00000000000E+00 0. -1.
         -4    1    5    5    0  503  0.19655320646E+03  0.25979028212E+03  0.30662797495E+03  0.44737553428E+03  0.00000000000E+00 0.  1.
         -1    1    6    6    0  502 -0.70716858238E+01 -0.18553015315E+03  0.27961751312E+03  0.33564475285E+03  0.00000000000E+00 0.  1.
<mgrwt>
<rscale>  0 0.13830246E+04</rscale>
<asrwt>0</asrwt>
<pdfrwt beam="1">  1        2 0.22897539E+00 0.13830246E+04</pdfrwt>
<pdfrwt beam="2">  1       -2 0.49429279E-01 0.13830246E+04</pdfrwt>
<totfact> 0.48642431E+01</totfact>
</mgrwt>
</event>
<event>
12    1  0.1097093E-007  0.1769401E+04  0.7818608E-02  0.8722743E-01
         -2   -1    0    0    0  501 -0.00000000000E+00  0.00000000000E+00  0.18128525195E+03  0.18128525195E+03  0.00000000000E+00 0.  1.
          2   -1    0    0  501    0  0.00000000000E+00 -0.00000000000E+00 -0.43174771508E+04  0.43174771508E+04  0.00000000000E+00 0. -1.
         23    2    1    2    0    0  0.35350821416E+03 -0.92039885180E+02 -0.28973841363E+04  0.29215698211E+04  0.85416558043E+02 0.  0.
        254    2    1    2    0    0 -0.35350821416E+03  0.92039885180E+02 -0.12388077625E+04  0.15771925816E+04  0.90523608470E+03 0.  0.
        -24    2    4    4    0    0 -0.30641072318E+03  0.47782587587E+03 -0.64713455967E+03  0.86516091406E+03  0.86690079988E+02 0.  0.
         24    2    4    4    0    0 -0.47097490978E+02 -0.38578599069E+03 -0.59167320284E+03  0.71203166754E+03  0.76569656798E+02 0.  0.
         11    1    3    3    0    0  0.35261755597E+03 -0.89749249625E+02 -0.27269565174E+04  0.27511244822E+04  0.00000000000E+00 0. -1.
        -11    1    3    3    0    0  0.89065819043E+00 -0.22906355547E+01 -0.17042761887E+03  0.17044533891E+03  0.00000000000E+00 0.  1.
          4    1    6    6  502    0 -0.76081026756E+01 -0.26818412787E+03 -0.44819384251E+03  0.52235843071E+03  0.00000000000E+00 0. -1.
          1    1    5    5  503    0 -0.23827360563E+03  0.29763287196E+03 -0.41643782594E+03  0.56460614634E+03  0.00000000000E+00 0. -1.
         -2    1    5    5    0  503 -0.68137117552E+02  0.18019300391E+03 -0.23069673373E+03  0.30055476772E+03  0.00000000000E+00 0.  1.
         -3    1    6    6    0  502 -0.39489388303E+02 -0.11760186282E+03 -0.14347936033E+03  0.18967323683E+03  0.00000000000E+00 0.  1.
<mgrwt>
<rscale>  0 0.17694010E+04</rscale>
<asrwt>0</asrwt>
<pdfrwt beam="1">  1        2 0.66422725E+00 0.17694010E+04</pdfrwt>
<pdfrwt beam="2">  1       -2 0.27890039E-01 0.17694010E+04</pdfrwt>
<totfact> 0.20744704E+00</totfact>
</mgrwt>
</event>
<event>
12    1  0.1097093E-007  0.1255079E+04  0.7818608E-02  0.9065967E-01
         -2   -1    0    0    0  501 -0.00000000000E+00  0.00000000000E+00  0.96552041883E+03  0.96552041883E+03  0.00000000000E+00 0.  1.
          2   -1    0    0  501    0  0.00000000000E+00 -0.00000000000E+00 -0.40786871627E+03  0.40786871627E+03  0.00000000000E+00 0. -1.
         23    2    1    2    0    0  0.86677590314E+02  0.14225316074E+03  0.40634492862E+03  0.44875794160E+03  0.92295843537E+02 0.  0.
        254    2    1    2    0    0 -0.86677590314E+02 -0.14225316074E+03  0.15130677394E+03  0.92463119350E+03  0.89682781946E+03 0.  0.
        -24    2    4    4    0    0 -0.38527935523E+03  0.15943287884E+03 -0.84830037442E+02  0.43279179629E+03  0.79079575499E+02 0.  0.
         24    2    4    4    0    0  0.29860176492E+03 -0.30168603958E+03  0.23613681139E+03  0.49183939722E+03  0.77252304024E+02 0.  0.
         11    1    3    3    0    0  0.45985210081E+02  0.11809803291E+03  0.19785180436E+03  0.23496195737E+03  0.00000000000E+00 0. -1.
        -11    1    3    3    0    0  0.40692380233E+02  0.24155127826E+02  0.20849312426E+03  0.21379598423E+03  0.00000000000E+00 0.  1.
          2    1    6    6  502    0  0.43993972737E+02 -0.59343726543E+02  0.74624580720E+02  0.10500464544E+03  0.00000000000E+00 0. -1.
          1    1    5    5  503    0 -0.82542002023E+02  0.64735389223E+02 -0.18524702586E+01  0.10491560590E+03  0.00000000000E+00 0. -1.
         -2    1    5    5    0  503 -0.30273735321E+03  0.94697489612E+02 -0.82977567184E+02  0.32787619038E+03  0.00000000000E+00 0.  1.
         -1    1    6    6    0  502  0.25460779218E+03 -0.24234231303E+03  0.16151223067E+03  0.38683475177E+03  0.00000000000E+00 0.  1.
<mgrwt>
<rscale>  0 0.12550786E+04</rscale>
<asrwt>0</asrwt>
<pdfrwt beam="1">  1        2 0.62749034E-01 0.12550786E+04</pdfrwt>
<pdfrwt beam="2">  1       -2 0.14854160E+00 0.12550786E+04</pdfrwt>
<totfact> 0.23491000E+01</totfact>
</mgrwt>
</event>
<event>
12    1  0.1097093E-007  0.1288971E+04  0.7818608E-02  0.9038358E-01
         -2   -1    0    0    0  501 -0.00000000000E+00  0.00000000000E+00  0.12985702722E+04  0.12985702722E+04  0.00000000000E+00 0.  1.
          2   -1    0    0  501    0  0.00000000000E+00 -0.00000000000E+00 -0.31986050785E+03  0.31986050785E+03  0.00000000000E+00 0. -1.
         23    2    1    2    0    0 -0.11868299643E+03 -0.50426915981E+02 -0.11781980073E+03  0.19700164606E+03  0.91102226137E+02 0.  0.
        254    2    1    2    0    0  0.11868299643E+03  0.50426915981E+02  0.10965295651E+04  0.14214291340E+04  0.89524028525E+03 0.  0.
        -24    2    4    4    0    0 -0.22093548264E+03  0.36207667373E+03  0.46919637052E+03  0.63815482840E+03  0.84760519964E+02 0.  0.
         24    2    4    4    0    0  0.33961847907E+03 -0.31164975775E+03  0.62733319454E+03  0.78327430557E+03  0.86633815314E+02 0.  0.
         13    1    3    3    0    0 -0.11178236867E+03 -0.26917382553E+02 -0.50905441814E+02  0.12574262378E+03  0.00000000000E+00 0.  1.
        -13    1    3    3    0    0 -0.69006277549E+01 -0.23509533428E+02 -0.66914358921E+02  0.71259022272E+02  0.00000000000E+00 0. -1.
          2    1    6    6  502    0  0.13081306071E+03 -0.13451726702E+03  0.32579832355E+03  0.37596741829E+03  0.00000000000E+00 0. -1.
          1    1    5    5  503    0 -0.86184972348E+01  0.39448472507E+02  0.17938755353E+02  0.44184379834E+02  0.00000000000E+00 0. -1.
         -2    1    5    5    0  503 -0.21231698541E+03  0.32262820122E+03  0.45125761517E+03  0.59397044857E+03  0.00000000000E+00 0.  1.
         -1    1    6    6    0  502  0.20880541836E+03 -0.17713249073E+03  0.30153487099E+03  0.40730688728E+03  0.00000000000E+00 0.  1.
<mgrwt>
<rscale>  0 0.12889707E+04</rscale>
<asrwt>0</asrwt>
<pdfrwt beam="1">  1        2 0.49209309E-01 0.12889707E+04</pdfrwt>
<pdfrwt beam="2">  1       -2 0.19978004E+00 0.12889707E+04</pdfrwt>
<totfact> 0.13367538E+01</totfact>
</mgrwt>
</event>
<event>
12    1  0.1097093E-007  0.1476471E+04  0.7818608E-02  0.8900252E-01
         -1   -1    0    0    0  501 -0.00000000000E+00  0.00000000000E+00  0.50004297147E+03  0.50004297147E+03  0.00000000000E+00 0.  1.
          1   -1    0    0  501    0  0.00000000000E+00 -0.00000000000E+00 -0.10898902653E+04  0.10898902653E+04  0.00000000000E+00 0. -1.
         23    2    1    2    0    0 -0.21647267725E+03 -0.59804998582E+02 -0.61337284591E+03  0.65946064485E+03  0.90691985067E+02 0.  0.
        254    2    1    2    0    0  0.21647267725E+03  0.59804998582E+02  0.23525552036E+02  0.93047259196E+03  0.90265648778E+03 0.  0.
        -24    2    4    4    0    0 -0.18602600642E+03 -0.25632140259E+03 -0.18135281689E+03  0.37355411940E+03  0.79671195757E+02 0.  0.
         24    2    4    4    0    0  0.40249868368E+03  0.31612640117E+03  0.20487836893E+03  0.55691847256E+03  0.79005994326E+02 0.  0.
         11    1    3    3    0    0 -0.17064334821E+03 -0.59109595067E+02 -0.56347330995E+03  0.59170538915E+03  0.00000000000E+00 0.  1.
        -11    1    3    3    0    0 -0.45829329047E+02 -0.69540351547E+00 -0.49899535960E+02  0.67755255707E+02  0.00000000000E+00 0. -1.
          4    1    6    6  502    0  0.32447179655E+03  0.24633133573E+03  0.19534559733E+03  0.45179749459E+03  0.00000000000E+00 0. -1.
          1    1    5    5  503    0 -0.17624492234E+03 -0.23444737662E+03 -0.13828470896E+03  0.32426918723E+03  0.00000000000E+00 0. -1.
         -2    1    5    5    0  503 -0.97810840822E+01 -0.21874025971E+02 -0.43068107933E+02  0.49284932169E+02  0.00000000000E+00 0.  1.
         -3    1    6    6    0  502  0.78026887126E+02  0.69795065438E+02  0.95327715974E+01  0.10512097797E+03  0.00000000000E+00 0.  1.
<mgrwt>
<rscale>  0 0.14764714E+04</rscale>
<asrwt>0</asrwt>
<pdfrwt beam="1">  1        1 0.16767543E+00 0.14764714E+04</pdfrwt>
<pdfrwt beam="2">  1       -1 0.76929688E-01 0.14764714E+04</pdfrwt>
<totfact> 0.21199971E+01</totfact>
</mgrwt>
</event>
<event>
12    1  0.1097093E-007  0.1058977E+04  0.7818608E-02  0.9246125E-01
          3   -1    0    0  501    0  0.00000000000E+00  0.00000000000E+00  0.11063494967E+04  0.11063494967E+04  0.00000000000E+00 0. -1.
         -3   -1    0    0    0  501 -0.00000000000E+00 -0.00000000000E+00 -0.25340810414E+03  0.25340810414E+03  0.00000000000E+00 0.  1.
         23    2    1    2    0    0 -0.11703350533E+03 -0.23051761414E+02  0.56092336752E+02  0.15864936447E+03  0.88289555051E+02 0.  0.
        254    2    1    2    0    0  0.11703350533E+03  0.23051761414E+02  0.79684905580E+03  0.12011082364E+04  0.89076616048E+03 0.  0.
        -24    2    4    4    0    0  0.19308512072E+03 -0.17874901948E+03  0.90612106163E+03  0.94695061162E+03  0.80168614296E+02 0.  0.
         24    2    4    4    0    0 -0.76051615384E+02  0.20180078089E+03 -0.10927200583E+03  0.25415762474E+03  0.78411246553E+02 0.  0.
         13    1    3    3    0    0 -0.94830600282E+02 -0.49589173899E+02  0.20403803337E+02  0.10894147102E+03  0.00000000000E+00 0.  1.
        -13    1    3    3    0    0 -0.22202905051E+02  0.26537412486E+02  0.35688533415E+02  0.49707893452E+02  0.00000000000E+00 0. -1.
          2    1    6    6  502    0 -0.40126063971E+02  0.10790427425E+03 -0.10123299148E+03  0.15330215907E+03  0.00000000000E+00 0. -1.
          1    1    5    5  503    0  0.17367708477E+03 -0.16637486746E+03  0.87933932457E+03  0.91163697492E+03  0.00000000000E+00 0. -1.
         -2    1    5    5    0  503  0.19408035951E+02 -0.12374152016E+02  0.26781737054E+02  0.35313636703E+02  0.00000000000E+00 0.  1.
         -1    1    6    6    0  502 -0.35925551413E+02  0.93896506642E+02 -0.80390143413E+01  0.10085546567E+03  0.00000000000E+00 0.  1.
<mgrwt>
<rscale>  0 0.10589767E+04</rscale>
<asrwt>0</asrwt>
<pdfrwt beam="1">  1        3 0.17020761E+00 0.10589767E+04</pdfrwt>
<pdfrwt beam="2">  1       -3 0.38985863E-01 0.10589767E+04</pdfrwt>
<totfact> 0.39526103E+00</totfact>
</mgrwt>
</event>
<event>
12    1  0.1097093E-007  0.1648088E+04  0.7818608E-02  0.8791538E-01
          2   -1    0    0  501    0  0.00000000000E+00  0.00000000000E+00  0.11170950815E+04  0.11170950815E+04  0.00000000000E+00 0. -1.
         -2   -1    0    0    0  501 -0.00000000000E+00 -0.00000000000E+00 -0.60787013092E+03  0.60787013092E+03  0.00000000000E+00 0.  1.
         23    2    1    2    0    0  0.39950958355E+03 -0.21268209678E+03  0.55187056928E+03  0.72010326082E+03  0.95634718433E+02 0.  0.
        254    2    1    2    0    0 -0.39950958355E+03  0.21268209678E+03 -0.42645618676E+02  0.10048619516E+04  0.89615138865E+03 0.  0.
        -24    2    4    4    0    0 -0.17032482474E+03  0.36454926789E+02  0.41514814271E+03  0.45739820610E+03  0.80781377409E+02 0.  0.
         24    2    4    4    0    0 -0.22918475881E+03  0.17622716999E+03 -0.45779376139E+03  0.54746374552E+03  0.80992318019E+02 0.  0.
         13    1    3    3    0    0  0.41554751125E+02 -0.59783045050E+02  0.74729127332E+02  0.10433241245E+03  0.00000000000E+00 0.  1.
        -13    1    3    3    0    0  0.35795483242E+03 -0.15289905173E+03  0.47714144195E+03  0.61577084837E+03  0.00000000000E+00 0. -1.
          4    1    6    6  502    0 -0.22088304729E+03  0.13760207367E+03 -0.38629979838E+03  0.46578019010E+03  0.00000000000E+00 0. -1.
          3    1    5    5  503    0 -0.14551712861E+03  0.60266699103E+02  0.34662334239E+03  0.38072963010E+03  0.00000000000E+00 0. -1.
         -4    1    5    5    0  503 -0.24807696126E+02 -0.23811772313E+02  0.68524800316E+02  0.76668576002E+02  0.00000000000E+00 0.  1.
         -3    1    6    6    0  502 -0.83017115228E+01  0.38625096322E+02 -0.71493963006E+02  0.81683555422E+02  0.00000000000E+00 0.  1.
<mgrwt>
<rscale>  0 0.16480883E+04</rscale>
<asrwt>0</asrwt>
<pdfrwt beam="1">  1        2 0.17186078E+00 0.16480883E+04</pdfrwt>
<pdfrwt beam="2">  1       -2 0.93518482E-01 0.16480883E+04</pdfrwt>
<totfact> 0.19645851E+01</totfact>
</mgrwt>
</event>
<event>
12    1  0.1097093E-007  0.1415775E+04  0.7818608E-02  0.8942478E-01
         -2   -1    0    0    0  501 -0.00000000000E+00  0.00000000000E+00  0.47460666986E+03  0.47460666986E+03  0.00000000000E+00 0.  1.
          2   -1    0    0  501    0  0.00000000000E+00 -0.00000000000E+00 -0.10558318459E+04  0.10558318459E+04  0.00000000000E+00 0. -1.
         23    2    1    2    0    0  0.31207272150E+03  0.10955163771E+03 -0.42713721402E+03  0.54733037915E+03  0.87939749334E+02 0.  0.
        254    2    1    2    0    0 -0.31207272150E+03 -0.10955163771E+03 -0.15408796204E+03  0.98310813662E+03  0.91288967757E+03 0.  0.
        -24    2    4    4    0    0  0.22831698140E+01 -0.11304204593E+03  0.35503761745E+03  0.38060398030E+03  0.77614193360E+02 0.  0.
         24    2    4    4    0    0 -0.31435589132E+03  0.34904082141E+01 -0.50912557948E+03  0.60250415632E+03  0.70502435013E+02 0.  0.
         13    1    3    3    0    0  0.31189842834E+03  0.10128927439E+03 -0.42781140510E+03  0.53903872314E+03  0.00000000000E+00 0. -1.
        -13    1    3    3    0    0  0.17429315998E+00  0.82623633232E+01  0.67419108593E+00  0.82916560114E+01  0.00000000000E+00 0.  1.
          2    1    6    6  502    0 -0.20477858541E+03 -0.31220451866E+02 -0.33441368079E+03  0.39337195573E+03  0.00000000000E+00 0. -1.
          1    1    5    5  503    0  0.12272841916E+01 -0.12198456129E+03  0.28528990090E+03  0.31027740326E+03  0.00000000000E+00 0. -1.
         -2    1    5    5    0  503  0.10558856224E+01  0.89425153603E+01  0.69747716546E+02  0.70326577044E+02  0.00000000000E+00 0.  1.
         -1    1    6    6    0  502 -0.10957730591E+03  0.34710860080E+02 -0.17471189870E+03  0.20913220059E+03  0.00000000000E+00 0.  1.
<mgrwt>
<rscale>  0 0.14157752E+04</rscale>
<asrwt>0</asrwt>
<pdfrwt beam="1">  1        2 0.16243567E+00 0.14157752E+04</pdfrwt>
<pdfrwt beam="2">  1       -2 0.73016411E-01 0.14157752E+04</pdfrwt>
<totfact> 0.38243799E+01</totfact>
</mgrwt>
</event>
<event>
12    1  0.1097093E-007  0.2468255E+04  0.7818608E-02  0.8414383E-01
          1   -1    0    0  501    0  0.00000000000E+00  0.00000000000E+00  0.15545009996E+04  0.15545009996E+04  0.00000000000E+00 0. -1.
         -1   -1    0    0    0  501 -0.00000000000E+00 -0.00000000000E+00 -0.97978076916E+03  0.97978076916E+03  0.00000000000E+00 0.  1.
         23    2    1    2    0    0  0.10451582288E+04 -0.18448346012E+03  0.12601824330E+03  0.10727009246E+04  0.91743151778E+02 0.  0.
        254    2    1    2    0    0 -0.10451582288E+04  0.18448346012E+03  0.44870198716E+03  0.14615808441E+04  0.89916362277E+03 0.  0.
        -24    2    4    4    0    0 -0.20880140722E+03  0.41727559435E+03  0.34195702929E+03  0.58401295355E+03  0.80122223753E+02 0.  0.
         24    2    4    4    0    0 -0.83635682153E+03 -0.23279213423E+03  0.10674495787E+03  0.87756789060E+03  0.71035243987E+02 0.  0.
         11    1    3    3    0    0  0.20838832408E+03 -0.38784144844E+02 -0.11509096776E+02  0.21227897403E+03  0.00000000000E+00 0. -1.
        -11    1    3    3    0    0  0.83676990467E+03 -0.14569931527E+03  0.13752734008E+03  0.86042195062E+03  0.00000000000E+00 0.  1.
          4    1    6    6  502    0 -0.53225765595E+03 -0.15943889569E+03  0.10077556902E+03  0.56468990525E+03  0.00000000000E+00 0. -1.
          1    1    5    5  503    0 -0.62968151671E+02  0.18317298279E+03  0.10460799656E+03  0.22013669093E+03  0.00000000000E+00 0. -1.
         -2    1    5    5    0  503 -0.14583325555E+03  0.23410261156E+03  0.23734903273E+03  0.36387626262E+03  0.00000000000E+00 0.  1.
         -3    1    6    6    0  502 -0.30409916558E+03 -0.73353238542E+02  0.59693888513E+01  0.31287798535E+03  0.00000000000E+00 0.  1.
<mgrwt>
<rscale>  0 0.24682546E+04</rscale>
<asrwt>0</asrwt>
<pdfrwt beam="1">  1        1 0.23915400E+00 0.24682546E+04</pdfrwt>
<pdfrwt beam="2">  1       -1 0.15073550E+00 0.24682546E+04</pdfrwt>
<totfact> 0.18397240E+00</totfact>
</mgrwt>
</event>
<event>
12    1  0.1097093E-007  0.2074645E+04  0.7818608E-02  0.8572495E-01
         -1   -1    0    0    0  501 -0.00000000000E+00  0.00000000000E+00  0.22971360842E+04  0.22971360842E+04  0.00000000000E+00 0.  1.
          1   -1    0    0  501    0  0.00000000000E+00 -0.00000000000E+00 -0.46842593479E+03  0.46842593479E+03  0.00000000000E+00 0. -1.
         23    2    1    2    0    0 -0.52456003327E+03  0.73026562214E+02  0.16230643174E+04  0.17094708618E+04  0.86352426256E+02 0.  0.
        254    2    1    2    0    0  0.52456003327E+03 -0.73026562214E+02  0.20564583199E+03  0.10560911572E+04  0.89024840175E+03 0.  0.
        -24    2    4    4    0    0  0.36463261500E+03  0.34475038872E+03 -0.86854125445E+02  0.51571933050E+03  0.81320442040E+02 0.  0.
         24    2    4    4    0    0  0.15992741827E+03 -0.41777695094E+03  0.29249995744E+03  0.54037182671E+03  0.79568374074E+02 0.  0.
         11    1    3    3    0    0 -0.50503258857E+03  0.52034531371E+02  0.15470925856E+04  0.16282693194E+04  0.00000000000E+00 0.  1.
        -11    1    3    3    0    0 -0.19527444702E+02  0.20992030844E+02  0.75971731776E+02  0.81201542378E+02  0.00000000000E+00 0. -1.
          2    1    6    6  502    0  0.14225614377E+02 -0.11141216399E+03  0.99598619162E+02  0.15011636595E+03  0.00000000000E+00 0. -1.
          1    1    5    5  503    0  0.89179719566E+02  0.82399113598E+02 -0.57054543906E+02  0.13415609298E+03  0.00000000000E+00 0. -1.
         -2    1    5    5    0  503  0.27545289544E+03  0.26235127513E+03 -0.29799581539E+02  0.38156323752E+03  0.00000000000E+00 0.  1.
         -1    1    6    6    0  502  0.14570180389E+03 -0.30636478695E+03  0.19290133827E+03  0.39025546075E+03  0.00000000000E+00 0.  1.
<mgrwt>
<rscale>  0 0.20746451E+04</rscale>
<asrwt>0</asrwt>
<pdfrwt beam="1">  1        1 0.72065530E-01 0.20746451E+04</pdfrwt>
<pdfrwt beam="2">  1       -1 0.35340555E+00 0.20746451E+04</pdfrwt>
<totfact> 0.65996166E-01</totfact>
</mgrwt>
</event>
<event>
12    1  0.1097093E-007  0.1955937E+04  0.7818608E-02  0.8627503E-01
         -2   -1    0    0    0  501 -0.00000000000E+00  0.00000000000E+00  0.13979192616E+04  0.13979192616E+04  0.00000000000E+00 0.  1.
          2   -1    0    0  501    0  0.00000000000E+00 -0.00000000000E+00 -0.68417549308E+03  0.68417549308E+03  0.00000000000E+00 0. -1.
         23    2    1    2    0    0 -0.59345482813E+03 -0.22445165606E+03 -0.18638835784E+03  0.66715059495E+03  0.88216310636E+02 0.  0.
        254    2    1    2    0    0  0.59345482813E+03  0.22445165606E+03  0.90013212634E+03  0.14149441597E+04  0.88840415986E+03 0.  0.
        -24    2    4    4    0    0  0.73145630716E+03 -0.79650209296E+02  0.53714141225E+03  0.91448853955E+03  0.79974415280E+02 0.  0.
         24    2    4    4    0    0 -0.13800147902E+03  0.30410186536E+03  0.36299071410E+03  0.50045562015E+03  0.84683035478E+02 0.  0.
         13    1    3    3    0    0 -0.32423917529E+02 -0.13281818538E+02 -0.33562669932E+02  0.48519789206E+02  0.00000000000E+00 0.  1.
        -13    1    3    3    0    0 -0.56103091060E+03 -0.21116983752E+03 -0.15282568791E+03  0.61863080575E+03  0.00000000000E+00 0. -1.
          4    1    6    6  502    0 -0.11274525454E+03  0.22560724506E+03  0.21666759005E+03  0.33249806920E+03  0.00000000000E+00 0. -1.
          1    1    5    5  503    0  0.63303150107E+03 -0.48664152366E+02  0.48451480349E+03  0.79865616874E+03  0.00000000000E+00 0. -1.
         -2    1    5    5    0  503  0.98424806089E+02 -0.30986056930E+02  0.52626608752E+02  0.11583237081E+03  0.00000000000E+00 0.  1.
         -3    1    6    6    0  502 -0.25256224486E+02  0.78494620291E+02  0.14632312405E+03  0.16795755095E+03  0.00000000000E+00 0.  1.
<mgrwt>
<rscale>  0 0.19559367E+04</rscale>
<asrwt>0</asrwt>
<pdfrwt beam="1">  1        2 0.10525777E+00 0.19559367E+04</pdfrwt>
<pdfrwt beam="2">  1       -2 0.21506450E+00 0.19559367E+04</pdfrwt>
<totfact> 0.41754596E+00</totfact>
</mgrwt>
</event>
<event>
12    1  0.1097093E-007  0.1702675E+04  0.7818608E-02  0.8759840E-01
          2   -1    0    0  501    0  0.00000000000E+00  0.00000000000E+00  0.71432376247E+03  0.71432376247E+03  0.00000000000E+00 0. -1.
         -2   -1    0    0    0  501 -0.00000000000E+00 -0.00000000000E+00 -0.10146315457E+04  0.10146315457E+04  0.00000000000E+00 0.  1.
         23    2    1    2    0    0  0.26004201096E+03 -0.18519485533E+03 -0.63508079390E+03  0.71673186912E+03  0.91967252428E+02 0.  0.
        254    2    1    2    0    0 -0.26004201096E+03  0.18519485533E+03  0.33477301066E+03  0.10122234391E+04  0.90033568185E+03 0.  0.
        -24    2    4    4    0    0 -0.11363426403E+03  0.88235498984E+02  0.63441044440E+03  0.65549550493E+03  0.80619450363E+02 0.  0.
         24    2    4    4    0    0 -0.14640774693E+03  0.96959356348E+02 -0.29963743373E+03  0.35672793413E+03  0.81460924073E+02 0.  0.
         11    1    3    3    0    0  0.68471274256E+02 -0.41079259786E+02 -0.25643113927E+03  0.26857540872E+03  0.00000000000E+00 0. -1.
        -11    1    3    3    0    0  0.19157073670E+03 -0.14411559555E+03 -0.37864965463E+03  0.44815646039E+03  0.00000000000E+00 0.  1.
          2    1    6    6  502    0 -0.14902195700E+03  0.80736871967E+02 -0.23317729077E+03  0.28826660419E+03  0.00000000000E+00 0. -1.
          3    1    5    5  503    0 -0.10445929100E+03  0.10126213287E+03  0.60265653003E+03  0.61996827033E+03  0.00000000000E+00 0. -1.
         -4    1    5    5    0  503 -0.91749730328E+01 -0.13026633882E+02  0.31753914363E+02  0.35527234593E+02  0.00000000000E+00 0.  1.
         -1    1    6    6    0  502  0.26142100721E+01  0.16222484380E+02 -0.66460142968E+02  0.68461329940E+02  0.00000000000E+00 0.  1.
<mgrwt>
<rscale>  0 0.17026749E+04</rscale>
<asrwt>0</asrwt>
<pdfrwt beam="1">  1        2 0.10989596E+00 0.17026749E+04</pdfrwt>
<pdfrwt beam="2">  1       -2 0.15609716E+00 0.17026749E+04</pdfrwt>
<totfact> 0.10225934E+01</totfact>
</mgrwt>
</event>
<event>
12    1  0.1132671E-007  0.1373029E+04  0.7818608E-02  0.8973576E-01
         -1   -1    0    0    0  501 -0.00000000000E+00  0.00000000000E+00  0.42914152251E+03  0.42914152251E+03  0.00000000000E+00 0.  1.
          1   -1    0    0  501    0  0.00000000000E+00 -0.00000000000E+00 -0.10982445665E+04  0.10982445665E+04  0.00000000000E+00 0. -1.
         23    2    1    2    0    0 -0.21662053823E+02 -0.11812796449E+03 -0.58639504893E+03  0.60526317691E+03  0.89782511311E+02 0.  0.
        254    2    1    2    0    0  0.21662053823E+02  0.11812796449E+03 -0.82707995053E+02  0.92212291209E+03  0.91051995694E+03 0.  0.
        -24    2    4    4    0    0  0.49508423041E+02 -0.30744613828E+02  0.39924554750E+03  0.41051130075E+03  0.75671696258E+02 0.  0.
         24    2    4    4    0    0 -0.27846369219E+02  0.14887257831E+03 -0.48195354255E+03  0.51161161134E+03  0.80800735358E+02 0.  0.
         13    1    3    3    0    0 -0.64172437631E+01 -0.12928121367E+03 -0.47707077662E+03  0.49431906612E+03  0.00000000000E+00 0. -1.
        -13    1    3    3    0    0 -0.15244810060E+02  0.11153249188E+02 -0.10932427231E+03  0.11094411079E+03  0.00000000000E+00 0.  1.
          2    1    6    6  502    0 -0.24787279889E+02  0.46946920109E+02 -0.73790631833E+02  0.90903684735E+02  0.00000000000E+00 0. -1.
          1    1    5    5  503    0  0.14798977580E+02 -0.52973327179E+01  0.94365370723E+01  0.18333567663E+02  0.00000000000E+00 0. -1.
         -2    1    5    5    0  503  0.34709445462E+02 -0.25447281110E+02  0.38980901042E+03  0.39217773308E+03  0.00000000000E+00 0.  1.
         -1    1    6    6    0  502 -0.30590893292E+01  0.10192565821E+03 -0.40816291072E+03  0.42070792661E+03  0.00000000000E+00 0.  1.
<mgrwt>
<rscale>  0 0.13730293E+04</rscale>
<asrwt>0</asrwt>
<pdfrwt beam="1">  1        1 0.16896070E+00 0.13730293E+04</pdfrwt>
<pdfrwt beam="2">  1       -1 0.66021773E-01 0.13730293E+04</pdfrwt>
<totfact> 0.28894473E+01</totfact>
</mgrwt>
</event>
<event>
12    1  0.1097093E-007  0.2444378E+04  0.7818608E-02  0.8423073E-01
         -2   -1    0    0    0  501 -0.00000000000E+00  0.00000000000E+00  0.57183228497E+03  0.57183228497E+03  0.00000000000E+00 0. -1.
          2   -1    0    0  501    0  0.00000000000E+00 -0.00000000000E+00 -0.26122106774E+04  0.26122106774E+04  0.00000000000E+00 0.  1.
         23    2    1    2    0    0  0.29408336980E+03 -0.15995844096E+03 -0.21158597293E+04  0.21440989530E+04  0.90698372604E+02 0.  0.
        254    2    1    2    0    0 -0.29408336980E+03  0.15995844096E+03  0.75481336917E+02  0.10399440094E+04  0.98168955335E+03 0.  0.
        -24    2    4    4    0    0 -0.53929929164E+03 -0.20598335247E+03  0.10201251135E+03  0.59155118352E+03  0.79078333249E+02 0.  0.
         24    2    4    4    0    0  0.24521592184E+03  0.36594179343E+03 -0.26531174431E+02  0.44839282584E+03  0.79422783561E+02 0.  0.
         11    1    3    3    0    0  0.13584803604E+02  0.10697474765E+02 -0.72840656340E+02  0.74864838685E+02  0.00000000000E+00 0. -1.
        -11    1    3    3    0    0  0.28049856620E+03 -0.17065591572E+03 -0.20430190730E+04  0.20692341143E+04  0.00000000000E+00 0.  1.
          2    1    6    6  502    0  0.68752605239E+02  0.16705651286E+03 -0.25965528396E+02  0.18250755568E+03  0.00000000000E+00 0. -1.
          3    1    5    5  503    0 -0.81193880576E+02 -0.31607995436E+02  0.45035465467E+02  0.98080093639E+02  0.00000000000E+00 0. -1.
         -4    1    5    5    0  503 -0.45810541107E+03 -0.17437535703E+03  0.56977045881E+02  0.49347108988E+03  0.00000000000E+00 0.  1.
         -1    1    6    6    0  502  0.17646331660E+03  0.19888528057E+03 -0.56564603555E+00  0.26588527016E+03  0.00000000000E+00 0.  1.
<mgrwt>
<rscale>  0 0.24443784E+04</rscale>
<asrwt>0</asrwt>
<pdfrwt beam="1">  1        2 0.40187857E+00 0.24443784E+04</pdfrwt>
<pdfrwt beam="2">  1       -2 0.87974196E-01 0.24443784E+04</pdfrwt>
<totfact> 0.29865790E+00</totfact>
</mgrwt>
</event>
<event>
12    1  0.1097093E-007  0.2616062E+04  0.7818608E-02  0.8362766E-01
          2   -1    0    0  501    0  0.00000000000E+00  0.00000000000E+00  0.63786040003E+03  0.63786040003E+03  0.00000000000E+00 0.  1.
         -2   -1    0    0    0  501 -0.00000000000E+00 -0.00000000000E+00 -0.26823181533E+04  0.26823181533E+04  0.00000000000E+00 0. -1.
         23    2    1    2    0    0 -0.62567944345E+03 -0.34858443799E+03 -0.20481545458E+04  0.21716777729E+04  0.90892406824E+02 0.  0.
        254    2    1    2    0    0  0.62567944345E+03  0.34858443799E+03  0.36967924815E+01  0.11485007804E+04  0.89780537982E+03 0.  0.
        -24    2    4    4    0    0  0.61770994475E+01  0.15245982647E+03 -0.36071979563E+03  0.39927559078E+03  0.77589117727E+02 0.  0.
         24    2    4    4    0    0  0.61950234400E+03  0.19612461152E+03  0.36441658811E+03  0.74922518966E+03  0.79315305350E+02 0.  0.
         13    1    3    3    0    0 -0.49965453293E+03 -0.25819170877E+03 -0.14987530156E+04  0.16008054886E+04  0.00000000000E+00 0. -1.
        -13    1    3    3    0    0 -0.12602491052E+03 -0.90392729222E+02 -0.54940153021E+03  0.57087228429E+03  0.00000000000E+00 0.  1.
          4    1    6    6  502    0  0.36214168396E+03  0.77642370055E+02  0.18658233599E+03  0.41471424498E+03  0.00000000000E+00 0. -1.
          1    1    5    5  503    0  0.29454082208E+01  0.16066417357E+03 -0.32598433174E+03  0.36343835329E+03  0.00000000000E+00 0. -1.
         -2    1    5    5    0  503  0.32316912267E+01 -0.82043471039E+01 -0.34735463892E+02  0.35837237496E+02  0.00000000000E+00 0.  1.
         -3    1    6    6    0  502  0.25736066004E+03  0.11848224147E+03  0.17783425213E+03  0.33451094467E+03  0.00000000000E+00 0.  1.
<mgrwt>
<rscale>  0 0.26160616E+04</rscale>
<asrwt>0</asrwt>
<pdfrwt beam="1">  1        2 0.98132367E-01 0.26160616E+04</pdfrwt>
<pdfrwt beam="2">  1       -2 0.41266434E+00 0.26160616E+04</pdfrwt>
<totfact> 0.24913716E-01</totfact>
</mgrwt>
</event>
<event>
12    1  0.1097093E-007  0.2214941E+04  0.7818608E-02  0.8512235E-01
         -1   -1    0    0    0  501 -0.00000000000E+00  0.00000000000E+00  0.13547540133E+04  0.13547540133E+04  0.00000000000E+00 0.  1.
          1   -1    0    0  501    0  0.00000000000E+00 -0.00000000000E+00 -0.90532347514E+03  0.90532347514E+03  0.00000000000E+00 0. -1.
         23    2    1    2    0    0 -0.17097911762E+03  0.17847651257E+03  0.10930943461E+04  0.11247835666E+04  0.95891074318E+02 0.  0.
        254    2    1    2    0    0  0.17097911762E+03 -0.17847651257E+03 -0.64366380795E+03  0.11352939218E+04  0.90194316172E+03 0.  0.
        -24    2    4    4    0    0 -0.20805625273E+03  0.25048856919E+03 -0.12240534425E+03  0.35694243230E+03  0.79955638196E+02 0.  0.
         24    2    4    4    0    0  0.37903537035E+03 -0.42896508176E+03 -0.52125846370E+03  0.77835148948E+03  0.80260836378E+02 0.  0.
         13    1    3    3    0    0 -0.17381202758E+03  0.13132227422E+03  0.89226511418E+03  0.91847329554E+03  0.00000000000E+00 0.  1.
        -13    1    3    3    0    0  0.28329099561E+01  0.47154238344E+02  0.20082923191E+03  0.20631027110E+03  0.00000000000E+00 0. -1.
          4    1    6    6  502    0  0.11778180986E+03 -0.16333647652E+03 -0.22808592116E+03  0.30426065590E+03  0.00000000000E+00 0. -1.
          1    1    5    5  503    0 -0.85039895353E+01  0.43808131582E+02 -0.34792492196E+02  0.56586109108E+02  0.00000000000E+00 0. -1.
         -2    1    5    5    0  503 -0.19955226319E+03  0.20668043761E+03 -0.87612852056E+02  0.30035632319E+03  0.00000000000E+00 0.  1.
         -3    1    6    6    0  502  0.26125356049E+03 -0.26562860524E+03 -0.29317254254E+03  0.47409083359E+03  0.00000000000E+00 0.  1.
<mgrwt>
<rscale>  0 0.22149407E+04</rscale>
<asrwt>0</asrwt>
<pdfrwt beam="1">  1        1 0.13928053E+00 0.22149407E+04</pdfrwt>
<pdfrwt beam="2">  1       -1 0.20842369E+00 0.22149407E+04</pdfrwt>
<totfact> 0.21612756E+00</totfact>
</mgrwt>
</event>
<event>
12    1  0.1097093E-007  0.3421694E+04  0.7818608E-02  0.8132602E-01
          2   -1    0    0  501    0  0.00000000000E+00  0.00000000000E+00  0.12519835633E+04  0.12519835633E+04  0.00000000000E+00 0. -1.
         -2   -1    0    0    0  501 -0.00000000000E+00 -0.00000000000E+00 -0.23378880066E+04  0.23378880066E+04  0.00000000000E+00 0.  1.
         23    2    1    2    0    0  0.11611519748E+04 -0.97089931349E+03 -0.10253226616E+04  0.18302792062E+04  0.87840917901E+02 0.  0.
        254    2    1    2    0    0 -0.11611519748E+04  0.97089931349E+03 -0.60581781670E+02  0.17595923636E+04  0.89530762776E+03 0.  0.
        -24    2    4    4    0    0 -0.40682373779E+03 -0.42407766264E+02 -0.24004157696E+03  0.48108782141E+03  0.80756182228E+02 0.  0.
         24    2    4    4    0    0 -0.75432823697E+03  0.10133070798E+04  0.17945979529E+03  0.12785045422E+04  0.81029126166E+02 0.  0.
         13    1    3    3    0    0  0.19668008229E+02 -0.30206578674E+02 -0.15171266851E+02  0.39107995100E+02  0.00000000000E+00 0. -1.
        -13    1    3    3    0    0  0.11414839665E+04 -0.94069273482E+03 -0.10101513948E+04  0.17911712111E+04  0.00000000000E+00 0.  1.
          2    1    6    6  502    0 -0.24250724518E+03  0.32504061097E+03  0.95960536789E+02  0.41673683226E+03  0.00000000000E+00 0. -1.
          3    1    5    5  503    0 -0.22700508221E+03  0.96616097986E+01 -0.15768879511E+03  0.27656899710E+03  0.00000000000E+00 0. -1.
         -4    1    5    5    0  503 -0.17981865558E+03 -0.52069376062E+02 -0.82352781853E+02  0.20451882431E+03  0.00000000000E+00 0.  1.
         -1    1    6    6    0  502 -0.51182099179E+03  0.68826646879E+03  0.83499258506E+02  0.86176770992E+03  0.00000000000E+00 0.  1.
<mgrwt>
<rscale>  0 0.34216939E+04</rscale>
<asrwt>0</asrwt>
<pdfrwt beam="1">  1        2 0.19261286E+00 0.34216939E+04</pdfrwt>
<pdfrwt beam="2">  1       -2 0.35967508E+00 0.34216939E+04</pdfrwt>
<totfact> 0.19700460E-01</totfact>
</mgrwt>
</event>
<event>
12    1  0.1097093E-007  0.2559296E+04  0.7818608E-02  0.8382160E-01
         -1   -1    0    0    0  501 -0.00000000000E+00  0.00000000000E+00  0.20175380301E+04  0.20175380301E+04  0.00000000000E+00 0.  1.
          1   -1    0    0  501    0  0.00000000000E+00 -0.00000000000E+00 -0.81163234351E+03  0.81163234351E+03  0.00000000000E+00 0. -1.
         23    2    1    2    0    0  0.60536668224E+03  0.40340937548E+03  0.14725435960E+04  0.16449450903E+04  0.90839219164E+02 0.  0.
        254    2    1    2    0    0 -0.60536668224E+03 -0.40340937548E+03 -0.26663790938E+03  0.11842252834E+04  0.89559243120E+03 0.  0.
        -24    2    4    4    0    0 -0.27795095907E+02  0.99945502231E+02  0.23278848395E+03  0.26616945993E+03  0.76772601670E+02 0.  0.
         24    2    4    4    0    0 -0.57757158634E+03 -0.50335487771E+03 -0.49942639333E+03  0.91805582343E+03  0.80278903312E+02 0.  0.
         13    1    3    3    0    0  0.11345953806E+03  0.35674696100E+02  0.23527082401E+03  0.26362494448E+03  0.00000000000E+00 0. -1.
        -13    1    3    3    0    0  0.49190714419E+03  0.36773467938E+03  0.12372727720E+04  0.13813201458E+04  0.00000000000E+00 0.  1.
          2    1    6    6  502    0 -0.19327315768E+03 -0.13802567595E+03 -0.12035240333E+03  0.26625232710E+03  0.00000000000E+00 0. -1.
          1    1    5    5  503    0 -0.42600926606E+02  0.85618188822E+02  0.22439375488E+03  0.24392185313E+03  0.00000000000E+00 0. -1.
         -2    1    5    5    0  503  0.14805830700E+02  0.14327313410E+02  0.83947290707E+01  0.22247606802E+02  0.00000000000E+00 0.  1.
         -1    1    6    6    0  502 -0.38429842866E+03 -0.36532920176E+03 -0.37907399000E+03  0.65180349633E+03  0.00000000000E+00 0.  1.
<mgrwt>
<rscale>  0 0.25592961E+04</rscale>
<asrwt>0</asrwt>
<pdfrwt beam="1">  1        1 0.12486652E+00 0.25592961E+04</pdfrwt>
<pdfrwt beam="2">  1       -1 0.31039046E+00 0.25592961E+04</pdfrwt>
<totfact> 0.53978060E-01</totfact>
</mgrwt>
</event>
<event>
12    1  0.1097093E-007  0.1466923E+04  0.7818608E-02  0.8906752E-01
         -2   -1    0    0    0  501 -0.00000000000E+00  0.00000000000E+00  0.80141895948E+03  0.80141895948E+03  0.00000000000E+00 0.  1.
          2   -1    0    0  501    0  0.00000000000E+00 -0.00000000000E+00 -0.67126652199E+03  0.67126652199E+03  0.00000000000E+00 0. -1.
         23    2    1    2    0    0 -0.38744928829E+03  0.11726978940E+03 -0.10996087003E+03  0.43030446340E+03  0.95923843649E+02 0.  0.
        254    2    1    2    0    0  0.38744928829E+03 -0.11726978940E+03  0.24011330752E+03  0.10423810181E+04  0.93007237991E+03 0.  0.
        -24    2    4    4    0    0 -0.11527876537E+02 -0.27805346731E+03  0.46705911499E+03  0.54954554601E+03  0.80059150735E+02 0.  0.
         24    2    4    4    0    0  0.39897716483E+03  0.16078367791E+03 -0.22694580747E+03  0.49283547206E+03  0.79675804717E+02 0.  0.
         11    1    3    3    0    0 -0.31467836871E+03  0.11579323538E+03 -0.56591257080E+02  0.34004870162E+03  0.00000000000E+00 0. -1.
        -11    1    3    3    0    0 -0.72770919580E+02  0.14765540213E+01 -0.53369612950E+02  0.90255761781E+02  0.00000000000E+00 0.  1.
          4    1    6    6  502    0  0.28076641343E+03  0.11634482813E+03 -0.19965765864E+03  0.36363316487E+03  0.00000000000E+00 0. -1.
          3    1    5    5  503    0  0.16062975907E+02 -0.15827356522E+03  0.32388705662E+03  0.36084812053E+03  0.00000000000E+00 0. -1.
         -4    1    5    5    0  503 -0.27590852444E+02 -0.11977990209E+03  0.14317205837E+03  0.18869742547E+03  0.00000000000E+00 0.  1.
         -1    1    6    6    0  502  0.11821075140E+03  0.44438849774E+02 -0.27288148831E+02  0.12920230719E+03  0.00000000000E+00 0.  1.
<mgrwt>
<rscale>  0 0.14669229E+04</rscale>
<asrwt>0</asrwt>
<pdfrwt beam="1">  1        2 0.10327177E+00 0.14669229E+04</pdfrwt>
<pdfrwt beam="2">  1       -2 0.12329522E+00 0.14669229E+04</pdfrwt>
<totfact> 0.20758892E+01</totfact>
</mgrwt>
</event>
<event>
12    1  0.1097093E-007  0.1571610E+04  0.7818608E-02  0.8838181E-01
          2   -1    0    0  501    0  0.00000000000E+00  0.00000000000E+00  0.11668063643E+04  0.11668063643E+04  0.00000000000E+00 0. -1.
         -2   -1    0    0    0  501 -0.00000000000E+00 -0.00000000000E+00 -0.52921333529E+03  0.52921333529E+03  0.00000000000E+00 0.  1.
         23    2    1    2    0    0 -0.10962675694E+03  0.41427088563E+03  0.55853319777E+03  0.70958240353E+03  0.88935155421E+02 0.  0.
        254    2    1    2    0    0  0.10962675694E+03 -0.41427088563E+03  0.79059831197E+02  0.98643729603E+03  0.88496875062E+03 0.  0.
        -24    2    4    4    0    0 -0.65404820062E+02  0.25881630969E+03 -0.18942407021E+02  0.27945540784E+03  0.80453946687E+02 0.  0.
         24    2    4    4    0    0  0.17503157700E+03 -0.67308719532E+03  0.98002238218E+02  0.70698188819E+03  0.80848785291E+02 0.  0.
         13    1    3    3    0    0 -0.84462056943E+02  0.29216533113E+03  0.32667146800E+03  0.44632798229E+03  0.00000000000E+00 0. -1.
        -13    1    3    3    0    0 -0.25164699994E+02  0.12210555450E+03  0.23186172977E+03  0.26325442123E+03  0.00000000000E+00 0.  1.
          2    1    6    6  502    0  0.15406220019E+03 -0.44357552819E+03  0.59569705928E+02  0.47333176589E+03  0.00000000000E+00 0. -1.
          1    1    5    5  503    0 -0.29099013317E+02  0.12388012733E+03 -0.49287294680E+02  0.13646346009E+03  0.00000000000E+00 0. -1.
         -2    1    5    5    0  503 -0.36305806745E+02  0.13493618236E+03  0.30344887659E+02  0.14299194775E+03  0.00000000000E+00 0.  1.
         -3    1    6    6    0  502  0.20969376807E+02 -0.22951166713E+03  0.38432532289E+02  0.23365012230E+03  0.00000000000E+00 0.  1.
<mgrwt>
<rscale>  0 0.15716100E+04</rscale>
<asrwt>0</asrwt>
<pdfrwt beam="1">  1        2 0.17950867E+00 0.15716100E+04</pdfrwt>
<pdfrwt beam="2">  1       -2 0.81417436E-01 0.15716100E+04</pdfrwt>
<totfact> 0.25325242E+01</totfact>
</mgrwt>
</event>
<event>
12    1  0.1097093E-007  0.1409149E+04  0.7818608E-02  0.8947223E-01
          1   -1    0    0  501    0  0.00000000000E+00  0.00000000000E+00  0.95603985940E+03  0.95603985940E+03  0.00000000000E+00 0. -1.
         -1   -1    0    0    0  501 -0.00000000000E+00 -0.00000000000E+00 -0.51925125738E+03  0.51925125738E+03  0.00000000000E+00 0.  1.
         23    2    1    2    0    0 -0.29547601947E+03 -0.15111542780E+03  0.40395097522E+03  0.53055946884E+03  0.90415756288E+02 0.  0.
        254    2    1    2    0    0  0.29547601947E+03  0.15111542780E+03  0.32837626800E+02  0.94473164794E+03  0.88391041757E+03 0.  0.
        -24    2    4    4    0    0 -0.56592986426E+02  0.45014822052E+03  0.10060892649E+03  0.47144749140E+03  0.79400217268E+02 0.  0.
         24    2    4    4    0    0  0.35206900590E+03 -0.29903279273E+03 -0.67771299693E+02  0.47328415655E+03  0.77664327303E+02 0.  0.
         13    1    3    3    0    0 -0.23364772950E+03 -0.15439177301E+03  0.35143981233E+03  0.44937514703E+03  0.00000000000E+00 0. -1.
        -13    1    3    3    0    0 -0.61828289972E+02  0.32763452188E+01  0.52511162890E+02  0.81184321804E+02  0.00000000000E+00 0.  1.
          2    1    6    6  502    0  0.23852109381E+03 -0.22098716788E+03 -0.80317907854E+02  0.33493074938E+03  0.00000000000E+00 0. -1.
          3    1    5    5  503    0 -0.49011704003E+02  0.40652754671E+03  0.11426338512E+03  0.42511517798E+03  0.00000000000E+00 0. -1.
         -4    1    5    5    0  503 -0.75812824235E+01  0.43620673806E+02 -0.13654458624E+02  0.46332313420E+02  0.00000000000E+00 0.  1.
         -1    1    6    6    0  502  0.11354791209E+03 -0.78045624846E+02  0.12546608161E+02  0.13835340717E+03  0.00000000000E+00 0.  1.
<mgrwt>
<rscale>  0 0.14091485E+04</rscale>
<asrwt>0</asrwt>
<pdfrwt beam="1">  1        1 0.14708306E+00 0.14091485E+04</pdfrwt>
<pdfrwt beam="2">  1       -1 0.79884808E-01 0.14091485E+04</pdfrwt>
<totfact> 0.24996943E+01</totfact>
</mgrwt>
</event>
<event>
12    1  0.1097093E-007  0.1369589E+04  0.7818608E-02  0.8976131E-01
         -3   -1    0    0    0  501 -0.00000000000E+00  0.00000000000E+00  0.17341744094E+04  0.17341744094E+04  0.00000000000E+00 0.  1.
          3   -1    0    0  501    0  0.00000000000E+00 -0.00000000000E+00 -0.27041312451E+03  0.27041312451E+03  0.00000000000E+00 0. -1.
         23    2    1    2    0    0 -0.42269999307E+02  0.91406451429E+02  0.99078696044E+03  0.99990461460E+03  0.89490475093E+02 0.  0.
        254    2    1    2    0    0  0.42269999307E+02 -0.91406451429E+02  0.47297432443E+03  0.10046829193E+04  0.88064815024E+03 0.  0.
        -24    2    4    4    0    0  0.14022386361E+03 -0.38093734055E+03  0.54114074113E+03  0.68158305593E+03  0.83343692454E+02 0.  0.
         24    2    4    4    0    0 -0.97953864303E+02  0.28953088912E+03 -0.68166416705E+02  0.32309986335E+03  0.79522110424E+02 0.  0.
         11    1    3    3    0    0 -0.13800264963E+02  0.53173595361E+02  0.83927286847E+03  0.84106885943E+03  0.00000000000E+00 0.  1.
        -11    1    3    3    0    0 -0.28469734344E+02  0.38232856069E+02  0.15151409197E+03  0.15883575517E+03  0.00000000000E+00 0. -1.
          2    1    6    6  502    0 -0.91837222936E+02  0.23494152809E+03 -0.25487000206E+02  0.25353734304E+03  0.00000000000E+00 0. -1.
          3    1    5    5  503    0  0.10705372542E+03 -0.26273095356E+03  0.31254549981E+03  0.42210513327E+03  0.00000000000E+00 0. -1.
         -4    1    5    5    0  503  0.33170138191E+02 -0.11820638699E+03  0.22859524132E+03  0.25947792266E+03  0.00000000000E+00 0.  1.
         -1    1    6    6    0  502 -0.61166413670E+01  0.54589361031E+02 -0.42679416500E+02  0.69562520312E+02  0.00000000000E+00 0.  1.
<mgrwt>
<rscale>  0 0.13695890E+04</rscale>
<asrwt>0</asrwt>
<pdfrwt beam="1">  1        3 0.41602020E-01 0.13695890E+04</pdfrwt>
<pdfrwt beam="2">  1       -3 0.26679606E+00 0.13695890E+04</pdfrwt>
<totfact> 0.86356002E-01</totfact>
</mgrwt>
</event>
<event>
12    1  0.1957608E-007  0.2993444E+04  0.7818608E-02  0.8245605E-01
         -1   -1    0    0    0  501 -0.00000000000E+00  0.00000000000E+00  0.17048684070E+04  0.17048684070E+04  0.00000000000E+00 0.  1.
          1   -1    0    0  501    0  0.00000000000E+00 -0.00000000000E+00 -0.13139880361E+04  0.13139880361E+04  0.00000000000E+00 0. -1.
         23    2    1    2    0    0 -0.12533833212E+04 -0.29377969890E+03 -0.25181839495E+03  0.13149332419E+04  0.91436673564E+02 0.  0.
        254    2    1    2    0    0  0.12533833212E+04  0.29377969890E+03  0.64269876581E+03  0.17039232013E+04  0.91269727231E+03 0.  0.
        -24    2    4    4    0    0  0.38688299620E+03  0.51437777119E+03  0.43973274002E+03  0.78358873134E+03  0.79896639451E+02 0.  0.
         24    2    4    4    0    0  0.86650032499E+03 -0.22059807229E+03  0.20296602579E+03  0.92033446991E+03  0.79586469771E+02 0.  0.
         13    1    3    3    0    0 -0.29517376045E+03 -0.86265840459E+02 -0.96345080119E+02  0.32226032730E+03  0.00000000000E+00 0.  1.
        -13    1    3    3    0    0 -0.95820956074E+03 -0.20751385844E+03 -0.15547331483E+03  0.99267291459E+03  0.00000000000E+00 0. -1.
          2    1    6    6  502    0  0.14149282770E+03 -0.91368117028E+01  0.45174483541E+02  0.14881006545E+03  0.00000000000E+00 0. -1.
          3    1    5    5  503    0  0.82250388102E+01  0.43531590733E+02  0.32621326609E+02  0.55016375788E+02  0.00000000000E+00 0. -1.
         -2    1    5    5    0  503  0.37865795738E+03  0.47084618046E+03  0.40711141341E+03  0.72857235555E+03  0.00000000000E+00 0.  1.
         -1    1    6    6    0  502  0.72500749730E+03 -0.21146126059E+03  0.15779154225E+03  0.77152440446E+03  0.00000000000E+00 0.  1.
<mgrwt>
<rscale>  0 0.29934440E+04</rscale>
<asrwt>0</asrwt>
<pdfrwt beam="1">  1        1 0.20215200E+00 0.29934440E+04</pdfrwt>
<pdfrwt beam="2">  1       -1 0.26228745E+00 0.29934440E+04</pdfrwt>
<totfact> 0.43643730E-01</totfact>
</mgrwt>
</event>
<event>
12    1  0.1097093E-007  0.1372884E+04  0.7818608E-02  0.8973684E-01
         -1   -1    0    0    0  501 -0.00000000000E+00  0.00000000000E+00  0.33310735294E+03  0.33310735294E+03  0.00000000000E+00 0.  1.
          1   -1    0    0  501    0  0.00000000000E+00 -0.00000000000E+00 -0.14145673751E+04  0.14145673751E+04  0.00000000000E+00 0. -1.
         23    2    1    2    0    0 -0.23805887870E+03 -0.62176476245E+02 -0.68820790234E+03  0.73655776805E+03  0.91374421548E+02 0.  0.
        254    2    1    2    0    0  0.23805887870E+03  0.62176476245E+02 -0.39325211986E+03  0.10111169600E+04  0.89842770058E+03 0.  0.
        -24    2    4    4    0    0 -0.20134768625E+02  0.23159360850E+03  0.21350086505E+03  0.32561068467E+03  0.79991813275E+02 0.  0.
         24    2    4    4    0    0  0.25819364732E+03 -0.16941713225E+03 -0.60675298491E+03  0.68550627536E+03  0.80022150985E+02 0.  0.
         13    1    3    3    0    0 -0.12807770638E+03  0.56743927057E+01 -0.27100888342E+03  0.29980312289E+03  0.00000000000E+00 0. -1.
        -13    1    3    3    0    0 -0.10998117232E+03 -0.67850868951E+02 -0.41719901892E+03  0.43675464516E+03  0.00000000000E+00 0.  1.
          2    1    6    6  502    0  0.55889463108E+02 -0.17724620711E+02 -0.18172350988E+03  0.19094823464E+03  0.00000000000E+00 0. -1.
          1    1    5    5  503    0 -0.10100927414E+02  0.63920528635E+02  0.16624527569E+02  0.66814950666E+02  0.00000000000E+00 0. -1.
         -2    1    5    5    0  503 -0.10033841211E+02  0.16767307986E+03  0.19687633748E+03  0.25879573400E+03  0.00000000000E+00 0.  1.
         -1    1    6    6    0  502  0.20230418421E+03 -0.15169251154E+03 -0.42502947503E+03  0.49455804073E+03  0.00000000000E+00 0.  1.
<mgrwt>
<rscale>  0 0.13728843E+04</rscale>
<asrwt>0</asrwt>
<pdfrwt beam="1">  1        1 0.21762575E+00 0.13728843E+04</pdfrwt>
<pdfrwt beam="2">  1       -1 0.51247286E-01 0.13728843E+04</pdfrwt>
<totfact> 0.28073134E+01</totfact>
</mgrwt>
</event>
<event>
12    1  0.1097093E-007  0.1943937E+04  0.7818608E-02  0.8633290E-01
         -1   -1    0    0    0  501 -0.00000000000E+00  0.00000000000E+00  0.11177763430E+04  0.11177763430E+04  0.00000000000E+00 0.  1.
          1   -1    0    0  501    0  0.00000000000E+00 -0.00000000000E+00 -0.84518091315E+03  0.84518091315E+03  0.00000000000E+00 0. -1.
         23    2    1    2    0    0 -0.51126667328E+02 -0.45310956339E+03 -0.51029825473E+03  0.69018882479E+03  0.89633099567E+02 0.  0.
        254    2    1    2    0    0  0.51126667328E+02  0.45310956339E+03  0.78289368459E+03  0.12727684314E+04  0.89392099538E+03 0.  0.
        -24    2    4    4    0    0 -0.34623788933E+03  0.37509350659E+03  0.19053570387E+03  0.55078925399E+03  0.80555156055E+02 0.  0.
         24    2    4    4    0    0  0.39736455666E+03  0.78016056792E+02  0.59235798073E+03  0.72197917738E+03  0.79880280657E+02 0.  0.
         11    1    3    3    0    0 -0.26911213400E+02 -0.15499392463E+03 -0.11685540897E+03  0.19596560077E+03  0.00000000000E+00 0.  1.
        -11    1    3    3    0    0 -0.24215453927E+02 -0.29811563875E+03 -0.39344284577E+03  0.49422322402E+03  0.00000000000E+00 0. -1.
          2    1    6    6  502    0  0.93661423802E+02 -0.92128911653E+01  0.17249489605E+03  0.19649892833E+03  0.00000000000E+00 0. -1.
          3    1    5    5  503    0 -0.69377160217E+02  0.38028491391E+02  0.14604867649E+02  0.80452835105E+02  0.00000000000E+00 0. -1.
         -4    1    5    5    0  503 -0.27686072911E+03  0.33706501520E+03  0.17593083622E+03  0.47033641888E+03  0.00000000000E+00 0.  1.
         -1    1    6    6    0  502  0.30370313285E+03  0.87228947957E+02  0.41986308468E+03  0.52548024905E+03  0.00000000000E+00 0.  1.
<mgrwt>
<rscale>  0 0.19439375E+04</rscale>
<asrwt>0</asrwt>
<pdfrwt beam="1">  1        1 0.13002783E+00 0.19439375E+04</pdfrwt>
<pdfrwt beam="2">  1       -1 0.17196559E+00 0.19439375E+04</pdfrwt>
<totfact> 0.44853463E+00</totfact>
</mgrwt>
</event>
<event>
12    1  0.1097093E-007  0.2003840E+04  0.7818608E-02  0.8604827E-01
          1   -1    0    0  501    0  0.00000000000E+00  0.00000000000E+00  0.11706927914E+04  0.11706927914E+04  0.00000000000E+00 0. -1.
         -1   -1    0    0    0  501 -0.00000000000E+00 -0.00000000000E+00 -0.85747824749E+03  0.85747824749E+03  0.00000000000E+00 0.  1.
         23    2    1    2    0    0 -0.47799750088E+03  0.42738237454E+03  0.61265227835E+03  0.89186645625E+03  0.94581481813E+02 0.  0.
        254    2    1    2    0    0  0.47799750088E+03 -0.42738237454E+03 -0.29943773448E+03  0.11363045826E+04  0.88903759353E+03 0.  0.
        -24    2    4    4    0    0 -0.22523130857E+03 -0.46897580262E+02  0.66616280579E+02  0.25341462396E+03  0.82781141617E+02 0.  0.
         24    2    4    4    0    0  0.70322880944E+03 -0.38048479428E+03 -0.36605401506E+03  0.88288995864E+03  0.78738173847E+02 0.  0.
         13    1    3    3    0    0 -0.22384504576E+03  0.13829855813E+03  0.24119784654E+03  0.35694466920E+03  0.00000000000E+00 0.  1.
        -13    1    3    3    0    0 -0.25415245511E+03  0.28908381641E+03  0.37145443181E+03  0.53492178705E+03  0.00000000000E+00 0. -1.
          4    1    6    6  502    0  0.56433698026E+03 -0.26939103101E+03 -0.27606075721E+03  0.68356221117E+03  0.00000000000E+00 0. -1.
          3    1    5    5  503    0 -0.14696266724E+03 -0.38526171887E+02  0.25939087745E+01  0.15195071518E+03  0.00000000000E+00 0. -1.
         -4    1    5    5    0  503 -0.78268641329E+02 -0.83714083748E+01  0.64022371804E+02  0.10146390878E+03  0.00000000000E+00 0.  1.
         -3    1    6    6    0  502  0.13889182919E+03 -0.11109376327E+03 -0.89993257850E+02  0.19932774747E+03  0.00000000000E+00 0.  1.
<mgrwt>
<rscale>  0 0.20038399E+04</rscale>
<asrwt>0</asrwt>
<pdfrwt beam="1">  1        1 0.18010658E+00 0.20038399E+04</pdfrwt>
<pdfrwt beam="2">  1       -1 0.13191973E+00 0.20038399E+04</pdfrwt>
<totfact> 0.50887547E+00</totfact>
</mgrwt>
</event>
<event>
12    1  0.1097093E-007  0.1496676E+04  0.7818608E-02  0.8886666E-01
          2   -1    0    0  501    0  0.00000000000E+00  0.00000000000E+00  0.19187217529E+04  0.19187217529E+04  0.00000000000E+00 0.  1.
         -2   -1    0    0    0  501 -0.00000000000E+00 -0.00000000000E+00 -0.29186614210E+03  0.29186614210E+03  0.00000000000E+00 0. -1.
         23    2    1    2    0    0  0.14030882128E+03  0.45422353176E+03  0.49980232003E+03  0.69508022892E+03  0.85607145713E+02 0.  0.
        254    2    1    2    0    0 -0.14030882128E+03 -0.45422353176E+03  0.11270532908E+04  0.15155076661E+04  0.89471156448E+03 0.  0.
        -24    2    4    4    0    0 -0.23347536120E+03 -0.67054972490E+03  0.60316406874E+03  0.93535831705E+03  0.83310321130E+02 0.  0.
         24    2    4    4    0    0  0.93166539926E+02  0.21632619314E+03  0.52388922205E+03  0.58014934905E+03  0.81463637423E+02 0.  0.
         11    1    3    3    0    0  0.65579959620E+02  0.20595134379E+03  0.28922516558E+03  0.36106492978E+03  0.00000000000E+00 0. -1.
        -11    1    3    3    0    0  0.74728861657E+02  0.24827218797E+03  0.21057715446E+03  0.33401529915E+03  0.00000000000E+00 0.  1.
          4    1    6    6  502    0 -0.14582999177E+02  0.38695929988E+02  0.80512825359E+02  0.90511623065E+02  0.00000000000E+00 0. -1.
          3    1    5    5  503    0 -0.14884666767E+03 -0.46037144974E+03  0.45826297854E+03  0.66640990367E+03  0.00000000000E+00 0. -1.
         -4    1    5    5    0  503 -0.84628693529E+02 -0.21017827517E+03  0.14490109020E+03  0.26894841338E+03  0.00000000000E+00 0.  1.
         -3    1    6    6    0  502  0.10774953910E+03  0.17763026316E+03  0.44337639669E+03  0.48963772599E+03  0.00000000000E+00 0.  1.
<mgrwt>
<rscale>  0 0.14966762E+04</rscale>
<asrwt>0</asrwt>
<pdfrwt beam="1">  1        2 0.29518795E+00 0.14966762E+04</pdfrwt>
<pdfrwt beam="2">  1       -2 0.44902485E-01 0.14966762E+04</pdfrwt>
<totfact> 0.33707134E+01</totfact>
</mgrwt>
</event>
<event>
12    1  0.1097093E-007  0.2637755E+04  0.7818608E-02  0.8355488E-01
          1   -1    0    0  501    0  0.00000000000E+00  0.00000000000E+00  0.17993158373E+04  0.17993158373E+04  0.00000000000E+00 0. -1.
         -1   -1    0    0    0  501 -0.00000000000E+00 -0.00000000000E+00 -0.96672210768E+03  0.96672210768E+03  0.00000000000E+00 0.  1.
         23    2    1    2    0    0 -0.31618475444E+03 -0.96542504898E+03  0.97080945241E+03  0.14080364184E+04  0.89873458994E+02 0.  0.
        254    2    1    2    0    0  0.31618475444E+03  0.96542504898E+03 -0.13821572276E+03  0.13580015266E+04  0.89053143461E+03 0.  0.
        -24    2    4    4    0    0  0.75872289501E+02 -0.52630416303E+01  0.25708128132E+03  0.27973060562E+03  0.79838102407E+02 0.  0.
         24    2    4    4    0    0  0.24031246493E+03  0.97068809061E+03 -0.39529700408E+03  0.10782709210E+04  0.80143667856E+02 0.  0.
         13    1    3    3    0    0 -0.13127241967E+03 -0.45464652699E+03  0.39478831881E+03  0.61627406999E+03  0.00000000000E+00 0. -1.
        -13    1    3    3    0    0 -0.18491233477E+03 -0.51077852199E+03  0.57602113360E+03  0.79176234845E+03  0.00000000000E+00 0.  1.
          4    1    6    6  502    0  0.17666182755E+03  0.78509487971E+03 -0.34607801416E+03  0.87598707944E+03  0.00000000000E+00 0. -1.
          3    1    5    5  503    0  0.91232376200E+02 -0.77516294429E+01  0.19058666826E+03  0.21143961867E+03  0.00000000000E+00 0. -1.
         -4    1    5    5    0  503 -0.15360086699E+02  0.24885878126E+01  0.66494613060E+02  0.68290986951E+02  0.00000000000E+00 0.  1.
         -3    1    6    6    0  502  0.63650637384E+02  0.18559321089E+03 -0.49218989923E+02  0.20228384151E+03  0.00000000000E+00 0.  1.
<mgrwt>
<rscale>  0 0.26377554E+04</rscale>
<asrwt>0</asrwt>
<pdfrwt beam="1">  1        1 0.27681782E+00 0.26377554E+04</pdfrwt>
<pdfrwt beam="2">  1       -1 0.14872648E+00 0.26377554E+04</pdfrwt>
<totfact> 0.12781430E+00</totfact>
</mgrwt>
</event>
<event>
12    1  0.1097093E-007  0.1824471E+04  0.7818608E-02  0.8693393E-01
          2   -1    0    0  501    0  0.00000000000E+00  0.00000000000E+00  0.20448232698E+04  0.20448232698E+04  0.00000000000E+00 0. -1.
         -2   -1    0    0    0  501 -0.00000000000E+00 -0.00000000000E+00 -0.40696608368E+03  0.40696608368E+03  0.00000000000E+00 0.  1.
         23    2    1    2    0    0 -0.23217154025E+03  0.25537051863E+03 -0.17676684885E+03  0.39830510774E+03  0.91009417706E+02 0.  0.
        254    2    1    2    0    0  0.23217154025E+03 -0.25537051863E+03  0.18146240350E+04  0.20534842457E+04  0.89711729073E+03 0.  0.
        -24    2    4    4    0    0  0.28483544209E+03 -0.26764819997E+03  0.21832907651E+03  0.45426676162E+03  0.76966986760E+02 0.  0.
         24    2    4    4    0    0 -0.52663901840E+02  0.12277681341E+02  0.15962949585E+04  0.15992174841E+04  0.80092066332E+02 0.  0.
         13    1    3    3    0    0 -0.57057661638E+02  0.89438603671E+02 -0.98278332817E+02  0.14461490684E+03  0.00000000000E+00 0. -1.
        -13    1    3    3    0    0 -0.17511387861E+03  0.16593191495E+03 -0.78488516031E+02  0.25369020090E+03  0.00000000000E+00 0.  1.
          4    1    6    6  502    0 -0.20954430472E+02 -0.28199489691E+02  0.10282696820E+04  0.10288696897E+04  0.00000000000E+00 0. -1.
          1    1    5    5  503    0  0.18901851477E+03 -0.16438633076E+03  0.97952566102E+02  0.26897131794E+03  0.00000000000E+00 0. -1.
         -2    1    5    5    0  503  0.95816927316E+02 -0.10326186921E+03  0.12037651041E+03  0.18529544369E+03  0.00000000000E+00 0.  1.
         -3    1    6    6    0  502 -0.31709471368E+02  0.40477171032E+02  0.56802527645E+03  0.57034779445E+03  0.00000000000E+00 0.  1.
<mgrwt>
<rscale>  0 0.18244711E+04</rscale>
<asrwt>0</asrwt>
<pdfrwt beam="1">  1        2 0.31458819E+00 0.18244711E+04</pdfrwt>
<pdfrwt beam="2">  1       -2 0.62610168E-01 0.18244711E+04</pdfrwt>
<totfact> 0.14060834E+01</totfact>
</mgrwt>
</event>
<event>
12    1  0.1097093E-007  0.2142033E+04  0.7818608E-02  0.8542950E-01
          3   -1    0    0  501    0  0.00000000000E+00  0.00000000000E+00  0.10926243290E+04  0.10926243290E+04  0.00000000000E+00 0. -1.
         -3   -1    0    0    0  501 -0.00000000000E+00 -0.00000000000E+00 -0.10498357728E+04  0.10498357728E+04  0.00000000000E+00 0.  1.
         23    2    1    2    0    0  0.12211032848E+03  0.75339461200E+03  0.45793848632E+03  0.89455091955E+03  0.89438899261E+02 0.  0.
        254    2    1    2    0    0 -0.12211032848E+03 -0.75339461200E+03 -0.41514993019E+03  0.12479091822E+04  0.89577535625E+03 0.  0.
        -24    2    4    4    0    0  0.79061765690E+02 -0.16078963304E+03  0.25848797060E+03  0.32475027014E+03  0.80886575670E+02 0.  0.
         24    2    4    4    0    0 -0.20117209417E+03 -0.59260497896E+03 -0.67363790079E+03  0.92315891210E+03  0.82361902901E+02 0.  0.
         13    1    3    3    0    0 -0.56962397584E+01  0.29585657279E+02  0.36372817233E+02  0.47230711380E+02  0.00000000000E+00 0.  1.
        -13    1    3    3    0    0  0.12780656824E+03  0.72380895472E+03  0.42156566909E+03  0.84732020817E+03  0.00000000000E+00 0. -1.
          2    1    6    6  502    0 -0.16324030415E+03 -0.48277565924E+03 -0.59204981767E+03  0.78118033811E+03  0.00000000000E+00 0. -1.
          1    1    5    5  503    0 -0.11974135264E+01 -0.84201553416E+02  0.92369081202E+02  0.12499353007E+03  0.00000000000E+00 0. -1.
         -2    1    5    5    0  503  0.80259179216E+02 -0.76588079621E+02  0.16611888940E+03  0.19975674007E+03  0.00000000000E+00 0.  1.
         -1    1    6    6    0  502 -0.37931790021E+02 -0.10982931972E+03 -0.81588083125E+02  0.14197857399E+03  0.00000000000E+00 0.  1.
<mgrwt>
<rscale>  0 0.21420328E+04</rscale>
<asrwt>0</asrwt>
<pdfrwt beam="1">  1        3 0.16809605E+00 0.21420328E+04</pdfrwt>
<pdfrwt beam="2">  1       -3 0.16151320E+00 0.21420328E+04</pdfrwt>
<totfact> 0.15239768E-01</totfact>
</mgrwt>
</event>
<event>
12    1  0.1097093E-007  0.1568488E+04  0.7818608E-02  0.8840144E-01
          1   -1    0    0  501    0  0.00000000000E+00  0.00000000000E+00  0.21374018712E+04  0.21374018712E+04  0.00000000000E+00 0. -1.
         -1   -1    0    0    0  501 -0.00000000000E+00 -0.00000000000E+00 -0.28775050341E+03  0.28775050341E+03  0.00000000000E+00 0.  1.
         23    2    1    2    0    0  0.27647616188E+03 -0.13823126044E+02  0.13162562192E+04  0.13481908640E+04  0.91967518253E+02 0.  0.
        254    2    1    2    0    0 -0.27647616188E+03  0.13823126044E+02  0.53339514863E+03  0.10769615106E+04  0.89370328624E+03 0.  0.
        -24    2    4    4    0    0 -0.26478824768E+03 -0.32936082043E+03  0.57886681285E+03  0.72168333938E+03  0.84549921245E+02 0.  0.
         24    2    4    4    0    0 -0.11687914202E+02  0.34318394647E+03 -0.45471664220E+02  0.35527817122E+03  0.79013152375E+02 0.  0.
         13    1    3    3    0    0  0.17544393893E+03  0.35123695346E+02  0.84701995038E+03  0.86571187241E+03  0.00000000000E+00 0. -1.
        -13    1    3    3    0    0  0.10103222295E+03 -0.48946821390E+02  0.46923626877E+03  0.48247899159E+03  0.00000000000E+00 0.  1.
          4    1    6    6  502    0 -0.92988424504E+01  0.58022254608E+02  0.21105504553E+02  0.62437911746E+02  0.00000000000E+00 0. -1.
          3    1    5    5  503    0 -0.10091507401E+03 -0.11617208906E+03  0.14615195933E+03  0.21222676942E+03  0.00000000000E+00 0. -1.
         -4    1    5    5    0  503 -0.16387317367E+03 -0.21318873136E+03  0.43271485351E+03  0.50945656996E+03  0.00000000000E+00 0.  1.
         -3    1    6    6    0  502 -0.23890717519E+01  0.28516169186E+03 -0.66577168773E+02  0.29284025948E+03  0.00000000000E+00 0.  1.
<mgrwt>
<rscale>  0 0.15684878E+04</rscale>
<asrwt>0</asrwt>
<pdfrwt beam="1">  1        1 0.32883105E+00 0.15684878E+04</pdfrwt>
<pdfrwt beam="2">  1       -1 0.44269310E-01 0.15684878E+04</pdfrwt>
<totfact> 0.11684518E+01</totfact>
</mgrwt>
</event>
<event>
12    1  0.1097093E-007  0.2152841E+04  0.7818608E-02  0.8538317E-01
         -1   -1    0    0    0  501 -0.00000000000E+00  0.00000000000E+00  0.80994806220E+03  0.80994806220E+03  0.00000000000E+00 0. -1.
          1   -1    0    0  501    0  0.00000000000E+00 -0.00000000000E+00 -0.14305621866E+04  0.14305621866E+04  0.00000000000E+00 0.  1.
         23    2    1    2    0    0  0.60068858716E+03 -0.49889680290E+03  0.17744929176E+03  0.80598421252E+03  0.91637879792E+02 0.  0.
        254    2    1    2    0    0 -0.60068858716E+03  0.49889680290E+03 -0.79806341618E+03  0.14345260363E+04  0.90068581308E+03 0.  0.
        -24    2    4    4    0    0 -0.46352299674E+03 -0.16676283074E+03 -0.25268169727E+03  0.55949593061E+03  0.80772804898E+02 0.  0.
         24    2    4    4    0    0 -0.13716559042E+03  0.66565963364E+03 -0.54538171891E+03  0.87503010569E+03  0.79494147510E+02 0.  0.
         13    1    3    3    0    0  0.48169029143E+03 -0.37736644341E+03  0.17277195795E+03  0.63583104589E+03  0.00000000000E+00 0.  1.
        -13    1    3    3    0    0  0.11899829573E+03 -0.12153035948E+03  0.46773338091E+01  0.17015316663E+03  0.00000000000E+00 0. -1.
          2    1    6    6  502    0 -0.87143749726E+01  0.13678227392E+03 -0.14382589628E+03  0.19867365007E+03  0.00000000000E+00 0. -1.
          1    1    5    5  503    0 -0.43222257350E+02  0.23642469689E+01 -0.61827051774E+01  0.43726182516E+02  0.00000000000E+00 0. -1.
         -2    1    5    5    0  503 -0.42030073939E+03 -0.16912707771E+03 -0.24649899209E+03  0.51576974809E+03  0.00000000000E+00 0.  1.
         -1    1    6    6    0  502 -0.12845121545E+03  0.52887735972E+03 -0.40155582263E+03  0.67635645562E+03  0.00000000000E+00 0.  1.
<mgrwt>
<rscale>  0 0.21528410E+04</rscale>
<asrwt>0</asrwt>
<pdfrwt beam="1">  1        1 0.22008649E+00 0.21528410E+04</pdfrwt>
<pdfrwt beam="2">  1       -1 0.12460740E+00 0.21528410E+04</pdfrwt>
<totfact> 0.37760585E+00</totfact>
</mgrwt>
</event>
<event>
12    1  0.1097093E-007  0.1297087E+04  0.7818608E-02  0.9031878E-01
         -2   -1    0    0    0  501 -0.00000000000E+00  0.00000000000E+00  0.76343153667E+03  0.76343153667E+03  0.00000000000E+00 0.  1.
          2   -1    0    0  501    0  0.00000000000E+00 -0.00000000000E+00 -0.55094510395E+03  0.55094510395E+03  0.00000000000E+00 0. -1.
         23    2    1    2    0    0  0.81148418652E+02  0.17994514725E+03  0.31919167616E+03  0.38619431583E+03  0.91090074026E+02 0.  0.
        254    2    1    2    0    0 -0.81148418652E+02 -0.17994514725E+03 -0.10670524343E+03  0.92818232479E+03  0.90065037457E+03 0.  0.
        -24    2    4    4    0    0  0.16447131189E+03 -0.44567013153E+03  0.11591459529E+03  0.49512157841E+03  0.77694951185E+02 0.  0.
         24    2    4    4    0    0 -0.24561973055E+03  0.26572498427E+03 -0.22261983872E+03  0.43306074638E+03  0.83923763995E+02 0.  0.
         13    1    3    3    0    0 -0.97960836499E+01  0.85881118256E+02  0.12067328961E+03  0.14843709966E+03  0.00000000000E+00 0. -1.
        -13    1    3    3    0    0  0.90944502302E+02  0.94064028996E+02  0.19851838654E+03  0.23775721618E+03  0.00000000000E+00 0.  1.
          4    1    6    6  502    0 -0.17769610215E+03  0.15088393423E+03 -0.10694504656E+03  0.25647438334E+03  0.00000000000E+00 0. -1.
          3    1    5    5  503    0  0.14630327457E+03 -0.43724749565E+03  0.11430054744E+03  0.47503119450E+03  0.00000000000E+00 0. -1.
         -4    1    5    5    0  503  0.18168037324E+02 -0.84226358732E+01  0.16140478441E+01  0.20090383911E+02  0.00000000000E+00 0.  1.
         -3    1    6    6    0  502 -0.67923628400E+02  0.11484105004E+03 -0.11567479216E+03  0.17658636304E+03  0.00000000000E+00 0.  1.
<mgrwt>
<rscale>  0 0.12970873E+04</rscale>
<asrwt>0</asrwt>
<pdfrwt beam="1">  1        2 0.84760785E-01 0.12970873E+04</pdfrwt>
<pdfrwt beam="2">  1       -2 0.11745101E+00 0.12970873E+04</pdfrwt>
<totfact> 0.30154755E+01</totfact>
</mgrwt>
</event>
<event>
12    1  0.1097093E-007  0.1809870E+04  0.7818608E-02  0.8701068E-01
          2   -1    0    0  501    0  0.00000000000E+00  0.00000000000E+00  0.15737630052E+04  0.15737630052E+04  0.00000000000E+00 0. -1.
         -2   -1    0    0    0  501 -0.00000000000E+00 -0.00000000000E+00 -0.52034967140E+03  0.52034967140E+03  0.00000000000E+00 0.  1.
         23    2    1    2    0    0  0.14378477571E+03  0.62184633107E+03  0.18817119058E+03  0.67102280317E+03  0.86581084606E+02 0.  0.
        254    2    1    2    0    0 -0.14378477571E+03 -0.62184633107E+03  0.86524214326E+03  0.14230898735E+04  0.93229496424E+03 0.  0.
        -24    2    4    4    0    0  0.18321888683E+03 -0.54231685506E+03  0.90641499607E+03  0.10749129137E+04  0.78567773833E+02 0.  0.
         24    2    4    4    0    0 -0.32700366254E+03 -0.79529476017E+02 -0.41172852815E+02  0.34817695982E+03  0.79219054992E+02 0.  0.
         13    1    3    3    0    0  0.10326150255E+03  0.41246368537E+03  0.82943835042E+02  0.43320769780E+03  0.00000000000E+00 0.  1.
        -13    1    3    3    0    0  0.40523273163E+02  0.20938264570E+03  0.10522735554E+03  0.23781510537E+03  0.00000000000E+00 0. -1.
          4    1    6    6  502    0  0.18978333014E+01 -0.67542704027E+01  0.43549132298E+01  0.82575546715E+01  0.00000000000E+00 0. -1.
          1    1    5    5  503    0  0.10707680548E+03 -0.20476542230E+03  0.33736458747E+03  0.40891219757E+03  0.00000000000E+00 0. -1.
         -2    1    5    5    0  503  0.76142081350E+02 -0.33755143276E+03  0.56905040860E+03  0.66600071609E+03  0.00000000000E+00 0.  1.
         -3    1    6    6    0  502 -0.32890149584E+03 -0.72775205615E+02 -0.45527766044E+02  0.33991940515E+03  0.00000000000E+00 0.  1.
<mgrwt>
<rscale>  0 0.18098697E+04</rscale>
<asrwt>0</asrwt>
<pdfrwt beam="1">  1        2 0.24211738E+00 0.18098697E+04</pdfrwt>
<pdfrwt beam="2">  1       -2 0.80053796E-01 0.18098697E+04</pdfrwt>
<totfact> 0.15019201E+01</totfact>
</mgrwt>
</event>
<event>
12    1  0.1097093E-007  0.1938990E+04  0.7818608E-02  0.8635688E-01
          2   -1    0    0  501    0  0.00000000000E+00  0.00000000000E+00  0.12995170642E+04  0.12995170642E+04  0.00000000000E+00 0. -1.
         -2   -1    0    0    0  501 -0.00000000000E+00 -0.00000000000E+00 -0.72328437850E+03  0.72328437850E+03  0.00000000000E+00 0.  1.
         23    2    1    2    0    0  0.30684279697E+03  0.10946575403E+03  0.93330127309E+03  0.99268438096E+03  0.90751090921E+02 0.  0.
        254    2    1    2    0    0 -0.30684279697E+03 -0.10946575403E+03 -0.35706858743E+03  0.10301170617E+04  0.90967462937E+03 0.  0.
        -24    2    4    4    0    0  0.29047294927E+03 -0.15517411584E+03 -0.19861484047E+02  0.33804864369E+03  0.73680841938E+02 0.  0.
         24    2    4    4    0    0 -0.59731574624E+03  0.45708361806E+02 -0.33720710338E+03  0.69206841801E+03  0.79841778510E+02 0.  0.
         13    1    3    3    0    0  0.23357534019E+03  0.12251912720E+03  0.73081595181E+03  0.77695581051E+03  0.00000000000E+00 0. -1.
        -13    1    3    3    0    0  0.73267456778E+02 -0.13053373171E+02  0.20248532128E+03  0.21572857045E+03  0.00000000000E+00 0.  1.
          4    1    6    6  502    0 -0.56933296076E+03  0.58733763223E+02 -0.32881305522E+03  0.66008158619E+03  0.00000000000E+00 0. -1.
          1    1    5    5  503    0  0.18521364760E+03 -0.10396776007E+03 -0.47789816028E+02  0.21770911076E+03  0.00000000000E+00 0. -1.
         -2    1    5    5    0  503  0.10525930166E+03 -0.51206355768E+02  0.27928331981E+02  0.12033953293E+03  0.00000000000E+00 0.  1.
         -3    1    6    6    0  502 -0.27982785474E+02 -0.13025401417E+02 -0.83940481617E+01  0.31986831814E+02  0.00000000000E+00 0.  1.
<mgrwt>
<rscale>  0 0.19389898E+04</rscale>
<asrwt>0</asrwt>
<pdfrwt beam="1">  1        2 0.19992570E+00 0.19389898E+04</pdfrwt>
<pdfrwt beam="2">  1       -2 0.11127452E+00 0.19389898E+04</pdfrwt>
<totfact> 0.98693179E+00</totfact>
</mgrwt>
</event>
<event>
12    1  0.1097093E-007  0.1808533E+04  0.7818608E-02  0.8701775E-01
         -1   -1    0    0    0  501 -0.00000000000E+00  0.00000000000E+00  0.63179922617E+03  0.63179922617E+03  0.00000000000E+00 0.  1.
          1   -1    0    0  501    0  0.00000000000E+00 -0.00000000000E+00 -0.12942368950E+04  0.12942368950E+04  0.00000000000E+00 0. -1.
         23    2    1    2    0    0  0.50768306299E+03 -0.45031749939E+03 -0.14286000237E+03  0.69940063527E+03  0.90688067726E+02 0.  0.
        254    2    1    2    0    0 -0.50768306299E+03  0.45031749939E+03 -0.51957766649E+03  0.12266354859E+04  0.87985551150E+03 0.  0.
        -24    2    4    4    0    0  0.15423383253E+03  0.24479232662E+03 -0.42841800074E+03  0.52300085902E+03  0.79224724090E+02 0.  0.
         24    2    4    4    0    0 -0.66191689552E+03  0.20552517277E+03 -0.91159665749E+02  0.70363462692E+03  0.80106368761E+02 0.  0.
         13    1    3    3    0    0  0.50016365487E+03 -0.42933814987E+03 -0.14997078833E+03  0.67600751915E+03  0.00000000000E+00 0.  1.
        -13    1    3    3    0    0  0.75194081203E+01 -0.20979349526E+02  0.71107859622E+01  0.23393116124E+02  0.00000000000E+00 0. -1.
          2    1    6    6  502    0 -0.27819673176E+03  0.12787357120E+03 -0.43136349205E+02  0.30920190232E+03  0.00000000000E+00 0. -1.
          1    1    5    5  503    0  0.40636150922E+02  0.45813022119E+02 -0.15260900069E+03  0.16443733411E+03  0.00000000000E+00 0. -1.
         -2    1    5    5    0  503  0.11359768160E+03  0.19897930450E+03 -0.27580900005E+03  0.35856352491E+03  0.00000000000E+00 0.  1.
         -1    1    6    6    0  502 -0.38372016376E+03  0.77651601576E+02 -0.48023316543E+02  0.39443272460E+03  0.00000000000E+00 0.  1.
<mgrwt>
<rscale>  0 0.18085330E+04</rscale>
<asrwt>0</asrwt>
<pdfrwt beam="1">  1        1 0.19911337E+00 0.18085330E+04</pdfrwt>
<pdfrwt beam="2">  1       -1 0.97199882E-01 0.18085330E+04</pdfrwt>
<totfact> 0.87560904E+00</totfact>
</mgrwt>
</event>
<event>
12    1  0.1097093E-007  0.4066901E+04  0.7818608E-02  0.7991185E-01
          2   -1    0    0  501    0  0.00000000000E+00  0.00000000000E+00  0.31234798769E+04  0.31234798769E+04  0.00000000000E+00 0. -1.
         -2   -1    0    0    0  501 -0.00000000000E+00 -0.00000000000E+00 -0.13238188681E+04  0.13238188681E+04  0.00000000000E+00 0.  1.
         23    2    1    2    0    0 -0.11082580886E+04 -0.11674285305E+04  0.20324555830E+04  0.25944683555E+04  0.96254797225E+02 0.  0.
        254    2    1    2    0    0  0.11082580886E+04  0.11674285305E+04 -0.23279457428E+03  0.18528303894E+04  0.88750311176E+03 0.  0.
        -24    2    4    4    0    0  0.91941195057E+03  0.89522107841E+03  0.20017107299E+03  0.13013809156E+04  0.82369381525E+02 0.  0.
         24    2    4    4    0    0  0.18884613805E+03  0.27220745206E+03 -0.43296564727E+03  0.55144947379E+03  0.82930751889E+02 0.  0.
         11    1    3    3    0    0 -0.36431215437E+03 -0.32193830190E+03  0.63187083846E+03  0.79726305104E+03  0.00000000000E+00 0.  1.
        -11    1    3    3    0    0 -0.74394593425E+03 -0.84549022857E+03  0.14005847446E+04  0.17972053045E+04  0.00000000000E+00 0. -1.
          2    1    6    6  502    0  0.16866692741E+03  0.25968960271E+03 -0.42609365132E+03  0.52672860360E+03  0.00000000000E+00 0. -1.
          1    1    5    5  503    0  0.64388209496E+03  0.57810367484E+03  0.11816399650E+03  0.87335602199E+03  0.00000000000E+00 0. -1.
         -2    1    5    5    0  503  0.27552985561E+03  0.31711740357E+03  0.82007076493E+02  0.42802489364E+03  0.00000000000E+00 0.  1.
         -1    1    6    6    0  502  0.20179210638E+02  0.12517849352E+02 -0.68719959539E+01  0.24720870187E+02  0.00000000000E+00 0.  1.
<mgrwt>
<rscale>  0 0.40669013E+04</rscale>
<asrwt>0</asrwt>
<pdfrwt beam="1">  1        2 0.48053536E+00 0.40669013E+04</pdfrwt>
<pdfrwt beam="2">  1       -2 0.20366444E+00 0.40669013E+04</pdfrwt>
<totfact> 0.14342113E-01</totfact>
</mgrwt>
</event>
<event>
12    1  0.1097093E-007  0.1337076E+04  0.7818608E-02  0.9000669E-01
         -1   -1    0    0    0  501 -0.00000000000E+00  0.00000000000E+00  0.85894047568E+03  0.85894047568E+03  0.00000000000E+00 0.  1.
          1   -1    0    0  501    0  0.00000000000E+00 -0.00000000000E+00 -0.52034256670E+03  0.52034256670E+03  0.00000000000E+00 0. -1.
         23    2    1    2    0    0 -0.32649240998E+03  0.19834642347E+02  0.26651010243E+03  0.43356207720E+03  0.99788442640E+02 0.  0.
        254    2    1    2    0    0  0.32649240998E+03 -0.19834642347E+02  0.72087806559E+02  0.94572096518E+03  0.88442115834E+03 0.  0.
        -24    2    4    4    0    0  0.53147026141E+03 -0.10906096319E+03 -0.20035728683E+03  0.58393432943E+03  0.80506684474E+02 0.  0.
         24    2    4    4    0    0 -0.20497785143E+03  0.89226320842E+02  0.27244509339E+03  0.36178663575E+03  0.81767872553E+02 0.  0.
         13    1    3    3    0    0 -0.33324397247E+03  0.16860490357E+02  0.25527139975E+03  0.42011820819E+03  0.00000000000E+00 0. -1.
        -13    1    3    3    0    0  0.67515624948E+01  0.29741519896E+01  0.11238702676E+02  0.13443869012E+02  0.00000000000E+00 0.  1.
          4    1    6    6  502    0 -0.12182306351E+03  0.93847318696E+02  0.16075616347E+03  0.22246510316E+03  0.00000000000E+00 0. -1.
          3    1    5    5  503    0  0.75691459762E+02 -0.39455900030E+02 -0.50254285960E+02  0.99052806045E+02  0.00000000000E+00 0. -1.
         -4    1    5    5    0  503  0.45577880165E+03 -0.69605063160E+02 -0.15010300087E+03  0.48488152338E+03  0.00000000000E+00 0.  1.
         -3    1    6    6    0  502 -0.83154787921E+02 -0.46209978539E+01  0.11168892992E+03  0.13932153258E+03  0.00000000000E+00 0.  1.
<mgrwt>
<rscale>  0 0.13370764E+04</rscale>
<asrwt>0</asrwt>
<pdfrwt beam="1">  1        1 0.80052702E-01 0.13370764E+04</pdfrwt>
<pdfrwt beam="2">  1       -1 0.13214469E+00 0.13370764E+04</pdfrwt>
<totfact> 0.19993980E+01</totfact>
</mgrwt>
</event>
<event>
12    1  0.1097093E-007  0.2105003E+04  0.7818608E-02  0.8559043E-01
          2   -1    0    0  501    0  0.00000000000E+00  0.00000000000E+00  0.24456862668E+04  0.24456862668E+04  0.00000000000E+00 0. -1.
         -2   -1    0    0    0  501 -0.00000000000E+00 -0.00000000000E+00 -0.45294431659E+03  0.45294431659E+03  0.00000000000E+00 0.  1.
         23    2    1    2    0    0 -0.53470736572E+03  0.99791998264E+02  0.17285256422E+04  0.18143596984E+04  0.90718297692E+02 0.  0.
        254    2    1    2    0    0  0.53470736572E+03 -0.99791998264E+02  0.26421630802E+03  0.10842708850E+04  0.89997926909E+03 0.  0.
        -24    2    4    4    0    0  0.21530085613E+03 -0.26502128791E+03  0.52604106067E+03  0.63226672463E+03  0.80319809975E+02 0.  0.
         24    2    4    4    0    0  0.31940650959E+03  0.16522928965E+03 -0.26182475265E+03  0.45200416038E+03  0.80214234238E+02 0.  0.
         11    1    3    3    0    0 -0.17126793150E+03  0.32496651626E+02  0.70191443280E+03  0.72323758731E+03  0.00000000000E+00 0.  1.
        -11    1    3    3    0    0 -0.36343943421E+03  0.67295346638E+02  0.10266112094E+04  0.10911221111E+04  0.00000000000E+00 0. -1.
          2    1    6    6  502    0  0.53819102679E+02  0.64493707075E+02 -0.68759993040E+02  0.10855353844E+03  0.00000000000E+00 0. -1.
          1    1    5    5  503    0  0.15974976597E+03 -0.23925330115E+03  0.40713854080E+03  0.49852173598E+03  0.00000000000E+00 0. -1.
         -2    1    5    5    0  503  0.55551090163E+02 -0.25767986765E+02  0.11890251987E+03  0.13374498866E+03  0.00000000000E+00 0.  1.
         -1    1    6    6    0  502  0.26558740691E+03  0.10073558257E+03 -0.19306475961E+03  0.34345062193E+03  0.00000000000E+00 0.  1.
<mgrwt>
<rscale>  0 0.21050033E+04</rscale>
<asrwt>0</asrwt>
<pdfrwt beam="1">  1        2 0.37625942E+00 0.21050033E+04</pdfrwt>
<pdfrwt beam="2">  1       -2 0.69683742E-01 0.21050033E+04</pdfrwt>
<totfact> 0.64731029E+00</totfact>
</mgrwt>
</event>
<event>
12    1  0.1097093E-007  0.1743106E+04  0.7818608E-02  0.8737154E-01
          2   -1    0    0  501    0  0.00000000000E+00  0.00000000000E+00  0.11835900592E+04  0.11835900592E+04  0.00000000000E+00 0. -1.
         -2   -1    0    0    0  501 -0.00000000000E+00 -0.00000000000E+00 -0.64177985505E+03  0.64177985505E+03  0.00000000000E+00 0.  1.
         23    2    1    2    0    0 -0.56767193910E+03 -0.26831335772E+03  0.31187511144E+03  0.70696311326E+03  0.91034444046E+02 0.  0.
        254    2    1    2    0    0  0.56767193910E+03  0.26831335772E+03  0.22993509276E+03  0.11184068010E+04  0.89650439895E+03 0.  0.
        -24    2    4    4    0    0 -0.23631862739E+03  0.98860570976E+02  0.59732364794E+02  0.27459213066E+03  0.78822437614E+02 0.  0.
         24    2    4    4    0    0  0.80399056649E+03  0.16945278675E+03  0.17020272796E+03  0.84381467037E+03  0.89101915684E+02 0.  0.
         13    1    3    3    0    0 -0.52826951434E+03 -0.24983983653E+03  0.26097979915E+03  0.63999928068E+03  0.00000000000E+00 0. -1.
        -13    1    3    3    0    0 -0.39402424762E+02 -0.18473521192E+02  0.50895312281E+02  0.66963832586E+02  0.00000000000E+00 0.  1.
          4    1    6    6  502    0  0.79189330279E+02  0.41476513960E+02  0.52736004245E+01  0.89549216086E+02  0.00000000000E+00 0. -1.
          3    1    5    5  503    0 -0.10751107980E+03  0.65140416131E+02  0.64644236305E+02  0.14135339890E+03  0.00000000000E+00 0. -1.
         -2    1    5    5    0  503 -0.12880754759E+03  0.33720154846E+02 -0.49118715105E+01  0.13323873176E+03  0.00000000000E+00 0.  1.
         -3    1    6    6    0  502  0.72480123621E+03  0.12797627279E+03  0.16492912754E+03  0.75426545428E+03  0.00000000000E+00 0.  1.
<mgrwt>
<rscale>  0 0.17431056E+04</rscale>
<asrwt>0</asrwt>
<pdfrwt beam="1">  1        2 0.18209078E+00 0.17431056E+04</pdfrwt>
<pdfrwt beam="2">  1       -2 0.98735362E-01 0.17431056E+04</pdfrwt>
<totfact> 0.15643783E+01</totfact>
</mgrwt>
</event>
<event>
12    1  0.1097093E-007  0.1170526E+04  0.7818608E-02  0.9139053E-01
         -1   -1    0    0    0  501 -0.00000000000E+00  0.00000000000E+00  0.16207713096E+03  0.16207713096E+03  0.00000000000E+00 0.  1.
          1   -1    0    0  501    0  0.00000000000E+00 -0.00000000000E+00 -0.21133952530E+04  0.21133952530E+04  0.00000000000E+00 0. -1.
         23    2    1    2    0    0  0.98934726001E+02 -0.19089001758E+03 -0.57053068082E+03  0.61625528303E+03  0.89656217230E+02 0.  0.
        254    2    1    2    0    0 -0.98934726001E+02  0.19089001758E+03 -0.13807874412E+04  0.16592171009E+04  0.89453918379E+03 0.  0.
        -24    2    4    4    0    0 -0.37837318158E+03  0.44516246326E+02 -0.20592941782E+03  0.44019080972E+03  0.78822985923E+02 0.  0.
         24    2    4    4    0    0  0.27943845558E+03  0.14637377126E+03 -0.11748580234E+04  0.12190262912E+04  0.78883408478E+02 0.  0.
         11    1    3    3    0    0  0.87378594343E+02 -0.19994671140E+03 -0.53099243378E+03  0.57407897617E+03  0.00000000000E+00 0. -1.
        -11    1    3    3    0    0  0.11556131658E+02  0.90566938137E+01 -0.39538247042E+02  0.42176306866E+02  0.00000000000E+00 0.  1.
          2    1    6    6  502    0  0.13409398616E+03  0.35176802875E+02 -0.59692056920E+03  0.61280728660E+03  0.00000000000E+00 0. -1.
          1    1    5    5  503    0 -0.36014965625E+03  0.44892950981E+02 -0.21278777314E+03  0.42071580472E+03  0.00000000000E+00 0. -1.
         -2    1    5    5    0  503 -0.18223525329E+02 -0.37670465509E+00  0.68583553209E+01  0.19475004994E+02  0.00000000000E+00 0.  1.
         -1    1    6    6    0  502  0.14534446942E+03  0.11119696838E+03 -0.57793745418E+03  0.60621900458E+03  0.00000000000E+00 0.  1.
<mgrwt>
<rscale>  0 0.11705264E+04</rscale>
<asrwt>0</asrwt>
<pdfrwt beam="1">  1        1 0.32513776E+00 0.11705264E+04</pdfrwt>
<pdfrwt beam="2">  1       -1 0.24934941E-01 0.11705264E+04</pdfrwt>
<totfact> 0.34929421E+01</totfact>
</mgrwt>
</event>
<event>
12    1  0.1097093E-007  0.1404415E+04  0.7818608E-02  0.8950629E-01
          2   -1    0    0  501    0  0.00000000000E+00  0.00000000000E+00  0.60662002072E+03  0.60662002072E+03  0.00000000000E+00 0. -1.
         -2   -1    0    0    0  501 -0.00000000000E+00 -0.00000000000E+00 -0.81285664634E+03  0.81285664634E+03  0.00000000000E+00 0.  1.
         23    2    1    2    0    0 -0.27642284283E+03 -0.25111296433E+03 -0.21603346511E+03  0.44122177414E+03  0.92406098502E+02 0.  0.
        254    2    1    2    0    0  0.27642284283E+03  0.25111296433E+03  0.97968394939E+01  0.97825489292E+03  0.90411246456E+03 0.  0.
        -24    2    4    4    0    0  0.55481758429E+02  0.44207583813E+03  0.31261401098E+03  0.55015325452E+03  0.80198574902E+02 0.  0.
         24    2    4    4    0    0  0.22094108440E+03 -0.19096287380E+03 -0.30281717149E+03  0.42810163841E+03  0.79315770888E+02 0.  0.
         11    1    3    3    0    0 -0.10326251093E+03 -0.86131791332E+02 -0.13003432401E+03  0.18705816492E+03  0.00000000000E+00 0. -1.
        -11    1    3    3    0    0 -0.17316033189E+03 -0.16498117300E+03 -0.85999141107E+02  0.25416360923E+03  0.00000000000E+00 0.  1.
          2    1    6    6  502    0  0.15348158880E+03 -0.94380318421E+02 -0.21860816520E+03  0.28329096791E+03  0.00000000000E+00 0. -1.
          1    1    5    5  503    0  0.14711086580E+02  0.29566343067E+03  0.16807867341E+03  0.34041698072E+03  0.00000000000E+00 0. -1.
         -2    1    5    5    0  503  0.40770671850E+02  0.14641240746E+03  0.14453533757E+03  0.20973627380E+03  0.00000000000E+00 0.  1.
         -1    1    6    6    0  502  0.67459495595E+02 -0.96582555380E+02 -0.84209006292E+02  0.14481067050E+03  0.00000000000E+00 0.  1.
<mgrwt>
<rscale>  0 0.14044146E+04</rscale>
<asrwt>0</asrwt>
<pdfrwt beam="1">  1        2 0.93326158E-01 0.14044146E+04</pdfrwt>
<pdfrwt beam="2">  1       -2 0.12505487E+00 0.14044146E+04</pdfrwt>
<totfact> 0.22800093E+01</totfact>
</mgrwt>
</event>
<event>
12    1  0.1097093E-007  0.2119956E+04  0.7818608E-02  0.8552503E-01
          2   -1    0    0  501    0  0.00000000000E+00  0.00000000000E+00  0.15710432766E+04  0.15710432766E+04  0.00000000000E+00 0. -1.
         -2   -1    0    0    0  501 -0.00000000000E+00 -0.00000000000E+00 -0.71516355329E+03  0.71516355329E+03  0.00000000000E+00 0.  1.
         23    2    1    2    0    0 -0.30965097998E+03 -0.28425270299E+03 -0.46632756945E+03  0.63436698849E+03  0.90976620634E+02 0.  0.
        254    2    1    2    0    0  0.30965097998E+03  0.28425270299E+03  0.13222072927E+04  0.16518398414E+04  0.89647052827E+03 0.  0.
        -24    2    4    4    0    0  0.26342489968E+03 -0.22229105016E+03  0.95834870600E+03  0.10214144380E+04  0.77776752335E+02 0.  0.
         24    2    4    4    0    0  0.46226080301E+02  0.50654375315E+03  0.36385858674E+03  0.63042540334E+03  0.79496501012E+02 0.  0.
         11    1    3    3    0    0 -0.17445413439E+03 -0.10707660658E+03 -0.25755081415E+03  0.32898642305E+03  0.00000000000E+00 0. -1.
        -11    1    3    3    0    0 -0.13519684559E+03 -0.17717609641E+03 -0.20877675529E+03  0.30538056544E+03  0.00000000000E+00 0.  1.
          2    1    6    6  502    0  0.60911594539E+02  0.46276976521E+03  0.31444847895E+03  0.56280007450E+03  0.00000000000E+00 0. -1.
          3    1    5    5  503    0  0.22202653220E+03 -0.16333424052E+03  0.82534319818E+03  0.87015242912E+03  0.00000000000E+00 0. -1.
         -4    1    5    5    0  503  0.41398367482E+02 -0.58956809641E+02  0.13300550783E+03  0.15126200893E+03  0.00000000000E+00 0.  1.
         -1    1    6    6    0  502 -0.14685514238E+02  0.43773987941E+02  0.49410107795E+02  0.67625328842E+02  0.00000000000E+00 0.  1.
<mgrwt>
<rscale>  0 0.21199556E+04</rscale>
<asrwt>0</asrwt>
<pdfrwt beam="1">  1        2 0.24169896E+00 0.21199556E+04</pdfrwt>
<pdfrwt beam="2">  1       -2 0.11002516E+00 0.21199556E+04</pdfrwt>
<totfact> 0.69949523E+00</totfact>
</mgrwt>
</event>
<event>
12    1  0.1097093E-007  0.1401899E+04  0.7818608E-02  0.8952445E-01
          2   -1    0    0  501    0  0.00000000000E+00  0.00000000000E+00  0.41098062779E+03  0.41098062779E+03  0.00000000000E+00 0. -1.
         -2   -1    0    0    0  501 -0.00000000000E+00 -0.00000000000E+00 -0.11955069150E+04  0.11955069150E+04  0.00000000000E+00 0.  1.
         23    2    1    2    0    0 -0.24680317484E+03 -0.14774457869E+03  0.94404965093E+02  0.31578742479E+03  0.89828350629E+02 0.  0.
        254    2    1    2    0    0  0.24680317484E+03  0.14774457869E+03 -0.87893125227E+03  0.12907001180E+04  0.90035902876E+03 0.  0.
        -24    2    4    4    0    0 -0.39859550148E+02  0.32904706851E+03  0.59568274729E+01  0.34033376734E+03  0.77011897533E+02 0.  0.
         24    2    4    4    0    0  0.28666272499E+03 -0.18130248982E+03 -0.88488807974E+03  0.95036635063E+03  0.71576365092E+02 0.  0.
         11    1    3    3    0    0 -0.13287045540E+03 -0.12948013239E+03  0.66403812303E+02  0.19705108193E+03  0.00000000000E+00 0.  1.
        -11    1    3    3    0    0 -0.11393271944E+03 -0.18264446305E+02  0.28001152789E+02  0.11873634286E+03  0.00000000000E+00 0. -1.
          2    1    6    6  502    0  0.15970117530E+03 -0.13912686245E+03 -0.57802135193E+03  0.61560493219E+03  0.00000000000E+00 0. -1.
          3    1    5    5  503    0  0.27036353205E+01  0.23334744676E+03 -0.13709442764E+02  0.23376545804E+03  0.00000000000E+00 0. -1.
         -4    1    5    5    0  503 -0.42563185468E+02  0.95699621756E+02  0.19666270237E+02  0.10656830930E+03  0.00000000000E+00 0.  1.
         -3    1    6    6    0  502  0.12696154969E+03 -0.42175627368E+02 -0.30686672781E+03  0.33476141845E+03  0.00000000000E+00 0.  1.
<mgrwt>
<rscale>  0 0.14018990E+04</rscale>
<asrwt>0</asrwt>
<pdfrwt beam="1">  1        2 0.63227790E-01 0.14018990E+04</pdfrwt>
<pdfrwt beam="2">  1       -2 0.18392414E+00 0.14018990E+04</pdfrwt>
<totfact> 0.12774328E+01</totfact>
</mgrwt>
</event>
<event>
12    1  0.1123398E-007  0.2458523E+04  0.7818608E-02  0.8417913E-01
          2   -1    0    0  501    0  0.00000000000E+00  0.00000000000E+00  0.20028429144E+04  0.20028429144E+04  0.00000000000E+00 0. -1.
         -2   -1    0    0    0  501 -0.00000000000E+00 -0.00000000000E+00 -0.75446916605E+03  0.75446916605E+03  0.00000000000E+00 0.  1.
         23    2    1    2    0    0  0.21924094701E+03  0.84205894663E+03 -0.14653618797E+03  0.88581277045E+03  0.77855940387E+02 0.  0.
        254    2    1    2    0    0 -0.21924094701E+03 -0.84205894663E+03  0.13949099363E+04  0.18714993100E+04  0.89420695280E+03 0.  0.
        -24    2    4    4    0    0 -0.38737673672E+03 -0.44457298179E+03  0.24985073106E+03  0.64526282045E+03  0.78948384083E+02 0.  0.
         24    2    4    4    0    0  0.16813578971E+03 -0.39748596484E+03  0.11450592053E+04  0.12262364895E+04  0.78934205088E+02 0.  0.
         13    1    3    3    0    0  0.49409601413E+02  0.94406423290E+02 -0.26193628631E+02  0.10972687752E+03  0.00000000000E+00 0. -1.
        -13    1    3    3    0    0  0.16983134560E+03  0.74765252334E+03 -0.12034255934E+03  0.77608589292E+03  0.00000000000E+00 0.  1.
          4    1    6    6  502    0 -0.28318504150E+01 -0.36970591734E+01  0.47148100924E+02  0.47377537336E+02  0.00000000000E+00 0. -1.
          1    1    5    5  503    0 -0.32720139447E+02 -0.17715499391E+02  0.14397662901E+01  0.37235995637E+02  0.00000000000E+00 0. -1.
         -2    1    5    5    0  503 -0.35465659727E+03 -0.42685748240E+03  0.24841096477E+03  0.60802682481E+03  0.00000000000E+00 0.  1.
         -3    1    6    6    0  502  0.17096764012E+03 -0.39378890567E+03  0.10979111043E+04  0.11788589522E+04  0.00000000000E+00 0.  1.
<mgrwt>
<rscale>  0 0.24585225E+04</rscale>
<asrwt>0</asrwt>
<pdfrwt beam="1">  1        2 0.30812968E+00 0.24585225E+04</pdfrwt>
<pdfrwt beam="2">  1       -2 0.11607218E+00 0.24585225E+04</pdfrwt>
<totfact> 0.34339125E+00</totfact>
</mgrwt>
</event>
<event>
12    1  0.1097093E-007  0.1703075E+04  0.7818608E-02  0.8759612E-01
         -1   -1    0    0    0  501 -0.00000000000E+00  0.00000000000E+00  0.30515198458E+03  0.30515198458E+03  0.00000000000E+00 0.  1.
          1   -1    0    0  501    0  0.00000000000E+00 -0.00000000000E+00 -0.23762460088E+04  0.23762460088E+04  0.00000000000E+00 0. -1.
         23    2    1    2    0    0 -0.62529340428E+02 -0.19083590546E+03  0.15286465301E+03  0.27025531113E+03  0.96654383357E+02 0.  0.
        254    2    1    2    0    0  0.62529340428E+02  0.19083590546E+03 -0.22239586772E+04  0.24111426822E+04  0.90955405274E+03 0.  0.
        -24    2    4    4    0    0  0.14883097729E+03  0.32024827694E+03 -0.27674220658E+03  0.45607907026E+03  0.81928326855E+02 0.  0.
         24    2    4    4    0    0 -0.86301636857E+02 -0.12941237147E+03 -0.19472164707E+04  0.19550636120E+04  0.80163638398E+02 0.  0.
         11    1    3    3    0    0 -0.41104571893E+02 -0.61109280339E+02  0.10919356136E+03  0.13170863228E+03  0.00000000000E+00 0. -1.
        -11    1    3    3    0    0 -0.21424768535E+02 -0.12972662513E+03  0.43671091651E+02  0.13854667885E+03  0.00000000000E+00 0.  1.
          4    1    6    6  502    0 -0.70704067716E+02 -0.72894022178E+02 -0.15737317920E+04  0.15770048690E+04  0.00000000000E+00 0. -1.
          3    1    5    5  503    0  0.70067110888E+02  0.22124552245E+03 -0.14617392404E+03  0.27427321652E+03  0.00000000000E+00 0. -1.
         -4    1    5    5    0  503  0.78763866397E+02  0.99002754488E+02 -0.13056828254E+03  0.18180585374E+03  0.00000000000E+00 0.  1.
         -3    1    6    6    0  502 -0.15597569141E+02 -0.56518349293E+02 -0.37348467869E+03  0.37805874304E+03  0.00000000000E+00 0.  1.
<mgrwt>
<rscale>  0 0.17030751E+04</rscale>
<asrwt>0</asrwt>
<pdfrwt beam="1">  1        1 0.36557629E+00 0.17030751E+04</pdfrwt>
<pdfrwt beam="2">  1       -1 0.46946461E-01 0.17030751E+04</pdfrwt>
<totfact> 0.71068656E+00</totfact>
</mgrwt>
</event>
<event>
12    1  0.1097093E-007  0.1148099E+04  0.7818608E-02  0.9159539E-01
          1   -1    0    0  501    0  0.00000000000E+00  0.00000000000E+00  0.11664141856E+04  0.11664141856E+04  0.00000000000E+00 0. -1.
         -1   -1    0    0    0  501 -0.00000000000E+00 -0.00000000000E+00 -0.28251800315E+03  0.28251800315E+03  0.00000000000E+00 0.  1.
         23    2    1    2    0    0 -0.57075862371E+02 -0.17171334771E+03  0.67398149868E+02  0.21305286319E+03  0.90032683290E+02 0.  0.
        254    2    1    2    0    0  0.57075862371E+02  0.17171334771E+03  0.81649803259E+03  0.12358793256E+04  0.90993710898E+03 0.  0.
        -24    2    4    4    0    0  0.83936724075E+02 -0.35089120492E+03  0.49209982120E+03  0.61534437195E+03  0.79476101565E+02 0.  0.
         24    2    4    4    0    0 -0.26860861705E+02  0.52260455263E+03  0.32439821139E+03  0.62053495362E+03  0.77410624513E+02 0.  0.
         11    1    3    3    0    0 -0.42184420359E+02 -0.51263148742E+02  0.63127245162E+02  0.91610506066E+02  0.00000000000E+00 0. -1.
        -11    1    3    3    0    0 -0.14891442011E+02 -0.12045019897E+03  0.42709047060E+01  0.12144235712E+03  0.00000000000E+00 0.  1.
          2    1    6    6  502    0  0.13112408041E+02  0.10215511604E+03  0.93963351027E+02  0.13941561718E+03  0.00000000000E+00 0. -1.
          3    1    5    5  503    0 -0.15256885303E+01  0.40429705672E+01  0.68015938784E+01  0.80582265906E+01  0.00000000000E+00 0. -1.
         -4    1    5    5    0  503  0.85462412605E+02 -0.35493417549E+03  0.48529822732E+03  0.60728614536E+03  0.00000000000E+00 0.  1.
         -1    1    6    6    0  502 -0.39973269745E+02  0.42044943659E+03  0.23043486036E+03  0.48111933644E+03  0.00000000000E+00 0.  1.
<mgrwt>
<rscale>  0 0.11480993E+04</rscale>
<asrwt>0</asrwt>
<pdfrwt beam="1">  1        1 0.17944833E+00 0.11480993E+04</pdfrwt>
<pdfrwt beam="2">  1       -1 0.43464309E-01 0.11480993E+04</pdfrwt>
<totfact> 0.58673842E+01</totfact>
</mgrwt>
</event>
<event>
12    1  0.1097093E-007  0.1955134E+04  0.7818608E-02  0.8627889E-01
          2   -1    0    0  501    0  0.00000000000E+00  0.00000000000E+00  0.81347827305E+03  0.81347827305E+03  0.00000000000E+00 0. -1.
         -2   -1    0    0    0  501 -0.00000000000E+00 -0.00000000000E+00 -0.11747542802E+04  0.11747542802E+04  0.00000000000E+00 0.  1.
         23    2    1    2    0    0 -0.15832127277E+03 -0.73730890260E+03 -0.28109314844E+03  0.81006928103E+03  0.92243366688E+02 0.  0.
        254    2    1    2    0    0  0.15832127277E+03  0.73730890260E+03 -0.80182858715E+02  0.11781632722E+04  0.90163704554E+03 0.  0.
        -24    2    4    4    0    0 -0.28561716532E+03  0.44314182003E+03 -0.28238361662E+03  0.60305410625E+03  0.77342810505E+02 0.  0.
         24    2    4    4    0    0  0.44393843809E+03  0.29416708257E+03  0.20220075791E+03  0.57510916597E+03  0.79055657607E+02 0.  0.
         13    1    3    3    0    0 -0.10678457796E+03 -0.53210889925E+03 -0.24493368437E+03  0.59542869976E+03  0.00000000000E+00 0. -1.
        -13    1    3    3    0    0 -0.51536694816E+02 -0.20520000335E+03 -0.36159464065E+02  0.21464058127E+03  0.00000000000E+00 0.  1.
          4    1    6    6  502    0  0.67320178289E+00 -0.40209489555E+01  0.66742993457E+00  0.41311855273E+01  0.00000000000E+00 0. -1.
          3    1    5    5  503    0 -0.98816638905E+02  0.15387523185E+03 -0.57153601840E+02  0.19159553571E+03  0.00000000000E+00 0. -1.
         -4    1    5    5    0  503 -0.18680052642E+03  0.28926658818E+03 -0.22523001478E+03  0.41145857053E+03  0.00000000000E+00 0.  1.
         -3    1    6    6    0  502  0.44326523631E+03  0.29818803153E+03  0.20153332797E+03  0.57097798044E+03  0.00000000000E+00 0.  1.
<mgrwt>
<rscale>  0 0.19551338E+04</rscale>
<asrwt>0</asrwt>
<pdfrwt beam="1">  1        2 0.12515050E+00 0.19551338E+04</pdfrwt>
<pdfrwt beam="2">  1       -2 0.18073143E+00 0.19551338E+04</pdfrwt>
<totfact> 0.56265824E+00</totfact>
</mgrwt>
</event>
<event>
12    1  0.1097093E-007  0.1576499E+04  0.7818608E-02  0.8835117E-01
         -1   -1    0    0    0  501 -0.00000000000E+00  0.00000000000E+00  0.14198601083E+04  0.14198601083E+04  0.00000000000E+00 0.  1.
          1   -1    0    0  501    0  0.00000000000E+00 -0.00000000000E+00 -0.43760474764E+03  0.43760474764E+03  0.00000000000E+00 0. -1.
         23    2    1    2    0    0 -0.30942804933E+03  0.42695803201E+03  0.36835270678E+03  0.64960898547E+03  0.90935353973E+02 0.  0.
        254    2    1    2    0    0  0.30942804933E+03 -0.42695803201E+03  0.61390265389E+03  0.12078558705E+04  0.89666072547E+03 0.  0.
        -24    2    4    4    0    0 -0.76913620354E+02  0.19045901985E+03 -0.42713642499E+02  0.22404263899E+03  0.78614919662E+02 0.  0.
         24    2    4    4    0    0  0.38634166968E+03 -0.61741705186E+03  0.65661629639E+03  0.98381323149E+03  0.79245265512E+02 0.  0.
         11    1    3    3    0    0 -0.25742039587E+03  0.34230204240E+03  0.33836588687E+03  0.54582728206E+03  0.00000000000E+00 0.  1.
        -11    1    3    3    0    0 -0.52007653455E+02  0.84655989608E+02  0.29986819912E+02  0.10378170341E+03  0.00000000000E+00 0. -1.
          2    1    6    6  502    0  0.38388762178E+03 -0.58468415582E+03  0.63325815165E+03  0.94352591636E+03  0.00000000000E+00 0. -1.
          1    1    5    5  503    0  0.79836832764E+01  0.53880334874E+02 -0.31305436849E+02  0.62824040471E+02  0.00000000000E+00 0. -1.
         -2    1    5    5    0  503 -0.84897303631E+02  0.13657868497E+03 -0.11408205651E+02  0.16121859852E+03  0.00000000000E+00 0.  1.
         -1    1    6    6    0  502  0.24540479070E+01 -0.32732896039E+02  0.23358144746E+02  0.40287315127E+02  0.00000000000E+00 0.  1.
<mgrwt>
<rscale>  0 0.15764993E+04</rscale>
<asrwt>0</asrwt>
<pdfrwt beam="1">  1        1 0.67323808E-01 0.15764993E+04</pdfrwt>
<pdfrwt beam="2">  1       -1 0.21844001E+00 0.15764993E+04</pdfrwt>
<totfact> 0.57630304E+00</totfact>
</mgrwt>
</event>
<event>
12    1  0.1097093E-007  0.3736439E+04  0.7818608E-02  0.8059934E-01
          1   -1    0    0  501    0  0.00000000000E+00  0.00000000000E+00  0.17943079851E+04  0.17943079851E+04  0.00000000000E+00 0. -1.
         -1   -1    0    0    0  501 -0.00000000000E+00 -0.00000000000E+00 -0.19451758797E+04  0.19451758797E+04  0.00000000000E+00 0.  1.
         23    2    1    2    0    0  0.31913610873E+02 -0.24230877555E+03  0.16739425947E+04  0.16940887327E+04  0.90115496884E+02 0.  0.
        254    2    1    2    0    0 -0.31913610873E+02  0.24230877555E+03 -0.18248104893E+04  0.20453951320E+04  0.89105325483E+03 0.  0.
        -24    2    4    4    0    0 -0.23822371289E+03  0.54155568497E+02 -0.17158403201E+04  0.17349096583E+04  0.78231420894E+02 0.  0.
         24    2    4    4    0    0  0.20631010202E+03  0.18815320706E+03 -0.10897016919E+03  0.31048547376E+03  0.81001506916E+02 0.  0.
         13    1    3    3    0    0 -0.10373258861E+02 -0.19308019860E+03  0.13424139048E+04  0.13562679158E+04  0.00000000000E+00 0. -1.
        -13    1    3    3    0    0  0.42286869735E+02 -0.49228576951E+02  0.33152868988E+03  0.33782081693E+03  0.00000000000E+00 0.  1.
          2    1    6    6  502    0  0.40541289015E+01 -0.48271251959E+01  0.55382343919E+01  0.83910153728E+01  0.00000000000E+00 0. -1.
          1    1    5    5  503    0 -0.40821031808E+02  0.39191804843E+02 -0.29931802035E+03  0.30462047126E+03  0.00000000000E+00 0. -1.
         -2    1    5    5    0  503 -0.19740268109E+03  0.14963763654E+02 -0.14165222998E+04  0.14302891870E+04  0.00000000000E+00 0.  1.
         -1    1    6    6    0  502  0.20225597312E+03  0.19298033225E+03 -0.11450840359E+03  0.30209445839E+03  0.00000000000E+00 0.  1.
<mgrwt>
<rscale>  0 0.37364393E+04</rscale>
<asrwt>0</asrwt>
<pdfrwt beam="1">  1        1 0.27604738E+00 0.37364393E+04</pdfrwt>
<pdfrwt beam="2">  1       -1 0.29925783E+00 0.37364393E+04</pdfrwt>
<totfact> 0.10978702E-01</totfact>
</mgrwt>
</event>
<event>
12    1  0.1097093E-007  0.1658295E+04  0.7818608E-02  0.8785514E-01
         -2   -1    0    0    0  501 -0.00000000000E+00  0.00000000000E+00  0.37013825476E+03  0.37013825476E+03  0.00000000000E+00 0.  1.
          2   -1    0    0  501    0  0.00000000000E+00 -0.00000000000E+00 -0.18573753351E+04  0.18573753351E+04  0.00000000000E+00 0. -1.
         23    2    1    2    0    0  0.25727349662E+03 -0.30551580651E+03  0.36304536612E+02  0.41144058703E+03  0.91846487065E+02 0.  0.
        254    2    1    2    0    0 -0.25727349662E+03  0.30551580651E+03 -0.15235416170E+04  0.18160730028E+04  0.90410869530E+03 0.  0.
        -24    2    4    4    0    0 -0.42234493435E+03  0.51085700291E+03 -0.12990541401E+04  0.14607415767E+04  0.82910637617E+02 0.  0.
         24    2    4    4    0    0  0.16507143773E+03 -0.20534119640E+03 -0.22448747685E+03  0.35533142618E+03  0.80325641473E+02 0.  0.
         13    1    3    3    0    0  0.53175897633E+02 -0.66189044200E+02 -0.29895160701E+02  0.90013256216E+02  0.00000000000E+00 0. -1.
        -13    1    3    3    0    0  0.20409759899E+03 -0.23932676231E+03  0.66199697313E+02  0.32142733082E+03  0.00000000000E+00 0.  1.
          2    1    6    6  502    0  0.21502688599E+02 -0.25835552801E+02 -0.72094980554E+02  0.79545758068E+02  0.00000000000E+00 0. -1.
          3    1    5    5  503    0 -0.32252122073E+03  0.33029475816E+03 -0.89058088048E+03  0.10031195690E+04  0.00000000000E+00 0. -1.
         -4    1    5    5    0  503 -0.99823713625E+02  0.18056224475E+03 -0.40847325964E+03  0.45762200763E+03  0.00000000000E+00 0.  1.
         -1    1    6    6    0  502  0.14356874913E+03 -0.17950564360E+03 -0.15239249630E+03  0.27578566812E+03  0.00000000000E+00 0.  1.
<mgrwt>
<rscale>  0 0.16582951E+04</rscale>
<asrwt>0</asrwt>
<pdfrwt beam="1">  1        2 0.28575006E+00 0.16582951E+04</pdfrwt>
<pdfrwt beam="2">  1       -2 0.56944346E-01 0.16582951E+04</pdfrwt>
<totfact> 0.22132402E+01</totfact>
</mgrwt>
</event>
<event>
12    1  0.1097093E-007  0.1706877E+04  0.7818608E-02  0.8757452E-01
          1   -1    0    0  501    0  0.00000000000E+00  0.00000000000E+00  0.11698415667E+04  0.11698415667E+04  0.00000000000E+00 0. -1.
         -1   -1    0    0    0  501 -0.00000000000E+00 -0.00000000000E+00 -0.62261167294E+03  0.62261167294E+03  0.00000000000E+00 0.  1.
         23    2    1    2    0    0  0.28350085136E+03 -0.15477539901E+03  0.74522485462E+03  0.81733996151E+03  0.91413193066E+02 0.  0.
        254    2    1    2    0    0 -0.28350085136E+03  0.15477539901E+03 -0.19799496090E+03  0.97511327809E+03  0.89850750899E+03 0.  0.
        -24    2    4    4    0    0  0.43124459568E+02  0.33513079153E+03  0.21853540145E+03  0.41009458913E+03  0.79041026704E+02 0.  0.
         24    2    4    4    0    0 -0.32662531093E+03 -0.18035539251E+03 -0.41653036235E+03  0.56501868897E+03  0.80848096938E+02 0.  0.
         13    1    3    3    0    0  0.28393696233E+03 -0.13878069548E+03  0.67510040156E+03  0.74541319562E+03  0.00000000000E+00 0. -1.
        -13    1    3    3    0    0 -0.43611096891E+00 -0.15994703538E+02  0.70124453058E+02  0.71926765885E+02  0.00000000000E+00 0.  1.
          4    1    6    6  502    0 -0.33007121985E+03 -0.17106511835E+03 -0.40360831924E+03  0.54873487245E+03  0.00000000000E+00 0. -1.
          3    1    5    5  503    0  0.31366081297E+02  0.41598533087E+02  0.45389598859E+02  0.69097646093E+02  0.00000000000E+00 0. -1.
         -4    1    5    5    0  503  0.11758378270E+02  0.29353225844E+03  0.17314580259E+03  0.34099694303E+03  0.00000000000E+00 0.  1.
         -3    1    6    6    0  502  0.34459089148E+01 -0.92902741632E+01 -0.12922043105E+02  0.16283816515E+02  0.00000000000E+00 0.  1.
<mgrwt>
<rscale>  0 0.17068767E+04</rscale>
<asrwt>0</asrwt>
<pdfrwt beam="1">  1        1 0.17997563E+00 0.17068767E+04</pdfrwt>
<pdfrwt beam="2">  1       -1 0.95786411E-01 0.17068767E+04</pdfrwt>
<totfact> 0.11242646E+01</totfact>
</mgrwt>
</event>
<event>
12    1  0.1097093E-007  0.1657755E+04  0.7818608E-02  0.8785832E-01
         -2   -1    0    0    0  501 -0.00000000000E+00  0.00000000000E+00  0.59094708080E+03  0.59094708080E+03  0.00000000000E+00 0.  1.
          2   -1    0    0  501    0  0.00000000000E+00 -0.00000000000E+00 -0.11626046789E+04  0.11626046789E+04  0.00000000000E+00 0. -1.
         23    2    1    2    0    0  0.27434907359E+03 -0.18405978913E+02 -0.74150756280E+03  0.79628401050E+03  0.92890071881E+02 0.  0.
        254    2    1    2    0    0 -0.27434907359E+03  0.18405978913E+02  0.16984996466E+03  0.95726774924E+03  0.90105845482E+03 0.  0.
        -24    2    4    4    0    0 -0.43674129259E+02  0.33083895506E+03 -0.21509373335E+03  0.40454493564E+03  0.77649514291E+02 0.  0.
         24    2    4    4    0    0 -0.23067494433E+03 -0.31243297615E+03  0.38494369801E+03  0.55272281360E+03  0.80595058816E+02 0.  0.
         11    1    3    3    0    0  0.23098465934E+03 -0.11393433774E+02 -0.69428379125E+03  0.73178801984E+03  0.00000000000E+00 0. -1.
        -11    1    3    3    0    0  0.43364414250E+02 -0.70125451388E+01 -0.47223771545E+02  0.64495990662E+02  0.00000000000E+00 0.  1.
          2    1    6    6  502    0 -0.30146847542E+01  0.20382952778E+01 -0.23607962761E+01  0.43377794854E+01  0.00000000000E+00 0. -1.
          1    1    5    5  503    0 -0.28744549385E+02  0.31452909514E+02 -0.21714431186E+02  0.47823123675E+02  0.00000000000E+00 0. -1.
         -2    1    5    5    0  503 -0.14929579874E+02  0.29938604555E+03 -0.19337930217E+03  0.35672181196E+03  0.00000000000E+00 0.  1.
         -1    1    6    6    0  502 -0.22766025957E+03 -0.31447127143E+03  0.38730449429E+03  0.54838503411E+03  0.00000000000E+00 0.  1.
<mgrwt>
<rscale>  0 0.16577549E+04</rscale>
<asrwt>0</asrwt>
<pdfrwt beam="1">  1        2 0.17886226E+00 0.16577549E+04</pdfrwt>
<pdfrwt beam="2">  1       -2 0.90914937E-01 0.16577549E+04</pdfrwt>
<totfact> 0.19664283E+01</totfact>
</mgrwt>
</event>
<event>
12    1  0.1097093E-007  0.1750840E+04  0.7818608E-02  0.8732888E-01
          2   -1    0    0  501    0  0.00000000000E+00  0.00000000000E+00  0.13528830947E+04  0.13528830947E+04  0.00000000000E+00 0.  1.
         -2   -1    0    0    0  501 -0.00000000000E+00 -0.00000000000E+00 -0.56646422218E+03  0.56646422218E+03  0.00000000000E+00 0. -1.
         23    2    1    2    0    0  0.32007934423E+03  0.14438807865E+03  0.87114690290E+03  0.94352790001E+03  0.89717711804E+02 0.  0.
        254    2    1    2    0    0 -0.32007934423E+03 -0.14438807865E+03 -0.84728030380E+02  0.97581941686E+03  0.90650206362E+03 0.  0.
        -24    2    4    4    0    0 -0.37193475354E+03 -0.44461379144E+03 -0.23045060476E+03  0.62862905396E+03  0.77782529066E+02 0.  0.
         24    2    4    4    0    0  0.51855409306E+02  0.30022571278E+03  0.14572257438E+03  0.34719036290E+03  0.80508492198E+02 0.  0.
         13    1    3    3    0    0  0.18531836615E+03  0.44934016063E+02  0.39128329772E+03  0.43527529416E+03  0.00000000000E+00 0.  1.
        -13    1    3    3    0    0  0.13476097807E+03  0.99454062591E+02  0.47986360518E+03  0.50825260585E+03  0.00000000000E+00 0. -1.
          4    1    6    6  502    0  0.48025145043E+02  0.29254458563E+03  0.15501366018E+03  0.33454145330E+03  0.00000000000E+00 0. -1.
          1    1    5    5  503    0 -0.15958608678E+03 -0.20637077462E+03 -0.63663739306E+02  0.26853246994E+03  0.00000000000E+00 0. -1.
         -2    1    5    5    0  503 -0.21234866675E+03 -0.23824301682E+03 -0.16678686545E+03  0.36009658402E+03  0.00000000000E+00 0.  1.
         -3    1    6    6    0  502  0.38302642632E+01  0.76811271543E+01 -0.92910857967E+01  0.12648909596E+02  0.00000000000E+00 0.  1.
<mgrwt>
<rscale>  0 0.17508396E+04</rscale>
<asrwt>0</asrwt>
<pdfrwt beam="1">  1        2 0.20813586E+00 0.17508396E+04</pdfrwt>
<pdfrwt beam="2">  1       -2 0.87148342E-01 0.17508396E+04</pdfrwt>
<totfact> 0.16615210E+01</totfact>
</mgrwt>
</event>
<event>
12    1  0.1097093E-007  0.1521514E+04  0.7818608E-02  0.8870271E-01
         -1   -1    0    0    0  501 -0.00000000000E+00  0.00000000000E+00  0.28916830711E+03  0.28916830711E+03  0.00000000000E+00 0.  1.
          1   -1    0    0  501    0  0.00000000000E+00 -0.00000000000E+00 -0.20014339031E+04  0.20014339031E+04  0.00000000000E+00 0. -1.
         23    2    1    2    0    0  0.29166330326E+03  0.33795361572E+03 -0.22430797426E+03  0.50765274822E+03  0.90095042129E+02 0.  0.
        254    2    1    2    0    0 -0.29166330326E+03 -0.33795361572E+03 -0.14879576217E+04  0.17829494620E+04  0.87499186916E+03 0.  0.
        -24    2    4    4    0    0 -0.26481646759E+03  0.25932521180E+03 -0.58618175248E+03  0.69800038476E+03  0.78855330787E+02 0.  0.
         24    2    4    4    0    0 -0.26846835662E+02 -0.59727882752E+03 -0.90177586921E+03  0.10849490772E+04  0.80324538232E+02 0.  0.
         11    1    3    3    0    0  0.24974284125E+03  0.29976834742E+03 -0.22604735295E+03  0.45092122888E+03  0.00000000000E+00 0.  1.
        -11    1    3    3    0    0  0.41920462001E+02  0.38185268295E+02  0.17393786869E+01  0.56731519347E+02  0.00000000000E+00 0. -1.
          4    1    6    6  502    0  0.10582756915E+02 -0.23884451720E+03 -0.42027473679E+03  0.48351789267E+03  0.00000000000E+00 0. -1.
          3    1    5    5  503    0 -0.16059268674E+02 -0.39257479134E+01 -0.21041867233E+02  0.26759517628E+02  0.00000000000E+00 0. -1.
         -4    1    5    5    0  503 -0.24875719892E+03  0.26325095971E+03 -0.56513988525E+03  0.67124086713E+03  0.00000000000E+00 0.  1.
         -1    1    6    6    0  502 -0.37429592577E+02 -0.35843431032E+03 -0.48150113242E+03  0.60143118453E+03  0.00000000000E+00 0.  1.
<mgrwt>
<rscale>  0 0.15215141E+04</rscale>
<asrwt>0</asrwt>
<pdfrwt beam="1">  1        1 0.30791290E+00 0.15215141E+04</pdfrwt>
<pdfrwt beam="2">  1       -1 0.44487433E-01 0.15215141E+04</pdfrwt>
<totfact> 0.14374186E+01</totfact>
</mgrwt>
</event>
<event>
12    1  0.1097093E-007  0.2071450E+04  0.7818608E-02  0.8573925E-01
          2   -1    0    0  501    0  0.00000000000E+00  0.00000000000E+00  0.90488477183E+03  0.90488477183E+03  0.00000000000E+00 0. -1.
         -2   -1    0    0    0  501 -0.00000000000E+00 -0.00000000000E+00 -0.11854843584E+04  0.11854843584E+04  0.00000000000E+00 0.  1.
         23    2    1    2    0    0 -0.29715103290E+03 -0.75490191770E+03 -0.12714689248E+03  0.82636167743E+03  0.92366920215E+02 0.  0.
        254    2    1    2    0    0  0.29715103290E+03  0.75490191770E+03 -0.15345269405E+03  0.12640074528E+04  0.95707443265E+03 0.  0.
        -24    2    4    4    0    0  0.34496717105E+03 -0.10894846695E+03  0.43924120983E+02  0.37298212785E+03  0.79462077362E+02 0.  0.
         24    2    4    4    0    0 -0.47816138153E+02  0.86385038465E+03 -0.19737681504E+03  0.89102532491E+03  0.80278592366E+02 0.  0.
         13    1    3    3    0    0 -0.31742042032E+02 -0.86635887467E+02 -0.44957039959E+02  0.10263756462E+03  0.00000000000E+00 0. -1.
        -13    1    3    3    0    0 -0.26540899087E+03 -0.66826603023E+03 -0.82189852521E+02  0.72372411281E+03  0.00000000000E+00 0.  1.
          2    1    6    6  502    0 -0.24087159648E+02  0.61910154757E+03 -0.10529727656E+03  0.62845400302E+03  0.00000000000E+00 0. -1.
          1    1    5    5  503    0  0.31991023543E+03 -0.10862645306E+03  0.20165729487E+02  0.33845076700E+03  0.00000000000E+00 0. -1.
         -2    1    5    5    0  503  0.25056935624E+02 -0.32201388502E+00  0.23758391497E+02  0.34531360853E+02  0.00000000000E+00 0.  1.
         -1    1    6    6    0  502 -0.23728978505E+02  0.24474883708E+03 -0.92079538477E+02  0.26257132189E+03  0.00000000000E+00 0.  1.
<mgrwt>
<rscale>  0 0.20714505E+04</rscale>
<asrwt>0</asrwt>
<pdfrwt beam="1">  1        2 0.13921304E+00 0.20714505E+04</pdfrwt>
<pdfrwt beam="2">  1       -2 0.18238221E+00 0.20714505E+04</pdfrwt>
<totfact> 0.46914595E+00</totfact>
</mgrwt>
</event>
<event>
12    1  0.1097093E-007  0.2357509E+04  0.7818608E-02  0.8455585E-01
         -2   -1    0    0    0  501 -0.00000000000E+00  0.00000000000E+00  0.14169228662E+04  0.14169228662E+04  0.00000000000E+00 0.  1.
          2   -1    0    0  501    0  0.00000000000E+00 -0.00000000000E+00 -0.98061908236E+03  0.98061908236E+03  0.00000000000E+00 0. -1.
         23    2    1    2    0    0 -0.79895115672E+03  0.44312247702E+03 -0.24389745251E+03  0.94991597023E+03  0.90409638292E+02 0.  0.
        254    2    1    2    0    0  0.79895115672E+03 -0.44312247702E+03  0.68020123639E+03  0.14476259784E+04  0.89345776106E+03 0.  0.
        -24    2    4    4    0    0  0.46250854301E+03 -0.37773053501E+03 -0.81802758331E+02  0.60811435520E+03  0.80727122410E+02 0.  0.
         24    2    4    4    0    0  0.33644261370E+03 -0.65391942009E+02  0.76200399472E+03  0.83951162317E+03  0.81608449698E+02 0.  0.
         13    1    3    3    0    0 -0.20932652873E+03  0.12334482299E+03 -0.10625415479E+03  0.26518198732E+03  0.00000000000E+00 0. -1.
        -13    1    3    3    0    0 -0.58962462798E+03  0.31977765403E+03 -0.13764329772E+03  0.68473398291E+03  0.00000000000E+00 0.  1.
          4    1    6    6  502    0  0.91839381937E+02  0.13207920938E+02  0.24998559484E+03  0.26664905564E+03  0.00000000000E+00 0. -1.
          3    1    5    5  503    0  0.52998426395E+02 -0.48685522619E+02  0.16091876133E+02  0.73743215217E+02  0.00000000000E+00 0. -1.
         -4    1    5    5    0  503  0.40951011662E+03 -0.32904501239E+03 -0.97894634463E+02  0.53437113998E+03  0.00000000000E+00 0.  1.
         -3    1    6    6    0  502  0.24460323177E+03 -0.78599862946E+02  0.51201839989E+03  0.57286256752E+03  0.00000000000E+00 0.  1.
<mgrwt>
<rscale>  0 0.23575085E+04</rscale>
<asrwt>0</asrwt>
<pdfrwt beam="1">  1        2 0.15086447E+00 0.23575085E+04</pdfrwt>
<pdfrwt beam="2">  1       -2 0.21798813E+00 0.23575085E+04</pdfrwt>
<totfact> 0.23806925E+00</totfact>
</mgrwt>
</event>
<event>
12    1  0.1097093E-007  0.1332582E+04  0.7818608E-02  0.9004119E-01
         -2   -1    0    0    0  501 -0.00000000000E+00  0.00000000000E+00  0.40212232778E+03  0.40212232778E+03  0.00000000000E+00 0.  1.
          2   -1    0    0  501    0  0.00000000000E+00 -0.00000000000E+00 -0.11040011750E+04  0.11040011750E+04  0.00000000000E+00 0. -1.
         23    2    1    2    0    0  0.44259344378E+02 -0.22230378880E+03  0.11350823517E+03  0.26888372966E+03  0.89646397246E+02 0.  0.
        254    2    1    2    0    0 -0.44259344378E+02  0.22230378880E+03 -0.81538708239E+03  0.12372397731E+04  0.90251221487E+03 0.  0.
        -24    2    4    4    0    0 -0.26687553531E+03 -0.15094861910E+03 -0.91978125081E+01  0.31794320898E+03  0.83637595753E+02 0.  0.
         24    2    4    4    0    0  0.22261619093E+03  0.37325240790E+03 -0.80618926988E+03  0.91929656415E+03  0.79307663648E+02 0.  0.
         13    1    3    3    0    0  0.22343667838E+02 -0.22062432345E+03  0.10419549191E+03  0.24501231015E+03  0.00000000000E+00 0.  1.
        -13    1    3    3    0    0  0.21915676540E+02 -0.16794653536E+01  0.93127432613E+01  0.23871419504E+02  0.00000000000E+00 0. -1.
          4    1    6    6  502    0  0.18278237676E+03  0.24149939811E+03 -0.52125289764E+03  0.60285648361E+03  0.00000000000E+00 0. -1.
          1    1    5    5  503    0 -0.26716310620E+03 -0.14789630967E+03 -0.20671882671E+02  0.30606661115E+03  0.00000000000E+00 0. -1.
         -2    1    5    5    0  503  0.28757088408E+00 -0.30523094239E+01  0.11474070163E+02  0.11876597826E+02  0.00000000000E+00 0.  1.
         -3    1    6    6    0  502  0.39833814178E+02  0.13175300979E+03 -0.28493637225E+03  0.31644008054E+03  0.00000000000E+00 0.  1.
<mgrwt>
<rscale>  0 0.13325817E+04</rscale>
<asrwt>0</asrwt>
<pdfrwt beam="1">  1        2 0.16984633E+00 0.13325817E+04</pdfrwt>
<pdfrwt beam="2">  1       -2 0.61864975E-01 0.13325817E+04</pdfrwt>
<totfact> 0.51419028E+01</totfact>
</mgrwt>
</event>
<event>
12    1  0.1097093E-007  0.1395649E+04  0.7818608E-02  0.8956974E-01
          2   -1    0    0  501    0  0.00000000000E+00  0.00000000000E+00  0.10939682524E+04  0.10939682524E+04  0.00000000000E+00 0. -1.
         -2   -1    0    0    0  501 -0.00000000000E+00 -0.00000000000E+00 -0.44513086020E+03  0.44513086020E+03  0.00000000000E+00 0.  1.
         23    2    1    2    0    0  0.81542365209E+02 -0.12660157762E+03  0.60098718390E+03  0.62604414002E+03  0.89825125999E+02 0.  0.
        254    2    1    2    0    0 -0.81542365209E+02  0.12660157762E+03  0.47850208308E+02  0.91305497259E+03  0.89927894658E+03 0.  0.
        -24    2    4    4    0    0 -0.33239953149E+03 -0.21864591075E+03 -0.15517061090E+03  0.43460997016E+03  0.80699596390E+02 0.  0.
         24    2    4    4    0    0  0.25085716628E+03  0.34524748837E+03  0.20302081921E+03  0.47844500243E+03  0.74612473619E+02 0.  0.
         11    1    3    3    0    0  0.68651172489E+02 -0.42214771426E+02  0.39375651144E+03  0.40191947043E+03  0.00000000000E+00 0.  1.
        -11    1    3    3    0    0  0.12891192720E+02 -0.84386806196E+02  0.20723067246E+03  0.22412466959E+03  0.00000000000E+00 0. -1.
          4    1    6    6  502    0  0.35497830296E+02  0.75800074156E+02  0.68677559925E+02  0.10826982237E+03  0.00000000000E+00 0. -1.
          1    1    5    5  503    0 -0.89320828396E+02 -0.66652259596E+02 -0.83054059588E+02  0.13899176561E+03  0.00000000000E+00 0. -1.
         -2    1    5    5    0  503 -0.24307870309E+03 -0.15199365115E+03 -0.72116551314E+02  0.29561820455E+03  0.00000000000E+00 0.  1.
         -3    1    6    6    0  502  0.21535933598E+03  0.26944741422E+03  0.13434325928E+03  0.37017518007E+03  0.00000000000E+00 0.  1.
<mgrwt>
<rscale>  0 0.13956490E+04</rscale>
<asrwt>0</asrwt>
<pdfrwt beam="1">  1        2 0.16830281E+00 0.13956490E+04</pdfrwt>
<pdfrwt beam="2">  1       -2 0.68481671E-01 0.13956490E+04</pdfrwt>
<totfact> 0.41725410E+01</totfact>
</mgrwt>
</event>
<event>
12    1  0.1097093E-007  0.2944762E+04  0.7818608E-02  0.8259683E-01
         -2   -1    0    0    0  501 -0.00000000000E+00  0.00000000000E+00  0.58279297517E+03  0.58279297517E+03  0.00000000000E+00 0.  1.
          2   -1    0    0  501    0  0.00000000000E+00 -0.00000000000E+00 -0.37198545442E+04  0.37198545442E+04  0.00000000000E+00 0. -1.
         23    2    1    2    0    0  0.68648263836E+02  0.12812876475E+04 -0.89139696836E+03  0.15650125917E+04  0.90913350183E+02 0.  0.
        254    2    1    2    0    0 -0.68648263836E+02 -0.12812876475E+04 -0.22456646007E+04  0.27376349277E+04  0.89734323344E+03 0.  0.
        -24    2    4    4    0    0  0.35849249446E+03 -0.88084286049E+03 -0.15930839199E+04  0.18570156315E+04  0.78674432641E+02 0.  0.
         24    2    4    4    0    0 -0.42714075829E+03 -0.40044478703E+03 -0.65258068075E+03  0.88061929613E+03  0.82604751549E+02 0.  0.
         13    1    3    3    0    0 -0.27070549198E+01  0.43692036464E+02 -0.12887860750E+02  0.45633530999E+02  0.00000000000E+00 0. -1.
        -13    1    3    3    0    0  0.71355318756E+02  0.12375956110E+04 -0.87850910761E+03  0.15193790607E+04  0.00000000000E+00 0.  1.
          2    1    6    6  502    0 -0.36243733730E+03 -0.34480963230E+03 -0.50956759697E+03  0.71408237751E+03  0.00000000000E+00 0. -1.
          3    1    5    5  503    0  0.28354498960E+03 -0.61967196659E+03 -0.10984086482E+04  0.12926301349E+04  0.00000000000E+00 0. -1.
         -4    1    5    5    0  503  0.74947504855E+02 -0.26117089389E+03 -0.49467527172E+03  0.56438549659E+03  0.00000000000E+00 0.  1.
         -1    1    6    6    0  502 -0.64703420995E+02 -0.55635154724E+02 -0.14301308378E+03  0.16653691862E+03  0.00000000000E+00 0.  1.
<mgrwt>
<rscale>  0 0.29447615E+04</rscale>
<asrwt>0</asrwt>
<pdfrwt beam="1">  1        2 0.57228530E+00 0.29447615E+04</pdfrwt>
<pdfrwt beam="2">  1       -2 0.89660460E-01 0.29447615E+04</pdfrwt>
<totfact> 0.51698501E-01</totfact>
</mgrwt>
</event>
<event>
12    1  0.1097093E-007  0.2710132E+04  0.7818608E-02  0.8331725E-01
         -1   -1    0    0    0  501 -0.00000000000E+00  0.00000000000E+00  0.18905116021E+04  0.18905116021E+04  0.00000000000E+00 0.  1.
          1   -1    0    0  501    0  0.00000000000E+00 -0.00000000000E+00 -0.97127358867E+03  0.97127358867E+03  0.00000000000E+00 0. -1.
         23    2    1    2    0    0 -0.22126237698E+03 -0.48532370475E+03  0.15675638790E+04  0.16586593968E+04  0.96945046757E+02 0.  0.
        254    2    1    2    0    0  0.22126237698E+03  0.48532370475E+03 -0.64832586553E+03  0.12031257940E+04  0.86179412295E+03 0.  0.
        -24    2    4    4    0    0  0.50909941907E+03  0.23184320332E+03 -0.18131052501E+03  0.59344538120E+03  0.79814939442E+02 0.  0.
         24    2    4    4    0    0 -0.28783704210E+03  0.25348050142E+03 -0.46701534052E+03  0.60968041278E+03  0.80649550736E+02 0.  0.
         11    1    3    3    0    0 -0.93684269506E+01  0.15503864630E+01  0.49716096333E+02  0.50614833362E+02  0.00000000000E+00 0. -1.
        -11    1    3    3    0    0 -0.21189395003E+03 -0.48687409121E+03  0.15178477827E+04  0.16080445635E+04  0.00000000000E+00 0.  1.
          2    1    6    6  502    0 -0.28489671049E+03  0.25930654825E+03 -0.46132989936E+03  0.60102520551E+03  0.00000000000E+00 0. -1.
          3    1    5    5  503    0  0.47365222600E+03  0.19502419965E+03 -0.15099986267E+03  0.53402418313E+03  0.00000000000E+00 0. -1.
         -4    1    5    5    0  503  0.35447193075E+02  0.36819003671E+02 -0.30310662338E+02  0.59421198066E+02  0.00000000000E+00 0.  1.
         -1    1    6    6    0  502 -0.29403316075E+01 -0.58260468286E+01 -0.56854411624E+01  0.86552072663E+01  0.00000000000E+00 0.  1.
<mgrwt>
<rscale>  0 0.27101321E+04</rscale>
<asrwt>0</asrwt>
<pdfrwt beam="1">  1        1 0.14942671E+00 0.27101321E+04</pdfrwt>
<pdfrwt beam="2">  1       -1 0.29084794E+00 0.27101321E+04</pdfrwt>
<totfact> 0.52644803E-01</totfact>
</mgrwt>
</event>
<event>
12    1  0.1097093E-007  0.1306364E+04  0.7818608E-02  0.9024534E-01
          2   -1    0    0  501    0  0.00000000000E+00  0.00000000000E+00  0.46317872783E+03  0.46317872783E+03  0.00000000000E+00 0. -1.
         -2   -1    0    0    0  501 -0.00000000000E+00 -0.00000000000E+00 -0.92112731730E+03  0.92112731730E+03  0.00000000000E+00 0.  1.
         23    2    1    2    0    0 -0.25759272234E+03  0.31480116421E+02 -0.36954718283E+03  0.46048520388E+03  0.90202518335E+02 0.  0.
        254    2    1    2    0    0  0.25759272234E+03 -0.31480116421E+02 -0.88401406639E+02  0.92382084125E+03  0.88220469830E+03 0.  0.
        -24    2    4    4    0    0  0.40064626461E+03 -0.26493981464E+03  0.19251185759E+03  0.52362318451E+03  0.80061784388E+02 0.  0.
         24    2    4    4    0    0 -0.14305354226E+03  0.23345969822E+03 -0.28091326423E+03  0.40019765674E+03  0.79234814243E+02 0.  0.
         11    1    3    3    0    0 -0.15502785505E+03  0.93649415289E+01 -0.14429846879E+03  0.21199855204E+03  0.00000000000E+00 0.  1.
        -11    1    3    3    0    0 -0.10256486730E+03  0.22115174892E+02 -0.22524871404E+03  0.24848665184E+03  0.00000000000E+00 0. -1.
          4    1    6    6  502    0 -0.74564721210E+02  0.13370321660E+03 -0.10109813000E+03  0.18345920437E+03  0.00000000000E+00 0. -1.
          3    1    5    5  503    0  0.62640921847E+01 -0.23965894332E+02  0.10267726230E+02  0.26814718793E+02  0.00000000000E+00 0. -1.
         -4    1    5    5    0  503  0.39438217242E+03 -0.24097392031E+03  0.18224413136E+03  0.49680846572E+03  0.00000000000E+00 0.  1.
         -3    1    6    6    0  502 -0.68488821054E+02  0.99756481617E+02 -0.17981513424E+03  0.21673845237E+03  0.00000000000E+00 0.  1.
<mgrwt>
<rscale>  0 0.13063638E+04</rscale>
<asrwt>0</asrwt>
<pdfrwt beam="1">  1        2 0.71258266E-01 0.13063638E+04</pdfrwt>
<pdfrwt beam="2">  1       -2 0.14171189E+00 0.13063638E+04</pdfrwt>
<totfact> 0.22918474E+01</totfact>
</mgrwt>
</event>
<event>
12    1  0.1097093E-007  0.1585999E+04  0.7818608E-02  0.8829196E-01
          2   -1    0    0  501    0  0.00000000000E+00  0.00000000000E+00  0.15324034167E+04  0.15324034167E+04  0.00000000000E+00 0. -1.
         -2   -1    0    0    0  501 -0.00000000000E+00 -0.00000000000E+00 -0.41036723194E+03  0.41036723194E+03  0.00000000000E+00 0.  1.
         23    2    1    2    0    0  0.27943114330E+03 -0.14573600633E+03  0.84314925030E+03  0.90533873972E+03  0.97040341972E+02 0.  0.
        254    2    1    2    0    0 -0.27943114330E+03  0.14573600633E+03  0.27888693441E+03  0.10374319089E+04  0.94824379565E+03 0.  0.
        -24    2    4    4    0    0 -0.58681900259E+03  0.98493003966E+02 -0.17190504759E+02  0.60060380282E+03  0.79824813671E+02 0.  0.
         24    2    4    4    0    0  0.30738785929E+03  0.47243002359E+02  0.29607743917E+03  0.43682810607E+03  0.80235571619E+02 0.  0.
         13    1    3    3    0    0  0.89214579045E+02 -0.40837699685E+02  0.39939103438E+03  0.41126652815E+03  0.00000000000E+00 0.  1.
        -13    1    3    3    0    0  0.19021656426E+03 -0.10489830664E+03  0.44375821592E+03  0.49407221157E+03  0.00000000000E+00 0. -1.
          2    1    6    6  502    0  0.62568014910E+02 -0.21825383120E+02  0.71732560037E+02  0.97655844718E+02  0.00000000000E+00 0. -1.
          3    1    5    5  503    0 -0.39590406220E+03  0.54759744914E+02  0.24248651531E+02  0.40040810835E+03  0.00000000000E+00 0. -1.
         -4    1    5    5    0  503 -0.19091494038E+03  0.43733259052E+02 -0.41439156289E+02  0.20019569447E+03  0.00000000000E+00 0.  1.
         -1    1    6    6    0  502  0.24481984438E+03  0.69068385479E+02  0.22434487913E+03  0.33917226135E+03  0.00000000000E+00 0.  1.
<mgrwt>
<rscale>  0 0.15859989E+04</rscale>
<asrwt>0</asrwt>
<pdfrwt beam="1">  1        2 0.23575437E+00 0.15859989E+04</pdfrwt>
<pdfrwt beam="2">  1       -2 0.63133421E-01 0.15859989E+04</pdfrwt>
<totfact> 0.27148677E+01</totfact>
</mgrwt>
</event>
<event>
12    1  0.1097093E-007  0.3925125E+04  0.7818608E-02  0.8019824E-01
         -1   -1    0    0    0  501 -0.00000000000E+00  0.00000000000E+00  0.34741063437E+04  0.34741063437E+04  0.00000000000E+00 0.  1.
          1   -1    0    0  501    0  0.00000000000E+00 -0.00000000000E+00 -0.11086739483E+04  0.11086739483E+04  0.00000000000E+00 0. -1.
         23    2    1    2    0    0  0.11163104305E+04 -0.64033432697E+03  0.26446876544E+04  0.29427478540E+04  0.95995392952E+02 0.  0.
        254    2    1    2    0    0 -0.11163104305E+04  0.64033432697E+03 -0.27925525896E+03  0.16400324380E+04  0.97752026606E+03 0.  0.
        -24    2    4    4    0    0 -0.44314878190E+02  0.40960718907E+03  0.16897555355E+03  0.45270296410E+03  0.81519189383E+02 0.  0.
         24    2    4    4    0    0 -0.10719955523E+04  0.23072713790E+03 -0.44823081252E+03  0.11873294739E+04  0.80193154452E+02 0.  0.
         11    1    3    3    0    0  0.35984178177E+01  0.28974415211E+01  0.16413969672E+02  0.17051750014E+02  0.00000000000E+00 0. -1.
        -11    1    3    3    0    0  0.11127120127E+04 -0.64323176849E+03  0.26282736847E+04  0.29256961040E+04  0.00000000000E+00 0.  1.
          4    1    6    6  502    0 -0.70909131090E+03  0.12378948627E+03 -0.32133751064E+03  0.78828428873E+03  0.00000000000E+00 0. -1.
          3    1    5    5  503    0 -0.49290744166E+02  0.19397689888E+03  0.49649994154E+02  0.20620799373E+03  0.00000000000E+00 0. -1.
         -4    1    5    5    0  503  0.49758659759E+01  0.21563029019E+03  0.11932555940E+03  0.24649497036E+03  0.00000000000E+00 0.  1.
         -3    1    6    6    0  502 -0.36290424140E+03  0.10693765163E+03 -0.12689330188E+03  0.39904518519E+03  0.00000000000E+00 0.  1.
<mgrwt>
<rscale>  0 0.39251248E+04</rscale>
<asrwt>0</asrwt>
<pdfrwt beam="1">  1        1 0.17056522E+00 0.39251248E+04</pdfrwt>
<pdfrwt beam="2">  1       -1 0.53447789E+00 0.39251248E+04</pdfrwt>
<totfact> 0.90124500E-03</totfact>
</mgrwt>
</event>
<event>
12    1  0.1097093E-007  0.1644269E+04  0.7818608E-02  0.8793804E-01
          2   -1    0    0  501    0  0.00000000000E+00  0.00000000000E+00  0.20106110036E+04  0.20106110036E+04  0.00000000000E+00 0. -1.
         -2   -1    0    0    0  501 -0.00000000000E+00 -0.00000000000E+00 -0.33616916830E+03  0.33616916830E+03  0.00000000000E+00 0.  1.
         23    2    1    2    0    0  0.77093154064E+02  0.55607347372E+03  0.44527567482E+03  0.72265932911E+03  0.93835050922E+02 0.  0.
        254    2    1    2    0    0 -0.77093154064E+02 -0.55607347372E+03  0.12291661605E+04  0.16241208428E+04  0.90097613695E+03 0.  0.
        -24    2    4    4    0    0 -0.80239564630E+02 -0.47055795321E+03  0.10671343670E+03  0.49571932906E+03  0.80540179835E+02 0.  0.
         24    2    4    4    0    0  0.31464105663E+01 -0.85515520506E+02  0.11224527238E+04  0.11284015138E+04  0.77891301848E+02 0.  0.
         13    1    3    3    0    0  0.91296002204E+02  0.35808510105E+03  0.31123671471E+03  0.48314406982E+03  0.00000000000E+00 0.  1.
        -13    1    3    3    0    0 -0.14202848140E+02  0.19798837267E+03  0.13403896012E+03  0.23951525930E+03  0.00000000000E+00 0. -1.
          2    1    6    6  502    0  0.10991354783E+01 -0.85957758752E+02  0.11229607174E+04  0.11262462951E+04  0.00000000000E+00 0. -1.
          3    1    5    5  503    0 -0.53093451456E+02 -0.41703213714E+03  0.11314978193E+03  0.43535915190E+03  0.00000000000E+00 0. -1.
         -4    1    5    5    0  503 -0.27146113174E+02 -0.53525816076E+02 -0.64363452267E+01  0.60360177161E+02  0.00000000000E+00 0.  1.
         -1    1    6    6    0  502  0.20472750880E+01  0.44223824616E+00 -0.50799359526E+00  0.21552186537E+01  0.00000000000E+00 0.  1.
<mgrwt>
<rscale>  0 0.16442694E+04</rscale>
<asrwt>0</asrwt>
<pdfrwt beam="1">  1        2 0.30932476E+00 0.16442694E+04</pdfrwt>
<pdfrwt beam="2">  1       -2 0.51718335E-01 0.16442694E+04</pdfrwt>
<totfact> 0.22245463E+01</totfact>
</mgrwt>
</event>
<event>
12    1  0.1097093E-007  0.1880156E+04  0.7818608E-02  0.8664798E-01
          2   -1    0    0  501    0  0.00000000000E+00  0.00000000000E+00  0.21039308933E+04  0.21039308933E+04  0.00000000000E+00 0. -1.
         -2   -1    0    0    0  501 -0.00000000000E+00 -0.00000000000E+00 -0.42004530057E+03  0.42004530057E+03  0.00000000000E+00 0.  1.
         23    2    1    2    0    0  0.27593863664E+03  0.36332494447E+03  0.14001635706E+04  0.14753658281E+04  0.89995310318E+02 0.  0.
        254    2    1    2    0    0 -0.27593863664E+03 -0.36332494447E+03  0.28372202217E+03  0.10486103658E+04  0.90052116405E+03 0.  0.
        -24    2    4    4    0    0 -0.88829991095E+02  0.11664548639E+03 -0.25104806362E+03  0.30183058801E+03  0.81114960370E+02 0.  0.
         24    2    4    4    0    0 -0.18710864555E+03 -0.47997043086E+03  0.53477008579E+03  0.74677977778E+03  0.79496742721E+02 0.  0.
         13    1    3    3    0    0  0.12085116367E+03  0.19751598621E+03  0.82906972041E+03  0.86079856521E+03  0.00000000000E+00 0. -1.
        -13    1    3    3    0    0  0.15508747297E+03  0.16580895826E+03  0.57109385018E+03  0.61456726290E+03  0.00000000000E+00 0.  1.
          2    1    6    6  502    0 -0.15894169488E+03 -0.30892774499E+03  0.34140487960E+03  0.48708942281E+03  0.00000000000E+00 0. -1.
          3    1    5    5  503    0 -0.94234075744E+02  0.98847908172E+02 -0.24781110484E+03  0.28295107998E+03  0.00000000000E+00 0. -1.
         -4    1    5    5    0  503  0.54040846496E+01  0.17797578215E+02 -0.32369587871E+01  0.18879508028E+02  0.00000000000E+00 0.  1.
         -3    1    6    6    0  502 -0.28166950665E+02 -0.17104268587E+03  0.19336520619E+03  0.25969035497E+03  0.00000000000E+00 0.  1.
<mgrwt>
<rscale>  0 0.18801556E+04</rscale>
<asrwt>0</asrwt>
<pdfrwt beam="1">  1        2 0.32368167E+00 0.18801556E+04</pdfrwt>
<pdfrwt beam="2">  1       -2 0.64622355E-01 0.18801556E+04</pdfrwt>
<totfact> 0.12123855E+01</totfact>
</mgrwt>
</event>
<event>
12    1  0.1097093E-007  0.1875112E+04  0.7818608E-02  0.8667345E-01
          2   -1    0    0  501    0  0.00000000000E+00  0.00000000000E+00  0.70227533275E+03  0.70227533275E+03  0.00000000000E+00 0. -1.
         -2   -1    0    0    0  501 -0.00000000000E+00 -0.00000000000E+00 -0.12516624457E+04  0.12516624457E+04  0.00000000000E+00 0.  1.
         23    2    1    2    0    0  0.20507608908E+03 -0.26970334850E+02  0.53091969340E+03  0.57723917064E+03  0.92443160970E+02 0.  0.
        254    2    1    2    0    0 -0.20507608908E+03  0.26970334850E+02 -0.10803068064E+04  0.13766986079E+04  0.82792068441E+03 0.  0.
        -24    2    4    4    0    0 -0.41568926914E+03 -0.16218878914E+03 -0.30394813836E+03  0.54667601243E+03  0.85833676118E+02 0.  0.
         24    2    4    4    0    0  0.21061318006E+03  0.18915912398E+03 -0.77635866804E+03  0.83002259543E+03  0.77882229653E+02 0.  0.
         13    1    3    3    0    0  0.54739388813E+02 -0.78381479454E+00  0.55616372980E+02  0.78039707820E+02  0.00000000000E+00 0.  1.
        -13    1    3    3    0    0  0.15033670027E+03 -0.26186520055E+02  0.47530332042E+03  0.49919946282E+03  0.00000000000E+00 0. -1.
          4    1    6    6  502    0  0.53501188032E+02  0.65918043333E+02 -0.33508427510E+03  0.34567186315E+03  0.00000000000E+00 0. -1.
          3    1    5    5  503    0 -0.16402674932E+03 -0.93840504880E+02 -0.16666889211E+03  0.25197090000E+03  0.00000000000E+00 0. -1.
         -4    1    5    5    0  503 -0.25166251982E+03 -0.68348284255E+02 -0.13727924624E+03  0.29470511243E+03  0.00000000000E+00 0.  1.
         -3    1    6    6    0  502  0.15711199202E+03  0.12324108065E+03 -0.44127439294E+03  0.48435073228E+03  0.00000000000E+00 0.  1.
<mgrwt>
<rscale>  0 0.18751124E+04</rscale>
<asrwt>0</asrwt>
<pdfrwt beam="1">  1        2 0.10804236E+00 0.18751124E+04</pdfrwt>
<pdfrwt beam="2">  1       -2 0.19256345E+00 0.18751124E+04</pdfrwt>
<totfact> 0.57011829E+00</totfact>
</mgrwt>
</event>
<event>
12    1  0.1097093E-007  0.2332718E+04  0.7818608E-02  0.8465131E-01
         -1   -1    0    0    0  501 -0.00000000000E+00  0.00000000000E+00  0.76698089904E+03  0.76698089904E+03  0.00000000000E+00 0.  1.
          1   -1    0    0  501    0  0.00000000000E+00 -0.00000000000E+00 -0.17736990151E+04  0.17736990151E+04  0.00000000000E+00 0. -1.
         23    2    1    2    0    0  0.64709199731E+03 -0.51013004417E+03  0.16184964673E+03  0.84475139520E+03  0.91917879655E+02 0.  0.
        254    2    1    2    0    0 -0.64709199731E+03  0.51013004417E+03 -0.11685677628E+04  0.16959285189E+04  0.91195515799E+03 0.  0.
        -24    2    4    4    0    0  0.71005897586E+02  0.38901290047E+03 -0.12756410539E+03  0.42320268678E+03  0.80343256635E+02 0.  0.
         24    2    4    4    0    0 -0.71809789490E+03  0.12111714369E+03 -0.10410036574E+04  0.12727258322E+04  0.76213384512E+02 0.  0.
         11    1    3    3    0    0  0.68106803447E+02 -0.31480938478E+02  0.35410733194E+02  0.82966898150E+02  0.00000000000E+00 0. -1.
        -11    1    3    3    0    0  0.57898519386E+03 -0.47864910569E+03  0.12643891354E+03  0.76178449705E+03  0.00000000000E+00 0.  1.
          4    1    6    6  502    0 -0.10887794356E+03  0.26581561007E+01 -0.19695933121E+03  0.22506543612E+03  0.00000000000E+00 0. -1.
          3    1    5    5  503    0 -0.13768288874E+02  0.11235243240E+03 -0.49189764744E+02  0.12341907389E+03  0.00000000000E+00 0. -1.
         -4    1    5    5    0  503  0.84774186460E+02  0.27666046807E+03 -0.78374340650E+02  0.29978361289E+03  0.00000000000E+00 0.  1.
         -3    1    6    6    0  502 -0.60921995134E+03  0.11845898759E+03 -0.84404432619E+03  0.10476603960E+04  0.00000000000E+00 0.  1.
<mgrwt>
<rscale>  0 0.23327180E+04</rscale>
<asrwt>0</asrwt>
<pdfrwt beam="1">  1        1 0.27287677E+00 0.23327180E+04</pdfrwt>
<pdfrwt beam="2">  1       -1 0.11799706E+00 0.23327180E+04</pdfrwt>
<totfact> 0.24681792E+00</totfact>
</mgrwt>
</event>
<event>
12    1  0.1097093E-007  0.1500987E+04  0.7818608E-02  0.8883797E-01
          2   -1    0    0  501    0  0.00000000000E+00  0.00000000000E+00  0.36741084939E+04  0.36741084939E+04  0.00000000000E+00 0. -1.
         -2   -1    0    0    0  501 -0.00000000000E+00 -0.00000000000E+00 -0.15329996815E+03  0.15329996815E+03  0.00000000000E+00 0.  1.
         23    2    1    2    0    0  0.22155295114E+03 -0.42694455557E+03  0.12301928101E+04  0.13241769078E+04  0.93288635002E+02 0.  0.
        254    2    1    2    0    0 -0.22155295114E+03  0.42694455557E+03  0.22906157157E+04  0.25032315543E+04  0.88762632552E+03 0.  0.
        -24    2    4    4    0    0 -0.53783214758E+03  0.16714968700E+03  0.15897909825E+04  0.16885253093E+04  0.80497922319E+02 0.  0.
         24    2    4    4    0    0  0.31627919645E+03  0.25979486857E+03  0.70082473327E+03  0.81470624500E+03  0.71169200075E+02 0.  0.
         13    1    3    3    0    0  0.18082072077E+03 -0.31755455734E+03  0.82084925408E+03  0.89851573601E+03  0.00000000000E+00 0. -1.
        -13    1    3    3    0    0  0.40732230369E+02 -0.10938999824E+03  0.40934355599E+03  0.42566117175E+03  0.00000000000E+00 0.  1.
          2    1    6    6  502    0  0.11491276669E+03  0.13968754237E+03  0.31386023858E+03  0.36225102182E+03  0.00000000000E+00 0. -1.
          3    1    5    5  503    0 -0.51321417534E+03  0.17619056053E+03  0.15225539728E+04  0.16163546960E+04  0.00000000000E+00 0. -1.
         -4    1    5    5    0  503 -0.24617972246E+02 -0.90408735307E+01  0.67237009690E+02  0.72170613298E+02  0.00000000000E+00 0.  1.
         -1    1    6    6    0  502  0.20136642976E+03  0.12010732620E+03  0.38696449469E+03  0.45245522319E+03  0.00000000000E+00 0.  1.
<mgrwt>
<rscale>  0 0.15009873E+04</rscale>
<asrwt>0</asrwt>
<pdfrwt beam="1">  1        2 0.56524739E+00 0.15009873E+04</pdfrwt>
<pdfrwt beam="2">  1       -2 0.23584613E-01 0.15009873E+04</pdfrwt>
<totfact> 0.95555257E+00</totfact>
</mgrwt>
</event>
<event>
12    1  0.1097093E-007  0.1414896E+04  0.7818608E-02  0.8943106E-01
          2   -1    0    0  501    0  0.00000000000E+00  0.00000000000E+00  0.89451273294E+03  0.89451273294E+03  0.00000000000E+00 0. -1.
         -2   -1    0    0    0  501 -0.00000000000E+00 -0.00000000000E+00 -0.55950290893E+03  0.55950290893E+03  0.00000000000E+00 0.  1.
         23    2    1    2    0    0  0.28825618043E+03 -0.28152591275E+03  0.15051519550E+02  0.41321793971E+03  0.90410465937E+02 0.  0.
        254    2    1    2    0    0 -0.28825618043E+03  0.28152591275E+03  0.31995830446E+03  0.10407977022E+04  0.90473094073E+03 0.  0.
        -24    2    4    4    0    0  0.24302005781E+03  0.28507093642E+03  0.32412840374E+03  0.50340631996E+03  0.89635448190E+02 0.  0.
         24    2    4    4    0    0 -0.53127623824E+03 -0.35450236734E+01 -0.41700992803E+01  0.53739138220E+03  0.80654196533E+02 0.  0.
         11    1    3    3    0    0  0.28838844086E+03 -0.25406709838E+03  0.21742112355E+02  0.38495545554E+03  0.00000000000E+00 0. -1.
        -11    1    3    3    0    0 -0.13226042843E+00 -0.27458814366E+02 -0.66905928047E+01  0.28262484167E+02  0.00000000000E+00 0.  1.
          2    1    6    6  502    0 -0.37755148662E+03  0.19242623137E+02 -0.32461196998E+02  0.37943264607E+03  0.00000000000E+00 0. -1.
          3    1    5    5  503    0  0.20226087016E+03  0.23087694451E+03  0.21437114172E+03  0.37439098480E+03  0.00000000000E+00 0. -1.
         -4    1    5    5    0  503  0.40759187656E+02  0.54193991912E+02  0.10975726203E+03  0.12901533516E+03  0.00000000000E+00 0.  1.
         -1    1    6    6    0  502 -0.15372475162E+03 -0.22787646811E+02  0.28291097718E+02  0.15795873613E+03  0.00000000000E+00 0.  1.
<mgrwt>
<rscale>  0 0.14148957E+04</rscale>
<asrwt>0</asrwt>
<pdfrwt beam="1">  1        2 0.13761734E+00 0.14148957E+04</pdfrwt>
<pdfrwt beam="2">  1       -2 0.86077371E-01 0.14148957E+04</pdfrwt>
<totfact> 0.33674188E+01</totfact>
</mgrwt>
</event>
<event>
12    1  0.1097093E-007  0.1664196E+04  0.7818608E-02  0.8782052E-01
          1   -1    0    0  501    0  0.00000000000E+00  0.00000000000E+00  0.10231352463E+04  0.10231352463E+04  0.00000000000E+00 0. -1.
         -1   -1    0    0    0  501 -0.00000000000E+00 -0.00000000000E+00 -0.67673077795E+03  0.67673077795E+03  0.00000000000E+00 0.  1.
         23    2    1    2    0    0  0.10703368364E+03 -0.68661425044E+02  0.71562916025E+03  0.73264835220E+03  0.92075579056E+02 0.  0.
        254    2    1    2    0    0 -0.10703368364E+03  0.68661425044E+02 -0.36922469193E+03  0.96721767201E+03  0.88487996429E+03 0.  0.
        -24    2    4    4    0    0 -0.67983857715E+02  0.62074104795E+01 -0.65406018370E+03  0.66239184823E+03  0.79422288073E+02 0.  0.
         24    2    4    4    0    0 -0.39049825925E+02  0.62454014564E+02  0.28483549177E+03  0.30482582378E+03  0.79762977830E+02 0.  0.
         11    1    3    3    0    0  0.39369655802E+02  0.11155751527E+01  0.75240827967E+02  0.84925829399E+02  0.00000000000E+00 0.  1.
        -11    1    3    3    0    0  0.67664027838E+02 -0.69777000197E+02  0.64038833228E+03  0.64772252280E+03  0.00000000000E+00 0. -1.
          4    1    6    6  502    0 -0.21962407009E+02  0.44529201220E+02  0.27281849487E+03  0.27729970831E+03  0.00000000000E+00 0. -1.
          1    1    5    5  503    0 -0.26176227547E+02  0.14332800835E+02 -0.62070815634E+02  0.68872419893E+02  0.00000000000E+00 0. -1.
         -2    1    5    5    0  503 -0.41807630168E+02 -0.81253903552E+01 -0.59198936807E+03  0.59351942834E+03  0.00000000000E+00 0.  1.
         -3    1    6    6    0  502 -0.17087418915E+02  0.17924813345E+02  0.12016996897E+02  0.27526115473E+02  0.00000000000E+00 0.  1.
<mgrwt>
<rscale>  0 0.16641960E+04</rscale>
<asrwt>0</asrwt>
<pdfrwt beam="1">  1        1 0.15740542E+00 0.16641960E+04</pdfrwt>
<pdfrwt beam="2">  1       -1 0.10411243E+00 0.16641960E+04</pdfrwt>
<totfact> 0.12033469E+01</totfact>
</mgrwt>
</event>
<event>
12    1  0.1097093E-007  0.2193569E+04  0.7818608E-02  0.8521110E-01
          1   -1    0    0  501    0  0.00000000000E+00  0.00000000000E+00  0.90592077012E+03  0.90592077012E+03  0.00000000000E+00 0. -1.
         -1   -1    0    0    0  501 -0.00000000000E+00 -0.00000000000E+00 -0.13278599968E+04  0.13278599968E+04  0.00000000000E+00 0.  1.
         23    2    1    2    0    0 -0.17656462740E+03  0.86757476639E+03  0.48602151698E+02  0.89096115327E+03  0.87112367432E+02 0.  0.
        254    2    1    2    0    0  0.17656462740E+03 -0.86757476639E+03 -0.47054137834E+03  0.13428196136E+04  0.89324928381E+03 0.  0.
        -24    2    4    4    0    0  0.29337125434E+02 -0.97177064789E+03 -0.18030253283E+03  0.99201006446E+03  0.79850520395E+02 0.  0.
         24    2    4    4    0    0  0.14722750196E+03  0.10419588150E+03 -0.29023884550E+03  0.35080954915E+03  0.79347547402E+02 0.  0.
         11    1    3    3    0    0 -0.12021455871E+03  0.52584895571E+03  0.70115395606E+02  0.54395296952E+03  0.00000000000E+00 0. -1.
        -11    1    3    3    0    0 -0.56350068685E+02  0.34172581068E+03 -0.21513243908E+02  0.34700818375E+03  0.00000000000E+00 0.  1.
          2    1    6    6  502    0  0.19572088250E+02 -0.11247909292E+02 -0.18675258900E+02  0.29297566399E+02  0.00000000000E+00 0. -1.
          1    1    5    5  503    0  0.42235993423E+02 -0.37781907304E+03 -0.94630620589E+02  0.39177300245E+03  0.00000000000E+00 0. -1.
         -2    1    5    5    0  503 -0.12898867989E+02 -0.59395157485E+03 -0.85671912246E+02  0.60023706201E+03  0.00000000000E+00 0.  1.
         -1    1    6    6    0  502  0.12765541371E+03  0.11544379079E+03 -0.27156358660E+03  0.32151198275E+03  0.00000000000E+00 0.  1.
<mgrwt>
<rscale>  0 0.21935687E+04</rscale>
<asrwt>0</asrwt>
<pdfrwt beam="1">  1        1 0.13937243E+00 0.21935687E+04</pdfrwt>
<pdfrwt beam="2">  1       -1 0.20428615E+00 0.21935687E+04</pdfrwt>
<totfact> 0.23082435E+00</totfact>
</mgrwt>
</event>
<event>
12    1  0.1097093E-007  0.1678655E+04  0.7818608E-02  0.8773633E-01
          2   -1    0    0  501    0  0.00000000000E+00  0.00000000000E+00  0.14495322435E+04  0.14495322435E+04  0.00000000000E+00 0. -1.
         -2   -1    0    0    0  501 -0.00000000000E+00 -0.00000000000E+00 -0.48599861183E+03  0.48599861183E+03  0.00000000000E+00 0.  1.
         23    2    1    2    0    0 -0.38697508015E+03  0.41090941129E+03  0.55427193069E+03  0.79622797380E+03  0.90362360279E+02 0.  0.
        254    2    1    2    0    0  0.38697508015E+03 -0.41090941129E+03  0.40926170095E+03  0.11393028815E+04  0.90106584610E+03 0.  0.
        -24    2    4    4    0    0  0.50205842230E+03 -0.61562695532E+03  0.22147381356E+03  0.82845779398E+03  0.78945923314E+02 0.  0.
         24    2    4    4    0    0 -0.11508334214E+03  0.20471754403E+03  0.18778788739E+03  0.31084508752E+03  0.78784067647E+02 0.  0.
         11    1    3    3    0    0 -0.32808332795E+03  0.37492670881E+03  0.51621240582E+03  0.71741477193E+03  0.00000000000E+00 0.  1.
        -11    1    3    3    0    0 -0.58891752203E+02  0.35982702473E+02  0.38059524878E+02  0.78813201868E+02  0.00000000000E+00 0. -1.
          2    1    6    6  502    0 -0.65158442835E+01  0.32366946220E+02 -0.11211802416E+01  0.33035321694E+02  0.00000000000E+00 0. -1.
          1    1    5    5  503    0  0.16339859896E+03 -0.16112125241E+03  0.90796471467E+02  0.24678565467E+03  0.00000000000E+00 0. -1.
         -2    1    5    5    0  503  0.33865982333E+03 -0.45450570290E+03  0.13067734209E+03  0.58167213931E+03  0.00000000000E+00 0.  1.
         -1    1    6    6    0  502 -0.10856749786E+03  0.17235059781E+03  0.18890906763E+03  0.27780976583E+03  0.00000000000E+00 0.  1.
<mgrwt>
<rscale>  0 0.16786550E+04</rscale>
<asrwt>0</asrwt>
<pdfrwt beam="1">  1        2 0.22300496E+00 0.16786550E+04</pdfrwt>
<pdfrwt beam="2">  1       -2 0.74769018E-01 0.16786550E+04</pdfrwt>
<totfact> 0.20776836E+01</totfact>
</mgrwt>
</event>
<event>
12    1  0.1097093E-007  0.1375161E+04  0.7818608E-02  0.8971997E-01
         -1   -1    0    0    0  501 -0.00000000000E+00  0.00000000000E+00  0.32184152246E+03  0.32184152246E+03  0.00000000000E+00 0.  1.
          1   -1    0    0  501    0  0.00000000000E+00 -0.00000000000E+00 -0.14689429695E+04  0.14689429695E+04  0.00000000000E+00 0. -1.
         23    2    1    2    0    0 -0.12613053851E+03  0.75646266495E+02  0.13566972755E+03  0.22011260729E+03  0.91717035148E+02 0.  0.
        254    2    1    2    0    0  0.12613053851E+03 -0.75646266495E+02 -0.12827711746E+04  0.15706718847E+04  0.89435843630E+03 0.  0.
        -24    2    4    4    0    0  0.45798769147E+02 -0.12729204031E+03 -0.13946310826E+04  0.14034630989E+04  0.80075107414E+02 0.  0.
         24    2    4    4    0    0  0.80331769365E+02  0.51645773816E+02  0.11185990795E+03  0.16720878576E+03  0.79534017294E+02 0.  0.
         11    1    3    3    0    0 -0.87450728027E+02  0.22377329417E+01  0.89523809118E+02  0.12516848517E+03  0.00000000000E+00 0.  1.
        -11    1    3    3    0    0 -0.38679810485E+02  0.73408533553E+02  0.46145918429E+02  0.94944122120E+02  0.00000000000E+00 0. -1.
          2    1    6    6  502    0  0.92635181766E+02  0.29864832278E+02  0.99922506275E+02  0.13949083256E+03  0.00000000000E+00 0. -1.
          1    1    5    5  503    0  0.64879970489E+02 -0.10740605149E+03 -0.12456584236E+04  0.12519626108E+04  0.00000000000E+00 0. -1.
         -2    1    5    5    0  503 -0.19081201342E+02 -0.19885988820E+02 -0.14897265898E+03  0.15150048818E+03  0.00000000000E+00 0.  1.
         -1    1    6    6    0  502 -0.12303412401E+02  0.21780941538E+02  0.11937401676E+02  0.27717953203E+02  0.00000000000E+00 0.  1.
<mgrwt>
<rscale>  0 0.13751609E+04</rscale>
<asrwt>0</asrwt>
<pdfrwt beam="1">  1        1 0.22599122E+00 0.13751609E+04</pdfrwt>
<pdfrwt beam="2">  1       -1 0.49514081E-01 0.13751609E+04</pdfrwt>
<totfact> 0.27462848E+01</totfact>
</mgrwt>
</event>
<event>
12    1  0.1097093E-007  0.1284358E+04  0.7818608E-02  0.9042062E-01
          2   -1    0    0  501    0  0.00000000000E+00  0.00000000000E+00  0.14464332150E+04  0.14464332150E+04  0.00000000000E+00 0. -1.
         -2   -1    0    0    0  501 -0.00000000000E+00 -0.00000000000E+00 -0.28511088681E+03  0.28511088681E+03  0.00000000000E+00 0.  1.
         23    2    1    2    0    0  0.34785723308E+01  0.32745860506E+02  0.73514878572E+03  0.74153972073E+03  0.91394903745E+02 0.  0.
        254    2    1    2    0    0 -0.34785723308E+01 -0.32745860506E+02  0.42617354243E+03  0.99000438103E+03  0.89297278477E+03 0.  0.
        -24    2    4    4    0    0 -0.21082753242E+03  0.91544155279E+02  0.62304793480E+03  0.66904981574E+03  0.81304034896E+02 0.  0.
         24    2    4    4    0    0  0.20734896009E+03 -0.12429001579E+03 -0.19687439237E+03  0.32095456529E+03  0.76227995727E+02 0.  0.
         11    1    3    3    0    0  0.12173498242E+02 -0.61207461820E+01  0.61114864948E+03  0.61130052295E+03  0.00000000000E+00 0. -1.
        -11    1    3    3    0    0 -0.86949259116E+01  0.38866606688E+02  0.12400013624E+03  0.13023919779E+03  0.00000000000E+00 0.  1.
          2    1    6    6  502    0  0.80345669279E+02 -0.10453123784E+02 -0.45564649706E+02  0.92956073882E+02  0.00000000000E+00 0. -1.
          3    1    5    5  503    0 -0.82551681562E+00  0.22657043323E+02  0.52185537284E+02  0.56897745050E+02  0.00000000000E+00 0. -1.
         -4    1    5    5    0  503 -0.21000201560E+03  0.68887111956E+02  0.57086239752E+03  0.61215207069E+03  0.00000000000E+00 0.  1.
         -1    1    6    6    0  502  0.12700329081E+03 -0.11383689200E+03 -0.15130974267E+03  0.22799849141E+03  0.00000000000E+00 0.  1.
<mgrwt>
<rscale>  0 0.12843580E+04</rscale>
<asrwt>0</asrwt>
<pdfrwt beam="1">  1        2 0.22252818E+00 0.12843580E+04</pdfrwt>
<pdfrwt beam="2">  1       -2 0.43863214E-01 0.12843580E+04</pdfrwt>
<totfact> 0.65812376E+01</totfact>
</mgrwt>
</event>
<event>
12    1  0.1097093E-007  0.5513568E+04  0.7818608E-02  0.7753825E-01
          2   -1    0    0  501    0  0.00000000000E+00  0.00000000000E+00  0.19916559542E+04  0.19916559542E+04  0.00000000000E+00 0. -1.
         -2   -1    0    0    0  501 -0.00000000000E+00 -0.00000000000E+00 -0.38158493116E+04  0.38158493116E+04  0.00000000000E+00 0.  1.
         23    2    1    2    0    0 -0.14100887753E+04  0.96174189996E+03 -0.30688718136E+04  0.35128268455E+04  0.93168673482E+02 0.  0.
        254    2    1    2    0    0  0.14100887753E+04 -0.96174189996E+03  0.12446784562E+04  0.22946784204E+04  0.89611760223E+03 0.  0.
        -24    2    4    4    0    0  0.13123152847E+04 -0.11169040258E+04  0.10917893350E+04  0.20415370707E+04  0.78890112474E+02 0.  0.
         24    2    4    4    0    0  0.97773490656E+02  0.15516212586E+03  0.15288912123E+03  0.25314134963E+03  0.84086376596E+02 0.  0.
         11    1    3    3    0    0 -0.11564645906E+04  0.80428615714E+03 -0.24618121127E+04  0.28363366249E+04  0.00000000000E+00 0.  1.
        -11    1    3    3    0    0 -0.25362418477E+03  0.15745574282E+03 -0.60705970092E+03  0.67649022057E+03  0.00000000000E+00 0. -1.
          2    1    6    6  502    0  0.72030137187E+02  0.37712031916E+02  0.67406207810E+02  0.10561313775E+03  0.00000000000E+00 0. -1.
          3    1    5    5  503    0  0.63827910766E+03 -0.57858968635E+03  0.51142195597E+03  0.10018576054E+04  0.00000000000E+00 0. -1.
         -4    1    5    5    0  503  0.67403617703E+03 -0.53831433947E+03  0.58036737902E+03  0.10396794653E+04  0.00000000000E+00 0.  1.
         -1    1    6    6    0  502  0.25743353470E+02  0.11745009394E+03  0.85482913415E+02  0.14752821188E+03  0.00000000000E+00 0.  1.
<mgrwt>
<rscale>  0 0.55135684E+04</rscale>
<asrwt>0</asrwt>
<pdfrwt beam="1">  1        2 0.30640861E+00 0.55135684E+04</pdfrwt>
<pdfrwt beam="2">  1       -2 0.58705374E+00 0.55135684E+04</pdfrwt>
<totfact> 0.27493692E-03</totfact>
</mgrwt>
</event>
<event>
12    1  0.1097093E-007  0.2070974E+04  0.7818608E-02  0.8574139E-01
         -1   -1    0    0    0  501 -0.00000000000E+00  0.00000000000E+00  0.92045667045E+03  0.92045667045E+03  0.00000000000E+00 0.  1.
          1   -1    0    0  501    0  0.00000000000E+00 -0.00000000000E+00 -0.11648922791E+04  0.11648922791E+04  0.00000000000E+00 0. -1.
         23    2    1    2    0    0  0.98911705899E+02  0.74745982804E+03 -0.48380412977E+03  0.90054048211E+03  0.91798713721E+02 0.  0.
        254    2    1    2    0    0 -0.98911705899E+02 -0.74745982804E+03  0.23936852111E+03  0.11848084675E+04  0.88203973583E+03 0.  0.
        -24    2    4    4    0    0 -0.40311363276E+03 -0.68807769813E+03  0.28943023260E+02  0.80186693617E+03  0.78748746979E+02 0.  0.
         24    2    4    4    0    0  0.30420192686E+03 -0.59382129907E+02  0.21042549784E+03  0.38294153129E+03  0.79374281613E+02 0.  0.
         13    1    3    3    0    0  0.10200959699E+02  0.57679939190E+02 -0.70028215014E+02  0.91296143740E+02  0.00000000000E+00 0.  1.
        -13    1    3    3    0    0  0.88710746199E+02  0.68977988885E+03 -0.41377591475E+03  0.80924433837E+03  0.00000000000E+00 0. -1.
          2    1    6    6  502    0  0.71059950821E+02 -0.40244255486E+02  0.83514073700E+02  0.11680632353E+03  0.00000000000E+00 0. -1.
          3    1    5    5  503    0 -0.46513709852E+02 -0.46921737051E+02  0.16550155547E+02  0.68110808692E+02  0.00000000000E+00 0. -1.
         -2    1    5    5    0  503 -0.35659992291E+03 -0.64115596108E+03  0.12392867713E+02  0.73375612748E+03  0.00000000000E+00 0.  1.
         -1    1    6    6    0  502  0.23314197604E+03 -0.19137874421E+02  0.12691142415E+03  0.26613520776E+03  0.00000000000E+00 0.  1.
<mgrwt>
<rscale>  0 0.20709736E+04</rscale>
<asrwt>0</asrwt>
<pdfrwt beam="1">  1        1 0.17921420E+00 0.20709736E+04</pdfrwt>
<pdfrwt beam="2">  1       -1 0.14160872E+00 0.20709736E+04</pdfrwt>
<totfact> 0.42535284E+00</totfact>
</mgrwt>
</event>
<event>
12    1  0.1097093E-007  0.1893762E+04  0.7818608E-02  0.8657968E-01
         -1   -1    0    0    0  501 -0.00000000000E+00  0.00000000000E+00  0.47670147195E+03  0.47670147195E+03  0.00000000000E+00 0.  1.
          1   -1    0    0  501    0  0.00000000000E+00 -0.00000000000E+00 -0.18808066701E+04  0.18808066701E+04  0.00000000000E+00 0. -1.
         23    2    1    2    0    0 -0.59877798511E+03 -0.40572428223E+03 -0.64189521296E+03  0.97189373820E+03  0.96957234276E+02 0.  0.
        254    2    1    2    0    0  0.59877798511E+03  0.40572428223E+03 -0.76220998514E+03  0.13856144038E+04  0.90322530187E+03 0.  0.
        -24    2    4    4    0    0  0.57844540285E+03  0.58152928142E+03 -0.84076501671E+03  0.11774401359E+04  0.81878391363E+02 0.  0.
         24    2    4    4    0    0  0.20332582264E+02 -0.17580499919E+03  0.78555031571E+02  0.20817426795E+03  0.76451430405E+02 0.  0.
         13    1    3    3    0    0 -0.56656036169E+03 -0.36245563251E+03 -0.61605188983E+03  0.91207711293E+03  0.00000000000E+00 0.  1.
        -13    1    3    3    0    0 -0.32217623427E+02 -0.43268649717E+02 -0.25843323134E+02  0.59816625266E+02  0.00000000000E+00 0. -1.
          4    1    6    6  502    0  0.84121128715E+00 -0.16215785859E+03  0.47348234677E+02  0.16893115185E+03  0.00000000000E+00 0. -1.
          3    1    5    5  503    0  0.43646514841E+03  0.48497207765E+03 -0.67452939803E+03  0.93845066502E+03  0.00000000000E+00 0. -1.
         -4    1    5    5    0  503  0.14198025444E+03  0.96557203773E+02 -0.16623561869E+03  0.23898947084E+03  0.00000000000E+00 0.  1.
         -3    1    6    6    0  502  0.19491370977E+02 -0.13647140603E+02  0.31206796894E+02  0.39243116105E+02  0.00000000000E+00 0.  1.
<mgrwt>
<rscale>  0 0.18937617E+04</rscale>
<asrwt>0</asrwt>
<pdfrwt beam="1">  1        1 0.28935487E+00 0.18937617E+04</pdfrwt>
<pdfrwt beam="2">  1       -1 0.73338688E-01 0.18937617E+04</pdfrwt>
<totfact> 0.62963384E+00</totfact>
</mgrwt>
</event>
<event>
12    1  0.1097093E-007  0.2632557E+04  0.7818608E-02  0.8357226E-01
          2   -1    0    0  501    0  0.00000000000E+00  0.00000000000E+00  0.25365316913E+04  0.25365316913E+04  0.00000000000E+00 0. -1.
         -2   -1    0    0    0  501 -0.00000000000E+00 -0.00000000000E+00 -0.68305423206E+03  0.68305423206E+03  0.00000000000E+00 0.  1.
         23    2    1    2    0    0  0.27826359306E+03  0.23648313185E+03 -0.51631030509E+03  0.63900987056E+03  0.91664522394E+02 0.  0.
        254    2    1    2    0    0 -0.27826359306E+03 -0.23648313185E+03  0.23697877643E+04  0.25805760528E+04  0.95400409718E+03 0.  0.
        -24    2    4    4    0    0 -0.23853957485E+03  0.30238623626E+03  0.52164983575E+03  0.65334582897E+03  0.80022849495E+02 0.  0.
         24    2    4    4    0    0 -0.39724018202E+02 -0.53886936811E+03  0.18481379285E+04  0.19272302238E+04  0.81512815462E+02 0.  0.
         11    1    3    3    0    0  0.82601502155E+02  0.49811960139E+02 -0.20557515757E+03  0.22708012890E+03  0.00000000000E+00 0. -1.
        -11    1    3    3    0    0  0.19566209090E+03  0.18667117171E+03 -0.31073514752E+03  0.41192974167E+03  0.00000000000E+00 0.  1.
          2    1    6    6  502    0 -0.61564549290E+02 -0.43473235066E+03  0.14400316790E+04  0.15054812011E+04  0.00000000000E+00 0. -1.
          1    1    5    5  503    0 -0.23166069228E+03  0.30416942763E+03  0.49332755371E+03  0.62414564991E+03  0.00000000000E+00 0. -1.
         -2    1    5    5    0  503 -0.68788825718E+01 -0.17831913727E+01  0.28322282043E+02  0.29200179059E+02  0.00000000000E+00 0.  1.
         -1    1    6    6    0  502  0.21840531088E+02 -0.10413701744E+03  0.40810624953E+03  0.42174902265E+03  0.00000000000E+00 0.  1.
<mgrwt>
<rscale>  0 0.26325567E+04</rscale>
<asrwt>0</asrwt>
<pdfrwt beam="1">  1        2 0.39023564E+00 0.26325567E+04</pdfrwt>
<pdfrwt beam="2">  1       -2 0.10508527E+00 0.26325567E+04</pdfrwt>
<totfact> 0.21449820E+00</totfact>
</mgrwt>
</event>
<event>
12    1  0.1097093E-007  0.2696350E+04  0.7818608E-02  0.8336190E-01
          2   -1    0    0  501    0  0.00000000000E+00  0.00000000000E+00  0.10635080178E+04  0.10635080178E+04  0.00000000000E+00 0. -1.
         -2   -1    0    0    0  501 -0.00000000000E+00 -0.00000000000E+00 -0.17090377354E+04  0.17090377354E+04  0.00000000000E+00 0.  1.
         23    2    1    2    0    0 -0.19461179243E+03  0.56834202527E+03  0.77499466590E+03  0.98462178683E+03  0.89313624346E+02 0.  0.
        254    2    1    2    0    0  0.19461179243E+03 -0.56834202527E+03 -0.14205243835E+04  0.17879239664E+04  0.90437612633E+03 0.  0.
        -24    2    4    4    0    0  0.22443252393E+02 -0.21135352748E+03  0.74926414322E+02  0.23904784129E+03  0.79723833994E+02 0.  0.
         24    2    4    4    0    0  0.17216854004E+03 -0.35698849779E+03 -0.14954507979E+04  0.15488761251E+04  0.74574582115E+02 0.  0.
         13    1    3    3    0    0 -0.73611606706E+02  0.23757161097E+03  0.39250845088E+03  0.46467388886E+03  0.00000000000E+00 0.  1.
        -13    1    3    3    0    0 -0.12100018572E+03  0.33077041430E+03  0.38248621502E+03  0.51994789797E+03  0.00000000000E+00 0. -1.
          4    1    6    6  502    0 -0.84606046777E+00 -0.50858593013E+02 -0.15893729954E+03  0.16687833139E+03  0.00000000000E+00 0. -1.
          1    1    5    5  503    0  0.20587444801E+02 -0.75765431697E+01  0.15205352505E+02  0.26691752184E+02  0.00000000000E+00 0. -1.
         -2    1    5    5    0  503  0.18558075917E+01 -0.20377698431E+03  0.59721061817E+02  0.21235608911E+03  0.00000000000E+00 0.  1.
         -3    1    6    6    0  502  0.17301460050E+03 -0.30612990477E+03 -0.13365134983E+04  0.13819977937E+04  0.00000000000E+00 0.  1.
<mgrwt>
<rscale>  0 0.26963496E+04</rscale>
<asrwt>0</asrwt>
<pdfrwt beam="1">  1        2 0.16361662E+00 0.26963496E+04</pdfrwt>
<pdfrwt beam="2">  1       -2 0.26292888E+00 0.26963496E+04</pdfrwt>
<totfact> 0.10784573E+00</totfact>
</mgrwt>
</event>
<event>
12    1  0.1533579E-007  0.1596225E+04  0.7818608E-02  0.8822871E-01
         -1   -1    0    0    0  501 -0.00000000000E+00  0.00000000000E+00  0.32709897498E+03  0.32709897498E+03  0.00000000000E+00 0.  1.
          1   -1    0    0  501    0  0.00000000000E+00 -0.00000000000E+00 -0.19473724997E+04  0.19473724997E+04  0.00000000000E+00 0. -1.
         23    2    1    2    0    0 -0.23767123724E+02  0.42297380552E+02 -0.13250358958E+04  0.13292071439E+04  0.93367883473E+02 0.  0.
        254    2    1    2    0    0  0.23767123724E+02 -0.42297380552E+02 -0.29523762892E+03  0.94526433078E+03  0.89666351155E+03 0.  0.
        -24    2    4    4    0    0  0.56377980189E+02 -0.42989266749E+02 -0.61005033339E+03  0.61903455799E+03  0.77561723912E+02 0.  0.
         24    2    4    4    0    0 -0.32610856464E+02  0.69188619770E+00  0.31481270446E+03  0.32622977279E+03  0.79087793608E+02 0.  0.
         11    1    3    3    0    0 -0.28344641995E+02  0.52138655422E+02 -0.13055836860E+04  0.13069317577E+04  0.00000000000E+00 0. -1.
        -11    1    3    3    0    0  0.45775182711E+01 -0.98412748709E+01 -0.19452209814E+02  0.22275386220E+02  0.00000000000E+00 0.  1.
          4    1    6    6  502    0 -0.30956062236E+02  0.32757173650E+02  0.24848485756E+03  0.25253917449E+03  0.00000000000E+00 0. -1.
          3    1    5    5  503    0  0.42455606828E+02 -0.58743273638E+02 -0.31477535915E+03  0.32301203921E+03  0.00000000000E+00 0. -1.
         -4    1    5    5    0  503  0.13922373361E+02  0.15754006888E+02 -0.29527497423E+03  0.29602251878E+03  0.00000000000E+00 0.  1.
         -3    1    6    6    0  502 -0.16547942283E+01 -0.32065287452E+02  0.66327846906E+02  0.73690598305E+02  0.00000000000E+00 0.  1.
<mgrwt>
<rscale>  0 0.15962250E+04</rscale>
<asrwt>0</asrwt>
<pdfrwt beam="1">  1        1 0.29959577E+00 0.15962250E+04</pdfrwt>
<pdfrwt beam="2">  1       -1 0.50322919E-01 0.15962250E+04</pdfrwt>
<totfact> 0.12317034E+01</totfact>
</mgrwt>
</event>
<event>
12    1  0.1097093E-007  0.1697270E+04  0.7818608E-02  0.8762923E-01
          2   -1    0    0  501    0  0.00000000000E+00  0.00000000000E+00  0.21934150791E+04  0.21934150791E+04  0.00000000000E+00 0.  1.
         -2   -1    0    0    0  501 -0.00000000000E+00 -0.00000000000E+00 -0.32833791515E+03  0.32833791515E+03  0.00000000000E+00 0. -1.
         23    2    1    2    0    0 -0.38548835310E+03  0.45574918517E+03  0.51286034794E+03  0.79206668412E+03  0.89639865257E+02 0.  0.
        254    2    1    2    0    0  0.38548835310E+03 -0.45574918517E+03  0.13522168160E+04  0.17296863101E+04  0.89834059453E+03 0.  0.
        -24    2    4    4    0    0 -0.23978809206E+03  0.63887569705E+02  0.35421685991E+03  0.44003161873E+03  0.81106664243E+02 0.  0.
         24    2    4    4    0    0  0.62527644516E+03 -0.51963675487E+03  0.99799995608E+03  0.12896546914E+04  0.78818276876E+02 0.  0.
         11    1    3    3    0    0 -0.22677015157E+03  0.32584090849E+03  0.31110852295E+03  0.50436644649E+03  0.00000000000E+00 0.  1.
        -11    1    3    3    0    0 -0.15871820153E+03  0.12990827668E+03  0.20175182499E+03  0.28770023763E+03  0.00000000000E+00 0. -1.
          2    1    6    6  502    0  0.61639498409E+03 -0.51251347158E+03  0.99525052146E+03  0.12779422661E+04  0.00000000000E+00 0. -1.
          3    1    5    5  503    0 -0.16397835328E+03  0.49359794906E+02  0.17474899775E+03  0.24466814650E+03  0.00000000000E+00 0. -1.
         -4    1    5    5    0  503 -0.75809738780E+02  0.14527774799E+02  0.17946786217E+03  0.19536347224E+03  0.00000000000E+00 0.  1.
         -1    1    6    6    0  502  0.88814610742E+01 -0.71232832987E+01  0.27494346198E+01  0.11712425304E+02  0.00000000000E+00 0.  1.
<mgrwt>
<rscale>  0 0.16972700E+04</rscale>
<asrwt>0</asrwt>
<pdfrwt beam="1">  1        2 0.33744846E+00 0.16972700E+04</pdfrwt>
<pdfrwt beam="2">  1       -2 0.50513527E-01 0.16972700E+04</pdfrwt>
<totfact> 0.18379120E+01</totfact>
</mgrwt>
</event>
<event>
12    1  0.1183068E-007  0.1437840E+04  0.7818608E-02  0.8926875E-01
         -2   -1    0    0    0  501 -0.00000000000E+00  0.00000000000E+00  0.26923437844E+03  0.26923437844E+03  0.00000000000E+00 0.  1.
          2   -1    0    0  501    0  0.00000000000E+00 -0.00000000000E+00 -0.19196872896E+04  0.19196872896E+04  0.00000000000E+00 0. -1.
         23    2    1    2    0    0  0.35477835952E+03  0.14536531571E+03 -0.82151190732E+03  0.91130321451E+03  0.92698303673E+02 0.  0.
        254    2    1    2    0    0 -0.35477835952E+03 -0.14536531571E+03 -0.82894100388E+03  0.12776184536E+04  0.89340190599E+03 0.  0.
        -24    2    4    4    0    0 -0.28759952850E+03  0.34904911493E+03 -0.47585802221E+03  0.66119638308E+03  0.78683074842E+02 0.  0.
         24    2    4    4    0    0 -0.67178831021E+02 -0.49441443064E+03 -0.35308298167E+03  0.61642207050E+03  0.79686589177E+02 0.  0.
         11    1    3    3    0    0  0.21735039567E+02 -0.87034038428E+01 -0.88858474576E+02  0.91891183948E+02  0.00000000000E+00 0.  1.
        -11    1    3    3    0    0  0.33304331995E+03  0.15406871956E+03 -0.73265343275E+03  0.81941203056E+03  0.00000000000E+00 0. -1.
          4    1    6    6  502    0 -0.45541505251E+02 -0.25040430901E+03 -0.13327657518E+03  0.28729600095E+03  0.00000000000E+00 0. -1.
          3    1    5    5  503    0 -0.96074659339E+02  0.14197860542E+03 -0.23111535315E+03  0.28775435883E+03  0.00000000000E+00 0. -1.
         -4    1    5    5    0  503 -0.19152486916E+03  0.20707050951E+03 -0.24474266906E+03  0.37344202425E+03  0.00000000000E+00 0.  1.
         -3    1    6    6    0  502 -0.21637325770E+02 -0.24401012163E+03 -0.21980640648E+03  0.32912606955E+03  0.00000000000E+00 0.  1.
<mgrwt>
<rscale>  0 0.14378398E+04</rscale>
<asrwt>0</asrwt>
<pdfrwt beam="1">  1        2 0.29533650E+00 0.14378398E+04</pdfrwt>
<pdfrwt beam="2">  1       -2 0.41420675E-01 0.14378398E+04</pdfrwt>
<totfact> 0.39698695E+01</totfact>
</mgrwt>
</event>
<event>
12    1  0.1097093E-007  0.1184514E+04  0.7818608E-02  0.9126521E-01
         -2   -1    0    0    0  501 -0.00000000000E+00  0.00000000000E+00  0.26964849238E+03  0.26964849238E+03  0.00000000000E+00 0.  1.
          2   -1    0    0  501    0  0.00000000000E+00 -0.00000000000E+00 -0.13008353510E+04  0.13008353510E+04  0.00000000000E+00 0. -1.
         23    2    1    2    0    0  0.10833052867E+02 -0.21218584627E+03 -0.33440568441E+03  0.40880243673E+03  0.10075754126E+03 0.  0.
        254    2    1    2    0    0 -0.10833052867E+02  0.21218584627E+03 -0.69678117416E+03  0.11616814066E+04  0.90490855748E+03 0.  0.
        -24    2    4    4    0    0 -0.19463939272E+03  0.80158714322E+02  0.15652801130E+03  0.27563873502E+03  0.84650937619E+02 0.  0.
         24    2    4    4    0    0  0.18380633986E+03  0.13202713195E+03 -0.85330918547E+03  0.88604267159E+03  0.75624835402E+02 0.  0.
         13    1    3    3    0    0  0.22043827170E+02 -0.98919640769E+02 -0.24141785015E+03  0.26182743175E+03  0.00000000000E+00 0. -1.
        -13    1    3    3    0    0 -0.11210774302E+02 -0.11326620550E+03 -0.92987834260E+02  0.14697500498E+03  0.00000000000E+00 0.  1.
          4    1    6    6  502    0  0.18455737293E+00  0.48055290591E+01 -0.10479237191E+03  0.10490266146E+03  0.00000000000E+00 0. -1.
          3    1    5    5  503    0 -0.61972890823E+02  0.67444231215E+02  0.45999711653E+02  0.10249554621E+03  0.00000000000E+00 0. -1.
         -4    1    5    5    0  503 -0.13266650190E+03  0.12714483107E+02  0.11052829965E+03  0.17314318881E+03  0.00000000000E+00 0.  1.
         -1    1    6    6    0  502  0.18362178248E+03  0.12722160289E+03 -0.74851681356E+03  0.78114001013E+03  0.00000000000E+00 0.  1.
<mgrwt>
<rscale>  0 0.11845139E+04</rscale>
<asrwt>0</asrwt>
<pdfrwt beam="1">  1        2 0.20012852E+00 0.11845139E+04</pdfrwt>
<pdfrwt beam="2">  1       -2 0.41484383E-01 0.11845139E+04</pdfrwt>
<totfact> 0.89736099E+01</totfact>
</mgrwt>
</event>
<event>
12    1  0.1097093E-007  0.1215433E+04  0.7818608E-02  0.9099454E-01
          2   -1    0    0  501    0  0.00000000000E+00  0.00000000000E+00  0.48114237782E+03  0.48114237782E+03  0.00000000000E+00 0. -1.
         -2   -1    0    0    0  501 -0.00000000000E+00 -0.00000000000E+00 -0.76758838113E+03  0.76758838113E+03  0.00000000000E+00 0.  1.
         23    2    1    2    0    0 -0.57870722195E+02  0.19903189380E+03 -0.23462273662E+03  0.32616299219E+03  0.91497287919E+02 0.  0.
        254    2    1    2    0    0  0.57870722195E+02 -0.19903189380E+03 -0.51823266692E+02  0.92256776676E+03  0.89748700161E+03 0.  0.
        -24    2    4    4    0    0  0.22947531257E+03 -0.50276213929E+03 -0.77303638176E+02  0.56392377968E+03  0.81274159638E+02 0.  0.
         24    2    4    4    0    0 -0.17160459037E+03  0.30373024549E+03  0.25480371484E+02  0.35864398708E+03  0.79221604859E+02 0.  0.
         11    1    3    3    0    0 -0.78385817302E+01  0.77368955557E+02 -0.30942283480E+02  0.83694823941E+02  0.00000000000E+00 0. -1.
        -11    1    3    3    0    0 -0.50032140465E+02  0.12166293824E+03 -0.20368045314E+03  0.24246816825E+03  0.00000000000E+00 0.  1.
          4    1    6    6  502    0 -0.93398705376E+02  0.18619144094E+03  0.52694883346E+02  0.21486582226E+03  0.00000000000E+00 0. -1.
          1    1    5    5  503    0  0.22024811389E+03 -0.50046389394E+03 -0.68669585996E+02  0.55107971552E+03  0.00000000000E+00 0. -1.
         -2    1    5    5    0  503  0.92271986747E+01 -0.22982453495E+01 -0.86340521796E+01  0.12844064159E+02  0.00000000000E+00 0.  1.
         -3    1    6    6    0  502 -0.78205884998E+02  0.11753880455E+03 -0.27214511862E+02  0.14377816482E+03  0.00000000000E+00 0.  1.
<mgrwt>
<rscale>  0 0.12154329E+04</rscale>
<asrwt>0</asrwt>
<pdfrwt beam="1">  1        2 0.74021904E-01 0.12154329E+04</pdfrwt>
<pdfrwt beam="2">  1       -2 0.11809052E+00 0.12154329E+04</pdfrwt>
<totfact> 0.35062870E+01</totfact>
</mgrwt>
</event>
<event>
12    1  0.1097093E-007  0.1366223E+04  0.7818608E-02  0.8978637E-01
         -1   -1    0    0    0  501 -0.00000000000E+00  0.00000000000E+00  0.69814786669E+03  0.69814786669E+03  0.00000000000E+00 0.  1.
          1   -1    0    0  501    0  0.00000000000E+00 -0.00000000000E+00 -0.66839920274E+03  0.66839920274E+03  0.00000000000E+00 0. -1.
         23    2    1    2    0    0  0.24967786540E+02 -0.12859426045E+03  0.35411422154E+03  0.39008740792E+03  0.98037899508E+02 0.  0.
        254    2    1    2    0    0 -0.24967786540E+02  0.12859426045E+03 -0.32436555759E+03  0.97645966151E+03  0.91164718034E+03 0.  0.
        -24    2    4    4    0    0 -0.25425527509E+03  0.23971063029E+02 -0.56131225993E+03  0.62163047146E+03  0.78311130290E+02 0.  0.
         24    2    4    4    0    0  0.22928748855E+03  0.10462319742E+03  0.23694670234E+03  0.35482919005E+03  0.79001572874E+02 0.  0.
         11    1    3    3    0    0 -0.25056269514E+02 -0.82920550704E+02  0.13209314278E+03  0.15796275745E+03  0.00000000000E+00 0. -1.
        -11    1    3    3    0    0  0.50024056054E+02 -0.45673709746E+02  0.22202107875E+03  0.23212465047E+03  0.00000000000E+00 0.  1.
          4    1    6    6  502    0  0.75118130835E+02 -0.40862390072E+01  0.60683953502E+02  0.96653883223E+02  0.00000000000E+00 0. -1.
          3    1    5    5  503    0 -0.17943568237E+03  0.41878988722E+02 -0.33128251960E+03  0.37907666981E+03  0.00000000000E+00 0. -1.
         -4    1    5    5    0  503 -0.74819592717E+02 -0.17907925692E+02 -0.23002974033E+03  0.24255380165E+03  0.00000000000E+00 0.  1.
         -3    1    6    6    0  502  0.15416935772E+03  0.10870943643E+03  0.17626274884E+03  0.25817530682E+03  0.00000000000E+00 0.  1.
<mgrwt>
<rscale>  0 0.13662232E+04</rscale>
<asrwt>0</asrwt>
<pdfrwt beam="1">  1        1 0.10283065E+00 0.13662232E+04</pdfrwt>
<pdfrwt beam="2">  1       -1 0.10740736E+00 0.13662232E+04</pdfrwt>
<totfact> 0.23068385E+01</totfact>
</mgrwt>
</event>
<event>
12    1  0.1097093E-007  0.1514422E+04  0.7818608E-02  0.8874919E-01
         -1   -1    0    0    0  501 -0.00000000000E+00  0.00000000000E+00  0.59995261708E+03  0.59995261708E+03  0.00000000000E+00 0. -1.
          1   -1    0    0  501    0  0.00000000000E+00 -0.00000000000E+00 -0.95568946748E+03  0.95568946748E+03  0.00000000000E+00 0.  1.
         23    2    1    2    0    0  0.25872106754E+03  0.40250372967E+03 -0.45480049438E+02  0.48919067172E+03  0.91067201619E+02 0.  0.
        254    2    1    2    0    0 -0.25872106754E+03 -0.40250372967E+03 -0.31025680096E+03  0.10664514128E+04  0.90117339632E+03 0.  0.
        -24    2    4    4    0    0 -0.20807304098E+03  0.23891413930E+03 -0.25858041038E+03  0.41574172666E+03  0.74853178353E+02 0.  0.
         24    2    4    4    0    0 -0.50648026557E+02 -0.64141786897E+03 -0.51676390579E+02  0.65070968619E+03  0.82283297970E+02 0.  0.
         11    1    3    3    0    0 -0.42354319883E+00 -0.35034102446E+01  0.35926182145E+01  0.50358889799E+01  0.00000000000E+00 0. -1.
        -11    1    3    3    0    0  0.25914461074E+03  0.40600713992E+03 -0.49072667652E+02  0.48415478274E+03  0.00000000000E+00 0.  1.
          4    1    6    6  502    0 -0.36031656893E+01 -0.12189221105E+03  0.21896054485E+02  0.12389564609E+03  0.00000000000E+00 0. -1.
          1    1    5    5  503    0 -0.59575200047E+02  0.42305506032E+02 -0.27876399608E+02  0.78205204151E+02  0.00000000000E+00 0. -1.
         -2    1    5    5    0  503 -0.14849784094E+03  0.19660863327E+03 -0.23070401077E+03  0.33753652251E+03  0.00000000000E+00 0.  1.
         -3    1    6    6    0  502 -0.47044860867E+02 -0.51952565793E+03 -0.73572445063E+02  0.52681404011E+03  0.00000000000E+00 0.  1.
<mgrwt>
<rscale>  0 0.15144219E+04</rscale>
<asrwt>0</asrwt>
<pdfrwt beam="1">  1        1 0.14702915E+00 0.15144219E+04</pdfrwt>
<pdfrwt beam="2">  1       -1 0.92300402E-01 0.15144219E+04</pdfrwt>
<totfact> 0.18105794E+01</totfact>
</mgrwt>
</event>
<event>
12    1  0.1097093E-007  0.3194441E+04  0.7818608E-02  0.8190287E-01
          2   -1    0    0  501    0  0.00000000000E+00  0.00000000000E+00  0.21094878785E+04  0.21094878785E+04  0.00000000000E+00 0.  1.
         -2   -1    0    0    0  501 -0.00000000000E+00 -0.00000000000E+00 -0.12093519449E+04  0.12093519449E+04  0.00000000000E+00 0. -1.
         23    2    1    2    0    0  0.68681412333E+03 -0.12479049959E+04  0.56026897950E+02  0.14283727912E+04  0.90162621795E+02 0.  0.
        254    2    1    2    0    0 -0.68681412333E+03  0.12479049959E+04  0.84410903565E+03  0.18904670322E+04  0.91234040635E+03 0.  0.
        -24    2    4    4    0    0 -0.19794813947E+02  0.22474674690E+02 -0.15219084216E+03  0.17412159201E+03  0.79115932060E+02 0.  0.
         24    2    4    4    0    0 -0.66701930938E+03  0.12254303212E+04  0.99629987781E+03  0.17163454402E+04  0.81449324107E+02 0.  0.
         11    1    3    3    0    0  0.52340034532E+03 -0.99905821441E+03  0.72708877040E+02  0.11301999018E+04  0.00000000000E+00 0. -1.
        -11    1    3    3    0    0  0.16341377801E+03 -0.24884678152E+03 -0.16681979090E+02  0.29817288934E+03  0.00000000000E+00 0.  1.
          2    1    6    6  502    0 -0.40688326468E+03  0.82743259542E+03  0.65073412329E+03  0.11285626213E+04  0.00000000000E+00 0. -1.
          1    1    5    5  503    0 -0.47289412232E+02 -0.59444677271E+00 -0.10187146046E+03  0.11231400773E+03  0.00000000000E+00 0. -1.
         -2    1    5    5    0  503  0.27494598286E+02  0.23069121463E+02 -0.50319381695E+02  0.61807584277E+02  0.00000000000E+00 0.  1.
         -1    1    6    6    0  502 -0.26013604470E+03  0.39799772582E+03  0.34556575452E+03  0.58778281891E+03  0.00000000000E+00 0.  1.
<mgrwt>
<rscale>  0 0.31944410E+04</rscale>
<asrwt>0</asrwt>
<pdfrwt beam="1">  1        2 0.32453660E+00 0.31944410E+04</pdfrwt>
<pdfrwt beam="2">  1       -2 0.18605415E+00 0.31944410E+04</pdfrwt>
<totfact> 0.80594631E-01</totfact>
</mgrwt>
</event>
<event>
12    1  0.1097093E-007  0.4204558E+04  0.7818608E-02  0.7964506E-01
         -1   -1    0    0    0  501 -0.00000000000E+00  0.00000000000E+00  0.21650171679E+04  0.21650171679E+04  0.00000000000E+00 0.  1.
          1   -1    0    0  501    0  0.00000000000E+00 -0.00000000000E+00 -0.20413586802E+04  0.20413586802E+04  0.00000000000E+00 0. -1.
         23    2    1    2    0    0 -0.19042648729E+04  0.50965263610E+03  0.43311718247E+03  0.20204988318E+04  0.94098459213E+02 0.  0.
        254    2    1    2    0    0  0.19042648729E+04 -0.50965263610E+03 -0.30945869472E+03  0.21858770163E+04  0.89236939160E+03 0.  0.
        -24    2    4    4    0    0  0.12487756855E+04 -0.31569820817E+03  0.23053683954E+03  0.13110207003E+04  0.80758721285E+02 0.  0.
         24    2    4    4    0    0  0.65548918742E+03 -0.19395442793E+03 -0.53999553425E+03  0.87485631596E+03  0.80585368628E+02 0.  0.
         11    1    3    3    0    0 -0.34599189664E+03  0.99868870023E+02  0.42868736555E+02  0.36265949913E+03  0.00000000000E+00 0.  1.
        -11    1    3    3    0    0 -0.15582729762E+04  0.40978376608E+03  0.39024844591E+03  0.16578393327E+04  0.00000000000E+00 0. -1.
          4    1    6    6  502    0  0.54805313545E+03 -0.16735641404E+03 -0.48754991713E+03  0.75237977797E+03  0.00000000000E+00 0. -1.
          3    1    5    5  503    0  0.12097349944E+04 -0.29055468412E+03  0.22348503363E+03  0.12640515580E+04  0.00000000000E+00 0. -1.
         -4    1    5    5    0  503  0.39040691063E+02 -0.25143524052E+02  0.70518059095E+01  0.46969142285E+02  0.00000000000E+00 0.  1.
         -1    1    6    6    0  502  0.10743605197E+03 -0.26598013892E+02 -0.52445617122E+02  0.12247653800E+03  0.00000000000E+00 0.  1.
<mgrwt>
<rscale>  0 0.42045578E+04</rscale>
<asrwt>0</asrwt>
<pdfrwt beam="1">  1        1 0.31405518E+00 0.42045578E+04</pdfrwt>
<pdfrwt beam="2">  1       -1 0.33307957E+00 0.42045578E+04</pdfrwt>
<totfact> 0.43197983E-02</totfact>
</mgrwt>
</event>
<event>
12    1  0.1097093E-007  0.1766827E+04  0.7818608E-02  0.8724142E-01
          1   -1    0    0  501    0  0.00000000000E+00  0.00000000000E+00  0.62385760866E+03  0.62385760866E+03  0.00000000000E+00 0. -1.
         -1   -1    0    0    0  501 -0.00000000000E+00 -0.00000000000E+00 -0.12509582828E+04  0.12509582828E+04  0.00000000000E+00 0.  1.
         23    2    1    2    0    0 -0.51658645293E+03  0.24669901627E+03 -0.56357328243E+03  0.80885027071E+03  0.94350133978E+02 0.  0.
        254    2    1    2    0    0  0.51658645293E+03 -0.24669901627E+03 -0.63527391750E+02  0.10659656208E+04  0.89695318008E+03 0.  0.
        -24    2    4    4    0    0 -0.10371379978E+03  0.11321495902E+02 -0.31751073012E+03  0.34363891024E+03  0.79936902337E+02 0.  0.
         24    2    4    4    0    0  0.62030025270E+03 -0.25802051217E+03  0.25398333837E+03  0.72232671056E+03  0.76820260470E+02 0.  0.
         11    1    3    3    0    0 -0.11711099380E+03  0.47158603888E+02 -0.18191770095E+03  0.22143389242E+03  0.00000000000E+00 0. -1.
        -11    1    3    3    0    0 -0.39947545912E+03  0.19954041238E+03 -0.38165558148E+03  0.58741637829E+03  0.00000000000E+00 0.  1.
          2    1    6    6  502    0  0.18026327856E+01 -0.10219485547E+01 -0.40698377880E+01  0.45669950108E+01  0.00000000000E+00 0. -1.
          3    1    5    5  503    0  0.11248714946E+02 -0.81664269874E+00 -0.64380851909E+02  0.65361262119E+02  0.00000000000E+00 0. -1.
         -2    1    5    5    0  503 -0.11496251472E+03  0.12138138601E+02 -0.25312987821E+03  0.27827764812E+03  0.00000000000E+00 0.  1.
         -1    1    6    6    0  502  0.61849761992E+03 -0.25699856361E+03  0.25805317616E+03  0.71775971555E+03  0.00000000000E+00 0.  1.
<mgrwt>
<rscale>  0 0.17668275E+04</rscale>
<asrwt>0</asrwt>
<pdfrwt beam="1">  1        1 0.95978093E-01 0.17668275E+04</pdfrwt>
<pdfrwt beam="2">  1       -1 0.19245512E+00 0.17668275E+04</pdfrwt>
<totfact> 0.51991869E+00</totfact>
</mgrwt>
</event>
<event>
12    1  0.1097093E-007  0.1782038E+04  0.7818608E-02  0.8715910E-01
         -1   -1    0    0    0  501 -0.00000000000E+00  0.00000000000E+00  0.87495828061E+03  0.87495828061E+03  0.00000000000E+00 0.  1.
          1   -1    0    0  501    0  0.00000000000E+00 -0.00000000000E+00 -0.90737462260E+03  0.90737462260E+03  0.00000000000E+00 0. -1.
         23    2    1    2    0    0 -0.61513383807E+02 -0.62674761195E+03  0.18346710700E+03  0.66236220021E+03  0.92016517247E+02 0.  0.
        254    2    1    2    0    0  0.61513383807E+02  0.62674761195E+03 -0.21588344899E+03  0.11199707030E+04  0.90062880620E+03 0.  0.
        -24    2    4    4    0    0  0.44987078498E+03  0.45437031825E+03 -0.16519251540E+02  0.64403624264E+03  0.75323879952E+02 0.  0.
         24    2    4    4    0    0 -0.38835740117E+03  0.17237729370E+03 -0.19936419745E+03  0.47593446035E+03  0.78943808488E+02 0.  0.
         13    1    3    3    0    0 -0.12806773220E+02 -0.69543715114E+02  0.52045555835E+02  0.87801376039E+02  0.00000000000E+00 0. -1.
        -13    1    3    3    0    0 -0.48706610587E+02 -0.55720389683E+03  0.13142155117E+03  0.57456082417E+03  0.00000000000E+00 0.  1.
          4    1    6    6  502    0 -0.16757732130E+03  0.95675051633E+02 -0.52806946189E+02  0.20006110988E+03  0.00000000000E+00 0. -1.
          1    1    5    5  503    0  0.34607742189E+03  0.30178815386E+03 -0.17085160597E+02  0.45949708863E+03  0.00000000000E+00 0. -1.
         -2    1    5    5    0  503  0.10379336309E+03  0.15258216439E+03  0.56590905771E+00  0.18453915401E+03  0.00000000000E+00 0.  1.
         -3    1    6    6    0  502 -0.22078007987E+03  0.76702242070E+02 -0.14655725126E+03  0.27587335047E+03  0.00000000000E+00 0.  1.
<mgrwt>
<rscale>  0 0.17820381E+04</rscale>
<asrwt>0</asrwt>
<pdfrwt beam="1">  1        1 0.13959610E+00 0.17820381E+04</pdfrwt>
<pdfrwt beam="2">  1       -1 0.13460897E+00 0.17820381E+04</pdfrwt>
<totfact> 0.78715638E+00</totfact>
</mgrwt>
</event>
<event>
12    1  0.1097093E-007  0.1338031E+04  0.7818608E-02  0.8999938E-01
         -2   -1    0    0    0  501 -0.00000000000E+00  0.00000000000E+00  0.37444425752E+03  0.37444425752E+03  0.00000000000E+00 0.  1.
          2   -1    0    0  501    0  0.00000000000E+00 -0.00000000000E+00 -0.11953234433E+04  0.11953234433E+04  0.00000000000E+00 0. -1.
         23    2    1    2    0    0 -0.16505028493E+02 -0.29657843535E+03 -0.47329787191E+03  0.56636819149E+03  0.92362700801E+02 0.  0.
        254    2    1    2    0    0  0.16505028493E+02  0.29657843535E+03 -0.34758131382E+03  0.10033995093E+04  0.89317782173E+03 0.  0.
        -24    2    4    4    0    0 -0.18775430312E+03 -0.14987377983E+03  0.15364668537E+03  0.29694246200E+03  0.82787037589E+02 0.  0.
         24    2    4    4    0    0  0.20425933161E+03  0.44645221518E+03 -0.50122799919E+03  0.70645704728E+03  0.82526344256E+02 0.  0.
         13    1    3    3    0    0  0.38251608775E+01 -0.80972361525E+02 -0.63898579623E+02  0.10321910513E+03  0.00000000000E+00 0.  1.
        -13    1    3    3    0    0 -0.20330189370E+02 -0.21560607383E+03 -0.40939929229E+03  0.46314908636E+03  0.00000000000E+00 0. -1.
          2    1    6    6  502    0  0.83287345910E+02  0.26611298053E+03 -0.31173983687E+03  0.41825186943E+03  0.00000000000E+00 0. -1.
          1    1    5    5  503    0 -0.13484704066E+03 -0.13791246059E+03  0.14654397953E+03  0.24223688633E+03  0.00000000000E+00 0. -1.
         -2    1    5    5    0  503 -0.52907262463E+02 -0.11961319234E+02  0.71027058364E+01  0.54705575669E+02  0.00000000000E+00 0.  1.
         -1    1    6    6    0  502  0.12097198570E+03  0.18033923466E+03 -0.18948816232E+03  0.28820517785E+03  0.00000000000E+00 0.  1.
<mgrwt>
<rscale>  0 0.13380314E+04</rscale>
<asrwt>0</asrwt>
<pdfrwt beam="1">  1        2 0.18389591E+00 0.13380314E+04</pdfrwt>
<pdfrwt beam="2">  1       -2 0.57606810E-01 0.13380314E+04</pdfrwt>
<totfact> 0.52589489E+01</totfact>
</mgrwt>
</event>
<event>
12    1  0.1097093E-007  0.1833409E+04  0.7818608E-02  0.8688732E-01
         -2   -1    0    0    0  501 -0.00000000000E+00  0.00000000000E+00  0.60447252155E+03  0.60447252155E+03  0.00000000000E+00 0.  1.
          2   -1    0    0  501    0  0.00000000000E+00 -0.00000000000E+00 -0.13902152739E+04  0.13902152739E+04  0.00000000000E+00 0. -1.
         23    2    1    2    0    0  0.21097435713E+03  0.25900063423E+03  0.36042765634E+03  0.49990184603E+03  0.91663800474E+02 0.  0.
        254    2    1    2    0    0 -0.21097435713E+03 -0.25900063423E+03 -0.11461704087E+04  0.14947859494E+04  0.89949259081E+03 0.  0.
        -24    2    4    4    0    0  0.12508653119E+03 -0.51033768424E+03 -0.61252691699E+03  0.81103321221E+03  0.80588181735E+02 0.  0.
         24    2    4    4    0    0 -0.33606088832E+03  0.25133705000E+03 -0.53364349168E+03  0.68375273720E+03  0.81456712730E+02 0.  0.
         11    1    3    3    0    0  0.60598449695E+02  0.21825208015E+02  0.52021541462E+02  0.82793433233E+02  0.00000000000E+00 0. -1.
        -11    1    3    3    0    0  0.15037590743E+03  0.23717542622E+03  0.30840611487E+03  0.41710841280E+03  0.00000000000E+00 0.  1.
          4    1    6    6  502    0 -0.56263965812E+02  0.44708946947E+02 -0.14735261472E+03  0.16394302929E+03  0.00000000000E+00 0. -1.
          3    1    5    5  503    0  0.13621529453E+02 -0.16944494798E+03 -0.23800812332E+03  0.29248077412E+03  0.00000000000E+00 0. -1.
         -2    1    5    5    0  503  0.11146500173E+03 -0.34089273625E+03 -0.37451879368E+03  0.51855243810E+03  0.00000000000E+00 0.  1.
         -3    1    6    6    0  502 -0.27979692250E+03  0.20662810306E+03 -0.38629087696E+03  0.51980970791E+03  0.00000000000E+00 0.  1.
<mgrwt>
<rscale>  0 0.18334088E+04</rscale>
<asrwt>0</asrwt>
<pdfrwt beam="1">  1        2 0.21387927E+00 0.18334088E+04</pdfrwt>
<pdfrwt beam="2">  1       -2 0.92995774E-01 0.18334088E+04</pdfrwt>
<totfact> 0.13521225E+01</totfact>
</mgrwt>
</event>
<event>
12    1  0.1097093E-007  0.2555423E+04  0.7818608E-02  0.8383502E-01
          2   -1    0    0  501    0  0.00000000000E+00  0.00000000000E+00  0.38350984752E+03  0.38350984752E+03  0.00000000000E+00 0.  1.
         -2   -1    0    0    0  501 -0.00000000000E+00 -0.00000000000E+00 -0.42568588309E+04  0.42568588309E+04  0.00000000000E+00 0. -1.
         23    2    1    2    0    0 -0.84089091680E+03  0.70780770972E+03 -0.20584653543E+04  0.23353386327E+04  0.91856554347E+02 0.  0.
        254    2    1    2    0    0  0.84089091680E+03 -0.70780770972E+03 -0.18148836291E+04  0.23050300458E+04  0.90070618777E+03 0.  0.
        -24    2    4    4    0    0  0.25830866318E+03 -0.43099405832E+03 -0.14973610648E+04  0.15814966610E+04  0.81007941988E+02 0.  0.
         24    2    4    4    0    0  0.58258225362E+03 -0.27681365141E+03 -0.31752256431E+03  0.72353338472E+03  0.81560407835E+02 0.  0.
         13    1    3    3    0    0 -0.44530241349E+03  0.37209331793E+03 -0.98939225531E+03  0.11470155673E+04  0.00000000000E+00 0. -1.
        -13    1    3    3    0    0 -0.39558850332E+03  0.33571439179E+03 -0.10690730989E+04  0.11883230654E+04  0.00000000000E+00 0.  1.
          4    1    6    6  502    0  0.22686143588E+02 -0.31562532394E+02 -0.20134628435E+02  0.43775082229E+02  0.00000000000E+00 0. -1.
          3    1    5    5  503    0  0.15856181885E+03 -0.32208384783E+03 -0.99014822517E+03  0.10532204723E+04  0.00000000000E+00 0. -1.
         -4    1    5    5    0  503  0.99746844337E+02 -0.10891021049E+03 -0.50721283964E+03  0.52827618875E+03  0.00000000000E+00 0.  1.
         -3    1    6    6    0  502  0.55989611003E+03 -0.24525111901E+03 -0.29738793587E+03  0.67975830249E+03  0.00000000000E+00 0.  1.
<mgrwt>
<rscale>  0 0.25554235E+04</rscale>
<asrwt>0</asrwt>
<pdfrwt beam="1">  1        2 0.59001516E-01 0.25554235E+04</pdfrwt>
<pdfrwt beam="2">  1       -2 0.65490135E+00 0.25554235E+04</pdfrwt>
<totfact> 0.23587605E-02</totfact>
</mgrwt>
</event>
<event>
12    1  0.1097093E-007  0.2169432E+04  0.7818608E-02  0.8531260E-01
          1   -1    0    0  501    0  0.00000000000E+00  0.00000000000E+00  0.20907726024E+04  0.20907726024E+04  0.00000000000E+00 0. -1.
         -1   -1    0    0    0  501 -0.00000000000E+00 -0.00000000000E+00 -0.56276292902E+03  0.56276292902E+03  0.00000000000E+00 0.  1.
         23    2    1    2    0    0  0.37825411349E+03  0.21148569806E+03 -0.32401535575E+03  0.54881690739E+03  0.91715169004E+02 0.  0.
        254    2    1    2    0    0 -0.37825411349E+03 -0.21148569806E+03  0.18520250291E+04  0.21047186240E+04  0.90113339909E+03 0.  0.
        -24    2    4    4    0    0 -0.11306197070E+02 -0.20053726659E+03  0.16758393103E+04  0.16897386529E+04  0.80226528689E+02 0.  0.
         24    2    4    4    0    0 -0.36694791642E+03 -0.10948431467E+02  0.17618571881E+03  0.41497997108E+03  0.79977042752E+02 0.  0.
         11    1    3    3    0    0  0.19259874103E+03  0.76926780139E+02 -0.10813689832E+03  0.23389226863E+03  0.00000000000E+00 0. -1.
        -11    1    3    3    0    0  0.18565537245E+03  0.13455891792E+03 -0.21587845743E+03  0.31492463876E+03  0.00000000000E+00 0.  1.
          2    1    6    6  502    0 -0.19300347674E+03  0.32447749933E+02  0.10488864601E+03  0.22204690173E+03  0.00000000000E+00 0. -1.
          3    1    5    5  503    0 -0.14416079429E+02 -0.12367861098E+03  0.70955374137E+03  0.72039623407E+03  0.00000000000E+00 0. -1.
         -4    1    5    5    0  503  0.31098823590E+01 -0.76858655614E+02  0.96628556890E+03  0.96934241885E+03  0.00000000000E+00 0.  1.
         -1    1    6    6    0  502 -0.17394443968E+03 -0.43396181400E+02  0.71297072805E+02  0.19293306934E+03  0.00000000000E+00 0.  1.
<mgrwt>
<rscale>  0 0.21694325E+04</rscale>
<asrwt>0</asrwt>
<pdfrwt beam="1">  1        1 0.32165732E+00 0.21694325E+04</pdfrwt>
<pdfrwt beam="2">  1       -1 0.86578913E-01 0.21694325E+04</pdfrwt>
<totfact> 0.31083284E+00</totfact>
</mgrwt>
</event>
<event>
12    1  0.1097093E-007  0.1696204E+04  0.7818608E-02  0.8763532E-01
          1   -1    0    0  501    0  0.00000000000E+00  0.00000000000E+00  0.17652088822E+04  0.17652088822E+04  0.00000000000E+00 0. -1.
         -1   -1    0    0    0  501 -0.00000000000E+00 -0.00000000000E+00 -0.40747414291E+03  0.40747414291E+03  0.00000000000E+00 0.  1.
         23    2    1    2    0    0  0.44202407218E+03  0.19905270532E+03  0.96349374162E+03  0.10823401341E+04  0.90181571142E+02 0.  0.
        254    2    1    2    0    0 -0.44202407218E+03 -0.19905270532E+03  0.39424099768E+03  0.10903428911E+04  0.89354037176E+03 0.  0.
        -24    2    4    4    0    0  0.16538936628E+03  0.17937557236E+03  0.24723560248E+03  0.35546459834E+03  0.75500987413E+02 0.  0.
         24    2    4    4    0    0 -0.60741343846E+03 -0.37842827768E+03  0.14700539520E+03  0.73487829272E+03  0.79224190284E+02 0.  0.
         13    1    3    3    0    0  0.36760978130E+02  0.16590142632E+02  0.36877694383E+02  0.54649489372E+02  0.00000000000E+00 0.  1.
        -13    1    3    3    0    0  0.40526309405E+03  0.18246256269E+03  0.92661604723E+03  0.10276906447E+04  0.00000000000E+00 0. -1.
          4    1    6    6  502    0 -0.26029024563E+03 -0.12796671497E+03  0.85842935591E+02  0.30248223369E+03  0.00000000000E+00 0. -1.
          1    1    5    5  503    0  0.13689137528E+03  0.16423633870E+03  0.24175013475E+03  0.32273201147E+03  0.00000000000E+00 0. -1.
         -2    1    5    5    0  503  0.28497991003E+02  0.15139233664E+02  0.54854677309E+01  0.32732586872E+02  0.00000000000E+00 0.  1.
         -3    1    6    6    0  502 -0.34712319283E+03 -0.25046156271E+03  0.61162459605E+02  0.43239605903E+03  0.00000000000E+00 0.  1.
<mgrwt>
<rscale>  0 0.16962040E+04</rscale>
<asrwt>0</asrwt>
<pdfrwt beam="1">  1        1 0.27157059E+00 0.16962040E+04</pdfrwt>
<pdfrwt beam="2">  1       -1 0.62688331E-01 0.16962040E+04</pdfrwt>
<totfact> 0.10570256E+01</totfact>
</mgrwt>
</event>
<event>
12    1  0.1097093E-007  0.1553315E+04  0.7818608E-02  0.8849753E-01
          1   -1    0    0  501    0  0.00000000000E+00  0.00000000000E+00  0.10639492242E+04  0.10639492242E+04  0.00000000000E+00 0. -1.
         -1   -1    0    0    0  501 -0.00000000000E+00 -0.00000000000E+00 -0.56694144962E+03  0.56694144962E+03  0.00000000000E+00 0.  1.
         23    2    1    2    0    0 -0.71934003983E+02 -0.44965932769E+03  0.40735942142E+03  0.61777251185E+03  0.91286177900E+02 0.  0.
        254    2    1    2    0    0  0.71934003983E+02  0.44965932769E+03  0.89648353168E+02  0.10131181620E+04  0.90055736685E+03 0.  0.
        -24    2    4    4    0    0  0.32628257081E+03  0.24210562104E+03  0.38483800453E+03  0.56524276764E+03  0.79521373763E+02 0.  0.
         24    2    4    4    0    0 -0.25434856683E+03  0.20755370665E+03 -0.29518965136E+03  0.44787539433E+03  0.75390344129E+02 0.  0.
         11    1    3    3    0    0 -0.35665089167E+02 -0.11485833933E+03  0.15886709820E+03  0.19925659735E+03  0.00000000000E+00 0. -1.
        -11    1    3    3    0    0 -0.36268914816E+02 -0.33480098837E+03  0.24849232321E+03  0.41851591450E+03  0.00000000000E+00 0.  1.
          2    1    6    6  502    0 -0.67995424759E+02  0.24645881217E+02 -0.39459113289E+02  0.82388220460E+02  0.00000000000E+00 0. -1.
          3    1    5    5  503    0  0.35100775501E+02  0.11046717098E+02  0.65776473991E+02  0.75370013468E+02  0.00000000000E+00 0. -1.
         -4    1    5    5    0  503  0.29118179531E+03  0.23105890395E+03  0.31906153053E+03  0.48987275417E+03  0.00000000000E+00 0.  1.
         -1    1    6    6    0  502 -0.18635314207E+03  0.18290782543E+03 -0.25573053807E+03  0.36548717387E+03  0.00000000000E+00 0.  1.
<mgrwt>
<rscale>  0 0.15533151E+04</rscale>
<asrwt>0</asrwt>
<pdfrwt beam="1">  1        1 0.16368450E+00 0.15533151E+04</pdfrwt>
<pdfrwt beam="2">  1       -1 0.87221762E-01 0.15533151E+04</pdfrwt>
<totfact> 0.16835561E+01</totfact>
</mgrwt>
</event>
<event>
12    1  0.1097093E-007  0.2098761E+04  0.7818608E-02  0.8561790E-01
          1   -1    0    0  501    0  0.00000000000E+00  0.00000000000E+00  0.25694033660E+04  0.25694033660E+04  0.00000000000E+00 0. -1.
         -1   -1    0    0    0  501 -0.00000000000E+00 -0.00000000000E+00 -0.42858156271E+03  0.42858156271E+03  0.00000000000E+00 0.  1.
         23    2    1    2    0    0  0.54840262573E+03  0.41226716376E+03  0.14249128110E+03  0.70662334843E+03  0.91121551453E+02 0.  0.
        254    2    1    2    0    0 -0.54840262573E+03 -0.41226716376E+03  0.19983305221E+04  0.22913615802E+04  0.88673748169E+03 0.  0.
        -24    2    4    4    0    0 -0.10441711401E+03  0.86206685636E+02 -0.25125720330E+02  0.15911047876E+03  0.79688871768E+02 0.  0.
         24    2    4    4    0    0 -0.44398551171E+03 -0.49847384939E+03  0.20234562425E+04  0.21322511015E+04  0.80748259301E+02 0.  0.
         13    1    3    3    0    0  0.10558537144E+02  0.24665683525E+02 -0.54071829913E+01  0.27369988642E+02  0.00000000000E+00 0. -1.
        -13    1    3    3    0    0  0.53784408858E+03  0.38760148023E+03  0.14789846409E+03  0.67925335979E+03  0.00000000000E+00 0.  1.
          2    1    6    6  502    0 -0.25253651451E+03 -0.28186859292E+03  0.10183718332E+04  0.10864187892E+04  0.00000000000E+00 0. -1.
          1    1    5    5  503    0 -0.29606151207E+02  0.25923050402E+02  0.28957100950E+02  0.48857368194E+02  0.00000000000E+00 0. -1.
         -2    1    5    5    0  503 -0.74810962804E+02  0.60283635233E+02 -0.54082821279E+02  0.11025311057E+03  0.00000000000E+00 0.  1.
         -1    1    6    6    0  502 -0.19144899720E+03 -0.21660525647E+03  0.10050844092E+04  0.10458323123E+04  0.00000000000E+00 0.  1.
<mgrwt>
<rscale>  0 0.20987605E+04</rscale>
<asrwt>0</asrwt>
<pdfrwt beam="1">  1        1 0.39529282E+00 0.20987605E+04</pdfrwt>
<pdfrwt beam="2">  1       -1 0.65935627E-01 0.20987605E+04</pdfrwt>
<totfact> 0.25999667E+00</totfact>
</mgrwt>
</event>
<event>
12    1  0.1097093E-007  0.3031263E+04  0.7818608E-02  0.8234859E-01
          2   -1    0    0  501    0  0.00000000000E+00  0.00000000000E+00  0.27081330476E+04  0.27081330476E+04  0.00000000000E+00 0. -1.
         -2   -1    0    0    0  501 -0.00000000000E+00 -0.00000000000E+00 -0.84823728462E+03  0.84823728462E+03  0.00000000000E+00 0.  1.
         23    2    1    2    0    0  0.12639503511E+04 -0.30039581580E+02  0.19844127852E+03  0.12829768333E+04  0.90430897956E+02 0.  0.
        254    2    1    2    0    0 -0.12639503511E+04  0.30039581580E+02  0.16614544844E+04  0.22733934989E+04  0.89967445811E+03 0.  0.
        -24    2    4    4    0    0 -0.11456695310E+04 -0.29698801340E+03  0.11708372077E+04  0.16667476269E+04  0.80170632685E+02 0.  0.
         24    2    4    4    0    0 -0.11828082003E+03  0.32702759498E+03  0.49061727677E+03  0.60664587204E+03  0.79852999503E+02 0.  0.
         11    1    3    3    0    0  0.85217792824E+03 -0.20684043203E+02  0.17652904522E+03  0.87051568327E+03  0.00000000000E+00 0.  1.
        -11    1    3    3    0    0  0.41177242283E+03 -0.93555383772E+01  0.21912233292E+02  0.41246115001E+03  0.00000000000E+00 0. -1.
          4    1    6    6  502    0 -0.48189910022E+02  0.23575708145E+03  0.30907851597E+03  0.39170549896E+03  0.00000000000E+00 0. -1.
          3    1    5    5  503    0 -0.11458239788E+04 -0.29811154412E+03  0.11713650841E+04  0.16654966957E+04  0.00000000000E+00 0. -1.
         -2    1    5    5    0  503  0.15444771569E+00  0.11235307174E+01 -0.52787642035E+00  0.12509312071E+01  0.00000000000E+00 0.  1.
         -3    1    6    6    0  502 -0.70090910006E+02  0.91270513531E+02  0.18153876080E+03  0.21494037308E+03  0.00000000000E+00 0.  1.
<mgrwt>
<rscale>  0 0.30312634E+04</rscale>
<asrwt>0</asrwt>
<pdfrwt beam="1">  1        2 0.41663585E+00 0.30312634E+04</pdfrwt>
<pdfrwt beam="2">  1       -2 0.13049805E+00 0.30312634E+04</pdfrwt>
<totfact> 0.96400530E-01</totfact>
</mgrwt>
</event>
<event>
12    1  0.1097093E-007  0.2015427E+04  0.7818608E-02  0.8599442E-01
          1   -1    0    0  501    0  0.00000000000E+00  0.00000000000E+00  0.96255161489E+03  0.96255161489E+03  0.00000000000E+00 0. -1.
         -1   -1    0    0    0  501 -0.00000000000E+00 -0.00000000000E+00 -0.10549946807E+04  0.10549946807E+04  0.00000000000E+00 0.  1.
         23    2    1    2    0    0  0.52201213665E+03  0.25120302948E+03 -0.59465361847E+03  0.83524065023E+03  0.91729957021E+02 0.  0.
        254    2    1    2    0    0 -0.52201213665E+03 -0.25120302948E+03  0.50221055264E+03  0.11823056454E+04  0.90001753708E+03 0.  0.
        -24    2    4    4    0    0  0.68511931048E+02  0.78132017904E+02  0.48384808301E+03  0.50119445514E+03  0.79299542976E+02 0.  0.
         24    2    4    4    0    0 -0.59052406770E+03 -0.32933504738E+03  0.18362469630E+02  0.68111119023E+03  0.79968901442E+02 0.  0.
         11    1    3    3    0    0  0.51851115928E+03  0.24421410716E+03 -0.56589525092E+03  0.80543887878E+03  0.00000000000E+00 0.  1.
        -11    1    3    3    0    0  0.35009773695E+01  0.69889223167E+01 -0.28758367552E+02  0.29801771456E+02  0.00000000000E+00 0. -1.
          2    1    6    6  502    0 -0.78501704604E+02 -0.32731661389E+02 -0.22491600105E+02  0.87975856678E+02  0.00000000000E+00 0. -1.
          1    1    5    5  503    0  0.27408964164E+02  0.65800135488E+02  0.16874052938E+03  0.18317826128E+03  0.00000000000E+00 0. -1.
         -2    1    5    5    0  503  0.41102966884E+02  0.12331882416E+02  0.31510755362E+03  0.31801619387E+03  0.00000000000E+00 0.  1.
         -1    1    6    6    0  502 -0.51202236309E+03 -0.29660338599E+03  0.40854069735E+02  0.59313533355E+03  0.00000000000E+00 0.  1.
<mgrwt>
<rscale>  0 0.20154273E+04</rscale>
<asrwt>0</asrwt>
<pdfrwt beam="1">  1        1 0.14808486E+00 0.20154273E+04</pdfrwt>
<pdfrwt beam="2">  1       -1 0.16230687E+00 0.20154273E+04</pdfrwt>
<totfact> 0.42126905E+00</totfact>
</mgrwt>
</event>
<event>
12    1  0.1097093E-007  0.1401575E+04  0.7818608E-02  0.8952679E-01
          2   -1    0    0  501    0  0.00000000000E+00  0.00000000000E+00  0.99936665093E+03  0.99936665093E+03  0.00000000000E+00 0. -1.
         -2   -1    0    0    0  501 -0.00000000000E+00 -0.00000000000E+00 -0.49141466135E+03  0.49141466135E+03  0.00000000000E+00 0.  1.
         23    2    1    2    0    0 -0.29776793068E+02 -0.26927234593E+03 -0.17058734008E+03  0.33356980358E+03  0.93672405657E+02 0.  0.
        254    2    1    2    0    0  0.29776793068E+02  0.26927234593E+03  0.67853932966E+03  0.11572115087E+04  0.89740102534E+03 0.  0.
        -24    2    4    4    0    0  0.11037885138E+01  0.51738631214E+03  0.11644802963E+03  0.53689751012E+03  0.83719641872E+02 0.  0.
         24    2    4    4    0    0  0.28673004554E+02 -0.24811396621E+03  0.56209130002E+03  0.62031399857E+03  0.80375032470E+02 0.  0.
         11    1    3    3    0    0 -0.20123384545E+02 -0.23578015180E+03 -0.10414731644E+03  0.25854186143E+03  0.00000000000E+00 0.  1.
        -11    1    3    3    0    0 -0.96534085232E+01 -0.33492194129E+02 -0.66440023637E+02  0.75027942158E+02  0.00000000000E+00 0. -1.
          2    1    6    6  502    0 -0.11822388733E+02 -0.15791588208E+03  0.28395678574E+03  0.32512866816E+03  0.00000000000E+00 0. -1.
          1    1    5    5  503    0  0.24829133999E+02  0.47147882655E+03  0.99400424681E+02  0.48248234601E+03  0.00000000000E+00 0. -1.
         -2    1    5    5    0  503 -0.23725345485E+02  0.45907485584E+02  0.17047604954E+02  0.54415164115E+02  0.00000000000E+00 0.  1.
         -1    1    6    6    0  502  0.40495393287E+02 -0.90198084130E+02  0.27813451428E+03  0.29518533041E+03  0.00000000000E+00 0.  1.
<mgrwt>
<rscale>  0 0.14015754E+04</rscale>
<asrwt>0</asrwt>
<pdfrwt beam="1">  1        2 0.15374872E+00 0.14015754E+04</pdfrwt>
<pdfrwt beam="2">  1       -2 0.75602256E-01 0.14015754E+04</pdfrwt>
<totfact> 0.38499727E+01</totfact>
</mgrwt>
</event>
<event>
12    1  0.1097093E-007  0.4281959E+04  0.7818608E-02  0.7949963E-01
         -2   -1    0    0    0  501 -0.00000000000E+00  0.00000000000E+00  0.15543677680E+04  0.15543677680E+04  0.00000000000E+00 0.  1.
          2   -1    0    0  501    0  0.00000000000E+00 -0.00000000000E+00 -0.29489753578E+04  0.29489753578E+04  0.00000000000E+00 0. -1.
         23    2    1    2    0    0 -0.89618470458E+03  0.85549136801E+03  0.10485801435E+04  0.16255580676E+04  0.88916862760E+02 0.  0.
        254    2    1    2    0    0  0.89618470458E+03 -0.85549136801E+03 -0.24431877333E+04  0.28777850581E+04  0.88174147865E+03 0.  0.
        -24    2    4    4    0    0  0.32241978611E+03 -0.85911846967E+03 -0.12650054120E+04  0.15648995772E+04  0.81442807895E+02 0.  0.
         24    2    4    4    0    0  0.57376491847E+03  0.36271016582E+01 -0.11781823213E+04  0.13128854809E+04  0.79595013966E+02 0.  0.
         13    1    3    3    0    0 -0.65971565814E+03  0.68059330500E+03  0.78889950722E+03  0.12332049420E+04  0.00000000000E+00 0.  1.
        -13    1    3    3    0    0 -0.23646904644E+03  0.17489806300E+03  0.25968063627E+03  0.39235312566E+03  0.00000000000E+00 0. -1.
          2    1    6    6  502    0  0.41417142827E+03 -0.11527753296E+02 -0.77093161384E+03  0.87521792389E+03  0.00000000000E+00 0. -1.
          1    1    5    5  503    0  0.71338754273E+01 -0.59163596817E+01 -0.40579748345E+01  0.10117442871E+02  0.00000000000E+00 0. -1.
         -4    1    5    5    0  503  0.31528591068E+03 -0.85320210998E+03 -0.12609474371E+04  0.15547821343E+04  0.00000000000E+00 0.  1.
         -1    1    6    6    0  502  0.15959349020E+03  0.15154854954E+02 -0.40725070747E+03  0.43766755703E+03  0.00000000000E+00 0.  1.
<mgrwt>
<rscale>  0 0.42819585E+04</rscale>
<asrwt>0</asrwt>
<pdfrwt beam="1">  1        2 0.45368851E+00 0.42819585E+04</pdfrwt>
<pdfrwt beam="2">  1       -2 0.23913351E+00 0.42819585E+04</pdfrwt>
<totfact> 0.10831214E-01</totfact>
</mgrwt>
</event>
<event>
12    1  0.1097093E-007  0.3089500E+04  0.7818608E-02  0.8218626E-01
          1   -1    0    0  501    0  0.00000000000E+00  0.00000000000E+00  0.21907054455E+04  0.21907054455E+04  0.00000000000E+00 0. -1.
         -1   -1    0    0    0  501 -0.00000000000E+00 -0.00000000000E+00 -0.10892619440E+04  0.10892619440E+04  0.00000000000E+00 0.  1.
         23    2    1    2    0    0 -0.41424007623E+02  0.12732390467E+04  0.11515013509E+04  0.17210968734E+04  0.11560911777E+03 0.  0.
        254    2    1    2    0    0  0.41424007623E+02 -0.12732390467E+04 -0.50057849368E+02  0.15588705160E+04  0.89706068853E+03 0.  0.
        -24    2    4    4    0    0 -0.37257362050E+02 -0.11703048412E+04  0.26999429766E+03  0.12042977362E+04  0.80215860889E+02 0.  0.
         24    2    4    4    0    0  0.78681369674E+02 -0.10293420554E+03 -0.32005214703E+03  0.35457277981E+03  0.80636658885E+02 0.  0.
         13    1    3    3    0    0 -0.79117666599E+02  0.10260527683E+04  0.92840416304E+03  0.13859935709E+04  0.00000000000E+00 0. -1.
        -13    1    3    3    0    0  0.37693658976E+02  0.24718627843E+03  0.22309718784E+03  0.33510330257E+03  0.00000000000E+00 0.  1.
          2    1    6    6  502    0  0.58017579595E+02 -0.78336129707E+02 -0.13365508491E+03  0.16542753846E+03  0.00000000000E+00 0. -1.
          1    1    5    5  503    0 -0.40819824515E+02 -0.65011711382E+03  0.18536974453E+03  0.67725952333E+03  0.00000000000E+00 0. -1.
         -2    1    5    5    0  503  0.35624624649E+01 -0.52018772738E+03  0.84624553133E+02  0.52703821289E+03  0.00000000000E+00 0.  1.
         -1    1    6    6    0  502  0.20663790079E+02 -0.24598075831E+02 -0.18639706213E+03  0.18914524135E+03  0.00000000000E+00 0.  1.
<mgrwt>
<rscale>  0 0.30894997E+04</rscale>
<asrwt>0</asrwt>
<pdfrwt beam="1">  1        1 0.33703161E+00 0.30894997E+04</pdfrwt>
<pdfrwt beam="2">  1       -1 0.16757876E+00 0.30894997E+04</pdfrwt>
<totfact> 0.47866109E-01</totfact>
</mgrwt>
</event>
<event>
12    1  0.1097093E-007  0.2339974E+04  0.7818608E-02  0.8462325E-01
          2   -1    0    0  501    0  0.00000000000E+00  0.00000000000E+00  0.39258797253E+04  0.39258797253E+04  0.00000000000E+00 0.  1.
         -2   -1    0    0    0  501 -0.00000000000E+00 -0.00000000000E+00 -0.34867840533E+03  0.34867840533E+03  0.00000000000E+00 0. -1.
         23    2    1    2    0    0 -0.72306726645E+03  0.64176868822E+03  0.19593457184E+04  0.21868061482E+04  0.91608759324E+02 0.  0.
        254    2    1    2    0    0  0.72306726645E+03 -0.64176868822E+03  0.16178556016E+04  0.20877519824E+04  0.89808589314E+03 0.  0.
        -24    2    4    4    0    0  0.54076984454E+02  0.23765041708E+02  0.88429074206E+03  0.88999522858E+03  0.81438890947E+02 0.  0.
         24    2    4    4    0    0  0.66899028200E+03 -0.66553372993E+03  0.73356485949E+03  0.11977567538E+04  0.77593138215E+02 0.  0.
         11    1    3    3    0    0 -0.64171188397E+02  0.90979608423E+02  0.25819717155E+03  0.28117789736E+03  0.00000000000E+00 0. -1.
        -11    1    3    3    0    0 -0.65889607805E+03  0.55078907979E+03  0.17011485469E+04  0.19056282509E+04  0.00000000000E+00 0.  1.
          2    1    6    6  502    0  0.60064330899E+03 -0.62003329534E+03  0.65003270137E+03  0.10806276809E+04  0.00000000000E+00 0. -1.
          3    1    5    5  503    0  0.42165662620E+02 -0.17882387406E+02  0.65824166023E+03  0.65983316538E+03  0.00000000000E+00 0. -1.
         -4    1    5    5    0  503  0.11911321834E+02  0.41647429114E+02  0.22604908183E+03  0.23016206320E+03  0.00000000000E+00 0.  1.
         -1    1    6    6    0  502  0.68346973005E+02 -0.45500434590E+02  0.83532158124E+02  0.11712907285E+03  0.00000000000E+00 0.  1.
<mgrwt>
<rscale>  0 0.23399739E+04</rscale>
<asrwt>0</asrwt>
<pdfrwt beam="1">  1        2 0.60398146E+00 0.23399739E+04</pdfrwt>
<pdfrwt beam="2">  1       -2 0.53642834E-01 0.23399739E+04</pdfrwt>
<totfact> 0.11661875E+00</totfact>
</mgrwt>
</event>
<event>
12    1  0.1097093E-007  0.1479218E+04  0.7818608E-02  0.8898392E-01
         -2   -1    0    0    0  501 -0.00000000000E+00  0.00000000000E+00  0.28262924942E+03  0.28262924942E+03  0.00000000000E+00 0.  1.
          2   -1    0    0  501    0  0.00000000000E+00 -0.00000000000E+00 -0.19354727532E+04  0.19354727532E+04  0.00000000000E+00 0. -1.
         23    2    1    2    0    0  0.27284814146E+03  0.36938421825E+03 -0.46807520342E+03  0.66176052801E+03  0.89116729012E+02 0.  0.
        254    2    1    2    0    0 -0.27284814146E+03 -0.36938421825E+03 -0.11847683003E+04  0.15563414746E+04  0.89868350994E+03 0.  0.
        -24    2    4    4    0    0 -0.28738050778E+03  0.19049154191E+03 -0.79204856984E+03  0.86775048056E+03  0.82312670615E+02 0.  0.
         24    2    4    4    0    0  0.14532366317E+02 -0.55987576016E+03 -0.39271973051E+03  0.68859099403E+03  0.79099392127E+02 0.  0.
         11    1    3    3    0    0  0.55795591907E+02  0.52267100119E+02 -0.39238016643E+02  0.85933810466E+02  0.00000000000E+00 0. -1.
        -11    1    3    3    0    0  0.21705254955E+03  0.31711711813E+03 -0.42883718677E+03  0.57582671755E+03  0.00000000000E+00 0.  1.
          2    1    6    6  502    0  0.42231583650E+02 -0.42994392569E+03 -0.28495579195E+03  0.51752786327E+03  0.00000000000E+00 0. -1.
          3    1    5    5  503    0 -0.76150930205E+02  0.19600885073E+02 -0.23827172987E+03  0.25091149062E+03  0.00000000000E+00 0. -1.
         -4    1    5    5    0  503 -0.21122957757E+03  0.17089065684E+03 -0.55377683997E+03  0.61683898995E+03  0.00000000000E+00 0.  1.
         -1    1    6    6    0  502 -0.27699217332E+02 -0.12993183447E+03 -0.10776393856E+03  0.17106313076E+03  0.00000000000E+00 0.  1.
<mgrwt>
<rscale>  0 0.14792176E+04</rscale>
<asrwt>0</asrwt>
<pdfrwt beam="1">  1        2 0.29776504E+00 0.14792176E+04</pdfrwt>
<pdfrwt beam="2">  1       -2 0.43481422E-01 0.14792176E+04</pdfrwt>
<totfact> 0.35228099E+01</totfact>
</mgrwt>
</event>
<event>
12    1  0.1097093E-007  0.1652741E+04  0.7818608E-02  0.8788787E-01
         -2   -1    0    0    0  501 -0.00000000000E+00  0.00000000000E+00  0.90703088855E+03  0.90703088855E+03  0.00000000000E+00 0.  1.
          2   -1    0    0  501    0  0.00000000000E+00 -0.00000000000E+00 -0.75288301851E+03  0.75288301851E+03  0.00000000000E+00 0. -1.
         23    2    1    2    0    0  0.21468103678E+03  0.52267243344E+03 -0.40384608007E+02  0.57814991518E+03  0.11555080110E+03 0.  0.
        254    2    1    2    0    0 -0.21468103678E+03 -0.52267243344E+03  0.19453247805E+03  0.10817639919E+04  0.90171837559E+03 0.  0.
        -24    2    4    4    0    0  0.28024418656E+03 -0.42091516085E+03 -0.50465500174E+02  0.51431640575E+03  0.79172102282E+02 0.  0.
         24    2    4    4    0    0 -0.49492522334E+03 -0.10175727259E+03  0.24499797822E+03  0.56744758613E+03  0.81653134927E+02 0.  0.
         13    1    3    3    0    0  0.12199725944E+03  0.31949956054E+03 -0.80290955058E+02  0.35129750634E+03  0.00000000000E+00 0.  1.
        -13    1    3    3    0    0  0.92683777337E+02  0.20317287290E+03  0.39906347051E+02  0.22685240885E+03  0.00000000000E+00 0. -1.
          2    1    6    6  502    0 -0.30094549802E+03 -0.21160594458E+02  0.13927384193E+03  0.33228476730E+03  0.00000000000E+00 0. -1.
          1    1    5    5  503    0  0.25637027288E+03 -0.41298150339E+03 -0.53301258084E+02  0.48899945099E+03  0.00000000000E+00 0. -1.
         -2    1    5    5    0  503  0.23873913683E+02 -0.79336574616E+01  0.28357579098E+01  0.25316954758E+02  0.00000000000E+00 0.  1.
         -1    1    6    6    0  502 -0.19397972532E+03 -0.80596678133E+02  0.10572413629E+03  0.23516281882E+03  0.00000000000E+00 0.  1.
<mgrwt>
<rscale>  0 0.16527409E+04</rscale>
<asrwt>0</asrwt>
<pdfrwt beam="1">  1        2 0.11582816E+00 0.16527409E+04</pdfrwt>
<pdfrwt beam="2">  1       -2 0.13954321E+00 0.16527409E+04</pdfrwt>
<totfact> 0.12903643E+01</totfact>
</mgrwt>
</event>
<event>
12    1  0.1097093E-007  0.2292719E+04  0.7818608E-02  0.8480797E-01
          2   -1    0    0  501    0  0.00000000000E+00  0.00000000000E+00  0.13982335720E+04  0.13982335720E+04  0.00000000000E+00 0. -1.
         -2   -1    0    0    0  501 -0.00000000000E+00 -0.00000000000E+00 -0.93985726084E+03  0.93985726084E+03  0.00000000000E+00 0.  1.
         23    2    1    2    0    0  0.90593021074E+03 -0.17557869222E+03  0.47315775714E+03  0.10408973371E+04  0.89730593276E+02 0.  0.
        254    2    1    2    0    0 -0.90593021074E+03  0.17557869222E+03 -0.14781445978E+02  0.12971934957E+04  0.91156735919E+03 0.  0.
        -24    2    4    4    0    0 -0.90701246818E+03  0.32237701711E+03  0.23745945885E+03  0.99481461174E+03  0.81673487306E+02 0.  0.
         24    2    4    4    0    0  0.10822574439E+01 -0.14679832489E+03 -0.25224090483E+03  0.30237888400E+03  0.79098646940E+02 0.  0.
         13    1    3    3    0    0  0.58439286555E+03 -0.12795348662E+03  0.35132466329E+03  0.69376951150E+03  0.00000000000E+00 0.  1.
        -13    1    3    3    0    0  0.32153734519E+03 -0.47625205598E+02  0.12183309385E+03  0.34712782561E+03  0.00000000000E+00 0. -1.
          2    1    6    6  502    0  0.32356668301E+02 -0.11086297505E+03 -0.14766417276E+03  0.18746269266E+03  0.00000000000E+00 0. -1.
          1    1    5    5  503    0 -0.84092176096E+03  0.31496364178E+03  0.20626013237E+03  0.92135484256E+03  0.00000000000E+00 0. -1.
         -2    1    5    5    0  503 -0.66090707221E+02  0.74133753241E+01  0.31199326476E+02  0.73459769175E+02  0.00000000000E+00 0.  1.
         -1    1    6    6    0  502 -0.31274410857E+02 -0.35935349836E+02 -0.10457673207E+03  0.11491619134E+03  0.00000000000E+00 0.  1.
<mgrwt>
<rscale>  0 0.22927189E+04</rscale>
<asrwt>0</asrwt>
<pdfrwt beam="1">  1        2 0.21511286E+00 0.22927189E+04</pdfrwt>
<pdfrwt beam="2">  1       -2 0.14459342E+00 0.22927189E+04</pdfrwt>
<totfact> 0.43441215E+00</totfact>
</mgrwt>
</event>
<event>
12    1  0.1097093E-007  0.1682025E+04  0.7818608E-02  0.8771683E-01
          2   -1    0    0  501    0  0.00000000000E+00  0.00000000000E+00  0.10016018605E+04  0.10016018605E+04  0.00000000000E+00 0. -1.
         -2   -1    0    0    0  501 -0.00000000000E+00 -0.00000000000E+00 -0.70617042200E+03  0.70617042200E+03  0.00000000000E+00 0.  1.
         23    2    1    2    0    0  0.10293955604E+02 -0.47594146794E+03  0.47501078859E+03  0.67871112037E+03  0.91582144563E+02 0.  0.
        254    2    1    2    0    0 -0.10293955604E+02  0.47594146794E+03 -0.17957935008E+03  0.10290611621E+04  0.89447855538E+03 0.  0.
        -24    2    4    4    0    0 -0.30341426311E+03  0.56416173333E+03 -0.27063165129E+03  0.69987243995E+03  0.79001677977E+02 0.  0.
         24    2    4    4    0    0  0.29312030750E+03 -0.88220265387E+02  0.91052301202E+02  0.32918872219E+03  0.79827084173E+02 0.  0.
         13    1    3    3    0    0  0.50269401774E+02 -0.30219074120E+03  0.30832314583E+03  0.43463711194E+03  0.00000000000E+00 0. -1.
        -13    1    3    3    0    0 -0.39975446170E+02 -0.17375072674E+03  0.16668764277E+03  0.24407400843E+03  0.00000000000E+00 0.  1.
          2    1    6    6  502    0  0.20074313590E+02 -0.32541841577E+01 -0.13838411463E+02  0.24598158720E+02  0.00000000000E+00 0. -1.
          1    1    5    5  503    0 -0.27751073104E+02  0.52819469476E+02 -0.16043097636E+01  0.59687454494E+02  0.00000000000E+00 0. -1.
         -2    1    5    5    0  503 -0.27566319000E+03  0.51134226385E+03 -0.26902734152E+03  0.64018498546E+03  0.00000000000E+00 0.  1.
         -1    1    6    6    0  502  0.27304599391E+03 -0.84966081229E+02  0.10489071267E+03  0.30459056347E+03  0.00000000000E+00 0.  1.
<mgrwt>
<rscale>  0 0.16820245E+04</rscale>
<asrwt>0</asrwt>
<pdfrwt beam="1">  1        2 0.15409259E+00 0.16820245E+04</pdfrwt>
<pdfrwt beam="2">  1       -2 0.10864160E+00 0.16820245E+04</pdfrwt>
<totfact> 0.16214994E+01</totfact>
</mgrwt>
</event>
<event>
12    1  0.1097093E-007  0.2480749E+04  0.7818608E-02  0.8409876E-01
         -1   -1    0    0    0  501 -0.00000000000E+00  0.00000000000E+00  0.81313738026E+03  0.81313738026E+03  0.00000000000E+00 0.  1.
          1   -1    0    0  501    0  0.00000000000E+00 -0.00000000000E+00 -0.18920897231E+04  0.18920897231E+04  0.00000000000E+00 0. -1.
         23    2    1    2    0    0  0.84749079011E+02  0.10442095157E+04 -0.74043494817E+03  0.12860316606E+04  0.89875472649E+02 0.  0.
        254    2    1    2    0    0 -0.84749079011E+02 -0.10442095157E+04 -0.33851739464E+03  0.14191954427E+04  0.89552540949E+03 0.  0.
        -24    2    4    4    0    0  0.35217174737E+03 -0.34887595291E+03 -0.31721823423E+03  0.59395838250E+03  0.80123541205E+02 0.  0.
         24    2    4    4    0    0 -0.43692082638E+03 -0.69533356280E+03 -0.21299160416E+02  0.82523706020E+03  0.78574672882E+02 0.  0.
         11    1    3    3    0    0 -0.74914966939E+01  0.76458496082E+02 -0.32371936709E+02  0.83366458676E+02  0.00000000000E+00 0.  1.
        -11    1    3    3    0    0  0.92240575705E+02  0.96775101962E+03 -0.70806301146E+03  0.12026652019E+04  0.00000000000E+00 0. -1.
          4    1    6    6  502    0 -0.43843281652E+03 -0.69646683569E+03 -0.21859428976E+02  0.82326619174E+03  0.00000000000E+00 0. -1.
          3    1    5    5  503    0  0.31332100420E+03 -0.32578975969E+03 -0.31023712111E+03  0.54822996133E+03  0.00000000000E+00 0. -1.
         -4    1    5    5    0  503  0.38850743168E+02 -0.23086193220E+02 -0.69811131195E+01  0.45728421167E+02  0.00000000000E+00 0.  1.
         -3    1    6    6    0  502  0.15119901386E+01  0.11332728979E+01  0.56026856038E+00  0.19708684634E+01  0.00000000000E+00 0.  1.
<mgrwt>
<rscale>  0 0.24807490E+04</rscale>
<asrwt>0</asrwt>
<pdfrwt beam="1">  1        1 0.29109072E+00 0.24807490E+04</pdfrwt>
<pdfrwt beam="2">  1       -1 0.12509806E+00 0.24807490E+04</pdfrwt>
<totfact> 0.17530404E+00</totfact>
</mgrwt>
</event>
<event>
12    1  0.1097093E-007  0.1621311E+04  0.7818608E-02  0.8807562E-01
         -1   -1    0    0    0  501 -0.00000000000E+00  0.00000000000E+00  0.13987079688E+04  0.13987079688E+04  0.00000000000E+00 0.  1.
          1   -1    0    0  501    0  0.00000000000E+00 -0.00000000000E+00 -0.46983527340E+03  0.46983527340E+03  0.00000000000E+00 0. -1.
         23    2    1    2    0    0  0.23120526415E+03 -0.43427874143E+03  0.57743417292E+03  0.76408449902E+03  0.91329065233E+02 0.  0.
        254    2    1    2    0    0 -0.23120526415E+03  0.43427874143E+03  0.35143852248E+03  0.11044587432E+04  0.92426521134E+03 0.  0.
        -24    2    4    4    0    0 -0.34129711651E+03  0.53864753454E+03 -0.72990556346E+02  0.64668875486E+03  0.79081199737E+02 0.  0.
         24    2    4    4    0    0  0.11009185235E+03 -0.10436879311E+03  0.42442907882E+03  0.45776998832E+03  0.80001614539E+02 0.  0.
         13    1    3    3    0    0  0.23333284267E+03 -0.39737103288E+03  0.51125986902E+03  0.68828381276E+03  0.00000000000E+00 0.  1.
        -13    1    3    3    0    0 -0.21275785117E+01 -0.36907708549E+02  0.66174303896E+02  0.75800686255E+02  0.00000000000E+00 0. -1.
          4    1    6    6  502    0  0.10985443149E+03 -0.11197669319E+03  0.35739254815E+03  0.39030271509E+03  0.00000000000E+00 0. -1.
          1    1    5    5  503    0 -0.32188451856E+03  0.52630810244E+03 -0.58964369186E+02  0.61974725398E+03  0.00000000000E+00 0. -1.
         -2    1    5    5    0  503 -0.19412597949E+02  0.12339432095E+02 -0.14026187159E+02  0.26941500882E+02  0.00000000000E+00 0.  1.
         -3    1    6    6    0  502  0.23742086704E+00  0.76079000839E+01  0.67036530679E+02  0.67467273235E+02  0.00000000000E+00 0.  1.
<mgrwt>
<rscale>  0 0.16213110E+04</rscale>
<asrwt>0</asrwt>
<pdfrwt beam="1">  1        1 0.72282350E-01 0.16213110E+04</pdfrwt>
<pdfrwt beam="2">  1       -1 0.21518584E+00 0.16213110E+04</pdfrwt>
<totfact> 0.54828465E+00</totfact>
</mgrwt>
</event>
<event>
12    1  0.1097093E-007  0.1821413E+04  0.7818608E-02  0.8694994E-01
          1   -1    0    0  501    0  0.00000000000E+00  0.00000000000E+00  0.81656682735E+03  0.81656682735E+03  0.00000000000E+00 0. -1.
         -1   -1    0    0    0  501 -0.00000000000E+00 -0.00000000000E+00 -0.10156995775E+04  0.10156995775E+04  0.00000000000E+00 0.  1.
         23    2    1    2    0    0 -0.14140877267E+03  0.16838735744E+01 -0.75194522321E+03  0.77010734942E+03  0.87432456767E+02 0.  0.
        254    2    1    2    0    0  0.14140877267E+03 -0.16838735744E+01  0.55281247307E+03  0.10621590554E+04  0.89586882534E+03 0.  0.
        -24    2    4    4    0    0 -0.27435497601E+03 -0.44532061882E+02  0.56724621468E+03  0.63645088456E+03  0.77766978785E+02 0.  0.
         24    2    4    4    0    0  0.41576374868E+03  0.42848188307E+02 -0.14433741608E+02  0.42570817086E+03  0.79521392635E+02 0.  0.
         13    1    3    3    0    0 -0.13720646517E+03 -0.16243431548E+02 -0.72083155826E+03  0.73395340352E+03  0.00000000000E+00 0.  1.
        -13    1    3    3    0    0 -0.42023074994E+01  0.17927305123E+02 -0.31113664954E+02  0.36153945900E+02  0.00000000000E+00 0. -1.
          4    1    6    6  502    0  0.83349491331E+01 -0.15573909143E+01 -0.13409427130E+02  0.15865357842E+02  0.00000000000E+00 0. -1.
          3    1    5    5  503    0 -0.33401716064E+02 -0.18479518424E+02  0.14147271722E+03  0.14653223862E+03  0.00000000000E+00 0. -1.
         -4    1    5    5    0  503 -0.24095325994E+03 -0.26052543458E+02  0.42577349746E+03  0.48991864594E+03  0.00000000000E+00 0.  1.
         -3    1    6    6    0  502  0.40742879954E+03  0.44405579222E+02 -0.10243144785E+01  0.40984281302E+03  0.00000000000E+00 0.  1.
<mgrwt>
<rscale>  0 0.18214133E+04</rscale>
<asrwt>0</asrwt>
<pdfrwt beam="1">  1        1 0.12562567E+00 0.18214133E+04</pdfrwt>
<pdfrwt beam="2">  1       -1 0.15626147E+00 0.18214133E+04</pdfrwt>
<totfact> 0.62874396E+00</totfact>
</mgrwt>
</event>
<event>
12    1  0.1409794E-007  0.1840824E+04  0.7818608E-02  0.8684886E-01
         -1   -1    0    0    0  501 -0.00000000000E+00  0.00000000000E+00  0.93354846749E+03  0.93354846749E+03  0.00000000000E+00 0.  1.
          1   -1    0    0  501    0  0.00000000000E+00 -0.00000000000E+00 -0.90746006310E+03  0.90746006310E+03  0.00000000000E+00 0. -1.
         23    2    1    2    0    0 -0.31350688757E+03  0.43034444422E+03 -0.43235933512E+03  0.69190597136E+03  0.91194129777E+02 0.  0.
        254    2    1    2    0    0  0.31350688757E+03 -0.43034444422E+03  0.45844773951E+03  0.11491025592E+04  0.90927413499E+03 0.  0.
        -24    2    4    4    0    0  0.39801017493E+02  0.27385346574E+03  0.18159238669E+03  0.34049324272E+03  0.79874975686E+02 0.  0.
         24    2    4    4    0    0  0.27370587007E+03 -0.70419790996E+03  0.27685535283E+03  0.80860931652E+03  0.79940857318E+02 0.  0.
         11    1    3    3    0    0 -0.17822920113E+03  0.29677158405E+03 -0.31789758434E+03  0.46999776102E+03  0.00000000000E+00 0. -1.
        -11    1    3    3    0    0 -0.13527768644E+03  0.13357286018E+03 -0.11446175078E+03  0.22190821034E+03  0.00000000000E+00 0.  1.
          2    1    6    6  502    0  0.24707443702E+03 -0.62658097047E+03  0.27207376281E+03  0.72641146907E+03  0.00000000000E+00 0. -1.
          1    1    5    5  503    0  0.32184835693E+02  0.27719153427E+03  0.17202194847E+03  0.32781482742E+03  0.00000000000E+00 0. -1.
         -2    1    5    5    0  503  0.76161817997E+01 -0.33380685327E+01  0.95704382169E+01  0.12678415295E+02  0.00000000000E+00 0.  1.
         -1    1    6    6    0  502  0.26631433050E+02 -0.77616939497E+02  0.47815900125E+01  0.82197847455E+02  0.00000000000E+00 0.  1.
<mgrwt>
<rscale>  0 0.18408237E+04</rscale>
<asrwt>0</asrwt>
<pdfrwt beam="1">  1        1 0.13960924E+00 0.18408237E+04</pdfrwt>
<pdfrwt beam="2">  1       -1 0.14362284E+00 0.18408237E+04</pdfrwt>
<totfact> 0.66123527E+00</totfact>
</mgrwt>
</event>
<event>
12    1  0.1097093E-007  0.2558077E+04  0.7818608E-02  0.8382583E-01
         -1   -1    0    0    0  501 -0.00000000000E+00  0.00000000000E+00  0.15893014665E+04  0.15893014665E+04  0.00000000000E+00 0.  1.
          1   -1    0    0  501    0  0.00000000000E+00 -0.00000000000E+00 -0.10293447382E+04  0.10293447382E+04  0.00000000000E+00 0. -1.
         23    2    1    2    0    0  0.98108781042E+03 -0.32766162587E+03  0.68712314151E+03  0.12451885906E+04  0.91983594668E+02 0.  0.
        254    2    1    2    0    0 -0.98108781042E+03  0.32766162587E+03 -0.12716641322E+03  0.13734576142E+04  0.89460554912E+03 0.  0.
        -24    2    4    4    0    0 -0.19369230814E+03  0.17705220211E+03  0.34399822481E+03  0.44036900566E+03  0.82011523411E+02 0.  0.
         24    2    4    4    0    0 -0.78739550228E+03  0.15060942376E+03 -0.47116463802E+03  0.93308860854E+03  0.77352179789E+02 0.  0.
         13    1    3    3    0    0  0.62166998731E+03 -0.19093854213E+03  0.48101157037E+03  0.80889012283E+03  0.00000000000E+00 0. -1.
        -13    1    3    3    0    0  0.35941782311E+03 -0.13672308375E+03  0.20611157114E+03  0.43629846775E+03  0.00000000000E+00 0.  1.
          2    1    6    6  502    0 -0.44268405347E+03  0.45834299612E+02 -0.25472410045E+03  0.51279071908E+03  0.00000000000E+00 0. -1.
          3    1    5    5  503    0 -0.11323450781E+03  0.57444878041E+02  0.19787673937E+03  0.23511097753E+03  0.00000000000E+00 0. -1.
         -4    1    5    5    0  503 -0.80457800331E+02  0.11960732407E+03  0.14612148543E+03  0.20525802813E+03  0.00000000000E+00 0.  1.
         -1    1    6    6    0  502 -0.34471144881E+03  0.10477512415E+03 -0.21644053757E+03  0.42029788946E+03  0.00000000000E+00 0.  1.
<mgrwt>
<rscale>  0 0.25580767E+04</rscale>
<asrwt>0</asrwt>
<pdfrwt beam="1">  1        1 0.15836073E+00 0.25580767E+04</pdfrwt>
<pdfrwt beam="2">  1       -1 0.24450792E+00 0.25580767E+04</pdfrwt>
<totfact> 0.96101495E-01</totfact>
</mgrwt>
</event>
<event>
12    1  0.1097093E-007  0.4194794E+04  0.7818608E-02  0.7966363E-01
          1   -1    0    0  501    0  0.00000000000E+00  0.00000000000E+00  0.17347157022E+04  0.17347157022E+04  0.00000000000E+00 0. -1.
         -1   -1    0    0    0  501 -0.00000000000E+00 -0.00000000000E+00 -0.25359052548E+04  0.25359052548E+04  0.00000000000E+00 0.  1.
         23    2    1    2    0    0  0.12610992215E+02  0.32249966029E+03  0.16269674561E+04  0.16611742804E+04  0.91169177106E+02 0.  0.
        254    2    1    2    0    0 -0.12610992215E+02 -0.32249966029E+03 -0.24281570087E+04  0.26094466766E+04  0.89950010062E+03 0.  0.
        -24    2    4    4    0    0 -0.20503931621E+03  0.23288057178E+03 -0.12491842604E+04  0.12896693460E+04  0.80692154086E+02 0.  0.
         24    2    4    4    0    0  0.19242832400E+03 -0.55538023206E+03 -0.11789727483E+04  0.13197773306E+04  0.79747093964E+02 0.  0.
         13    1    3    3    0    0 -0.14226638332E+02  0.13573692730E+03  0.48977720232E+03  0.50843742839E+03  0.00000000000E+00 0.  1.
        -13    1    3    3    0    0  0.26837630547E+02  0.18676273299E+03  0.11371902538E+04  0.11527368521E+04  0.00000000000E+00 0. -1.
          2    1    6    6  502    0  0.52207550910E+02 -0.27107356429E+03 -0.56070034856E+03  0.62497310862E+03  0.00000000000E+00 0. -1.
          3    1    5    5  503    0 -0.19418548213E+03  0.23726120690E+03 -0.11647037605E+04  0.12043818877E+04  0.00000000000E+00 0. -1.
         -4    1    5    5    0  503 -0.10853834088E+02 -0.43806351228E+01 -0.84480499905E+02  0.85287458296E+02  0.00000000000E+00 0.  1.
         -1    1    6    6    0  502  0.14022077309E+03 -0.28430666777E+03 -0.61827239979E+03  0.69480422198E+03  0.00000000000E+00 0.  1.
<mgrwt>
<rscale>  0 0.41947942E+04</rscale>
<asrwt>0</asrwt>
<pdfrwt beam="1">  1        1 0.26687934E+00 0.41947942E+04</pdfrwt>
<pdfrwt beam="2">  1       -1 0.39013927E+00 0.41947942E+04</pdfrwt>
<totfact> 0.29019980E-02</totfact>
</mgrwt>
</event>
<event>
12    1  0.1097093E-007  0.1894356E+04  0.7818608E-02  0.8657671E-01
         -2   -1    0    0    0  501 -0.00000000000E+00  0.00000000000E+00  0.63019560726E+03  0.63019560726E+03  0.00000000000E+00 0.  1.
          2   -1    0    0  501    0  0.00000000000E+00 -0.00000000000E+00 -0.14235987980E+04  0.14235987980E+04  0.00000000000E+00 0. -1.
         23    2    1    2    0    0 -0.16393481386E+03 -0.33384233299E+03  0.38455786308E+03  0.54274835285E+03  0.91464189559E+02 0.  0.
        254    2    1    2    0    0  0.16393481386E+03  0.33384233299E+03 -0.11779610538E+04  0.15110460524E+04  0.87025433162E+03 0.  0.
        -24    2    4    4    0    0  0.12111947981E+02  0.59799034875E+03 -0.59513763118E+03  0.84759927182E+03  0.80601296906E+02 0.  0.
         24    2    4    4    0    0  0.15182286588E+03 -0.26414801576E+03 -0.58282342266E+03  0.66344678061E+03  0.87487895524E+02 0.  0.
         11    1    3    3    0    0 -0.39961916962E+02 -0.48121263168E+02  0.25818881557E+02  0.67669974294E+02  0.00000000000E+00 0. -1.
        -11    1    3    3    0    0 -0.12397289689E+03 -0.28572106982E+03  0.35873898152E+03  0.47507837856E+03  0.00000000000E+00 0.  1.
          4    1    6    6  502    0  0.12614768912E+03 -0.16566126923E+03 -0.45233238965E+03  0.49795731375E+03  0.00000000000E+00 0. -1.
          3    1    5    5  503    0  0.27229055765E+02  0.33987162104E+03 -0.28968427132E+03  0.44740486957E+03  0.00000000000E+00 0. -1.
         -4    1    5    5    0  503 -0.15117107785E+02  0.25811872772E+03 -0.30545335986E+03  0.40019440225E+03  0.00000000000E+00 0.  1.
         -3    1    6    6    0  502  0.25675176757E+02 -0.98486746533E+02 -0.13049103301E+03  0.16548946686E+03  0.00000000000E+00 0.  1.
<mgrwt>
<rscale>  0 0.18943555E+04</rscale>
<asrwt>0</asrwt>
<pdfrwt beam="1">  1        2 0.21901520E+00 0.18943555E+04</pdfrwt>
<pdfrwt beam="2">  1       -2 0.96953172E-01 0.18943555E+04</pdfrwt>
<totfact> 0.11680648E+01</totfact>
</mgrwt>
</event>
<event>
12    1  0.1097093E-007  0.1451110E+04  0.7818608E-02  0.8917631E-01
          1   -1    0    0  501    0  0.00000000000E+00  0.00000000000E+00  0.45316814637E+03  0.45316814637E+03  0.00000000000E+00 0. -1.
         -1   -1    0    0    0  501 -0.00000000000E+00 -0.00000000000E+00 -0.11616664913E+04  0.11616664913E+04  0.00000000000E+00 0.  1.
         23    2    1    2    0    0  0.42639768716E+03  0.30222824006E+02 -0.11094265756E+03  0.45171242857E+03  0.94907524179E+02 0.  0.
        254    2    1    2    0    0 -0.42639768716E+03 -0.30222824006E+02 -0.59755568741E+03  0.11631222092E+04  0.90169399863E+03 0.  0.
        -24    2    4    4    0    0  0.23154509879E+03 -0.64592751526E+01 -0.40364438168E+03  0.47199338642E+03  0.78702699773E+02 0.  0.
         24    2    4    4    0    0 -0.65794278595E+03 -0.23763548854E+02 -0.19391130573E+03  0.69112882274E+03  0.81265240405E+02 0.  0.
         13    1    3    3    0    0  0.51915969770E+02  0.17661438390E+02 -0.45696400558E+02  0.71381757804E+02  0.00000000000E+00 0.  1.
        -13    1    3    3    0    0  0.37448171739E+03  0.12561385617E+02 -0.65246257003E+02  0.38033067076E+03  0.00000000000E+00 0. -1.
          4    1    6    6  502    0 -0.16792859932E+03 -0.30221374451E+02 -0.77680522401E+02  0.18747695726E+03  0.00000000000E+00 0. -1.
          3    1    5    5  503    0  0.27318656828E+02 -0.13462607167E+02 -0.11073773072E+03  0.11484944845E+03  0.00000000000E+00 0. -1.
         -4    1    5    5    0  503  0.20422644196E+03  0.70033320140E+01 -0.29290665096E+03  0.35714393797E+03  0.00000000000E+00 0.  1.
         -3    1    6    6    0  502 -0.49001418663E+03  0.64578255969E+01 -0.11623078333E+03  0.50365186548E+03  0.00000000000E+00 0.  1.
<mgrwt>
<rscale>  0 0.14511103E+04</rscale>
<asrwt>0</asrwt>
<pdfrwt beam="1">  1        1 0.69718177E-01 0.14511103E+04</pdfrwt>
<pdfrwt beam="2">  1       -1 0.17871792E+00 0.14511103E+04</pdfrwt>
<totfact> 0.10469355E+01</totfact>
</mgrwt>
</event>
<event>
12    1  0.1097093E-007  0.1828600E+04  0.7818608E-02  0.8691237E-01
         -1   -1    0    0    0  501 -0.00000000000E+00  0.00000000000E+00  0.59637726349E+03  0.59637726349E+03  0.00000000000E+00 0.  1.
          1   -1    0    0  501    0  0.00000000000E+00 -0.00000000000E+00 -0.14017035758E+04  0.14017035758E+04  0.00000000000E+00 0. -1.
         23    2    1    2    0    0 -0.16305694320E+03  0.45419836736E+03 -0.84340167492E+03  0.97747544582E+03  0.10605724056E+03 0.  0.
        254    2    1    2    0    0  0.16305694320E+03 -0.45419836736E+03  0.38075362617E+02  0.10206053935E+04  0.89849981207E+03 0.  0.
        -24    2    4    4    0    0  0.46037300479E+03 -0.49779408623E+03 -0.81294457083E+02  0.68777011912E+03  0.81711028470E+02 0.  0.
         24    2    4    4    0    0 -0.29731606159E+03  0.43595718870E+02  0.11936981970E+03  0.33283527434E+03  0.78947696655E+02 0.  0.
         11    1    3    3    0    0 -0.96074048711E+02  0.12256765703E+03 -0.26043663939E+03  0.30344735379E+03  0.00000000000E+00 0.  1.
        -11    1    3    3    0    0 -0.66982894492E+02  0.33163071033E+03 -0.58296503553E+03  0.67402809202E+03  0.00000000000E+00 0. -1.
          4    1    6    6  502    0 -0.10386121647E+03 -0.10929503271E+02  0.70450522087E+02  0.12597572143E+03  0.00000000000E+00 0. -1.
          1    1    5    5  503    0  0.63593112146E+02 -0.76066675811E+02 -0.41123183682E+02  0.10733750192E+03  0.00000000000E+00 0. -1.
         -2    1    5    5    0  503  0.39677989265E+03 -0.42172741042E+03 -0.40171273402E+02  0.58043261721E+03  0.00000000000E+00 0.  1.
         -3    1    6    6    0  502 -0.19345484512E+03  0.54525222142E+02  0.48919297613E+02  0.20685955291E+03  0.00000000000E+00 0.  1.
<mgrwt>
<rscale>  0 0.18285996E+04</rscale>
<asrwt>0</asrwt>
<pdfrwt beam="1">  1        1 0.21564670E+00 0.18285996E+04</pdfrwt>
<pdfrwt beam="2">  1       -1 0.91750351E-01 0.18285996E+04</pdfrwt>
<totfact> 0.83474856E+00</totfact>
</mgrwt>
</event>
<event>
12    1  0.1097093E-007  0.1598957E+04  0.7818608E-02  0.8821189E-01
         -1   -1    0    0    0  501 -0.00000000000E+00  0.00000000000E+00  0.63007139201E+03  0.63007139201E+03  0.00000000000E+00 0.  1.
          1   -1    0    0  501    0  0.00000000000E+00 -0.00000000000E+00 -0.10144336616E+04  0.10144336616E+04  0.00000000000E+00 0. -1.
         23    2    1    2    0    0  0.43994450101E+03 -0.18392996730E+03  0.12654365407E+03  0.50144250515E+03  0.89721194509E+02 0.  0.
        254    2    1    2    0    0 -0.43994450101E+03  0.18392996730E+03 -0.51090592364E+03  0.11430625484E+04  0.90453619606E+03 0.  0.
        -24    2    4    4    0    0  0.22277652739E+03  0.16398996252E+03  0.22188753193E+02  0.28877684696E+03  0.79860112745E+02 0.  0.
         24    2    4    4    0    0 -0.66272102840E+03  0.19940004782E+02 -0.53309467683E+03  0.85428570147E+03  0.77571644336E+02 0.  0.
         11    1    3    3    0    0  0.17181602412E+03 -0.71724022478E+02  0.46097224951E+01  0.18624266720E+03  0.00000000000E+00 0.  1.
        -11    1    3    3    0    0  0.26812847689E+03 -0.11220594482E+03  0.12193393157E+03  0.31519983795E+03  0.00000000000E+00 0. -1.
          2    1    6    6  502    0 -0.27804281071E+03 -0.28752819865E+02 -0.21136419793E+03  0.35044165478E+03  0.00000000000E+00 0. -1.
          1    1    5    5  503    0  0.21859603171E+03  0.17222162924E+03  0.24163541862E+02  0.27933562503E+03  0.00000000000E+00 0. -1.
         -4    1    5    5    0  503  0.41804956836E+01 -0.82316667219E+01 -0.19747886694E+01  0.94412219267E+01  0.00000000000E+00 0.  1.
         -1    1    6    6    0  502 -0.38467821769E+03  0.48692824648E+02 -0.32173047890E+03  0.50384404670E+03  0.00000000000E+00 0.  1.
<mgrwt>
<rscale>  0 0.15989567E+04</rscale>
<asrwt>0</asrwt>
<pdfrwt beam="1">  1        1 0.15606672E+00 0.15989567E+04</pdfrwt>
<pdfrwt beam="2">  1       -1 0.96934061E-01 0.15989567E+04</pdfrwt>
<totfact> 0.14478858E+01</totfact>
</mgrwt>
</event>
<event>
12    1  0.1097093E-007  0.3100060E+04  0.7818608E-02  0.8215721E-01
          2   -1    0    0  501    0  0.00000000000E+00  0.00000000000E+00  0.25412574490E+04  0.25412574490E+04  0.00000000000E+00 0.  1.
         -2   -1    0    0    0  501 -0.00000000000E+00 -0.00000000000E+00 -0.94543499520E+03  0.94543499520E+03  0.00000000000E+00 0. -1.
         23    2    1    2    0    0 -0.99516538953E+03 -0.43828579582E+03  0.17507098145E+04  0.20629669036E+04  0.91646055642E+02 0.  0.
        254    2    1    2    0    0  0.99516538953E+03  0.43828579582E+03 -0.15488736069E+03  0.14237255406E+04  0.90584531189E+03 0.  0.
        -24    2    4    4    0    0  0.11065407110E+04  0.44268435910E+03 -0.29135414966E+03  0.12293898212E+04  0.78168439332E+02 0.  0.
         24    2    4    4    0    0 -0.11137532152E+03 -0.43985632864E+01  0.13646678897E+03  0.19433571939E+03  0.81971810625E+02 0.  0.
         13    1    3    3    0    0 -0.62531778158E+03 -0.28149766537E+03  0.11853842937E+04  0.13694521486E+04  0.00000000000E+00 0. -1.
        -13    1    3    3    0    0 -0.36984760795E+03 -0.15678813045E+03  0.56532552078E+03  0.69351475500E+03  0.00000000000E+00 0.  1.
          2    1    6    6  502    0 -0.60885007960E+02 -0.36324632777E+02  0.41522532431E+02  0.82161936687E+02  0.00000000000E+00 0. -1.
          3    1    5    5  503    0  0.45318254212E+03  0.18192446135E+03 -0.79925246009E+02  0.49483226559E+03  0.00000000000E+00 0. -1.
         -4    1    5    5    0  503  0.65335816893E+03  0.26075989775E+03 -0.21142890365E+03  0.73455755559E+03  0.00000000000E+00 0.  1.
         -1    1    6    6    0  502 -0.50490313560E+02  0.31926069490E+02  0.94944256542E+02  0.11217378271E+03  0.00000000000E+00 0.  1.
<mgrwt>
<rscale>  0 0.31000605E+04</rscale>
<asrwt>0</asrwt>
<pdfrwt beam="1">  1        2 0.39096268E+00 0.31000605E+04</pdfrwt>
<pdfrwt beam="2">  1       -2 0.14545154E+00 0.31000605E+04</pdfrwt>
<totfact> 0.90871889E-01</totfact>
</mgrwt>
</event>
<event>
12    1  0.1097093E-007  0.1424819E+04  0.7818608E-02  0.8936047E-01
          2   -1    0    0  501    0  0.00000000000E+00  0.00000000000E+00  0.17811478462E+04  0.17811478462E+04  0.00000000000E+00 0. -1.
         -2   -1    0    0    0  501 -0.00000000000E+00 -0.00000000000E+00 -0.28494401055E+03  0.28494401055E+03  0.00000000000E+00 0.  1.
         23    2    1    2    0    0  0.39827130619E+03  0.44119768649E+02  0.61175503065E+03  0.73755109960E+03  0.95764396720E+02 0.  0.
        254    2    1    2    0    0 -0.39827130619E+03 -0.44119768649E+02  0.88444880496E+03  0.13285407571E+04  0.90675480003E+03 0.  0.
        -24    2    4    4    0    0  0.23375316199E+03 -0.26269703890E+02  0.56081579253E+03  0.61346585220E+03  0.80593799896E+02 0.  0.
         24    2    4    4    0    0 -0.63202446819E+03 -0.17850064760E+02  0.32363301243E+03  0.71507490490E+03  0.82584742470E+02 0.  0.
         11    1    3    3    0    0  0.37772951955E+03  0.55126133003E+02  0.53421873834E+03  0.65658825825E+03  0.00000000000E+00 0.  1.
        -11    1    3    3    0    0  0.20541786643E+02 -0.11006364354E+02  0.77536292311E+02  0.80962841354E+02  0.00000000000E+00 0. -1.
          2    1    6    6  502    0 -0.20834672614E+03  0.22713526198E+02  0.13666899741E+03  0.25020527057E+03  0.00000000000E+00 0. -1.
          3    1    5    5  503    0  0.68641278591E+02 -0.12907587530E+02  0.26891562459E+03  0.27783780177E+03  0.00000000000E+00 0. -1.
         -4    1    5    5    0  503  0.16511188340E+03 -0.13362116360E+02  0.29190016794E+03  0.33562805043E+03  0.00000000000E+00 0.  1.
         -1    1    6    6    0  502 -0.42367774204E+03 -0.40563590958E+02  0.18696401502E+03  0.46486963433E+03  0.00000000000E+00 0.  1.
<mgrwt>
<rscale>  0 0.14248192E+04</rscale>
<asrwt>0</asrwt>
<pdfrwt beam="1">  1        2 0.27402274E+00 0.14248192E+04</pdfrwt>
<pdfrwt beam="2">  1       -2 0.43837541E-01 0.14248192E+04</pdfrwt>
<totfact> 0.42377550E+01</totfact>
</mgrwt>
</event>
<event>
12    1  0.1097093E-007  0.1880605E+04  0.7818608E-02  0.8664571E-01
         -2   -1    0    0    0  501 -0.00000000000E+00  0.00000000000E+00  0.67965498213E+03  0.67965498213E+03  0.00000000000E+00 0.  1.
          2   -1    0    0  501    0  0.00000000000E+00 -0.00000000000E+00 -0.13009084336E+04  0.13009084336E+04  0.00000000000E+00 0. -1.
         23    2    1    2    0    0  0.13125873120E+03 -0.27789833980E+03 -0.92737566692E+03  0.98146802609E+03  0.93795079068E+02 0.  0.
        254    2    1    2    0    0 -0.13125873120E+03  0.27789833980E+03  0.30612221541E+03  0.99909538969E+03  0.90001358054E+03 0.  0.
        -24    2    4    4    0    0 -0.17839460527E+03  0.58838312082E+03  0.26114559439E+03  0.67272598085E+03  0.79648551667E+02 0.  0.
         24    2    4    4    0    0  0.47135874073E+02 -0.31048478102E+03  0.44976621020E+02  0.32636940884E+03  0.76625744488E+02 0.  0.
         11    1    3    3    0    0  0.13429447639E+03 -0.25289822804E+03 -0.89913577323E+03  0.94363004342E+03  0.00000000000E+00 0. -1.
        -11    1    3    3    0    0 -0.30357451885E+01 -0.25000111766E+02 -0.28239893686E+02  0.37837982670E+02  0.00000000000E+00 0.  1.
          4    1    6    6  502    0  0.22014853746E+02 -0.22177041068E+03 -0.20432236252E+01  0.22286979069E+03  0.00000000000E+00 0. -1.
          1    1    5    5  503    0 -0.17319961825E+03  0.58919072422E+03  0.26145441245E+03  0.66745953215E+03  0.00000000000E+00 0. -1.
         -2    1    5    5    0  503 -0.51949870179E+01 -0.80760339161E+00 -0.30881806060E+00  0.52664487037E+01  0.00000000000E+00 0.  1.
         -3    1    6    6    0  502  0.25121020326E+02 -0.88714370340E+02  0.47019844645E+02  0.10349961815E+03  0.00000000000E+00 0.  1.
<mgrwt>
<rscale>  0 0.18806051E+04</rscale>
<asrwt>0</asrwt>
<pdfrwt beam="1">  1        2 0.20013976E+00 0.18806051E+04</pdfrwt>
<pdfrwt beam="2">  1       -2 0.10456231E+00 0.18806051E+04</pdfrwt>
<totfact> 0.11501575E+01</totfact>
</mgrwt>
</event>
<event>
12    1  0.1097093E-007  0.1365721E+04  0.7818608E-02  0.8979012E-01
          1   -1    0    0  501    0  0.00000000000E+00  0.00000000000E+00  0.23856413676E+04  0.23856413676E+04  0.00000000000E+00 0. -1.
         -1   -1    0    0    0  501 -0.00000000000E+00 -0.00000000000E+00 -0.19546029677E+03  0.19546029677E+03  0.00000000000E+00 0.  1.
         23    2    1    2    0    0 -0.10734059528E+03  0.22937926175E+03  0.11731818364E+04  0.12032930283E+04  0.86148950105E+02 0.  0.
        254    2    1    2    0    0  0.10734059528E+03 -0.22937926175E+03  0.10169992345E+04  0.13778086361E+04  0.89438937027E+03 0.  0.
        -24    2    4    4    0    0 -0.24493669481E+03 -0.43669683588E+03  0.63176496476E+03  0.81014489573E+03  0.80682528759E+02 0.  0.
         24    2    4    4    0    0  0.35227729009E+03  0.20731757413E+03  0.38523426971E+03  0.56766374036E+03  0.82199841251E+02 0.  0.
         13    1    3    3    0    0 -0.73159268734E+02  0.60519842899E+02  0.44318787126E+03  0.45324432619E+03  0.00000000000E+00 0.  1.
        -13    1    3    3    0    0 -0.34181326545E+02  0.16885941886E+03  0.72999396513E+03  0.75004870212E+03  0.00000000000E+00 0. -1.
          2    1    6    6  502    0  0.16483007976E+03  0.14193251669E+03  0.18279231050E+03  0.28412466149E+03  0.00000000000E+00 0. -1.
          1    1    5    5  503    0 -0.26909639053E+02 -0.11641497829E+02  0.40884625437E+02  0.50311089660E+02  0.00000000000E+00 0. -1.
         -2    1    5    5    0  503 -0.21802705576E+03 -0.42505533806E+03  0.59088033932E+03  0.75983380607E+03  0.00000000000E+00 0.  1.
         -1    1    6    6    0  502  0.18744721034E+03  0.65385057437E+02  0.20244195921E+03  0.28353907887E+03  0.00000000000E+00 0.  1.
<mgrwt>
<rscale>  0 0.13657206E+04</rscale>
<asrwt>0</asrwt>
<pdfrwt beam="1">  1        1 0.36702173E+00 0.13657206E+04</pdfrwt>
<pdfrwt beam="2">  1       -1 0.30070817E-01 0.13657206E+04</pdfrwt>
<totfact> 0.16196304E+01</totfact>
</mgrwt>
</event>
<event>
12    1  0.1097093E-007  0.1342087E+04  0.7818608E-02  0.8996840E-01
          1   -1    0    0  501    0  0.00000000000E+00  0.00000000000E+00  0.71643036714E+03  0.71643036714E+03  0.00000000000E+00 0. -1.
         -1   -1    0    0    0  501 -0.00000000000E+00 -0.00000000000E+00 -0.62853149063E+03  0.62853149063E+03  0.00000000000E+00 0.  1.
         23    2    1    2    0    0  0.82449777262E+02  0.32181743119E+03  0.16833271036E+03  0.38388565071E+03  0.93101378377E+02 0.  0.
        254    2    1    2    0    0 -0.82449777262E+02 -0.32181743119E+03 -0.80433833853E+02  0.96107620706E+03  0.89823908251E+03 0.  0.
        -24    2    4    4    0    0  0.16864447861E+03 -0.41736922539E+03 -0.34697304578E+03  0.57387558138E+03  0.79403135589E+02 0.  0.
         24    2    4    4    0    0 -0.25109425587E+03  0.95551794200E+02  0.26653921192E+03  0.38720062568E+03  0.81870033140E+02 0.  0.
         13    1    3    3    0    0  0.61009655950E+02  0.13675631231E+03  0.32257609053E+02  0.15318296386E+03  0.00000000000E+00 0.  1.
        -13    1    3    3    0    0  0.21440121312E+02  0.18506111888E+03  0.13607510131E+03  0.23070268685E+03  0.00000000000E+00 0. -1.
          2    1    6    6  502    0 -0.11082669481E+03  0.32444813732E+02  0.61349990497E+02  0.13076331119E+03  0.00000000000E+00 0. -1.
          3    1    5    5  503    0  0.63556313598E+02 -0.18869788827E+03 -0.10656072844E+03  0.22583508780E+03  0.00000000000E+00 0. -1.
         -2    1    5    5    0  503  0.10508816501E+03 -0.22867133712E+03 -0.24041231734E+03  0.34804049358E+03  0.00000000000E+00 0.  1.
         -1    1    6    6    0  502 -0.14026756106E+03  0.63106980468E+02  0.20518922143E+03  0.25643731448E+03  0.00000000000E+00 0.  1.
<mgrwt>
<rscale>  0 0.13420865E+04</rscale>
<asrwt>0</asrwt>
<pdfrwt beam="1">  1        1 0.11022006E+00 0.13420865E+04</pdfrwt>
<pdfrwt beam="2">  1       -1 0.96697152E-01 0.13420865E+04</pdfrwt>
<totfact> 0.26507925E+01</totfact>
</mgrwt>
</event>
<event>
12    1  0.1097093E-007  0.1135992E+04  0.7818608E-02  0.9170805E-01
          2   -1    0    0  501    0  0.00000000000E+00  0.00000000000E+00  0.22022578982E+04  0.22022578982E+04  0.00000000000E+00 0. -1.
         -2   -1    0    0    0  501 -0.00000000000E+00 -0.00000000000E+00 -0.14649478030E+03  0.14649478030E+03  0.00000000000E+00 0.  1.
         23    2    1    2    0    0 -0.10770706039E+03  0.10763874983E+03  0.63699868279E+03  0.66137452816E+03  0.91989310815E+02 0.  0.
        254    2    1    2    0    0  0.10770706039E+03 -0.10763874983E+03  0.14187644351E+04  0.16873781503E+04  0.90064731640E+03 0.  0.
        -24    2    4    4    0    0  0.10972308027E+03 -0.12886536637E+03  0.15342020126E+04  0.15455533611E+04  0.79460302310E+02 0.  0.
         24    2    4    4    0    0 -0.20160198707E+01  0.21226616536E+02 -0.11543757750E+03  0.14182478920E+03  0.79585193014E+02 0.  0.
         13    1    3    3    0    0 -0.11938878879E+03  0.85345477771E+02  0.59091132132E+03  0.60886264718E+03  0.00000000000E+00 0. -1.
        -13    1    3    3    0    0  0.11681728394E+02  0.22293272061E+02  0.46087361467E+02  0.52511880983E+02  0.00000000000E+00 0.  1.
          2    1    6    6  502    0  0.62210950043E+01 -0.11682054048E+02 -0.10570781550E+03  0.10653316229E+03  0.00000000000E+00 0. -1.
          1    1    5    5  503    0  0.12233149767E+03 -0.11275490279E+03  0.13460724923E+04  0.13563147931E+04  0.00000000000E+00 0. -1.
         -2    1    5    5    0  503 -0.12608417403E+02 -0.16110463577E+02  0.18812952025E+03  0.18923856799E+03  0.00000000000E+00 0.  1.
         -1    1    6    6    0  502 -0.82371148749E+01  0.32908670584E+02 -0.97297619931E+01  0.35291626904E+02  0.00000000000E+00 0.  1.
<mgrwt>
<rscale>  0 0.11359917E+04</rscale>
<asrwt>0</asrwt>
<pdfrwt beam="1">  1        2 0.33880888E+00 0.11359917E+04</pdfrwt>
<pdfrwt beam="2">  1       -2 0.22537660E-01 0.11359917E+04</pdfrwt>
<totfact> 0.88553341E+01</totfact>
</mgrwt>
</event>
<event>
12    1  0.1112946E-007  0.1515971E+04  0.7818608E-02  0.8873901E-01
          2   -1    0    0  501    0  0.00000000000E+00  0.00000000000E+00  0.67417813665E+03  0.67417813665E+03  0.00000000000E+00 0. -1.
         -2   -1    0    0    0  501 -0.00000000000E+00 -0.00000000000E+00 -0.85221140730E+03  0.85221140730E+03  0.00000000000E+00 0.  1.
         23    2    1    2    0    0  0.45359816927E+02 -0.47835693882E+03 -0.10533879320E+03  0.50023725303E+03  0.90874496159E+02 0.  0.
        254    2    1    2    0    0 -0.45359816927E+02  0.47835693882E+03 -0.72694477448E+02  0.10261522909E+04  0.90378159044E+03 0.  0.
        -24    2    4    4    0    0  0.18150401231E+03  0.23754097784E+03 -0.43210191613E+03  0.53140969926E+03  0.79465589443E+02 0.  0.
         24    2    4    4    0    0 -0.22686382924E+03  0.24081596099E+03  0.35940743869E+03  0.49474259167E+03  0.78339012904E+02 0.  0.
         11    1    3    3    0    0  0.15211757261E+02 -0.36425338077E+03 -0.11378873290E+03  0.38191595764E+03  0.00000000000E+00 0. -1.
        -11    1    3    3    0    0  0.30148059666E+02 -0.11410355805E+03  0.84499397060E+01  0.11832129539E+03  0.00000000000E+00 0.  1.
          2    1    6    6  502    0 -0.51834391130E+02  0.54743868271E+02  0.38744119311E+02  0.84763211350E+02  0.00000000000E+00 0. -1.
          3    1    5    5  503    0  0.47646230314E+02  0.35023035725E+02 -0.13748748133E+03  0.14966490509E+03  0.00000000000E+00 0. -1.
         -4    1    5    5    0  503  0.13385778200E+03  0.20251794211E+03 -0.29461443480E+03  0.38174479417E+03  0.00000000000E+00 0.  1.
         -1    1    6    6    0  502 -0.17502943811E+03  0.18607209271E+03  0.32066331937E+03  0.40997938032E+03  0.00000000000E+00 0.  1.
<mgrwt>
<rscale>  0 0.15159714E+04</rscale>
<asrwt>0</asrwt>
<pdfrwt beam="1">  1        2 0.10371971E+00 0.15159714E+04</pdfrwt>
<pdfrwt beam="2">  1       -2 0.13110945E+00 0.15159714E+04</pdfrwt>
<totfact> 0.17615928E+01</totfact>
</mgrwt>
</event>
<event>
12    1  0.1097093E-007  0.1462547E+04  0.7818608E-02  0.8909748E-01
         -2   -1    0    0    0  501 -0.00000000000E+00  0.00000000000E+00  0.26106991285E+03  0.26106991285E+03  0.00000000000E+00 0.  1.
          2   -1    0    0  501    0  0.00000000000E+00 -0.00000000000E+00 -0.20483435520E+04  0.20483435520E+04  0.00000000000E+00 0. -1.
         23    2    1    2    0    0 -0.25946005374E+03  0.28684989674E+03 -0.20948262958E+03  0.44880836638E+03  0.89126847222E+02 0.  0.
        254    2    1    2    0    0  0.25946005374E+03 -0.28684989674E+03 -0.15777910095E+04  0.18606050984E+04  0.90709673123E+03 0.  0.
        -24    2    4    4    0    0 -0.33145539399E+03 -0.13461240264E+03 -0.50511379222E+03  0.62385349747E+03  0.77910628745E+02 0.  0.
         24    2    4    4    0    0  0.59091544774E+03 -0.15223749410E+03 -0.10726772173E+04  0.12367516010E+04  0.80998697169E+02 0.  0.
         11    1    3    3    0    0 -0.14058175808E+03  0.13861881523E+03 -0.57910662916E+02  0.20574754317E+03  0.00000000000E+00 0. -1.
        -11    1    3    3    0    0 -0.11887829566E+03  0.14823108150E+03 -0.15157196666E+03  0.24306082321E+03  0.00000000000E+00 0.  1.
          2    1    6    6  502    0  0.30532643737E+03 -0.12035199653E+03 -0.56847785348E+03  0.65641138497E+03  0.00000000000E+00 0. -1.
          3    1    5    5  503    0 -0.22359196937E+03 -0.57247733258E+02 -0.35539816571E+03  0.42376706800E+03  0.00000000000E+00 0. -1.
         -4    1    5    5    0  503 -0.10786342462E+03 -0.77364669383E+02 -0.14971562651E+03  0.20008642948E+03  0.00000000000E+00 0.  1.
         -1    1    6    6    0  502  0.28558901037E+03 -0.31885497567E+02 -0.50419936384E+03  0.58034021599E+03  0.00000000000E+00 0.  1.
<mgrwt>
<rscale>  0 0.14625469E+04</rscale>
<asrwt>0</asrwt>
<pdfrwt beam="1">  1        2 0.31512979E+00 0.14625469E+04</pdfrwt>
<pdfrwt beam="2">  1       -2 0.40164601E-01 0.14625469E+04</pdfrwt>
<totfact> 0.35716089E+01</totfact>
</mgrwt>
</event>
<event>
12    1  0.1097093E-007  0.2247815E+04  0.7818608E-02  0.8498786E-01
         -2   -1    0    0    0  501 -0.00000000000E+00  0.00000000000E+00  0.12492472532E+04  0.12492472532E+04  0.00000000000E+00 0.  1.
          2   -1    0    0  501    0  0.00000000000E+00 -0.00000000000E+00 -0.10111430929E+04  0.10111430929E+04  0.00000000000E+00 0. -1.
         23    2    1    2    0    0 -0.45412298149E+03  0.70437436590E+03 -0.33274506992E+03  0.90629022205E+03  0.90949191181E+02 0.  0.
        254    2    1    2    0    0  0.45412298149E+03 -0.70437436590E+03  0.57084923027E+03  0.13541001241E+04  0.89741148456E+03 0.  0.
        -24    2    4    4    0    0  0.49048070005E+03 -0.45988888136E+03  0.77073830265E+03  0.10259665152E+04  0.80626663768E+02 0.  0.
         24    2    4    4    0    0 -0.36357718553E+02 -0.24448548454E+03 -0.19988907238E+03  0.32813360881E+03  0.81369454500E+02 0.  0.
         13    1    3    3    0    0 -0.68799089872E+02  0.80391174142E+02 -0.71836278257E+02  0.12789255850E+03  0.00000000000E+00 0.  1.
        -13    1    3    3    0    0 -0.38532389162E+03  0.62398319176E+03 -0.26090879166E+03  0.77839766355E+03  0.00000000000E+00 0. -1.
          4    1    6    6  502    0 -0.29042370874E+02 -0.49726694233E+02 -0.15037402493E+02  0.59517450375E+02  0.00000000000E+00 0. -1.
          1    1    5    5  503    0  0.31129125112E+03 -0.24442172204E+03  0.42151544422E+03  0.57820367601E+03  0.00000000000E+00 0. -1.
         -2    1    5    5    0  503  0.17918944892E+03 -0.21546715932E+03  0.34922285843E+03  0.44776283924E+03  0.00000000000E+00 0.  1.
         -3    1    6    6    0  502 -0.73153476793E+01 -0.19475879031E+03 -0.18485166989E+03  0.26861615844E+03  0.00000000000E+00 0.  1.
<mgrwt>
<rscale>  0 0.22478147E+04</rscale>
<asrwt>0</asrwt>
<pdfrwt beam="1">  1        2 0.15556047E+00 0.22478147E+04</pdfrwt>
<pdfrwt beam="2">  1       -2 0.19219189E+00 0.22478147E+04</pdfrwt>
<totfact> 0.33796573E+00</totfact>
</mgrwt>
</event>
<event>
12    1  0.1097093E-007  0.1305767E+04  0.7818608E-02  0.9025005E-01
          2   -1    0    0  501    0  0.00000000000E+00  0.00000000000E+00  0.10695776230E+04  0.10695776230E+04  0.00000000000E+00 0. -1.
         -2   -1    0    0    0  501 -0.00000000000E+00 -0.00000000000E+00 -0.39852804650E+03  0.39852804650E+03  0.00000000000E+00 0.  1.
         23    2    1    2    0    0 -0.20197358535E+03  0.12764861875E+03  0.46136389637E+03  0.52748666052E+03  0.91093540396E+02 0.  0.
        254    2    1    2    0    0  0.20197358535E+03 -0.12764861875E+03  0.20968568014E+03  0.94061900899E+03  0.88527314235E+03 0.  0.
        -24    2    4    4    0    0  0.14342893231E+03 -0.17296994775E+03 -0.32049288757E+03  0.39952203187E+03  0.80073101088E+02 0.  0.
         24    2    4    4    0    0  0.58544653040E+02  0.45321329000E+02  0.53017856772E+03  0.54109697712E+03  0.78836068631E+02 0.  0.
         13    1    3    3    0    0 -0.97395751729E+02  0.82350352487E+02  0.15572060534E+03  0.20128690951E+03  0.00000000000E+00 0. -1.
        -13    1    3    3    0    0 -0.10457783363E+03  0.45298266266E+02  0.30564329102E+03  0.32619975101E+03  0.00000000000E+00 0.  1.
          2    1    6    6  502    0  0.76578898929E+02  0.27936273356E+02  0.36209051670E+03  0.37115267131E+03  0.00000000000E+00 0. -1.
          1    1    5    5  503    0  0.11063235371E+03 -0.13868315188E+03 -0.29847056922E+03  0.34721350059E+03  0.00000000000E+00 0. -1.
         -2    1    5    5    0  503  0.32796578600E+02 -0.34286795877E+02 -0.22022318354E+02  0.52308531283E+02  0.00000000000E+00 0.  1.
         -1    1    6    6    0  502 -0.18034245889E+02  0.17385055643E+02  0.16808805101E+03  0.16994430581E+03  0.00000000000E+00 0.  1.
<mgrwt>
<rscale>  0 0.13057667E+04</rscale>
<asrwt>0</asrwt>
<pdfrwt beam="1">  1        2 0.16455040E+00 0.13057667E+04</pdfrwt>
<pdfrwt beam="2">  1       -2 0.61312008E-01 0.13057667E+04</pdfrwt>
<totfact> 0.55158784E+01</totfact>
</mgrwt>
</event>
<event>
12    1  0.1097093E-007  0.1665991E+04  0.7818608E-02  0.8781002E-01
         -1   -1    0    0    0  501 -0.00000000000E+00  0.00000000000E+00  0.13808022473E+04  0.13808022473E+04  0.00000000000E+00 0.  1.
          1   -1    0    0  501    0  0.00000000000E+00 -0.00000000000E+00 -0.50252076021E+03  0.50252076021E+03  0.00000000000E+00 0. -1.
         23    2    1    2    0    0  0.34306059311E+03 -0.26989542454E+03 -0.12123002871E+03  0.46197002721E+03  0.90473617402E+02 0.  0.
        254    2    1    2    0    0 -0.34306059311E+03  0.26989542454E+03  0.99951151584E+03  0.14213529803E+04  0.91142027279E+03 0.  0.
        -24    2    4    4    0    0  0.27346415860E+02  0.17319718952E+02 -0.15617148562E+03  0.17920930394E+03  0.81722962345E+02 0.  0.
         24    2    4    4    0    0 -0.37040700897E+03  0.25257570559E+03  0.11556830015E+04  0.12421436764E+04  0.79510210545E+02 0.  0.
         11    1    3    3    0    0  0.63248247429E+02 -0.92161238055E+02 -0.52226675018E+02  0.12337609244E+03  0.00000000000E+00 0.  1.
        -11    1    3    3    0    0  0.27981234568E+03 -0.17773418649E+03 -0.69003353697E+02  0.33859393477E+03  0.00000000000E+00 0. -1.
          4    1    6    6  502    0 -0.30596813682E+03  0.16819803676E+03  0.88582389938E+03  0.95215075541E+03  0.00000000000E+00 0. -1.
          1    1    5    5  503    0  0.48773709629E+01  0.30025520855E+02 -0.14947951676E+03  0.15254326135E+03  0.00000000000E+00 0. -1.
         -2    1    5    5    0  503  0.22469044897E+02 -0.12705801903E+02 -0.66919688534E+01  0.26666042596E+02  0.00000000000E+00 0.  1.
         -3    1    6    6    0  502 -0.64438872155E+02  0.84377668836E+02  0.26985910207E+03  0.28999292097E+03  0.00000000000E+00 0.  1.
<mgrwt>
<rscale>  0 0.16659914E+04</rscale>
<asrwt>0</asrwt>
<pdfrwt beam="1">  1        1 0.77310887E-01 0.16659914E+04</pdfrwt>
<pdfrwt beam="2">  1       -1 0.21243111E+00 0.16659914E+04</pdfrwt>
<totfact> 0.51978983E+00</totfact>
</mgrwt>
</event>
<event>
12    1  0.1097093E-007  0.1616416E+04  0.7818608E-02  0.8810526E-01
         -2   -1    0    0    0  501 -0.00000000000E+00  0.00000000000E+00  0.73493555498E+03  0.73493555498E+03  0.00000000000E+00 0.  1.
          2   -1    0    0  501    0  0.00000000000E+00 -0.00000000000E+00 -0.88878520755E+03  0.88878520755E+03  0.00000000000E+00 0. -1.
         23    2    1    2    0    0 -0.42278086394E+03 -0.34629171308E+03 -0.11817469264E+03  0.56750444559E+03  0.97130985371E+02 0.  0.
        254    2    1    2    0    0  0.42278086394E+03  0.34629171308E+03 -0.35674959934E+02  0.10562163169E+04  0.90313819316E+03 0.  0.
        -24    2    4    4    0    0 -0.18235654984E+03 -0.13541009733E+03 -0.13064503498E+03  0.27242402181E+03  0.74544729960E+02 0.  0.
         24    2    4    4    0    0  0.60513741378E+03  0.48170181041E+03  0.94970075045E+02  0.78379229513E+03  0.84161291808E+02 0.  0.
         11    1    3    3    0    0 -0.17803883727E+03 -0.12958616166E+03 -0.89107716102E+00  0.22020716358E+03  0.00000000000E+00 0. -1.
        -11    1    3    3    0    0 -0.24474202667E+03 -0.21670555142E+03 -0.11728361548E+03  0.34729728201E+03  0.00000000000E+00 0.  1.
          2    1    6    6  502    0  0.44870008971E+03  0.36352553786E+03  0.34023457933E+02  0.57848092697E+03  0.00000000000E+00 0. -1.
          1    1    5    5  503    0 -0.15980226369E+03 -0.91934802393E+02 -0.12583441082E+03  0.22321082034E+03  0.00000000000E+00 0. -1.
         -2    1    5    5    0  503 -0.22554286147E+02 -0.43475294941E+02 -0.48106241619E+01  0.49213201467E+02  0.00000000000E+00 0.  1.
         -1    1    6    6    0  502  0.15643732407E+03  0.11817627255E+03  0.60946617112E+02  0.20531136816E+03  0.00000000000E+00 0.  1.
<mgrwt>
<rscale>  0 0.16164156E+04</rscale>
<asrwt>0</asrwt>
<pdfrwt beam="1">  1        2 0.13673619E+00 0.16164156E+04</pdfrwt>
<pdfrwt beam="2">  1       -2 0.11306701E+00 0.16164156E+04</pdfrwt>
<totfact> 0.17564832E+01</totfact>
</mgrwt>
</event>
<event>
12    1  0.1097093E-007  0.2017005E+04  0.7818608E-02  0.8598711E-01
         -2   -1    0    0    0  501 -0.00000000000E+00  0.00000000000E+00  0.64087322305E+03  0.64087322305E+03  0.00000000000E+00 0.  1.
          2   -1    0    0  501    0  0.00000000000E+00 -0.00000000000E+00 -0.15870177819E+04  0.15870177819E+04  0.00000000000E+00 0. -1.
         23    2    1    2    0    0  0.57824672584E+03  0.48287210574E+03 -0.71520868839E+02  0.76207832823E+03  0.90074398296E+02 0.  0.
        254    2    1    2    0    0 -0.57824672584E+03 -0.48287210574E+03 -0.87462369001E+03  0.14658126767E+04  0.90338555316E+03 0.  0.
        -24    2    4    4    0    0  0.15075993286E+03 -0.38021057253E+03 -0.19343144465E+03  0.45947527523E+03  0.80082257370E+02 0.  0.
         24    2    4    4    0    0 -0.72900665870E+03 -0.10266153321E+03 -0.68119224537E+03  0.10063374015E+04  0.81865692866E+02 0.  0.
         13    1    3    3    0    0  0.51036513142E+03  0.45465378998E+03 -0.49313974822E+02  0.68528425067E+03  0.00000000000E+00 0. -1.
        -13    1    3    3    0    0  0.67881594418E+02  0.28218315765E+02 -0.22206894017E+02  0.76794077552E+02  0.00000000000E+00 0.  1.
          2    1    6    6  502    0 -0.69824837566E+03 -0.11487669346E+03 -0.64982332714E+03  0.96073815647E+03  0.00000000000E+00 0. -1.
          1    1    5    5  503    0  0.12844812672E+03 -0.35295089681E+03 -0.15224718646E+03  0.40528072074E+03  0.00000000000E+00 0. -1.
         -2    1    5    5    0  503  0.22311806136E+02 -0.27259675722E+02 -0.41184258191E+02  0.54194554489E+02  0.00000000000E+00 0.  1.
         -1    1    6    6    0  502 -0.30758283042E+02  0.12215160253E+02 -0.31368918224E+02  0.45599245018E+02  0.00000000000E+00 0.  1.
<mgrwt>
<rscale>  0 0.20170049E+04</rscale>
<asrwt>0</asrwt>
<pdfrwt beam="1">  1        2 0.24415658E+00 0.20170049E+04</pdfrwt>
<pdfrwt beam="2">  1       -2 0.98595880E-01 0.20170049E+04</pdfrwt>
<totfact> 0.89869039E+00</totfact>
</mgrwt>
</event>
<event>
12    1  0.1097093E-007  0.1312563E+04  0.7818608E-02  0.9019662E-01
         -2   -1    0    0    0  501 -0.00000000000E+00  0.00000000000E+00  0.57313061884E+03  0.57313061884E+03  0.00000000000E+00 0.  1.
          2   -1    0    0  501    0  0.00000000000E+00 -0.00000000000E+00 -0.75149604463E+03  0.75149604463E+03  0.00000000000E+00 0. -1.
         23    2    1    2    0    0 -0.40676718203E+02 -0.31276502492E+03  0.79250096461E+02  0.33807525950E+03  0.92399930078E+02 0.  0.
        254    2    1    2    0    0  0.40676718203E+02  0.31276502492E+03 -0.25761552225E+03  0.98655140397E+03  0.89857740855E+03 0.  0.
        -24    2    4    4    0    0 -0.30237023777E+03  0.39342567898E+03  0.59193990297E+02  0.50588744040E+03  0.78782284163E+02 0.  0.
         24    2    4    4    0    0  0.34304695597E+03 -0.80660654057E+02 -0.31680951255E+03  0.48066396357E+03  0.80512256961E+02 0.  0.
         11    1    3    3    0    0 -0.58687491527E+02 -0.15736117308E+03  0.13874511527E+02  0.16852080740E+03  0.00000000000E+00 0. -1.
        -11    1    3    3    0    0  0.18010773324E+02 -0.15540385184E+03  0.65375584934E+02  0.16955445210E+03  0.00000000000E+00 0.  1.
          2    1    6    6  502    0  0.35585767017E+02 -0.21520621526E+02 -0.11038048418E+02  0.43026997083E+02  0.00000000000E+00 0. -1.
          3    1    5    5  503    0 -0.35419619461E+02  0.67241477865E+02 -0.16185773269E+02  0.77704215102E+02  0.00000000000E+00 0. -1.
         -4    1    5    5    0  503 -0.26695061831E+03  0.32618420112E+03  0.75379763566E+02  0.42818322530E+03  0.00000000000E+00 0.  1.
         -1    1    6    6    0  502  0.30746118895E+03 -0.59140032531E+02 -0.30577146413E+03  0.43763696649E+03  0.00000000000E+00 0.  1.
<mgrwt>
<rscale>  0 0.13125630E+04</rscale>
<asrwt>0</asrwt>
<pdfrwt beam="1">  1        2 0.11561478E+00 0.13125630E+04</pdfrwt>
<pdfrwt beam="2">  1       -2 0.88173941E-01 0.13125630E+04</pdfrwt>
<totfact> 0.40598600E+01</totfact>
</mgrwt>
</event>
<event>
12    1  0.1097093E-007  0.1710421E+04  0.7818608E-02  0.8755443E-01
         -1   -1    0    0    0  501 -0.00000000000E+00  0.00000000000E+00  0.45182737058E+03  0.45182737058E+03  0.00000000000E+00 0.  1.
          1   -1    0    0  501    0  0.00000000000E+00 -0.00000000000E+00 -0.16187275163E+04  0.16187275163E+04  0.00000000000E+00 0. -1.
         23    2    1    2    0    0  0.30652353998E+03  0.15228453635E+03  0.19333915618E+03  0.40332251297E+03  0.90231699403E+02 0.  0.
        254    2    1    2    0    0 -0.30652353998E+03 -0.15228453635E+03 -0.13602393019E+04  0.16672323739E+04  0.90125777092E+03 0.  0.
        -24    2    4    4    0    0 -0.57248528283E+03 -0.16177392431E+03 -0.12137867395E+04  0.13541336414E+04  0.80557235308E+02 0.  0.
         24    2    4    4    0    0  0.26596174285E+03  0.94893879590E+01 -0.14645256241E+03  0.31309873253E+03  0.75873355862E+02 0.  0.
         13    1    3    3    0    0  0.30269909568E+03  0.15691374184E+03  0.19924390157E+03  0.39490099673E+03  0.00000000000E+00 0.  1.
        -13    1    3    3    0    0  0.38244443029E+01 -0.46292054871E+01 -0.59047453884E+01  0.84215162393E+01  0.00000000000E+00 0. -1.
          2    1    6    6  502    0  0.24761621942E+03  0.15050399954E+01 -0.15412700529E+03  0.29166966079E+03  0.00000000000E+00 0. -1.
          3    1    5    5  503    0 -0.34304078278E+03 -0.83538801243E+02 -0.63342334053E+03  0.72517641874E+03  0.00000000000E+00 0. -1.
         -4    1    5    5    0  503 -0.22944450005E+03 -0.78235123066E+02 -0.58036339898E+03  0.62895722268E+03  0.00000000000E+00 0.  1.
         -1    1    6    6    0  502  0.18345523430E+02  0.79843479637E+01  0.76744428716E+01  0.21429071742E+02  0.00000000000E+00 0.  1.
<mgrwt>
<rscale>  0 0.17104215E+04</rscale>
<asrwt>0</asrwt>
<pdfrwt beam="1">  1        1 0.24903500E+00 0.17104215E+04</pdfrwt>
<pdfrwt beam="2">  1       -1 0.69511904E-01 0.17104215E+04</pdfrwt>
<totfact> 0.10780416E+01</totfact>
</mgrwt>
</event>
<event>
12    1  0.1097093E-007  0.1398783E+04  0.7818608E-02  0.8954700E-01
          2   -1    0    0  501    0  0.00000000000E+00  0.00000000000E+00  0.16601853791E+04  0.16601853791E+04  0.00000000000E+00 0. -1.
         -2   -1    0    0    0  501 -0.00000000000E+00 -0.00000000000E+00 -0.29463485834E+03  0.29463485834E+03  0.00000000000E+00 0.  1.
         23    2    1    2    0    0 -0.30109699549E+03 -0.18864764661E+03  0.66159609098E+03  0.75903244428E+03  0.11033371475E+03 0.  0.
        254    2    1    2    0    0  0.30109699549E+03  0.18864764661E+03  0.70395442980E+03  0.11957877932E+04  0.89894898178E+03 0.  0.
        -24    2    4    4    0    0 -0.14070622586E+03  0.24900736978E+03  0.68018898972E+03  0.74217267026E+03  0.79751479935E+02 0.  0.
         24    2    4    4    0    0  0.44180322134E+03 -0.60359723176E+02  0.23765440086E+02  0.45361512293E+03  0.79802888625E+02 0.  0.
         11    1    3    3    0    0 -0.26480479745E+03 -0.13660031150E+03  0.46339889512E+03  0.55092627624E+03  0.00000000000E+00 0. -1.
        -11    1    3    3    0    0 -0.36292198043E+02 -0.52047335107E+02  0.19819719586E+03  0.20810616804E+03  0.00000000000E+00 0.  1.
          2    1    6    6  502    0  0.38002482633E+01 -0.92273194987E+01  0.72385006987E+01  0.12328065718E+02  0.00000000000E+00 0. -1.
          3    1    5    5  503    0 -0.14090582483E+02  0.15023096197E+02  0.14219388406E+02  0.25028562497E+02  0.00000000000E+00 0. -1.
         -4    1    5    5    0  503 -0.12661564337E+03  0.23398427359E+03  0.66596960131E+03  0.71714410777E+03  0.00000000000E+00 0.  1.
         -3    1    6    6    0  502  0.43800297308E+03 -0.51132403678E+02  0.16526939387E+02  0.44128705721E+03  0.00000000000E+00 0.  1.
<mgrwt>
<rscale>  0 0.13987830E+04</rscale>
<asrwt>0</asrwt>
<pdfrwt beam="1">  1        2 0.25541313E+00 0.13987830E+04</pdfrwt>
<pdfrwt beam="2">  1       -2 0.45328441E-01 0.13987830E+04</pdfrwt>
<totfact> 0.46359966E+01</totfact>
</mgrwt>
</event>
<event>
12    1  0.1097093E-007  0.1743147E+04  0.7818608E-02  0.8737132E-01
          2   -1    0    0  501    0  0.00000000000E+00  0.00000000000E+00  0.16426315695E+04  0.16426315695E+04  0.00000000000E+00 0. -1.
         -2   -1    0    0    0  501 -0.00000000000E+00 -0.00000000000E+00 -0.46245321500E+03  0.46245321500E+03  0.00000000000E+00 0.  1.
         23    2    1    2    0    0  0.43147055514E+03 -0.36273444073E+03  0.83215953650E+02  0.57708355788E+03  0.91418944372E+02 0.  0.
        254    2    1    2    0    0 -0.43147055514E+03  0.36273444073E+03  0.10969624009E+04  0.15280012267E+04  0.90206326010E+03 0.  0.
        -24    2    4    4    0    0 -0.36195884267E+03 -0.24655529587E+03  0.44856988354E+03  0.63194911898E+03  0.79630589952E+02 0.  0.
         24    2    4    4    0    0 -0.69511712470E+02  0.60928973661E+03  0.64839251736E+03  0.89605210767E+03  0.80191407179E+02 0.  0.
         13    1    3    3    0    0  0.35310540142E+03 -0.24975082450E+03  0.48098202925E+02  0.43516931875E+03  0.00000000000E+00 0.  1.
        -13    1    3    3    0    0  0.78365153720E+02 -0.11298361623E+03  0.35117750725E+02  0.14191423914E+03  0.00000000000E+00 0. -1.
          4    1    6    6  502    0 -0.32260436738E+02  0.85271418807E+02  0.12265672862E+03  0.15282873983E+03  0.00000000000E+00 0. -1.
          3    1    5    5  503    0 -0.17691282658E+03 -0.72974065380E+02  0.18843105566E+03  0.26856959092E+03  0.00000000000E+00 0. -1.
         -4    1    5    5    0  503 -0.18504601610E+03 -0.17358123049E+03  0.26013882787E+03  0.36337952807E+03  0.00000000000E+00 0.  1.
         -3    1    6    6    0  502 -0.37251275733E+02  0.52401831780E+03  0.52573578875E+03  0.74322336784E+03  0.00000000000E+00 0.  1.
<mgrwt>
<rscale>  0 0.17431469E+04</rscale>
<asrwt>0</asrwt>
<pdfrwt beam="1">  1        2 0.25271255E+00 0.17431469E+04</pdfrwt>
<pdfrwt beam="2">  1       -2 0.71146649E-01 0.17431469E+04</pdfrwt>
<totfact> 0.17957155E+01</totfact>
</mgrwt>
</event>
<event>
12    1  0.1097093E-007  0.4384875E+04  0.7818608E-02  0.7931108E-01
          2   -1    0    0  501    0  0.00000000000E+00  0.00000000000E+00  0.24058666362E+04  0.24058666362E+04  0.00000000000E+00 0. -1.
         -2   -1    0    0    0  501 -0.00000000000E+00 -0.00000000000E+00 -0.19979417286E+04  0.19979417286E+04  0.00000000000E+00 0.  1.
         23    2    1    2    0    0 -0.36353409441E+03 -0.17388559156E+04 -0.92909232812E+03  0.20067471936E+04  0.89692874088E+02 0.  0.
        254    2    1    2    0    0  0.36353409441E+03  0.17388559156E+04  0.13370172357E+04  0.23970611713E+04  0.89582935714E+03 0.  0.
        -24    2    4    4    0    0  0.60038421720E+03  0.13445926687E+04  0.12240286321E+04  0.19164925845E+04  0.79417132791E+02 0.  0.
         24    2    4    4    0    0 -0.23685012278E+03  0.39426324688E+03  0.11298860364E+03  0.48056858683E+03  0.81475478445E+02 0.  0.
         13    1    3    3    0    0 -0.15167837484E+03 -0.94364290515E+03 -0.49618362631E+03  0.10768781049E+04  0.00000000000E+00 0. -1.
        -13    1    3    3    0    0 -0.21185571957E+03 -0.79521301047E+03 -0.43290870181E+03  0.92986908865E+03  0.00000000000E+00 0.  1.
          2    1    6    6  502    0 -0.22799515068E+03  0.32794468978E+03  0.10638264081E+03  0.41333615201E+03  0.00000000000E+00 0. -1.
          3    1    5    5  503    0  0.44379583378E+03  0.10723300504E+04  0.95578027250E+03  0.15034501682E+04  0.00000000000E+00 0. -1.
         -4    1    5    5    0  503  0.15658838342E+03  0.27226261833E+03  0.26824835960E+03  0.41304241621E+03  0.00000000000E+00 0.  1.
         -1    1    6    6    0  502 -0.88549721012E+01  0.66318557101E+02  0.66059628287E+01  0.67232434819E+02  0.00000000000E+00 0.  1.
<mgrwt>
<rscale>  0 0.43848746E+04</rscale>
<asrwt>0</asrwt>
<pdfrwt beam="1">  1        2 0.37013333E+00 0.43848746E+04</pdfrwt>
<pdfrwt beam="2">  1       -2 0.30737565E+00 0.43848746E+04</pdfrwt>
<totfact> 0.86404174E-02</totfact>
</mgrwt>
</event>
<event>
12    1  0.1097093E-007  0.1397570E+04  0.7818608E-02  0.8955580E-01
          2   -1    0    0  501    0  0.00000000000E+00  0.00000000000E+00  0.44495127602E+03  0.44495127602E+03  0.00000000000E+00 0.  1.
         -2   -1    0    0    0  501 -0.00000000000E+00 -0.00000000000E+00 -0.10974238629E+04  0.10974238629E+04  0.00000000000E+00 0. -1.
         23    2    1    2    0    0 -0.13839262690E+03 -0.28555637202E+02  0.23357598513E+03  0.28755020939E+03  0.90329610295E+02 0.  0.
        254    2    1    2    0    0  0.13839262690E+03  0.28555637202E+02 -0.88604857205E+03  0.12548249296E+04  0.87723177567E+03 0.  0.
        -24    2    4    4    0    0  0.92853397405E+02 -0.38654382528E+03 -0.65796616411E+03  0.77257110941E+03  0.76868483146E+02 0.  0.
         24    2    4    4    0    0  0.45539229491E+02  0.41509946248E+03 -0.22808240793E+03  0.48225382016E+03  0.78522462247E+02 0.  0.
         13    1    3    3    0    0 -0.50576908484E+02 -0.50797310543E+02  0.67956222485E+02  0.98774686052E+02  0.00000000000E+00 0.  1.
        -13    1    3    3    0    0 -0.87815718411E+02  0.22241673341E+02  0.16561976265E+03  0.18877552334E+03  0.00000000000E+00 0. -1.
          2    1    6    6  502    0  0.66204971038E+02  0.34523270888E+03 -0.19779375106E+03  0.40334983504E+03  0.00000000000E+00 0. -1.
          3    1    5    5  503    0  0.82185484684E+02 -0.35815293432E+03 -0.55816690405E+03  0.66826512031E+03  0.00000000000E+00 0. -1.
         -4    1    5    5    0  503  0.10667912720E+02 -0.28390890965E+02 -0.99799260063E+02  0.10430598909E+03  0.00000000000E+00 0.  1.
         -1    1    6    6    0  502 -0.20665741547E+02  0.69866753606E+02 -0.30288656874E+02  0.78903985123E+02  0.00000000000E+00 0.  1.
<mgrwt>
<rscale>  0 0.13975695E+04</rscale>
<asrwt>0</asrwt>
<pdfrwt beam="1">  1        2 0.68454043E-01 0.13975695E+04</pdfrwt>
<pdfrwt beam="2">  1       -2 0.16883444E+00 0.13975695E+04</pdfrwt>
<totfact> 0.14883119E+01</totfact>
</mgrwt>
</event>
<event>
12    1  0.1097093E-007  0.1213023E+04  0.7818608E-02  0.9101533E-01
         -2   -1    0    0    0  501 -0.00000000000E+00  0.00000000000E+00  0.72205555886E+02  0.72205555886E+02  0.00000000000E+00 0.  1.
          2   -1    0    0  501    0  0.00000000000E+00 -0.00000000000E+00 -0.50945676450E+04  0.50945676450E+04  0.00000000000E+00 0. -1.
         23    2    1    2    0    0 -0.19731100040E+03 -0.98476272597E+02 -0.17503160902E+04  0.17665224880E+04  0.91466265548E+02 0.  0.
        254    2    1    2    0    0  0.19731100040E+03  0.98476272597E+02 -0.32720459989E+04  0.34002507129E+04  0.89821527740E+03 0.  0.
        -24    2    4    4    0    0  0.52414166660E+03  0.20791462841E+03 -0.21100637359E+04  0.21855579725E+04  0.79634805641E+02 0.  0.
         24    2    4    4    0    0 -0.32683066620E+03 -0.10943835582E+03 -0.11619822630E+04  0.12146927404E+04  0.80502397150E+02 0.  0.
         11    1    3    3    0    0 -0.15225467162E+03 -0.50634011423E+02 -0.14637097483E+04  0.14724780187E+04  0.00000000000E+00 0.  1.
        -11    1    3    3    0    0 -0.45056328776E+02 -0.47842261173E+02 -0.28660634191E+03  0.29404446932E+03  0.00000000000E+00 0. -1.
          4    1    6    6  502    0 -0.22288185716E+03 -0.10175784572E+03 -0.89950728260E+03  0.93227910674E+03  0.00000000000E+00 0. -1.
          1    1    5    5  503    0  0.49240924021E+03  0.18915946029E+03 -0.18816468464E+04  0.19541860238E+04  0.00000000000E+00 0. -1.
         -2    1    5    5    0  503  0.31732426391E+02  0.18755168121E+02 -0.22841688951E+03  0.23137194866E+03  0.00000000000E+00 0.  1.
         -3    1    6    6    0  502 -0.10394880905E+03 -0.76805100917E+01 -0.26247498040E+03  0.28241363365E+03  0.00000000000E+00 0.  1.
<mgrwt>
<rscale>  0 0.12130228E+04</rscale>
<asrwt>0</asrwt>
<pdfrwt beam="1">  1        2 0.78377974E+00 0.12130228E+04</pdfrwt>
<pdfrwt beam="2">  1       -2 0.11108546E-01 0.12130228E+04</pdfrwt>
<totfact> 0.16053968E+00</totfact>
</mgrwt>
</event>
<event>
12    1  0.1097093E-007  0.1776566E+04  0.7818608E-02  0.8718861E-01
          2   -1    0    0  501    0  0.00000000000E+00  0.00000000000E+00  0.16582372259E+04  0.16582372259E+04  0.00000000000E+00 0. -1.
         -2   -1    0    0    0  501 -0.00000000000E+00 -0.00000000000E+00 -0.47583473511E+03  0.47583473511E+03  0.00000000000E+00 0.  1.
         23    2    1    2    0    0  0.10198943784E+03 -0.34765200717E+03  0.10901894549E+04  0.11524229471E+04  0.91114422044E+02 0.  0.
        254    2    1    2    0    0 -0.10198943784E+03  0.34765200717E+03  0.92213035857E+02  0.98164901387E+03  0.90767162505E+03 0.  0.
        -24    2    4    4    0    0 -0.46147705180E+03  0.38406596124E+03  0.24727148075E+02  0.60619868431E+03  0.79985505453E+02 0.  0.
         24    2    4    4    0    0  0.35948761396E+03 -0.36413954065E+02  0.67485887783E+02  0.37545032956E+03  0.76493687817E+02 0.  0.
         11    1    3    3    0    0  0.50454923754E+01 -0.91575088150E+01  0.50949606852E+01  0.11630803299E+02  0.00000000000E+00 0.  1.
        -11    1    3    3    0    0  0.96943945461E+02 -0.33849449836E+03  0.10850944942E+04  0.11407921438E+04  0.00000000000E+00 0. -1.
          4    1    6    6  502    0  0.11612389734E+03 -0.58061433691E+01 -0.13721520670E+02  0.11707583425E+03  0.00000000000E+00 0. -1.
          3    1    5    5  503    0 -0.57803513665E+02  0.51788984103E+02 -0.23631718059E+02  0.81128312967E+02  0.00000000000E+00 0. -1.
         -4    1    5    5    0  503 -0.40367353813E+03  0.33227697714E+03  0.48358866133E+02  0.52507037134E+03  0.00000000000E+00 0.  1.
         -3    1    6    6    0  502  0.24336371662E+03 -0.30607810696E+02  0.81207408453E+02  0.25837449531E+03  0.00000000000E+00 0.  1.
<mgrwt>
<rscale>  0 0.17765662E+04</rscale>
<asrwt>0</asrwt>
<pdfrwt beam="1">  1        2 0.25511342E+00 0.17765662E+04</pdfrwt>
<pdfrwt beam="2">  1       -2 0.73205345E-01 0.17765662E+04</pdfrwt>
<totfact> 0.16485997E+01</totfact>
</mgrwt>
</event>
<event>
12    1  0.1097093E-007  0.1276746E+04  0.7818608E-02  0.9048212E-01
          1   -1    0    0  501    0  0.00000000000E+00  0.00000000000E+00  0.51190362620E+03  0.51190362620E+03  0.00000000000E+00 0. -1.
         -1   -1    0    0    0  501 -0.00000000000E+00 -0.00000000000E+00 -0.79608758049E+03  0.79608758049E+03  0.00000000000E+00 0.  1.
         23    2    1    2    0    0  0.21193074973E+02  0.31541279198E+03  0.11892321815E+03  0.35157062579E+03  0.97595068180E+02 0.  0.
        254    2    1    2    0    0 -0.21193074973E+02 -0.31541279198E+03 -0.40310717243E+03  0.95642058090E+03  0.80765745173E+03 0.  0.
        -24    2    4    4    0    0  0.33689839965E+03 -0.79638713038E+01 -0.27680486318E+02  0.34812659065E+03  0.82836941398E+02 0.  0.
         24    2    4    4    0    0 -0.35809147462E+03 -0.30744892067E+03 -0.37542668611E+03  0.60829399026E+03  0.79511250239E+02 0.  0.
         11    1    3    3    0    0  0.17760657264E+02  0.10275325602E+03  0.88398842509E+02  0.13670416207E+03  0.00000000000E+00 0. -1.
        -11    1    3    3    0    0  0.34324177090E+01  0.21265953596E+03  0.30524375637E+02  0.21486646372E+03  0.00000000000E+00 0.  1.
          2    1    6    6  502    0  0.75536006203E+00 -0.46713321370E+01 -0.16880453617E+02  0.17531161601E+02  0.00000000000E+00 0. -1.
          1    1    5    5  503    0  0.10728157892E+03 -0.29690734340E+02  0.18680279464E+02  0.11287085417E+03  0.00000000000E+00 0. -1.
         -2    1    5    5    0  503  0.22961682073E+03  0.21726863036E+02 -0.46360765783E+02  0.23525573647E+03  0.00000000000E+00 0.  1.
         -1    1    6    6    0  502 -0.35884683468E+03 -0.30277758854E+03 -0.35854623250E+03  0.59076282866E+03  0.00000000000E+00 0.  1.
<mgrwt>
<rscale>  0 0.12767461E+04</rscale>
<asrwt>0</asrwt>
<pdfrwt beam="1">  1        1 0.78754404E-01 0.12767461E+04</pdfrwt>
<pdfrwt beam="2">  1       -1 0.12247501E+00 0.12767461E+04</pdfrwt>
<totfact> 0.24865875E+01</totfact>
</mgrwt>
</event>
<event>
12    1  0.1097093E-007  0.1721374E+04  0.7818608E-02  0.8749267E-01
         -1   -1    0    0    0  501 -0.00000000000E+00  0.00000000000E+00  0.91801792388E+03  0.91801792388E+03  0.00000000000E+00 0.  1.
          1   -1    0    0  501    0  0.00000000000E+00 -0.00000000000E+00 -0.80693674153E+03  0.80693674153E+03  0.00000000000E+00 0. -1.
         23    2    1    2    0    0 -0.21490238777E+03  0.10042049486E+03  0.61542752193E+03  0.66564436714E+03  0.89800204326E+02 0.  0.
        254    2    1    2    0    0  0.21490238777E+03 -0.10042049486E+03 -0.50434633958E+03  0.10593102983E+04  0.90083614810E+03 0.  0.
        -24    2    4    4    0    0  0.75836935616E+02  0.76307946897E+02 -0.72213451802E+03  0.73432656612E+03  0.78632690627E+02 0.  0.
         24    2    4    4    0    0  0.13906545215E+03 -0.17672844176E+03  0.21778817843E+03  0.32498373216E+03  0.87238714980E+02 0.  0.
         11    1    3    3    0    0 -0.16027191533E+03  0.34757087242E+02  0.45895426993E+03  0.48737476735E+03  0.00000000000E+00 0.  1.
        -11    1    3    3    0    0 -0.54630472433E+02  0.65663407620E+02  0.15647325200E+03  0.17826959979E+03  0.00000000000E+00 0. -1.
          4    1    6    6  502    0  0.35435473671E+02 -0.28578525950E+02  0.50587299900E+01  0.45803882902E+02  0.00000000000E+00 0. -1.
          3    1    5    5  503    0  0.44580434615E+02  0.28700077539E+02 -0.14501076329E+03  0.15439958248E+03  0.00000000000E+00 0. -1.
         -4    1    5    5    0  503  0.31256501001E+02  0.47607869358E+02 -0.57712375473E+03  0.57992698364E+03  0.00000000000E+00 0.  1.
         -3    1    6    6    0  502  0.10362997848E+03 -0.14814991581E+03  0.21272944844E+03  0.27917984925E+03  0.00000000000E+00 0.  1.
<mgrwt>
<rscale>  0 0.17213743E+04</rscale>
<asrwt>0</asrwt>
<pdfrwt beam="1">  1        1 0.12414411E+00 0.17213743E+04</pdfrwt>
<pdfrwt beam="2">  1       -1 0.14123353E+00 0.17213743E+04</pdfrwt>
<totfact> 0.84850551E+00</totfact>
</mgrwt>
</event>
<event>
12    1  0.1097093E-007  0.1526607E+04  0.7818608E-02  0.8866950E-01
         -2   -1    0    0    0  501 -0.00000000000E+00  0.00000000000E+00  0.41940614852E+03  0.41940614852E+03  0.00000000000E+00 0.  1.
          2   -1    0    0  501    0  0.00000000000E+00 -0.00000000000E+00 -0.13891844069E+04  0.13891844069E+04  0.00000000000E+00 0. -1.
         23    2    1    2    0    0 -0.28028282737E+03 -0.10897580752E+03  0.15115996266E+03  0.34928097087E+03  0.93347053303E+02 0.  0.
        254    2    1    2    0    0  0.28028282737E+03  0.10897580752E+03 -0.11209382210E+04  0.14593095845E+04  0.88467382588E+03 0.  0.
        -24    2    4    4    0    0 -0.14357638694E+03 -0.28209616143E+02  0.73702178834E+02  0.18171058318E+03  0.78592388586E+02 0.  0.
         24    2    4    4    0    0  0.42385921431E+03  0.13718542366E+03 -0.11946403999E+04  0.12775990014E+04  0.81345247265E+02 0.  0.
         13    1    3    3    0    0 -0.57149089316E+00  0.10562541046E+02  0.68416611986E+01  0.12597706265E+02  0.00000000000E+00 0. -1.
        -13    1    3    3    0    0 -0.27971133647E+03 -0.11953834857E+03  0.14431830146E+03  0.33668326461E+03  0.00000000000E+00 0.  1.
          2    1    6    6  502    0  0.85059695834E+02  0.31252037139E+02 -0.34686785028E+03  0.35850961945E+03  0.00000000000E+00 0. -1.
          3    1    5    5  503    0 -0.75942805218E+00 -0.22392390705E+02  0.16171280351E+02  0.27631615961E+02  0.00000000000E+00 0. -1.
         -4    1    5    5    0  503 -0.14281695889E+03 -0.58172254388E+01  0.57530898483E+02  0.15407896722E+03  0.00000000000E+00 0.  1.
         -1    1    6    6    0  502  0.33879951847E+03  0.10593338653E+03 -0.84777254959E+03  0.91908938191E+03  0.00000000000E+00 0.  1.
<mgrwt>
<rscale>  0 0.15266073E+04</rscale>
<asrwt>0</asrwt>
<pdfrwt beam="1">  1        2 0.21372068E+00 0.15266073E+04</pdfrwt>
<pdfrwt beam="2">  1       -2 0.64524023E-01 0.15266073E+04</pdfrwt>
<totfact> 0.31391223E+01</totfact>
</mgrwt>
</event>
<event>
12    1  0.1097093E-007  0.2690486E+04  0.7818608E-02  0.8338099E-01
          2   -1    0    0  501    0  0.00000000000E+00  0.00000000000E+00  0.21952865497E+04  0.21952865497E+04  0.00000000000E+00 0.  1.
         -2   -1    0    0    0  501 -0.00000000000E+00 -0.00000000000E+00 -0.82434733463E+03  0.82434733463E+03  0.00000000000E+00 0. -1.
         23    2    1    2    0    0 -0.74604904202E+03  0.92482201123E+03  0.72316361839E+03  0.13940547935E+04  0.92402504562E+02 0.  0.
        254    2    1    2    0    0  0.74604904202E+03 -0.92482201123E+03  0.64777559664E+03  0.16255790908E+04  0.90056050944E+03 0.  0.
        -24    2    4    4    0    0  0.72260870512E+02 -0.41057405861E+03 -0.15846566353E+03  0.45308162536E+03  0.79868026846E+02 0.  0.
         24    2    4    4    0    0  0.67378817151E+03 -0.51424795262E+03  0.80624126017E+03  0.11724974654E+04  0.79270927358E+02 0.  0.
         11    1    3    3    0    0 -0.21550783753E+03  0.29527253489E+03  0.17764042227E+03  0.40643033539E+03  0.00000000000E+00 0.  1.
        -11    1    3    3    0    0 -0.53054120450E+03  0.62954947633E+03  0.54552319612E+03  0.98762445814E+03  0.00000000000E+00 0. -1.
          2    1    6    6  502    0  0.54888577616E+02 -0.33036579966E+02  0.36099856307E+02  0.73534829802E+02  0.00000000000E+00 0. -1.
          3    1    5    5  503    0 -0.10205493861E+02 -0.12476286097E+03 -0.28078151111E+02  0.12828993005E+03  0.00000000000E+00 0. -1.
         -4    1    5    5    0  503  0.82466364373E+02 -0.28581119764E+03 -0.13038751242E+03  0.32479169531E+03  0.00000000000E+00 0.  1.
         -1    1    6    6    0  502  0.61889959390E+03 -0.48121137265E+03  0.77014140387E+03  0.10989626356E+04  0.00000000000E+00 0.  1.
<mgrwt>
<rscale>  0 0.26904859E+04</rscale>
<asrwt>0</asrwt>
<pdfrwt beam="1">  1        2 0.33773639E+00 0.26904859E+04</pdfrwt>
<pdfrwt beam="2">  1       -2 0.12682267E+00 0.26904859E+04</pdfrwt>
<totfact> 0.21087624E+00</totfact>
</mgrwt>
</event>
<event>
12    1  0.1097093E-007  0.1867225E+04  0.7818608E-02  0.8671345E-01
          2   -1    0    0  501    0  0.00000000000E+00  0.00000000000E+00  0.18054494932E+04  0.18054494932E+04  0.00000000000E+00 0. -1.
         -2   -1    0    0    0  501 -0.00000000000E+00 -0.00000000000E+00 -0.48277859984E+03  0.48277859984E+03  0.00000000000E+00 0.  1.
         23    2    1    2    0    0 -0.14842445963E+03 -0.25410561278E+03  0.13118551143E+04  0.13476667924E+04  0.92964830256E+02 0.  0.
        254    2    1    2    0    0  0.14842445963E+03  0.25410561278E+03  0.10815779059E+02  0.94056130068E+03  0.89327436804E+03 0.  0.
        -24    2    4    4    0    0  0.36920585994E+03  0.21297007129E+03 -0.31555153598E+03  0.53639815391E+03  0.80504592293E+02 0.  0.
         24    2    4    4    0    0 -0.22078140031E+03  0.41135541492E+02  0.32636731504E+03  0.40416314677E+03  0.79972904041E+02 0.  0.
         11    1    3    3    0    0 -0.11114986778E+03 -0.21663106777E+03  0.89699871361E+03  0.92945683323E+03  0.00000000000E+00 0.  1.
        -11    1    3    3    0    0 -0.37274591846E+02 -0.37474545016E+02  0.41485640072E+03  0.41820995916E+03  0.00000000000E+00 0. -1.
          4    1    6    6  502    0 -0.21867993334E+03  0.54029083186E+02  0.30606071112E+03  0.38001738640E+03  0.00000000000E+00 0. -1.
          3    1    5    5  503    0  0.27929501964E+03  0.18545238698E+03 -0.21267363876E+03  0.39702439781E+03  0.00000000000E+00 0. -1.
         -4    1    5    5    0  503  0.89910840300E+02  0.27517684305E+02 -0.10287789722E+03  0.13937375610E+03  0.00000000000E+00 0.  1.
         -3    1    6    6    0  502 -0.21014669695E+01 -0.12893541694E+02  0.20306603920E+02  0.24145760365E+02  0.00000000000E+00 0.  1.
<mgrwt>
<rscale>  0 0.18672251E+04</rscale>
<asrwt>0</asrwt>
<pdfrwt beam="1">  1        2 0.27776146E+00 0.18672251E+04</pdfrwt>
<pdfrwt beam="2">  1       -2 0.74273631E-01 0.18672251E+04</pdfrwt>
<totfact> 0.13127384E+01</totfact>
</mgrwt>
</event>
<event>
12    1  0.1097093E-007  0.1762875E+04  0.7818608E-02  0.8726295E-01
         -4   -1    0    0    0  501 -0.00000000000E+00  0.00000000000E+00  0.15255862738E+04  0.15255862738E+04  0.00000000000E+00 0.  1.
          4   -1    0    0  501    0  0.00000000000E+00 -0.00000000000E+00 -0.50926804227E+03  0.50926804227E+03  0.00000000000E+00 0. -1.
         23    2    1    2    0    0  0.21570491511E+03  0.60880829201E+03  0.45477434312E+03  0.79430445260E+03  0.83208854296E+02 0.  0.
        254    2    1    2    0    0 -0.21570491511E+03 -0.60880829201E+03  0.56154388836E+03  0.12405498634E+04  0.89802910771E+03 0.  0.
        -24    2    4    4    0    0  0.41755949566E+02 -0.55318982683E+02  0.61243723492E+03  0.62288445562E+03  0.90010716970E+02 0.  0.
         24    2    4    4    0    0 -0.25746086468E+03 -0.55348930932E+03 -0.50893346563E+02  0.61766540781E+03  0.79271122753E+02 0.  0.
         13    1    3    3    0    0  0.63942530208E+02  0.11102587441E+03  0.62125874220E+02  0.14239036557E+03  0.00000000000E+00 0.  1.
        -13    1    3    3    0    0  0.15176238491E+03  0.49778241759E+03  0.39264846890E+03  0.65191408703E+03  0.00000000000E+00 0. -1.
          4    1    6    6  502    0 -0.12729913221E+03 -0.27574568576E+03  0.14437677770E+02  0.30405459841E+03  0.00000000000E+00 0. -1.
          1    1    5    5  503    0  0.12552176767E+02 -0.10730447040E+02  0.12827621253E+02  0.20910463942E+02  0.00000000000E+00 0. -1.
         -2    1    5    5    0  503  0.29203772799E+02 -0.44588535644E+02  0.59960961367E+03  0.60197399168E+03  0.00000000000E+00 0.  1.
         -3    1    6    6    0  502 -0.13016173247E+03 -0.27774362356E+03 -0.65331024333E+02  0.31361080940E+03  0.00000000000E+00 0.  1.
<mgrwt>
<rscale>  0 0.17628753E+04</rscale>
<asrwt>0</asrwt>
<pdfrwt beam="1">  1        4 0.78348930E-01 0.17628753E+04</pdfrwt>
<pdfrwt beam="2">  1       -4 0.23470558E+00 0.17628753E+04</pdfrwt>
<totfact> 0.21706096E-01</totfact>
</mgrwt>
</event>
<event>
12    1  0.1097093E-007  0.2558680E+04  0.7818608E-02  0.8382374E-01
         -2   -1    0    0    0  501 -0.00000000000E+00  0.00000000000E+00  0.10554984276E+04  0.10554984276E+04  0.00000000000E+00 0.  1.
          2   -1    0    0  501    0  0.00000000000E+00 -0.00000000000E+00 -0.15506523852E+04  0.15506523852E+04  0.00000000000E+00 0. -1.
         23    2    1    2    0    0 -0.80922581133E+03 -0.50813426838E+03 -0.81047246932E+03  0.12560917411E+04  0.88622740794E+02 0.  0.
        254    2    1    2    0    0  0.80922581133E+03  0.50813426838E+03  0.31531851168E+03  0.13500590716E+04  0.90010381880E+03 0.  0.
        -24    2    4    4    0    0  0.38467221404E+03  0.56955084569E+03 -0.15447255572E+03  0.70894977043E+03  0.79919512215E+02 0.  0.
         24    2    4    4    0    0  0.42455359729E+03 -0.61416577318E+02  0.46979106740E+03  0.64110930119E+03  0.79370877030E+02 0.  0.
         11    1    3    3    0    0 -0.62628350502E+03 -0.40572671489E+03 -0.58488004603E+03  0.94811911914E+03  0.00000000000E+00 0. -1.
        -11    1    3    3    0    0 -0.18294230631E+03 -0.10240755349E+03 -0.22559242329E+03  0.30797262199E+03  0.00000000000E+00 0.  1.
          4    1    6    6  502    0  0.19302495953E+03  0.63998373648E+01  0.17965276234E+03  0.26377018015E+03  0.00000000000E+00 0. -1.
          3    1    5    5  503    0  0.42425967972E+02  0.28105556822E+02 -0.45386929251E+01  0.51092903775E+02  0.00000000000E+00 0. -1.
         -2    1    5    5    0  503  0.34224624607E+03  0.54144528887E+03 -0.14993386279E+03  0.65785686665E+03  0.00000000000E+00 0.  1.
         -3    1    6    6    0  502  0.23152863776E+03 -0.67816414683E+02  0.29013830506E+03  0.37733912104E+03  0.00000000000E+00 0.  1.
<mgrwt>
<rscale>  0 0.25586802E+04</rscale>
<asrwt>0</asrwt>
<pdfrwt beam="1">  1        2 0.23856191E+00 0.25586802E+04</pdfrwt>
<pdfrwt beam="2">  1       -2 0.16238437E+00 0.25586802E+04</pdfrwt>
<totfact> 0.25525462E+00</totfact>
</mgrwt>
</event>
<event>
12    1  0.1097093E-007  0.1955790E+04  0.7818608E-02  0.8627574E-01
          2   -1    0    0  501    0  0.00000000000E+00  0.00000000000E+00  0.28432159219E+04  0.28432159219E+04  0.00000000000E+00 0. -1.
         -2   -1    0    0    0  501 -0.00000000000E+00 -0.00000000000E+00 -0.33633698844E+03  0.33633698844E+03  0.00000000000E+00 0.  1.
         23    2    1    2    0    0  0.64948411821E+03 -0.49490383628E+02  0.33313904843E+03  0.73711163705E+03  0.89849997271E+02 0.  0.
        254    2    1    2    0    0 -0.64948411821E+03  0.49490383628E+02  0.21737398851E+04  0.24424412733E+04  0.90337996869E+03 0.  0.
        -24    2    4    4    0    0 -0.43211031267E+03 -0.10073785270E+03  0.28450025834E+03  0.53302926910E+03  0.79450408661E+02 0.  0.
         24    2    4    4    0    0 -0.21737380554E+03  0.15022823633E+03  0.18892396267E+04  0.19094120042E+04  0.82510243911E+02 0.  0.
         13    1    3    3    0    0  0.55234743495E+03 -0.97862214729E+01  0.27389528889E+03  0.61660529377E+03  0.00000000000E+00 0.  1.
        -13    1    3    3    0    0  0.97136683260E+02 -0.39704162155E+02  0.59243759539E+02  0.12050634328E+03  0.00000000000E+00 0. -1.
          4    1    6    6  502    0 -0.16803229245E+03  0.12651226928E+03  0.16805486698E+04  0.16936599533E+04  0.00000000000E+00 0. -1.
          3    1    5    5  503    0 -0.39924724586E+03 -0.69204937295E+02  0.25471360094E+03  0.47860913612E+03  0.00000000000E+00 0. -1.
         -4    1    5    5    0  503 -0.32863066811E+02 -0.31532915410E+02  0.29786657405E+02  0.54420132982E+02  0.00000000000E+00 0.  1.
         -3    1    6    6    0  502 -0.49341513093E+02  0.23715967052E+02  0.20869095689E+03  0.21575205097E+03  0.00000000000E+00 0.  1.
<mgrwt>
<rscale>  0 0.19557901E+04</rscale>
<asrwt>0</asrwt>
<pdfrwt beam="1">  1        2 0.43741782E+00 0.19557901E+04</pdfrwt>
<pdfrwt beam="2">  1       -2 0.51744154E-01 0.19557901E+04</pdfrwt>
<totfact> 0.71725721E+00</totfact>
</mgrwt>
</event>
<event>
12    1  0.1097093E-007  0.1778956E+04  0.7818608E-02  0.8717571E-01
          2   -1    0    0  501    0  0.00000000000E+00  0.00000000000E+00  0.12609248971E+04  0.12609248971E+04  0.00000000000E+00 0. -1.
         -2   -1    0    0    0  501 -0.00000000000E+00 -0.00000000000E+00 -0.62745280049E+03  0.62745280049E+03  0.00000000000E+00 0.  1.
         23    2    1    2    0    0 -0.14941892181E+03  0.17453152887E+03 -0.41699145690E+03  0.48455588285E+03  0.90140222513E+02 0.  0.
        254    2    1    2    0    0  0.14941892181E+03 -0.17453152887E+03  0.10504635535E+04  0.14038218148E+04  0.90247146300E+03 0.  0.
        -24    2    4    4    0    0 -0.19795523943E+03 -0.35697794038E+03  0.87013394569E+03  0.96431907041E+03  0.78477126540E+02 0.  0.
         24    2    4    4    0    0  0.34737416124E+03  0.18244641151E+03  0.18032960785E+03  0.43950274436E+03  0.81782601198E+02 0.  0.
         13    1    3    3    0    0 -0.16123437536E+03  0.16041529182E+03 -0.39571851603E+03  0.45642385298E+03  0.00000000000E+00 0.  1.
        -13    1    3    3    0    0  0.11815453550E+02  0.14116237052E+02 -0.21272940875E+02  0.28132029869E+02  0.00000000000E+00 0. -1.
          2    1    6    6  502    0  0.32121788727E+03  0.19030392474E+03  0.16511192070E+03  0.40823824077E+03  0.00000000000E+00 0. -1.
          1    1    5    5  503    0 -0.13630264628E+03 -0.30450096798E+03  0.67113228754E+03  0.74947835076E+03  0.00000000000E+00 0. -1.
         -2    1    5    5    0  503 -0.61652593150E+02 -0.52476972398E+02  0.19900165815E+03  0.21484071965E+03  0.00000000000E+00 0.  1.
         -1    1    6    6    0  502  0.26156273972E+02 -0.78575132256E+01  0.15217687151E+02  0.31264503585E+02  0.00000000000E+00 0.  1.
<mgrwt>
<rscale>  0 0.17789557E+04</rscale>
<asrwt>0</asrwt>
<pdfrwt beam="1">  1        2 0.19398845E+00 0.17789557E+04</pdfrwt>
<pdfrwt beam="2">  1       -2 0.96531200E-01 0.17789557E+04</pdfrwt>
<totfact> 0.14796884E+01</totfact>
</mgrwt>
</event>
<event>
12    1  0.1097093E-007  0.1756681E+04  0.7818608E-02  0.8729681E-01
          1   -1    0    0  501    0  0.00000000000E+00  0.00000000000E+00  0.15269828727E+04  0.15269828727E+04  0.00000000000E+00 0. -1.
         -1   -1    0    0    0  501 -0.00000000000E+00 -0.00000000000E+00 -0.50523305213E+03  0.50523305213E+03  0.00000000000E+00 0.  1.
         23    2    1    2    0    0 -0.87839751564E+02 -0.86915579232E+02 -0.35220369224E+03  0.38349862697E+03  0.88054620464E+02 0.  0.
        254    2    1    2    0    0  0.87839751564E+02  0.86915579232E+02  0.13739535129E+04  0.16487172979E+04  0.90291214028E+03 0.  0.
        -24    2    4    4    0    0  0.42008494210E+03 -0.14343953227E+03  0.97822243427E+03  0.10773904419E+04  0.82491062085E+02 0.  0.
         24    2    4    4    0    0 -0.33224519053E+03  0.23035511150E+03  0.39573107858E+03  0.57132685604E+03  0.79755538060E+02 0.  0.
         13    1    3    3    0    0 -0.20842430338E+02 -0.81807068162E+02 -0.18839241228E+03  0.20644249637E+03  0.00000000000E+00 0. -1.
        -13    1    3    3    0    0 -0.66997321226E+02 -0.51085110699E+01 -0.16381127996E+03  0.17705613059E+03  0.00000000000E+00 0.  1.
          2    1    6    6  502    0 -0.16194272638E+02  0.35867547916E+01  0.43524194925E+02  0.46577621452E+02  0.00000000000E+00 0. -1.
          1    1    5    5  503    0  0.11777077804E+02 -0.21395792444E+01  0.58000982878E+01  0.13301071427E+02  0.00000000000E+00 0. -1.
         -2    1    5    5    0  503  0.40830786429E+03 -0.14129995302E+03  0.97242233598E+03  0.10640893704E+04  0.00000000000E+00 0.  1.
         -1    1    6    6    0  502 -0.31605091790E+03  0.22676835671E+03  0.35220688366E+03  0.52474923459E+03  0.00000000000E+00 0.  1.
<mgrwt>
<rscale>  0 0.17566812E+04</rscale>
<asrwt>0</asrwt>
<pdfrwt beam="1">  1        1 0.23492044E+00 0.17566812E+04</pdfrwt>
<pdfrwt beam="2">  1       -1 0.77728162E-01 0.17566812E+04</pdfrwt>
<totfact> 0.98408694E+00</totfact>
</mgrwt>
</event>
<event>
12    1  0.1097093E-007  0.1641553E+04  0.7818608E-02  0.8795419E-01
          2   -1    0    0  501    0  0.00000000000E+00  0.00000000000E+00  0.30692740431E+04  0.30692740431E+04  0.00000000000E+00 0. -1.
         -2   -1    0    0    0  501 -0.00000000000E+00 -0.00000000000E+00 -0.21948967748E+03  0.21948967748E+03  0.00000000000E+00 0.  1.
         23    2    1    2    0    0 -0.21500054704E+03 -0.52356056271E+03  0.91780132099E+03  0.10832904277E+04  0.10400955691E+03 0.  0.
        254    2    1    2    0    0  0.21500054704E+03  0.52356056271E+03  0.19319830447E+04  0.22054732929E+04  0.90067367162E+03 0.  0.
        -24    2    4    4    0    0  0.44220159683E+03  0.11101776138E+03  0.43902949309E+03  0.63809805174E+03  0.80963153646E+02 0.  0.
         24    2    4    4    0    0 -0.22720104979E+03  0.41254280133E+03  0.14929535516E+04  0.15673752412E+04  0.77090592607E+02 0.  0.
         13    1    3    3    0    0 -0.25452386484E+02 -0.14174983162E+03  0.29900229433E+03  0.33187830715E+03  0.00000000000E+00 0. -1.
        -13    1    3    3    0    0 -0.18954816056E+03 -0.38181073110E+03  0.61879902666E+03  0.75141212058E+03  0.00000000000E+00 0.  1.
          2    1    6    6  502    0 -0.10268904015E+03  0.25693741930E+03  0.81132706015E+03  0.85721261945E+03  0.00000000000E+00 0. -1.
          1    1    5    5  503    0  0.13423588351E+03  0.52146922386E+01  0.16292719470E+03  0.21116755482E+03  0.00000000000E+00 0. -1.
         -2    1    5    5    0  503  0.30796571333E+03  0.10580306914E+03  0.27610229839E+03  0.42693049692E+03  0.00000000000E+00 0.  1.
         -1    1    6    6    0  502 -0.12451200964E+03  0.15560538203E+03  0.68162649143E+03  0.71016262171E+03  0.00000000000E+00 0.  1.
<mgrwt>
<rscale>  0 0.16415529E+04</rscale>
<asrwt>0</asrwt>
<pdfrwt beam="1">  1        2 0.47219598E+00 0.16415529E+04</pdfrwt>
<pdfrwt beam="2">  1       -2 0.33767645E-01 0.16415529E+04</pdfrwt>
<totfact> 0.12421170E+01</totfact>
</mgrwt>
</event>
<event>
12    1  0.1097093E-007  0.1362087E+04  0.7818608E-02  0.8981729E-01
          2   -1    0    0  501    0  0.00000000000E+00  0.00000000000E+00  0.26187020644E+04  0.26187020644E+04  0.00000000000E+00 0. -1.
         -2   -1    0    0    0  501 -0.00000000000E+00 -0.00000000000E+00 -0.17711834153E+03  0.17711834153E+03  0.00000000000E+00 0.  1.
         23    2    1    2    0    0 -0.15378160079E+03 -0.10091042126E+03  0.42390002981E+02  0.21413192156E+03  0.10111317232E+03 0.  0.
        254    2    1    2    0    0  0.15378160079E+03  0.10091042126E+03  0.23991937199E+04  0.25816884844E+04  0.93549624848E+03 0.  0.
        -24    2    4    4    0    0  0.29950970071E+03  0.44405301141E+03  0.17146074037E+04  0.17980971655E+04  0.79910763589E+02 0.  0.
         24    2    4    4    0    0 -0.14572809992E+03 -0.34314259015E+03  0.68458631619E+03  0.78359131884E+03  0.79833666796E+02 0.  0.
         13    1    3    3    0    0 -0.37635834880E+02  0.19615192271E+02  0.63157089446E+01  0.42908041372E+02  0.00000000000E+00 0. -1.
        -13    1    3    3    0    0 -0.11614576591E+03 -0.12052561353E+03  0.36074294037E+02  0.17122388019E+03  0.00000000000E+00 0.  1.
          2    1    6    6  502    0 -0.14347259929E+03 -0.25381111337E+03  0.50959912012E+03  0.58710793833E+03  0.00000000000E+00 0. -1.
          1    1    5    5  503    0  0.14127050592E+03  0.15778278435E+03  0.58853856412E+03  0.62548413596E+03  0.00000000000E+00 0. -1.
         -2    1    5    5    0  503  0.15823919479E+03  0.28627022706E+03  0.11260688396E+04  0.11726130296E+04  0.00000000000E+00 0.  1.
         -1    1    6    6    0  502 -0.22555006242E+01 -0.89331476780E+02  0.17498719607E+03  0.19648338051E+03  0.00000000000E+00 0.  1.
<mgrwt>
<rscale>  0 0.13620869E+04</rscale>
<asrwt>0</asrwt>
<pdfrwt beam="1">  1        2 0.40287721E+00 0.13620869E+04</pdfrwt>
<pdfrwt beam="2">  1       -2 0.27248977E-01 0.13620869E+04</pdfrwt>
<totfact> 0.35677209E+01</totfact>
</mgrwt>
</event>
<event>
12    1  0.1097093E-007  0.1493222E+04  0.7818608E-02  0.8888973E-01
          2   -1    0    0  501    0  0.00000000000E+00  0.00000000000E+00  0.16486796949E+04  0.16486796949E+04  0.00000000000E+00 0. -1.
         -2   -1    0    0    0  501 -0.00000000000E+00 -0.00000000000E+00 -0.33810561724E+03  0.33810561724E+03  0.00000000000E+00 0.  1.
         23    2    1    2    0    0 -0.25716297988E+02 -0.46765401269E+03  0.54976084159E+03  0.72830840301E+03  0.93992251752E+02 0.  0.
        254    2    1    2    0    0  0.25716297988E+02  0.46765401269E+03  0.76081323603E+03  0.12584769091E+04  0.88632146936E+03 0.  0.
        -24    2    4    4    0    0  0.23126321695E+03  0.45179805974E+03  0.87094458821E+03  0.10111915311E+04  0.79747567668E+02 0.  0.
         24    2    4    4    0    0 -0.20554691897E+03  0.15855952943E+02 -0.11013135218E+03  0.24728537799E+03  0.80747732439E+02 0.  0.
         11    1    3    3    0    0 -0.52318200986E+01 -0.22524618469E+03  0.19397310954E+03  0.29730251073E+03  0.00000000000E+00 0. -1.
        -11    1    3    3    0    0 -0.20484477890E+02 -0.24240782799E+03  0.35578773205E+03  0.43100589229E+03  0.00000000000E+00 0.  1.
          2    1    6    6  502    0 -0.15813306578E+03  0.25514801726E+02 -0.11707410794E+03  0.19840216317E+03  0.00000000000E+00 0. -1.
          3    1    5    5  503    0  0.12398161209E+03  0.31213598110E+03  0.61065583920E+03  0.69692242379E+03  0.00000000000E+00 0. -1.
         -4    1    5    5    0  503  0.10728160486E+03  0.13966207864E+03  0.26028874901E+03  0.31426910732E+03  0.00000000000E+00 0.  1.
         -1    1    6    6    0  502 -0.47413853185E+02 -0.96588487833E+01  0.69427557578E+01  0.48883214820E+02  0.00000000000E+00 0.  1.
<mgrwt>
<rscale>  0 0.14932218E+04</rscale>
<asrwt>0</asrwt>
<pdfrwt beam="1">  1        2 0.25364303E+00 0.14932218E+04</pdfrwt>
<pdfrwt beam="2">  1       -2 0.52016250E-01 0.14932218E+04</pdfrwt>
<totfact> 0.35328117E+01</totfact>
</mgrwt>
</event>
<event>
12    1  0.1097093E-007  0.1789950E+04  0.7818608E-02  0.8711662E-01
          1   -1    0    0  501    0  0.00000000000E+00  0.00000000000E+00  0.33944968928E+03  0.33944968928E+03  0.00000000000E+00 0. -1.
         -1   -1    0    0    0  501 -0.00000000000E+00 -0.00000000000E+00 -0.23596446925E+04  0.23596446925E+04  0.00000000000E+00 0.  1.
         23    2    1    2    0    0  0.60378587416E+03  0.26033611392E+02 -0.11775888101E+04  0.13271880819E+04  0.97353316368E+02 0.  0.
        254    2    1    2    0    0 -0.60378587416E+03 -0.26033611392E+02 -0.84260619311E+03  0.13719062999E+04  0.89827978288E+03 0.  0.
        -24    2    4    4    0    0 -0.16064716021E+03  0.13854698828E+03 -0.86249525969E+03  0.89204398310E+03  0.82714066206E+02 0.  0.
         24    2    4    4    0    0 -0.44313871394E+03 -0.16458059967E+03  0.19889066580E+02  0.47986231682E+03  0.80084795994E+02 0.  0.
         13    1    3    3    0    0  0.53977430361E+03  0.57610912564E+01 -0.10943591592E+04  0.12202505720E+04  0.00000000000E+00 0. -1.
        -13    1    3    3    0    0  0.64011570545E+02  0.20272520136E+02 -0.83229650846E+02  0.10693750987E+03  0.00000000000E+00 0.  1.
          2    1    6    6  502    0 -0.54543736390E+02 -0.50477283562E+02 -0.99611592998E+00  0.74323398618E+02  0.00000000000E+00 0. -1.
          3    1    5    5  503    0  0.23980944946E+01  0.20387906377E+02 -0.36673151332E+02  0.42027819504E+02  0.00000000000E+00 0. -1.
         -4    1    5    5    0  503 -0.16304525471E+03  0.11815908190E+03 -0.82582210836E+03  0.85001616359E+03  0.00000000000E+00 0.  1.
         -1    1    6    6    0  502 -0.38859497755E+03 -0.11410331611E+03  0.20885182510E+02  0.40553891820E+03  0.00000000000E+00 0.  1.
<mgrwt>
<rscale>  0 0.17899505E+04</rscale>
<asrwt>0</asrwt>
<pdfrwt beam="1">  1        1 0.52223030E-01 0.17899505E+04</pdfrwt>
<pdfrwt beam="2">  1       -1 0.36302226E+00 0.17899505E+04</pdfrwt>
<totfact> 0.89866514E-01</totfact>
</mgrwt>
</event>
<event>
12    1  0.1097093E-007  0.1801891E+04  0.7818608E-02  0.8705295E-01
         -2   -1    0    0    0  501 -0.00000000000E+00  0.00000000000E+00  0.32368698835E+03  0.32368698835E+03  0.00000000000E+00 0.  1.
          2   -1    0    0  501    0  0.00000000000E+00 -0.00000000000E+00 -0.25076778693E+04  0.25076778693E+04  0.00000000000E+00 0. -1.
         23    2    1    2    0    0  0.12680643521E+03 -0.40159593772E+02  0.20068827461E+03  0.25745414168E+03  0.91182161214E+02 0.  0.
        254    2    1    2    0    0 -0.12680643521E+03  0.40159593772E+02 -0.23846791556E+04  0.25739107160E+04  0.95949415517E+03 0.  0.
        -24    2    4    4    0    0  0.89082815018E+02  0.24907605491E+03 -0.14336943059E+03  0.31114895940E+03  0.79273275767E+02 0.  0.
         24    2    4    4    0    0 -0.21588925022E+03 -0.20891646114E+03 -0.22413097250E+04  0.22627617566E+04  0.79794909532E+02 0.  0.
         13    1    3    3    0    0  0.16053595735E+02 -0.13661402264E+01 -0.80347176072E+01  0.18003915190E+02  0.00000000000E+00 0. -1.
        -13    1    3    3    0    0  0.11075283947E+03 -0.38793453546E+02  0.20872299222E+03  0.23945022649E+03  0.00000000000E+00 0.  1.
          4    1    6    6  502    0 -0.21437611246E+03 -0.18648596769E+03 -0.21514895042E+04  0.21701707814E+04  0.00000000000E+00 0. -1.
          3    1    5    5  503    0  0.97640276535E+02  0.18056493941E+03 -0.91247891328E+02  0.22464082136E+03  0.00000000000E+00 0. -1.
         -4    1    5    5    0  503 -0.85574615168E+01  0.68511115493E+02 -0.52121539257E+02  0.86508138046E+02  0.00000000000E+00 0.  1.
         -1    1    6    6    0  502 -0.15131377644E+01 -0.22430493444E+02 -0.89820220819E+02  0.92590975209E+02  0.00000000000E+00 0.  1.
<mgrwt>
<rscale>  0 0.18018909E+04</rscale>
<asrwt>0</asrwt>
<pdfrwt beam="1">  1        2 0.38579659E+00 0.18018909E+04</pdfrwt>
<pdfrwt beam="2">  1       -2 0.49797999E-01 0.18018909E+04</pdfrwt>
<totfact> 0.12424925E+01</totfact>
</mgrwt>
</event>
<event>
12    1  0.1097093E-007  0.1466800E+04  0.7818608E-02  0.8906836E-01
          1   -1    0    0  501    0  0.00000000000E+00  0.00000000000E+00  0.13227906936E+04  0.13227906936E+04  0.00000000000E+00 0. -1.
         -1   -1    0    0    0  501 -0.00000000000E+00 -0.00000000000E+00 -0.40662170265E+03  0.40662170265E+03  0.00000000000E+00 0.  1.
         23    2    1    2    0    0 -0.30037449747E+03 -0.25551076661E+03  0.49898526330E+03  0.64522226995E+03  0.10869633877E+03 0.  0.
        254    2    1    2    0    0  0.30037449747E+03  0.25551076661E+03  0.41718372761E+03  0.10841901263E+04  0.91973658007E+03 0.  0.
        -24    2    4    4    0    0 -0.27498223941E+03  0.29458605321E+03  0.23715336485E+03  0.47484492879E+03  0.82703163204E+02 0.  0.
         24    2    4    4    0    0  0.57535673688E+03 -0.39075286596E+02  0.18003036276E+03  0.60934519747E+03  0.79551150009E+02 0.  0.
         13    1    3    3    0    0 -0.27068149463E+03 -0.18570348814E+03  0.44089668322E+03  0.54967639782E+03  0.00000000000E+00 0. -1.
        -13    1    3    3    0    0 -0.29693002839E+02 -0.69807278474E+02  0.58088580075E+02  0.95545872128E+02  0.00000000000E+00 0.  1.
          4    1    6    6  502    0  0.21053404554E+03 -0.28336609924E+02  0.29213562752E+02  0.21443176081E+03  0.00000000000E+00 0. -1.
          3    1    5    5  503    0 -0.55681453422E+02  0.55306796961E+02  0.87171220732E+02  0.11729487529E+03  0.00000000000E+00 0. -1.
         -2    1    5    5    0  503 -0.21930078599E+03  0.23927925625E+03  0.14998214412E+03  0.35755005350E+03  0.00000000000E+00 0.  1.
         -3    1    6    6    0  502  0.36482269134E+03 -0.10738676671E+02  0.15081680000E+03  0.39491343666E+03  0.00000000000E+00 0.  1.
<mgrwt>
<rscale>  0 0.14667998E+04</rscale>
<asrwt>0</asrwt>
<pdfrwt beam="1">  1        1 0.20350626E+00 0.14667998E+04</pdfrwt>
<pdfrwt beam="2">  1       -1 0.62557186E-01 0.14667998E+04</pdfrwt>
<totfact> 0.21902531E+01</totfact>
</mgrwt>
</event>
<event>
12    1  0.1097093E-007  0.2166945E+04  0.7818608E-02  0.8532314E-01
         -1   -1    0    0    0  501 -0.00000000000E+00  0.00000000000E+00  0.69818330309E+03  0.69818330309E+03  0.00000000000E+00 0.  1.
          1   -1    0    0  501    0  0.00000000000E+00 -0.00000000000E+00 -0.16813820448E+04  0.16813820448E+04  0.00000000000E+00 0. -1.
         23    2    1    2    0    0 -0.88467956552E+02 -0.22584382202E+03  0.50526629641E+03  0.56732406590E+03  0.87923570115E+02 0.  0.
        254    2    1    2    0    0  0.88467956552E+02  0.22584382202E+03 -0.14884650382E+04  0.18122412820E+04  0.10049170529E+04 0.  0.
        -24    2    4    4    0    0 -0.10113507136E+03  0.13822008916E+03 -0.15647433579E+04  0.15763108359E+04  0.83671855692E+02 0.  0.
         24    2    4    4    0    0  0.18960302791E+03  0.87623732858E+02  0.76278319749E+02  0.23593044618E+03  0.78851547976E+02 0.  0.
         13    1    3    3    0    0 -0.17093760863E+02 -0.14402110260E+03  0.23615644518E+03  0.27713560084E+03  0.00000000000E+00 0.  1.
        -13    1    3    3    0    0 -0.71374195689E+02 -0.81822719417E+02  0.26910985123E+03  0.29018846506E+03  0.00000000000E+00 0. -1.
          2    1    6    6  502    0  0.18093695159E+03  0.10099201855E+03  0.68853673709E+02  0.21835383359E+03  0.00000000000E+00 0. -1.
          1    1    5    5  503    0 -0.10307547232E+03  0.79520371228E+02 -0.11703619448E+04  0.11775801986E+04  0.00000000000E+00 0. -1.
         -2    1    5    5    0  503  0.19404009602E+01  0.58699717933E+02 -0.39438141313E+03  0.39873063723E+03  0.00000000000E+00 0.  1.
         -1    1    6    6    0  502  0.86660763210E+01 -0.13368285694E+02  0.74246460408E+01  0.17576612587E+02  0.00000000000E+00 0.  1.
<mgrwt>
<rscale>  0 0.21669452E+04</rscale>
<asrwt>0</asrwt>
<pdfrwt beam="1">  1        1 0.25867416E+00 0.21669452E+04</pdfrwt>
<pdfrwt beam="2">  1       -1 0.10741282E+00 0.21669452E+04</pdfrwt>
<totfact> 0.36220640E+00</totfact>
</mgrwt>
</event>
<event>
12    1  0.1097093E-007  0.1862353E+04  0.7818608E-02  0.8673826E-01
          1   -1    0    0  501    0  0.00000000000E+00  0.00000000000E+00  0.30507446702E+04  0.30507446702E+04  0.00000000000E+00 0. -1.
         -1   -1    0    0    0  501 -0.00000000000E+00 -0.00000000000E+00 -0.28422233760E+03  0.28422233760E+03  0.00000000000E+00 0.  1.
         23    2    1    2    0    0  0.65730867840E+02 -0.68882544469E+02 -0.19948031361E+03  0.23954260382E+03  0.92319616571E+02 0.  0.
        254    2    1    2    0    0 -0.65730867840E+02  0.68882544469E+02  0.29660026462E+04  0.30954244040E+04  0.88057662441E+03 0.  0.
        -24    2    4    4    0    0 -0.70230183447E+02  0.22326278805E+03  0.18484114802E+03  0.30880348586E+03  0.80092394651E+02 0.  0.
         24    2    4    4    0    0  0.44993156073E+01 -0.15438024358E+03  0.27811614982E+04  0.27866209181E+04  0.80891030457E+02 0.  0.
         13    1    3    3    0    0 -0.17651974224E+02 -0.20094456869E+02 -0.13483511799E+02  0.29953037931E+02  0.00000000000E+00 0. -1.
        -13    1    3    3    0    0  0.83382842064E+02 -0.48788087601E+02 -0.18599680181E+03  0.20958956588E+03  0.00000000000E+00 0.  1.
          4    1    6    6  502    0  0.27673866013E+02 -0.30138715517E+02  0.10781916621E+04  0.10789677684E+04  0.00000000000E+00 0. -1.
          3    1    5    5  503    0 -0.53255482593E+00 -0.52378948600E+01 -0.18852167720E+01  0.55922445837E+01  0.00000000000E+00 0. -1.
         -4    1    5    5    0  503 -0.69697628621E+02  0.22850068291E+03  0.18672636480E+03  0.30321124128E+03  0.00000000000E+00 0.  1.
         -3    1    6    6    0  502 -0.23174550405E+02 -0.12424152807E+03  0.17029698361E+04  0.17076531497E+04  0.00000000000E+00 0.  1.
<mgrwt>
<rscale>  0 0.18623531E+04</rscale>
<asrwt>0</asrwt>
<pdfrwt beam="1">  1        1 0.46934531E+00 0.18623531E+04</pdfrwt>
<pdfrwt beam="2">  1       -1 0.43726515E-01 0.18623531E+04</pdfrwt>
<totfact> 0.26688558E+00</totfact>
</mgrwt>
</event>
<event>
12    1  0.1097093E-007  0.2063482E+04  0.7818608E-02  0.8577503E-01
         -2   -1    0    0    0  501 -0.00000000000E+00  0.00000000000E+00  0.85910064808E+03  0.85910064808E+03  0.00000000000E+00 0. -1.
          2   -1    0    0  501    0  0.00000000000E+00 -0.00000000000E+00 -0.12390737723E+04  0.12390737723E+04  0.00000000000E+00 0.  1.
         23    2    1    2    0    0  0.74465235488E+03 -0.33946551856E+03 -0.29815699723E+02  0.82408817047E+03  0.92132344187E+02 0.  0.
        254    2    1    2    0    0 -0.74465235488E+03  0.33946551856E+03 -0.35015742449E+03  0.12740862499E+04  0.91155997189E+03 0.  0.
        -24    2    4    4    0    0  0.86495504603E+02  0.32748230214E+03 -0.25971208321E+03  0.43424019439E+03  0.79925275874E+02 0.  0.
         24    2    4    4    0    0 -0.83114785948E+03  0.11983216421E+02 -0.90445341282E+02  0.83984605552E+03  0.78807838549E+02 0.  0.
         13    1    3    3    0    0  0.40678017452E+03 -0.16641600709E+03 -0.58572620216E+02  0.44339051596E+03  0.00000000000E+00 0. -1.
        -13    1    3    3    0    0  0.33787218035E+03 -0.17304951147E+03  0.28756920493E+02  0.38069765451E+03  0.00000000000E+00 0.  1.
          2    1    6    6  502    0 -0.57218344850E+03  0.34539474361E+02 -0.87640926365E+02  0.57988602846E+03  0.00000000000E+00 0. -1.
          3    1    5    5  503    0  0.10061057110E+03  0.30756310422E+03 -0.24166275069E+03  0.40387923340E+03  0.00000000000E+00 0. -1.
         -4    1    5    5    0  503 -0.14115066498E+02  0.19919197923E+02 -0.18049332516E+02  0.30360960993E+02  0.00000000000E+00 0.  1.
         -1    1    6    6    0  502 -0.25896441097E+03 -0.22556257940E+02 -0.28044149165E+01  0.25996002705E+03  0.00000000000E+00 0.  1.
<mgrwt>
<rscale>  0 0.20634816E+04</rscale>
<asrwt>0</asrwt>
<pdfrwt beam="1">  1        2 0.19062673E+00 0.20634816E+04</pdfrwt>
<pdfrwt beam="2">  1       -2 0.13216933E+00 0.20634816E+04</pdfrwt>
<totfact> 0.69111092E+00</totfact>
</mgrwt>
</event>
<event>
12    1  0.1097093E-007  0.2840231E+04  0.7818608E-02  0.8290886E-01
          2   -1    0    0  501    0  0.00000000000E+00  0.00000000000E+00  0.30055992715E+04  0.30055992715E+04  0.00000000000E+00 0. -1.
         -2   -1    0    0    0  501 -0.00000000000E+00 -0.00000000000E+00 -0.67099044198E+03  0.67099044198E+03  0.00000000000E+00 0.  1.
         23    2    1    2    0    0 -0.35256191444E+03 -0.92922498873E+03  0.21034485103E+04  0.23281726235E+04  0.90183956108E+02 0.  0.
        254    2    1    2    0    0  0.35256191444E+03  0.92922498873E+03  0.23116031918E+03  0.13484170900E+04  0.88149564503E+03 0.  0.
        -24    2    4    4    0    0  0.39505587422E+02  0.45925591704E+03  0.52755927109E+03  0.70517678927E+03  0.80491184832E+02 0.  0.
         24    2    4    4    0    0  0.31305632701E+03  0.46996907168E+03 -0.29639895191E+03  0.64324030071E+03  0.83848396172E+02 0.  0.
         13    1    3    3    0    0 -0.73623954238E+02 -0.15965950352E+03  0.45200959735E+03  0.48499929876E+03  0.00000000000E+00 0.  1.
        -13    1    3    3    0    0 -0.27893796020E+03 -0.76956548521E+03  0.16514389130E+04  0.18431733247E+04  0.00000000000E+00 0. -1.
          4    1    6    6  502    0  0.10280861150E+03  0.16122892077E+03 -0.56823649390E+02  0.19948258726E+03  0.00000000000E+00 0. -1.
          3    1    5    5  503    0 -0.10723082126E+02  0.13737050702E+03  0.20275386053E+03  0.24514234365E+03  0.00000000000E+00 0. -1.
         -4    1    5    5    0  503  0.50228669548E+02  0.32188541002E+03  0.32480541056E+03  0.46003444562E+03  0.00000000000E+00 0.  1.
         -3    1    6    6    0  502  0.21024771552E+03  0.30874015091E+03 -0.23957530252E+03  0.44375771345E+03  0.00000000000E+00 0.  1.
<mgrwt>
<rscale>  0 0.28402312E+04</rscale>
<asrwt>0</asrwt>
<pdfrwt beam="1">  1        2 0.46239988E+00 0.28402312E+04</pdfrwt>
<pdfrwt beam="2">  1       -2 0.10322930E+00 0.28402312E+04</pdfrwt>
<totfact> 0.11464191E+00</totfact>
</mgrwt>
</event>
<event>
12    1  0.1097093E-007  0.2627188E+04  0.7818608E-02  0.8359024E-01
          1   -1    0    0  501    0  0.00000000000E+00  0.00000000000E+00  0.71410923984E+03  0.71410923984E+03  0.00000000000E+00 0. -1.
         -1   -1    0    0    0  501 -0.00000000000E+00 -0.00000000000E+00 -0.24163380011E+04  0.24163380011E+04  0.00000000000E+00 0.  1.
         23    2    1    2    0    0  0.78645524085E+03  0.41524647864E+03  0.12464346729E+03  0.90270600763E+03  0.91655105605E+02 0.  0.
        254    2    1    2    0    0 -0.78645524085E+03 -0.41524647864E+03 -0.18268722285E+04  0.22277412333E+04  0.91346996624E+03 0.  0.
        -24    2    4    4    0    0 -0.52940044857E+02 -0.51652263353E+03 -0.84513287207E+03  0.99546231229E+03  0.84245857122E+02 0.  0.
         24    2    4    4    0    0 -0.73351519599E+03  0.10127615489E+03 -0.98173935647E+03  0.12322789210E+04  0.79986078803E+02 0.  0.
         11    1    3    3    0    0  0.68504030069E+03  0.35248913219E+03  0.76879154980E+02  0.77423459387E+03  0.00000000000E+00 0. -1.
        -11    1    3    3    0    0  0.10141494016E+03  0.62757346457E+02  0.47764312308E+02  0.12847141376E+03  0.00000000000E+00 0.  1.
          2    1    6    6  502    0 -0.18987123164E+03  0.15557308617E+02 -0.19971651055E+03  0.27600688224E+03  0.00000000000E+00 0. -1.
          1    1    5    5  503    0 -0.27681388027E+02 -0.49359234130E+02 -0.69140605998E+02  0.89347728761E+02  0.00000000000E+00 0. -1.
         -2    1    5    5    0  503 -0.25258656830E+02 -0.46716339940E+03 -0.77599226607E+03  0.90611458353E+03  0.00000000000E+00 0.  1.
         -1    1    6    6    0  502 -0.54364396435E+03  0.85718846268E+02 -0.78202284592E+03  0.95627203876E+03  0.00000000000E+00 0.  1.
<mgrwt>
<rscale>  0 0.26271881E+04</rscale>
<asrwt>0</asrwt>
<pdfrwt beam="1">  1        1 0.10986296E+00 0.26271881E+04</pdfrwt>
<pdfrwt beam="2">  1       -1 0.37174431E+00 0.26271881E+04</pdfrwt>
<totfact> 0.25824164E-01</totfact>
</mgrwt>
</event>
<event>
12    1  0.1097093E-007  0.2336774E+04  0.7818608E-02  0.8463561E-01
          2   -1    0    0  501    0  0.00000000000E+00  0.00000000000E+00  0.14693843316E+04  0.14693843316E+04  0.00000000000E+00 0. -1.
         -2   -1    0    0    0  501 -0.00000000000E+00 -0.00000000000E+00 -0.92904760383E+03  0.92904760383E+03  0.00000000000E+00 0.  1.
         23    2    1    2    0    0 -0.20095957997E+03  0.96621911903E+03  0.15776135735E+03  0.10036909585E+04  0.92427028526E+02 0.  0.
        254    2    1    2    0    0  0.20095957997E+03 -0.96621911903E+03  0.38257537042E+03  0.13947409769E+04  0.90828098068E+03 0.  0.
        -24    2    4    4    0    0  0.54259683269E+02  0.12331507168E+03  0.23520056971E+03  0.28263191262E+03  0.80067283627E+02 0.  0.
         24    2    4    4    0    0  0.14669989670E+03 -0.10895341907E+04  0.14737480071E+03  0.11121090643E+04  0.80384243320E+02 0.  0.
         13    1    3    3    0    0 -0.15679429528E+02  0.14296409534E+03  0.53401263042E+02  0.15341535765E+03  0.00000000000E+00 0.  1.
        -13    1    3    3    0    0 -0.18528015044E+03  0.82325502368E+03  0.10436009431E+03  0.85027560088E+03  0.00000000000E+00 0. -1.
          4    1    6    6  502    0  0.61508956977E+01 -0.65894802014E+01 -0.35775489903E+01  0.96981247665E+01  0.00000000000E+00 0. -1.
          3    1    5    5  503    0  0.20167048324E+02 -0.75142427214E+01  0.31927174567E+02  0.38503482409E+02  0.00000000000E+00 0. -1.
         -4    1    5    5    0  503  0.34092634945E+02  0.13082931440E+03  0.20327339514E+03  0.24412843021E+03  0.00000000000E+00 0.  1.
         -3    1    6    6    0  502  0.14054900100E+03 -0.10829447105E+04  0.15095234970E+03  0.11024109395E+04  0.00000000000E+00 0.  1.
<mgrwt>
<rscale>  0 0.23367738E+04</rscale>
<asrwt>0</asrwt>
<pdfrwt beam="1">  1        2 0.22605913E+00 0.23367738E+04</pdfrwt>
<pdfrwt beam="2">  1       -2 0.14293040E+00 0.23367738E+04</pdfrwt>
<totfact> 0.40638840E+00</totfact>
</mgrwt>
</event>
<event>
12    1  0.1097093E-007  0.1920174E+04  0.7818608E-02  0.8644879E-01
          2   -1    0    0  501    0  0.00000000000E+00  0.00000000000E+00  0.88355082391E+03  0.88355082391E+03  0.00000000000E+00 0.  1.
         -2   -1    0    0    0  501 -0.00000000000E+00 -0.00000000000E+00 -0.10432533236E+04  0.10432533236E+04  0.00000000000E+00 0. -1.
         23    2    1    2    0    0 -0.16772259761E+03 -0.51814882780E+03  0.44661879466E+03  0.71071383834E+03  0.95061741846E+02 0.  0.
        254    2    1    2    0    0  0.16772259761E+03  0.51814882780E+03 -0.60632129434E+03  0.12160903092E+04  0.90257467865E+03 0.  0.
        -24    2    4    4    0    0  0.18237407289E+03  0.61830568646E+03 -0.56770699823E+02  0.65167191982E+03  0.76753855687E+02 0.  0.
         24    2    4    4    0    0 -0.14651475280E+02 -0.10015685865E+03 -0.54955059451E+03  0.56441838933E+03  0.79474525601E+02 0.  0.
         11    1    3    3    0    0 -0.19584959480E+02 -0.18216565450E+03  0.18081163224E+03  0.25741162109E+03  0.00000000000E+00 0. -1.
        -11    1    3    3    0    0 -0.14813763813E+03 -0.33598317330E+03  0.26580716241E+03  0.45330221725E+03  0.00000000000E+00 0.  1.
          4    1    6    6  502    0 -0.14643916323E+02  0.18106541274E+01 -0.18483946722E+02  0.23651195320E+02  0.00000000000E+00 0. -1.
          3    1    5    5  503    0  0.55221370840E+02  0.10945125373E+03  0.97023416204E+01  0.12297606341E+03  0.00000000000E+00 0. -1.
         -4    1    5    5    0  503  0.12715270205E+03  0.50885443273E+03 -0.66473041443E+02  0.52869585641E+03  0.00000000000E+00 0.  1.
         -3    1    6    6    0  502 -0.75589568006E-02 -0.10196751278E+03 -0.53106664779E+03  0.54076719401E+03  0.00000000000E+00 0.  1.
<mgrwt>
<rscale>  0 0.19201743E+04</rscale>
<asrwt>0</asrwt>
<pdfrwt beam="1">  1        2 0.13593090E+00 0.19201743E+04</pdfrwt>
<pdfrwt beam="2">  1       -2 0.16050051E+00 0.19201743E+04</pdfrwt>
<totfact> 0.70242754E+00</totfact>
</mgrwt>
</event>
<event>
12    1  0.1097093E-007  0.3277611E+04  0.7818608E-02  0.8168616E-01
         -2   -1    0    0    0  501 -0.00000000000E+00  0.00000000000E+00  0.11265498901E+04  0.11265498901E+04  0.00000000000E+00 0.  1.
          2   -1    0    0  501    0  0.00000000000E+00 -0.00000000000E+00 -0.23839896823E+04  0.23839896823E+04  0.00000000000E+00 0. -1.
         23    2    1    2    0    0 -0.14263554790E+04 -0.38548872403E+03 -0.22752186251E+03  0.14977922319E+04  0.92324770764E+02 0.  0.
        254    2    1    2    0    0  0.14263554790E+04  0.38548872403E+03 -0.10299179297E+04  0.20127473405E+04  0.89851511164E+03 0.  0.
        -24    2    4    4    0    0  0.25085532100E+03  0.29161396973E+03 -0.67089915577E+03  0.77748108404E+03  0.80025367258E+02 0.  0.
         24    2    4    4    0    0  0.11755001580E+04  0.93874754296E+02 -0.35901877392E+03  0.12352662564E+04  0.79844557166E+02 0.  0.
         11    1    3    3    0    0 -0.96657838213E+03 -0.24698559246E+03 -0.11196728775E+03  0.10038985632E+04  0.00000000000E+00 0. -1.
        -11    1    3    3    0    0 -0.45977709688E+03 -0.13850313157E+03 -0.11555457476E+03  0.49389366874E+03  0.00000000000E+00 0.  1.
          4    1    6    6  502    0  0.28629434195E+03  0.54082184193E+02 -0.10393078757E+03  0.30933952461E+03  0.00000000000E+00 0. -1.
          3    1    5    5  503    0  0.11652204049E+01  0.18166815889E+02 -0.63961494489E+02  0.66501606863E+02  0.00000000000E+00 0. -1.
         -4    1    5    5    0  503  0.24969010060E+03  0.27344715384E+03 -0.60693766128E+03  0.71097947718E+03  0.00000000000E+00 0.  1.
         -3    1    6    6    0  502  0.88920581605E+03  0.39792570102E+02 -0.25508798635E+03  0.92592673183E+03  0.00000000000E+00 0.  1.
<mgrwt>
<rscale>  0 0.32776109E+04</rscale>
<asrwt>0</asrwt>
<pdfrwt beam="1">  1        2 0.36676765E+00 0.32776109E+04</pdfrwt>
<pdfrwt beam="2">  1       -2 0.17331537E+00 0.32776109E+04</pdfrwt>
<totfact> 0.68595039E-01</totfact>
</mgrwt>
</event>
<event>
12    1  0.1097093E-007  0.2408451E+04  0.7818608E-02  0.8436346E-01
         -1   -1    0    0    0  501 -0.00000000000E+00  0.00000000000E+00  0.89803952982E+03  0.89803952982E+03  0.00000000000E+00 0.  1.
          1   -1    0    0  501    0  0.00000000000E+00 -0.00000000000E+00 -0.16148056300E+04  0.16148056300E+04  0.00000000000E+00 0. -1.
         23    2    1    2    0    0 -0.38667013773E+03 -0.67212187488E+03 -0.10223979278E+04  0.12864758070E+04  0.91982982739E+02 0.  0.
        254    2    1    2    0    0  0.38667013773E+03  0.67212187488E+03  0.30563182759E+03  0.12263693528E+04  0.89961623232E+03 0.  0.
        -24    2    4    4    0    0  0.22667021554E+03 -0.91827022506E+02  0.35700072558E+03  0.44039324860E+03  0.81762501634E+02 0.  0.
         24    2    4    4    0    0  0.15999992219E+03  0.76394889738E+03 -0.51368897983E+02  0.78597610424E+03  0.76823042429E+02 0.  0.
         11    1    3    3    0    0 -0.30739183531E+03 -0.53981589693E+03 -0.87534994502E+03  0.10733724746E+04  0.00000000000E+00 0. -1.
        -11    1    3    3    0    0 -0.79278302415E+02 -0.13230597795E+03 -0.14704798276E+03  0.21310333238E+03  0.00000000000E+00 0.  1.
          2    1    6    6  502    0  0.16384747548E+03  0.71505515607E+03 -0.35568033226E+02  0.73444874323E+03  0.00000000000E+00 0. -1.
          1    1    5    5  503    0  0.10286724372E+03 -0.71071945286E+02  0.12611659230E+03  0.17759021958E+03  0.00000000000E+00 0. -1.
         -2    1    5    5    0  503  0.12380297182E+03 -0.20755077220E+02  0.23088413328E+03  0.26280302902E+03  0.00000000000E+00 0.  1.
         -1    1    6    6    0  502 -0.38475532940E+01  0.48893741317E+02 -0.15800864757E+02  0.51527361017E+02  0.00000000000E+00 0.  1.
<mgrwt>
<rscale>  0 0.24084512E+04</rscale>
<asrwt>0</asrwt>
<pdfrwt beam="1">  1        1 0.24843164E+00 0.24084512E+04</pdfrwt>
<pdfrwt beam="2">  1       -1 0.13815993E+00 0.24084512E+04</pdfrwt>
<totfact> 0.21179117E+00</totfact>
</mgrwt>
</event>
<event>
12    1  0.1097093E-007  0.1899057E+04  0.7818608E-02  0.8655326E-01
         -2   -1    0    0    0  501 -0.00000000000E+00  0.00000000000E+00  0.56142841935E+03  0.56142841935E+03  0.00000000000E+00 0. -1.
          2   -1    0    0  501    0  0.00000000000E+00 -0.00000000000E+00 -0.16059112094E+04  0.16059112094E+04  0.00000000000E+00 0.  1.
         23    2    1    2    0    0  0.81130169406E+02 -0.56672784119E+03  0.11776813377E+03  0.59188387457E+03  0.93245038897E+02 0.  0.
        254    2    1    2    0    0 -0.81130169406E+02  0.56672784119E+03 -0.11622509238E+04  0.15754557542E+04  0.89636547965E+03 0.  0.
        -24    2    4    4    0    0 -0.34301778499E+03  0.65985803057E+03 -0.66714337566E+03  0.10021161688E+04  0.77991735102E+02 0.  0.
         24    2    4    4    0    0  0.26188761559E+03 -0.93130189389E+02 -0.49510754814E+03  0.57333958538E+03  0.79551496240E+02 0.  0.
         11    1    3    3    0    0  0.97645667906E+02 -0.51970057881E+03  0.11902805104E+03  0.54202494870E+03  0.00000000000E+00 0. -1.
        -11    1    3    3    0    0 -0.16515498500E+02 -0.47027262371E+02 -0.12599172756E+01  0.49858925865E+02  0.00000000000E+00 0.  1.
          2    1    6    6  502    0  0.20073186837E+03 -0.10333607899E+03 -0.40987548475E+03  0.46794181391E+03  0.00000000000E+00 0. -1.
          3    1    5    5  503    0 -0.22319739288E+03  0.48693112396E+03 -0.44759510300E+03  0.69804037985E+03  0.00000000000E+00 0. -1.
         -4    1    5    5    0  503 -0.11982039212E+03  0.17292690662E+03 -0.21954827266E+03  0.30407578895E+03  0.00000000000E+00 0.  1.
         -1    1    6    6    0  502  0.61155747218E+02  0.10205889604E+02 -0.85232063391E+02  0.10539777147E+03  0.00000000000E+00 0.  1.
<mgrwt>
<rscale>  0 0.18990568E+04</rscale>
<asrwt>0</asrwt>
<pdfrwt beam="1">  1        2 0.24706326E+00 0.18990568E+04</pdfrwt>
<pdfrwt beam="2">  1       -2 0.86373605E-01 0.18990568E+04</pdfrwt>
<totfact> 0.12041003E+01</totfact>
</mgrwt>
</event>
<event>
12    1  0.1097093E-007  0.1629650E+04  0.7818608E-02  0.8802537E-01
          2   -1    0    0  501    0  0.00000000000E+00  0.00000000000E+00  0.12880011147E+04  0.12880011147E+04  0.00000000000E+00 0. -1.
         -2   -1    0    0    0  501 -0.00000000000E+00 -0.00000000000E+00 -0.51548072644E+03  0.51548072644E+03  0.00000000000E+00 0.  1.
         23    2    1    2    0    0 -0.46107859343E+03 -0.31902921674E+03  0.21067659923E+03  0.60601186383E+03  0.92155516300E+02 0.  0.
        254    2    1    2    0    0  0.46107859343E+03  0.31902921674E+03  0.56184378904E+03  0.11974699773E+04  0.89660068749E+03 0.  0.
        -24    2    4    4    0    0  0.10999563023E+03  0.47838119186E+03  0.62742862648E+03  0.80001831104E+03  0.73586773808E+02 0.  0.
         24    2    4    4    0    0  0.35108296320E+03 -0.15935197513E+03 -0.65584837442E+02  0.39745166626E+03  0.70810713079E+02 0.  0.
         13    1    3    3    0    0 -0.53106605191E+02 -0.77863204320E+02  0.32248972919E+02  0.99614187525E+02  0.00000000000E+00 0. -1.
        -13    1    3    3    0    0 -0.40797198824E+03 -0.24116601242E+03  0.17842762631E+03  0.50639767630E+03  0.00000000000E+00 0.  1.
          2    1    6    6  502    0  0.62014626320E+02 -0.19123328670E+02  0.14147126982E+02  0.66420303965E+02  0.00000000000E+00 0. -1.
          3    1    5    5  503    0 -0.71320935225E+01  0.94946387074E+02  0.12973984742E+03  0.16092890103E+03  0.00000000000E+00 0. -1.
         -4    1    5    5    0  503  0.11712772376E+03  0.38343480479E+03  0.49768877906E+03  0.63908941002E+03  0.00000000000E+00 0.  1.
         -1    1    6    6    0  502  0.28906833688E+03 -0.14022864646E+03 -0.79731964424E+02  0.33103136230E+03  0.00000000000E+00 0.  1.
<mgrwt>
<rscale>  0 0.16296500E+04</rscale>
<asrwt>0</asrwt>
<pdfrwt beam="1">  1        2 0.19815402E+00 0.16296500E+04</pdfrwt>
<pdfrwt beam="2">  1       -2 0.79304728E-01 0.16296500E+04</pdfrwt>
<totfact> 0.22661532E+01</totfact>
</mgrwt>
</event>
<event>
12    1  0.1097093E-007  0.1384368E+04  0.7818608E-02  0.8965212E-01
         -2   -1    0    0    0  501 -0.00000000000E+00  0.00000000000E+00  0.26651123488E+03  0.26651123488E+03  0.00000000000E+00 0.  1.
          2   -1    0    0  501    0  0.00000000000E+00 -0.00000000000E+00 -0.17977427236E+04  0.17977427236E+04  0.00000000000E+00 0. -1.
         23    2    1    2    0    0 -0.94809447661E+02 -0.14821334754E+03  0.74286880594E+02  0.21221922801E+03  0.92533412095E+02 0.  0.
        254    2    1    2    0    0  0.94809447661E+02  0.14821334754E+03 -0.16055183693E+04  0.18520347305E+04  0.90630424303E+03 0.  0.
        -24    2    4    4    0    0  0.62598820016E+02 -0.13671965825E+03  0.44246909699E+02  0.17567649244E+03  0.79331984477E+02 0.  0.
         24    2    4    4    0    0  0.32210627645E+02  0.28493300578E+03 -0.16497652790E+04  0.16763582381E+04  0.78912128710E+02 0.  0.
         13    1    3    3    0    0 -0.10359831303E+03 -0.11803610192E+03  0.33256949080E+02  0.16053397298E+03  0.00000000000E+00 0.  1.
        -13    1    3    3    0    0  0.87888653651E+01 -0.30177245623E+02  0.41029931514E+02  0.51685255033E+02  0.00000000000E+00 0. -1.
          4    1    6    6  502    0 -0.11626891014E+02  0.21195523619E+03 -0.11802024193E+04  0.11991405078E+04  0.00000000000E+00 0. -1.
          1    1    5    5  503    0  0.10464137437E+02 -0.94924102125E+02 -0.64631879620E-01  0.95499149284E+02  0.00000000000E+00 0. -1.
         -2    1    5    5    0  503  0.52134682579E+02 -0.41795556120E+02  0.44311541579E+02  0.80177343159E+02  0.00000000000E+00 0.  1.
         -3    1    6    6    0  502  0.43837518659E+02  0.72977769594E+02 -0.46956285971E+03  0.47721773030E+03  0.00000000000E+00 0.  1.
<mgrwt>
<rscale>  0 0.13843679E+04</rscale>
<asrwt>0</asrwt>
<pdfrwt beam="1">  1        2 0.27657580E+00 0.13843679E+04</pdfrwt>
<pdfrwt beam="2">  1       -2 0.41001728E-01 0.13843679E+04</pdfrwt>
<totfact> 0.47506227E+01</totfact>
</mgrwt>
</event>
<event>
12    1  0.1097093E-007  0.2535079E+04  0.7818608E-02  0.8390594E-01
          1   -1    0    0  501    0  0.00000000000E+00  0.00000000000E+00  0.22414316893E+04  0.22414316893E+04  0.00000000000E+00 0. -1.
         -1   -1    0    0    0  501 -0.00000000000E+00 -0.00000000000E+00 -0.71679897083E+03  0.71679897083E+03  0.00000000000E+00 0.  1.
         23    2    1    2    0    0 -0.37458928153E+03 -0.65701341268E+03  0.16095585937E+04  0.17806501722E+04  0.89735248518E+02 0.  0.
        254    2    1    2    0    0  0.37458928153E+03  0.65701341268E+03 -0.84925875231E+02  0.11775804880E+04  0.89860984141E+03 0.  0.
        -24    2    4    4    0    0  0.11229677960E+03  0.55507021957E+03 -0.43720904371E+03  0.71966286247E+03  0.77777711190E+02 0.  0.
         24    2    4    4    0    0  0.26229250193E+03  0.10194319311E+03  0.35228316848E+03  0.45791762549E+03  0.79970930657E+02 0.  0.
         13    1    3    3    0    0 -0.36995864220E+03 -0.60370168541E+03  0.14914045309E+04  0.16509429417E+04  0.00000000000E+00 0. -1.
        -13    1    3    3    0    0 -0.46306393313E+01 -0.53311727270E+02  0.11815406280E+03  0.12970723049E+03  0.00000000000E+00 0.  1.
          4    1    6    6  502    0  0.20422120945E+03  0.59680609820E+02  0.30518775454E+03  0.37203177700E+03  0.00000000000E+00 0. -1.
          3    1    5    5  503    0  0.10544590917E+03  0.53205157147E+03 -0.43547588670E+03  0.69558390031E+03  0.00000000000E+00 0. -1.
         -4    1    5    5    0  503  0.68508704219E+01  0.23018648099E+02 -0.17331570115E+01  0.24078962168E+02  0.00000000000E+00 0.  1.
         -3    1    6    6    0  502  0.58071292485E+02  0.42262583286E+02  0.47095413943E+02  0.85885848493E+02  0.00000000000E+00 0.  1.
<mgrwt>
<rscale>  0 0.25350786E+04</rscale>
<asrwt>0</asrwt>
<pdfrwt beam="1">  1        1 0.34483564E+00 0.25350786E+04</pdfrwt>
<pdfrwt beam="2">  1       -1 0.11027677E+00 0.25350786E+04</pdfrwt>
<totfact> 0.13711261E+00</totfact>
</mgrwt>
</event>
<event>
12    1  0.1097093E-007  0.1862912E+04  0.7818608E-02  0.8673541E-01
          1   -1    0    0  501    0  0.00000000000E+00  0.00000000000E+00  0.13085278539E+04  0.13085278539E+04  0.00000000000E+00 0. -1.
         -1   -1    0    0    0  501 -0.00000000000E+00 -0.00000000000E+00 -0.66304334153E+03  0.66304334153E+03  0.00000000000E+00 0.  1.
         23    2    1    2    0    0  0.16125538448E+03  0.57649473952E+03 -0.16064903582E+03  0.62631800502E+03  0.90092435783E+02 0.  0.
        254    2    1    2    0    0 -0.16125538448E+03 -0.57649473952E+03  0.80613354825E+03  0.13452531905E+04  0.89526832017E+03 0.  0.
        -24    2    4    4    0    0 -0.39977418751E+03 -0.23911813485E+03  0.44888365940E+02  0.47488724730E+03  0.80660082063E+02 0.  0.
         24    2    4    4    0    0  0.23851880302E+03 -0.33737660467E+03  0.76124518231E+03  0.87036594315E+03  0.85606393702E+02 0.  0.
         11    1    3    3    0    0  0.34947144593E+02  0.43884166627E+02 -0.92100975323E+00  0.56106784392E+02  0.00000000000E+00 0. -1.
        -11    1    3    3    0    0  0.12630823989E+03  0.53261057289E+03 -0.15972802607E+03  0.57021122063E+03  0.00000000000E+00 0.  1.
          2    1    6    6  502    0  0.16287124044E+03 -0.24806212592E+03  0.46256602902E+03  0.54957182468E+03  0.00000000000E+00 0. -1.
          3    1    5    5  503    0 -0.26977206659E+03 -0.14941264130E+03 -0.75051597198E+01  0.30847598401E+03  0.00000000000E+00 0. -1.
         -4    1    5    5    0  503 -0.13000212092E+03 -0.89705493551E+02  0.52393525660E+02  0.16641126329E+03  0.00000000000E+00 0.  1.
         -1    1    6    6    0  502  0.75647562579E+02 -0.89314478750E+02  0.29867915329E+03  0.32079411847E+03  0.00000000000E+00 0.  1.
<mgrwt>
<rscale>  0 0.18629124E+04</rscale>
<asrwt>0</asrwt>
<pdfrwt beam="1">  1        1 0.20131198E+00 0.18629124E+04</pdfrwt>
<pdfrwt beam="2">  1       -1 0.10200667E+00 0.18629124E+04</pdfrwt>
<totfact> 0.76226484E+00</totfact>
</mgrwt>
</event>
<event>
12    1  0.1097093E-007  0.1687860E+04  0.7818608E-02  0.8768319E-01
         -2   -1    0    0    0  501 -0.00000000000E+00  0.00000000000E+00  0.71215872862E+03  0.71215872862E+03  0.00000000000E+00 0.  1.
          2   -1    0    0  501    0  0.00000000000E+00 -0.00000000000E+00 -0.10000832515E+04  0.10000832515E+04  0.00000000000E+00 0. -1.
         23    2    1    2    0    0 -0.53378785174E+02 -0.46565294014E+03  0.27312400391E+03  0.55018407902E+03  0.91781500975E+02 0.  0.
        254    2    1    2    0    0  0.53378785174E+02  0.46565294014E+03 -0.56104852678E+03  0.11620579011E+04  0.90328354393E+03 0.  0.
        -24    2    4    4    0    0 -0.93001916930E+02  0.51454668087E+03 -0.74192081058E+03  0.91114472705E+03  0.79564948998E+02 0.  0.
         24    2    4    4    0    0  0.14638070210E+03 -0.48893740728E+02  0.18087228380E+03  0.25091317405E+03  0.80154413684E+02 0.  0.
         13    1    3    3    0    0 -0.49175870821E+02 -0.18808188103E+03  0.15440102592E+03  0.24825941482E+03  0.00000000000E+00 0. -1.
        -13    1    3    3    0    0 -0.42029143529E+01 -0.27757105911E+03  0.11872297799E+03  0.30192466419E+03  0.00000000000E+00 0.  1.
          2    1    6    6  502    0  0.15362782947E+03 -0.40513119754E+02  0.15155318770E+03  0.21957047060E+03  0.00000000000E+00 0. -1.
          1    1    5    5  503    0 -0.31760896587E+02  0.27157361539E+03 -0.44869027908E+03  0.52543691312E+03  0.00000000000E+00 0. -1.
         -2    1    5    5    0  503 -0.61241020343E+02  0.24297306549E+03 -0.29323053151E+03  0.38570781394E+03  0.00000000000E+00 0.  1.
         -1    1    6    6    0  502 -0.72471273657E+01 -0.83806209741E+01  0.29319096101E+02  0.31342703444E+02  0.00000000000E+00 0.  1.
<mgrwt>
<rscale>  0 0.16878602E+04</rscale>
<asrwt>0</asrwt>
<pdfrwt beam="1">  1        2 0.15385896E+00 0.16878602E+04</pdfrwt>
<pdfrwt beam="2">  1       -2 0.10956288E+00 0.16878602E+04</pdfrwt>
<totfact> 0.15915417E+01</totfact>
</mgrwt>
</event>
<event>
12    1  0.1097093E-007  0.2206764E+04  0.7818608E-02  0.8515618E-01
          1   -1    0    0  501    0  0.00000000000E+00  0.00000000000E+00  0.20005035681E+04  0.20005035681E+04  0.00000000000E+00 0. -1.
         -1   -1    0    0    0  501 -0.00000000000E+00 -0.00000000000E+00 -0.60857265636E+03  0.60857265636E+03  0.00000000000E+00 0.  1.
         23    2    1    2    0    0  0.35535387277E+03  0.56108251260E+03 -0.15742505255E+03  0.68854794757E+03  0.90695469013E+02 0.  0.
        254    2    1    2    0    0 -0.35535387277E+03 -0.56108251260E+03  0.15493559643E+04  0.19205282769E+04  0.92023638126E+03 0.  0.
        -24    2    4    4    0    0 -0.44960721504E+03 -0.15644620051E+03  0.22962090563E+03  0.53471999525E+03  0.81102722185E+02 0.  0.
         24    2    4    4    0    0  0.94253342276E+02 -0.40463631209E+03  0.13197350587E+04  0.13858082816E+04  0.78420219310E+02 0.  0.
         11    1    3    3    0    0  0.12070460665E+02  0.16651142029E+00  0.98957050152E+00  0.12112101242E+02  0.00000000000E+00 0. -1.
        -11    1    3    3    0    0  0.34328341210E+03  0.56091600118E+03 -0.15841462305E+03  0.67643584633E+03  0.00000000000E+00 0.  1.
          2    1    6    6  502    0  0.15463782285E+02 -0.27133354280E+02  0.17761284849E+03  0.18033765948E+03  0.00000000000E+00 0. -1.
          1    1    5    5  503    0 -0.17179688497E+02 -0.17336980521E+02  0.29640934128E+02  0.38396582744E+02  0.00000000000E+00 0. -1.
         -2    1    5    5    0  503 -0.43242752655E+03 -0.13910921999E+03  0.19997997150E+03  0.49632341251E+03  0.00000000000E+00 0.  1.
         -1    1    6    6    0  502  0.78789559990E+02 -0.37750295781E+03  0.11421222102E+04  0.12054706222E+04  0.00000000000E+00 0.  1.
<mgrwt>
<rscale>  0 0.22067639E+04</rscale>
<asrwt>0</asrwt>
<pdfrwt beam="1">  1        1 0.30776978E+00 0.22067639E+04</pdfrwt>
<pdfrwt beam="2">  1       -1 0.93626564E-01 0.22067639E+04</pdfrwt>
<totfact> 0.30011547E+00</totfact>
</mgrwt>
</event>
<event>
12    1  0.1097093E-007  0.1935254E+04  0.7818608E-02  0.8637505E-01
         -2   -1    0    0    0  501 -0.00000000000E+00  0.00000000000E+00  0.25471858349E+03  0.25471858349E+03  0.00000000000E+00 0.  1.
          2   -1    0    0  501    0  0.00000000000E+00 -0.00000000000E+00 -0.36758285461E+04  0.36758285461E+04  0.00000000000E+00 0. -1.
         23    2    1    2    0    0 -0.14254544355E+03  0.59428994335E+03 -0.22485756031E+04  0.23319239288E+04  0.90979264203E+02 0.  0.
        254    2    1    2    0    0  0.14254544355E+03 -0.59428994335E+03 -0.11725343595E+04  0.15986232008E+04  0.89847625105E+03 0.  0.
        -24    2    4    4    0    0  0.37742556864E+03  0.27793356982E+02 -0.25821033827E+03  0.46514416048E+03  0.80398884833E+02 0.  0.
         24    2    4    4    0    0 -0.23488012509E+03 -0.62208330033E+03 -0.91432402124E+03  0.11334790403E+04  0.81424893855E+02 0.  0.
         11    1    3    3    0    0 -0.61328785914E+02  0.42489172787E+03 -0.15111177434E+04  0.15709140762E+04  0.00000000000E+00 0. -1.
        -11    1    3    3    0    0 -0.81216657635E+02  0.16939821548E+03 -0.73745785974E+03  0.76100985262E+03  0.00000000000E+00 0.  1.
          4    1    6    6  502    0 -0.13025169224E+03 -0.30693238748E+03 -0.52310883939E+03  0.62033527359E+03  0.00000000000E+00 0. -1.
          3    1    5    5  503    0  0.27111136389E+02  0.10584226367E+02  0.83460176427E+00  0.29115908439E+02  0.00000000000E+00 0. -1.
         -4    1    5    5    0  503  0.35031443225E+03  0.17209130615E+02 -0.25904494003E+03  0.43602825204E+03  0.00000000000E+00 0.  1.
         -3    1    6    6    0  502 -0.10462843285E+03 -0.31515091285E+03 -0.39121518185E+03  0.51314376674E+03  0.00000000000E+00 0.  1.
<mgrwt>
<rscale>  0 0.19352538E+04</rscale>
<asrwt>0</asrwt>
<pdfrwt beam="1">  1        2 0.56551208E+00 0.19352538E+04</pdfrwt>
<pdfrwt beam="2">  1       -2 0.39187475E-01 0.19352538E+04</pdfrwt>
<totfact> 0.35249999E+00</totfact>
</mgrwt>
</event>
<event>
12    1  0.1097093E-007  0.1623711E+04  0.7818608E-02  0.8806113E-01
         -2   -1    0    0    0  501 -0.00000000000E+00  0.00000000000E+00  0.26715041618E+03  0.26715041618E+03  0.00000000000E+00 0. -1.
          2   -1    0    0  501    0  0.00000000000E+00 -0.00000000000E+00 -0.24671830535E+04  0.24671830535E+04  0.00000000000E+00 0.  1.
         23    2    1    2    0    0  0.32737947096E+03  0.19286405202E+03 -0.14779600083E+04  0.15285969323E+04  0.88707016188E+02 0.  0.
        254    2    1    2    0    0 -0.32737947096E+03 -0.19286405202E+03 -0.72207262906E+03  0.12057365374E+04  0.88771496297E+03 0.  0.
        -24    2    4    4    0    0 -0.38418032659E+03 -0.31403690920E+03 -0.37721810169E+02  0.50391706699E+03  0.79345899473E+02 0.  0.
         24    2    4    4    0    0  0.56800855628E+02  0.12117285718E+03 -0.68435081889E+03  0.70181947044E+03  0.79406090796E+02 0.  0.
         11    1    3    3    0    0  0.14968335058E+03  0.76265729346E+02 -0.48883646917E+03  0.51689714693E+03  0.00000000000E+00 0. -1.
        -11    1    3    3    0    0  0.17769612038E+03  0.11659832268E+03 -0.98912353909E+03  0.10116997853E+04  0.00000000000E+00 0.  1.
          2    1    6    6  502    0 -0.36094410212E+01  0.52661694271E+02 -0.13547260868E+03  0.14539294966E+03  0.00000000000E+00 0. -1.
          3    1    5    5  503    0 -0.19212657957E+03 -0.18550059390E+03 -0.53163137610E+02  0.27230389662E+03  0.00000000000E+00 0. -1.
         -4    1    5    5    0  503 -0.19205374702E+03 -0.12853631530E+03  0.15441327441E+02  0.23161317037E+03  0.00000000000E+00 0.  1.
         -1    1    6    6    0  502  0.60410296649E+02  0.68511162906E+02 -0.54887821021E+03  0.55642652078E+03  0.00000000000E+00 0.  1.
<mgrwt>
<rscale>  0 0.16237105E+04</rscale>
<asrwt>0</asrwt>
<pdfrwt beam="1">  1        2 0.37956664E+00 0.16237105E+04</pdfrwt>
<pdfrwt beam="2">  1       -2 0.41100062E-01 0.16237105E+04</pdfrwt>
<totfact> 0.19555297E+01</totfact>
</mgrwt>
</event>
<event>
12    1  0.1097093E-007  0.1300608E+04  0.7818608E-02  0.9029083E-01
          2   -1    0    0  501    0  0.00000000000E+00  0.00000000000E+00  0.11649061410E+04  0.11649061410E+04  0.00000000000E+00 0. -1.
         -2   -1    0    0    0  501 -0.00000000000E+00 -0.00000000000E+00 -0.36302974457E+03  0.36302974457E+03  0.00000000000E+00 0.  1.
         23    2    1    2    0    0  0.11193097530E+03  0.31061898941E+03  0.19451385690E+03  0.39390020739E+03  0.91153897554E+02 0.  0.
        254    2    1    2    0    0 -0.11193097530E+03 -0.31061898941E+03  0.60736253949E+03  0.11340356781E+04  0.89896327239E+03 0.  0.
        -24    2    4    4    0    0 -0.53789590548E+02 -0.22952557933E+03  0.83600371171E+03  0.87211566550E+03  0.78155079198E+02 0.  0.
         24    2    4    4    0    0 -0.58141384753E+02 -0.81093410085E+02 -0.22864117222E+03  0.26192001264E+03  0.79804420987E+02 0.  0.
         13    1    3    3    0    0  0.11916303402E+03  0.31080548864E+03  0.19631535031E+03  0.38644481781E+03  0.00000000000E+00 0. -1.
        -13    1    3    3    0    0 -0.72320587144E+01 -0.18649922571E+00 -0.18014934175E+01  0.74553895769E+01  0.00000000000E+00 0.  1.
          4    1    6    6  502    0 -0.16739289725E+02 -0.53606686112E+02 -0.19235858236E+03  0.20038888398E+03  0.00000000000E+00 0. -1.
          1    1    5    5  503    0 -0.27389615997E+02 -0.22168333542E+02  0.73994295301E+02  0.81955974850E+02  0.00000000000E+00 0. -1.
         -2    1    5    5    0  503 -0.26399974552E+02 -0.20735724579E+03  0.76200941641E+03  0.79015969065E+03  0.00000000000E+00 0.  1.
         -3    1    6    6    0  502 -0.41402095027E+02 -0.27486723973E+02 -0.36282589862E+02  0.61531128663E+02  0.00000000000E+00 0.  1.
<mgrwt>
<rscale>  0 0.13006084E+04</rscale>
<asrwt>0</asrwt>
<pdfrwt beam="1">  1        2 0.17921633E+00 0.13006084E+04</pdfrwt>
<pdfrwt beam="2">  1       -2 0.55850731E-01 0.13006084E+04</pdfrwt>
<totfact> 0.58679111E+01</totfact>
</mgrwt>
</event>
<event>
12    1  0.1097093E-007  0.2116042E+04  0.7818608E-02  0.8554209E-01
          1   -1    0    0  501    0  0.00000000000E+00  0.00000000000E+00  0.17163609791E+04  0.17163609791E+04  0.00000000000E+00 0. -1.
         -1   -1    0    0    0  501 -0.00000000000E+00 -0.00000000000E+00 -0.65219879913E+03  0.65219879913E+03  0.00000000000E+00 0.  1.
         23    2    1    2    0    0 -0.65600527821E+03  0.34099303225E+03 -0.30184178471E+02  0.74550331428E+03  0.90801618337E+02 0.  0.
        254    2    1    2    0    0  0.65600527821E+03 -0.34099303225E+03  0.10943463585E+04  0.16230564640E+04  0.94345066639E+03 0.  0.
        -24    2    4    4    0    0  0.55509028967E+03  0.16668252826E+03  0.26620570426E+03  0.64272964227E+03  0.79546345953E+02 0.  0.
         24    2    4    4    0    0  0.10091498854E+03 -0.50767556050E+03  0.82814065422E+03  0.98032682172E+03  0.85471776466E+02 0.  0.
         13    1    3    3    0    0 -0.36282483169E+03  0.23581514023E+03 -0.33390620061E+02  0.43401102793E+03  0.00000000000E+00 0.  1.
        -13    1    3    3    0    0 -0.29318044652E+03  0.10517789201E+03  0.32064415904E+01  0.31149228635E+03  0.00000000000E+00 0. -1.
          4    1    6    6  502    0  0.58125716123E+01 -0.18962021387E+00  0.20736573667E+01  0.61743015352E+01  0.00000000000E+00 0. -1.
          1    1    5    5  503    0  0.10843088824E+03  0.34559176618E+02  0.88597898383E+02  0.14422614815E+03  0.00000000000E+00 0. -1.
         -2    1    5    5    0  503  0.44665940144E+03  0.13212335164E+03  0.17760780588E+03  0.49850349412E+03  0.00000000000E+00 0.  1.
         -3    1    6    6    0  502  0.95102416926E+02 -0.50748594029E+03  0.82606699685E+03  0.97415252019E+03  0.00000000000E+00 0.  1.
<mgrwt>
<rscale>  0 0.21160421E+04</rscale>
<asrwt>0</asrwt>
<pdfrwt beam="1">  1        1 0.26405553E+00 0.21160421E+04</pdfrwt>
<pdfrwt beam="2">  1       -1 0.10033828E+00 0.21160421E+04</pdfrwt>
<totfact> 0.40341934E+00</totfact>
</mgrwt>
</event>
<event>
12    1  0.1097093E-007  0.2742045E+04  0.7818608E-02  0.8321490E-01
         -2   -1    0    0    0  501 -0.00000000000E+00  0.00000000000E+00  0.11888837915E+04  0.11888837915E+04  0.00000000000E+00 0.  1.
          2   -1    0    0  501    0  0.00000000000E+00 -0.00000000000E+00 -0.15810653092E+04  0.15810653092E+04  0.00000000000E+00 0. -1.
         23    2    1    2    0    0  0.61581848516E+03  0.74994504035E+03  0.57205271093E+03  0.11301124432E+04  0.90883771810E+02 0.  0.
        254    2    1    2    0    0 -0.61581848516E+03 -0.74994504035E+03 -0.96423422864E+03  0.16398366576E+04  0.90424921654E+03 0.  0.
        -24    2    4    4    0    0  0.21860518619E+02  0.34848871422E+02 -0.52886595593E+03  0.53599869636E+03  0.76831484706E+02 0.  0.
         24    2    4    4    0    0 -0.63767900378E+03 -0.78479391178E+03 -0.43536827271E+03  0.11038379612E+04  0.79854341872E+02 0.  0.
         11    1    3    3    0    0  0.27779834324E+03  0.30538646354E+03  0.28955758939E+03  0.50425827628E+03  0.00000000000E+00 0. -1.
        -11    1    3    3    0    0  0.33802014191E+03  0.44455857681E+03  0.28249512154E+03  0.62585416692E+03  0.00000000000E+00 0.  1.
          4    1    6    6  502    0 -0.49711861685E+02 -0.34711445885E+02 -0.16833664546E+02  0.62924764041E+02  0.00000000000E+00 0. -1.
          3    1    5    5  503    0  0.11106454030E+01  0.28167827982E+00 -0.41846372990E+03  0.41846529859E+03  0.00000000000E+00 0. -1.
         -4    1    5    5    0  503  0.20749873216E+02  0.34567193143E+02 -0.11040222602E+03  0.11753339777E+03  0.00000000000E+00 0.  1.
         -3    1    6    6    0  502 -0.58796714209E+03 -0.75008246589E+03 -0.41853460816E+03  0.10409131972E+04  0.00000000000E+00 0.  1.
<mgrwt>
<rscale>  0 0.27420452E+04</rscale>
<asrwt>0</asrwt>
<pdfrwt beam="1">  1        2 0.24324082E+00 0.27420452E+04</pdfrwt>
<pdfrwt beam="2">  1       -2 0.18290520E+00 0.27420452E+04</pdfrwt>
<totfact> 0.17303796E+00</totfact>
</mgrwt>
</event>
<event>
12    1  0.1097093E-007  0.1981771E+04  0.7818608E-02  0.8615191E-01
         -1   -1    0    0    0  501 -0.00000000000E+00  0.00000000000E+00  0.13407774378E+04  0.13407774378E+04  0.00000000000E+00 0.  1.
          1   -1    0    0  501    0  0.00000000000E+00 -0.00000000000E+00 -0.73230203491E+03  0.73230203491E+03  0.00000000000E+00 0. -1.
         23    2    1    2    0    0 -0.50746306920E+01  0.76468893685E+03 -0.24720076574E+02  0.77039414561E+03  0.90117342269E+02 0.  0.
        254    2    1    2    0    0  0.50746306920E+01 -0.76468893685E+03  0.63319547946E+03  0.13026853271E+04  0.84337276707E+03 0.  0.
        -24    2    4    4    0    0  0.25645046498E+02 -0.67710385817E+03  0.82864889574E+03  0.10734158389E+04  0.80220119440E+02 0.  0.
         24    2    4    4    0    0 -0.20570415806E+02 -0.87585078685E+02 -0.19545341628E+03  0.22926948824E+03  0.79171789707E+02 0.  0.
         13    1    3    3    0    0  0.23788683633E+02  0.68193915270E+03 -0.21083080192E+02  0.68267957764E+03  0.00000000000E+00 0. -1.
        -13    1    3    3    0    0 -0.28863314325E+02  0.82749784150E+02 -0.36369963821E+01  0.87714567966E+02  0.00000000000E+00 0.  1.
          2    1    6    6  502    0  0.91693914835E+01 -0.36722765557E+02 -0.17282081153E+02  0.41609008391E+02  0.00000000000E+00 0. -1.
          3    1    5    5  503    0 -0.11067597572E+02 -0.51769448786E+03  0.65302617459E+03  0.83341061859E+03  0.00000000000E+00 0. -1.
         -4    1    5    5    0  503  0.36712644070E+02 -0.15940937031E+03  0.17562272115E+03  0.24000522028E+03  0.00000000000E+00 0.  1.
         -1    1    6    6    0  502 -0.29739807290E+02 -0.50862313128E+02 -0.17817133513E+03  0.18766047985E+03  0.00000000000E+00 0.  1.
<mgrwt>
<rscale>  0 0.19817710E+04</rscale>
<asrwt>0</asrwt>
<pdfrwt beam="1">  1        1 0.11266185E+00 0.19817710E+04</pdfrwt>
<pdfrwt beam="2">  1       -1 0.20627345E+00 0.19817710E+04</pdfrwt>
<totfact> 0.32185034E+00</totfact>
</mgrwt>
</event>
<event>
12    1  0.1097093E-007  0.1780971E+04  0.7818608E-02  0.8716485E-01
         -2   -1    0    0    0  501 -0.00000000000E+00  0.00000000000E+00  0.38024623842E+03  0.38024623842E+03  0.00000000000E+00 0.  1.
          2   -1    0    0  501    0  0.00000000000E+00 -0.00000000000E+00 -0.20853981046E+04  0.20853981046E+04  0.00000000000E+00 0. -1.
         23    2    1    2    0    0  0.24601749172E+03 -0.34773329447E+03 -0.13273094574E+04  0.13969459520E+04  0.90909553199E+02 0.  0.
        254    2    1    2    0    0 -0.24601749172E+03  0.34773329447E+03 -0.37784240886E+03  0.10686983911E+04  0.90438283642E+03 0.  0.
        -24    2    4    4    0    0  0.33476335452E+03  0.72016935868E+02 -0.12549352942E+03  0.37339344512E+03  0.80131743727E+02 0.  0.
         24    2    4    4    0    0 -0.58078084624E+03  0.27571635860E+03 -0.25234887944E+03  0.69530494595E+03  0.80268979943E+02 0.  0.
         13    1    3    3    0    0  0.24824582050E+03 -0.34918945436E+03 -0.13267695982E+04  0.13942298337E+04  0.00000000000E+00 0. -1.
        -13    1    3    3    0    0 -0.22283287747E+01  0.14561598872E+01 -0.53985916453E+00  0.27161183079E+01  0.00000000000E+00 0.  1.
          4    1    6    6  502    0 -0.88016644212E+02  0.69687802712E+02 -0.62340699211E+02  0.12841215785E+03  0.00000000000E+00 0. -1.
          3    1    5    5  503    0  0.62030316148E+02  0.26446145607E+02  0.50333350985E+01  0.67620212963E+02  0.00000000000E+00 0. -1.
         -4    1    5    5    0  503  0.27273303837E+03  0.45570790262E+02 -0.13052686451E+03  0.30577323215E+03  0.00000000000E+00 0.  1.
         -3    1    6    6    0  502 -0.49276420203E+03  0.20602855589E+03 -0.19000818023E+03  0.56689278810E+03  0.00000000000E+00 0.  1.
<mgrwt>
<rscale>  0 0.17809714E+04</rscale>
<asrwt>0</asrwt>
<pdfrwt beam="1">  1        2 0.32083048E+00 0.17809714E+04</pdfrwt>
<pdfrwt beam="2">  1       -2 0.58499421E-01 0.17809714E+04</pdfrwt>
<totfact> 0.15469194E+01</totfact>
</mgrwt>
</event>
<event>
12    1  0.1097093E-007  0.3066874E+04  0.7818608E-02  0.8224888E-01
         -3   -1    0    0    0  501 -0.00000000000E+00  0.00000000000E+00  0.14833510595E+04  0.14833510595E+04  0.00000000000E+00 0.  1.
          3   -1    0    0  501    0  0.00000000000E+00 -0.00000000000E+00 -0.15852142361E+04  0.15852142361E+04  0.00000000000E+00 0. -1.
         23    2    1    2    0    0 -0.11301729914E+04 -0.71081171544E+03  0.37838848553E+03  0.13906429184E+04  0.90363682108E+02 0.  0.
        254    2    1    2    0    0  0.11301729914E+04  0.71081171544E+03 -0.48025166216E+03  0.16779223772E+04  0.89567715140E+03 0.  0.
        -24    2    4    4    0    0  0.72598543223E+02 -0.89930430366E+02 -0.30726505013E+03  0.33776237640E+03  0.79458046134E+02 0.  0.
         24    2    4    4    0    0  0.10575744482E+04  0.80074214580E+03 -0.17298661203E+03  0.13401600008E+04  0.80329087105E+02 0.  0.
         13    1    3    3    0    0 -0.40804899057E+03 -0.30845168428E+03  0.14255987094E+03  0.53100822690E+03  0.00000000000E+00 0. -1.
        -13    1    3    3    0    0 -0.72212400088E+03 -0.40236003116E+03  0.23582861459E+03  0.85963469147E+03  0.00000000000E+00 0.  1.
          4    1    6    6  502    0  0.78191363375E+03  0.60582083713E+03 -0.95315595095E+02  0.99372676326E+03  0.00000000000E+00 0. -1.
          1    1    5    5  503    0  0.83253684660E+02 -0.89951126809E+02 -0.23823391550E+03  0.26791375426E+03  0.00000000000E+00 0. -1.
         -2    1    5    5    0  503 -0.10655141437E+02  0.20696443336E-01 -0.69031134628E+02  0.69848622144E+02  0.00000000000E+00 0.  1.
         -3    1    6    6    0  502  0.27566081447E+03  0.19492130867E+03 -0.77671016939E+02  0.34643323755E+03  0.00000000000E+00 0.  1.
<mgrwt>
<rscale>  0 0.30668741E+04</rscale>
<asrwt>0</asrwt>
<pdfrwt beam="1">  1        3 0.24387911E+00 0.30668741E+04</pdfrwt>
<pdfrwt beam="2">  1       -3 0.22820786E+00 0.30668741E+04</pdfrwt>
<totfact> 0.17376166E-02</totfact>
</mgrwt>
</event>
<event>
12    1  0.1097093E-007  0.1029528E+04  0.7818608E-02  0.9276740E-01
         -2   -1    0    0    0  501 -0.00000000000E+00  0.00000000000E+00  0.17853553499E+03  0.17853553499E+03  0.00000000000E+00 0.  1.
          2   -1    0    0  501    0  0.00000000000E+00 -0.00000000000E+00 -0.14841960040E+04  0.14841960040E+04  0.00000000000E+00 0. -1.
         23    2    1    2    0    0  0.35686496719E+02  0.14071529262E+03 -0.42097404730E+03  0.45461986936E+03  0.91573781664E+02 0.  0.
        254    2    1    2    0    0 -0.35686496719E+02 -0.14071529262E+03 -0.88468642176E+03  0.12081116697E+04  0.80980826245E+03 0.  0.
        -24    2    4    4    0    0  0.24714033113E+03 -0.26845701560E+03 -0.14272926793E+03  0.39984253711E+03  0.79717614480E+02 0.  0.
         24    2    4    4    0    0 -0.28282682785E+03  0.12774172298E+03 -0.74195715383E+03  0.80826913257E+03  0.80558116908E+02 0.  0.
         11    1    3    3    0    0  0.44963939754E+02  0.62703563771E+02 -0.11332646307E+03  0.13709989066E+03  0.00000000000E+00 0.  1.
        -11    1    3    3    0    0 -0.92774430349E+01  0.78011728853E+02 -0.30764758423E+03  0.31751997870E+03  0.00000000000E+00 0. -1.
          4    1    6    6  502    0 -0.14859246004E+03  0.24177566462E+02 -0.37230727819E+03  0.40159305683E+03  0.00000000000E+00 0. -1.
          3    1    5    5  503    0  0.77090213822E+02 -0.35738058694E+02 -0.25823283117E+02  0.88808512302E+02  0.00000000000E+00 0. -1.
         -4    1    5    5    0  503  0.17005011731E+03 -0.23271895691E+03 -0.11690598481E+03  0.31103402481E+03  0.00000000000E+00 0.  1.
         -3    1    6    6    0  502 -0.13423436782E+03  0.10356415652E+03 -0.36964987564E+03  0.40667607574E+03  0.00000000000E+00 0.  1.
<mgrwt>
<rscale>  0 0.10295275E+04</rscale>
<asrwt>0</asrwt>
<pdfrwt beam="1">  1        2 0.22833784E+00 0.10295275E+04</pdfrwt>
<pdfrwt beam="2">  1       -2 0.27467006E-01 0.10295275E+04</pdfrwt>
<totfact> 0.15586588E+02</totfact>
</mgrwt>
</event>
<event>
12    1  0.1097093E-007  0.1289308E+04  0.7818608E-02  0.9038088E-01
         -2   -1    0    0    0  501 -0.00000000000E+00  0.00000000000E+00  0.52625793196E+03  0.52625793196E+03  0.00000000000E+00 0.  1.
          2   -1    0    0  501    0  0.00000000000E+00 -0.00000000000E+00 -0.78968588590E+03  0.78968588590E+03  0.00000000000E+00 0. -1.
         23    2    1    2    0    0 -0.19626539856E+03  0.22994700787E+03  0.30488675930E+02  0.31784244909E+03  0.93265910060E+02 0.  0.
        254    2    1    2    0    0  0.19626539856E+03 -0.22994700787E+03 -0.29391662987E+03  0.99810136878E+03  0.90466768702E+03 0.  0.
        -24    2    4    4    0    0  0.38784484579E+03 -0.27302705806E+03  0.15146702918E+03  0.50431140612E+03  0.80126990270E+02 0.  0.
         24    2    4    4    0    0 -0.19157944723E+03  0.43080050196E+02 -0.44538365905E+03  0.49378996266E+03  0.83086389676E+02 0.  0.
         13    1    3    3    0    0 -0.17823834076E+02  0.40259884888E+02 -0.26312597561E+02  0.51292301398E+02  0.00000000000E+00 0. -1.
        -13    1    3    3    0    0 -0.17844156449E+03  0.18968712298E+03  0.56801273490E+02  0.26655014769E+03  0.00000000000E+00 0.  1.
          4    1    6    6  502    0 -0.19173773253E+03  0.49209481452E+02 -0.44566744125E+03  0.48765192436E+03  0.00000000000E+00 0. -1.
          1    1    5    5  503    0  0.35730714341E+03 -0.23466956324E+03  0.11347031312E+03  0.44228238784E+03  0.00000000000E+00 0. -1.
         -2    1    5    5    0  503  0.30537702389E+02 -0.38357494826E+02  0.37996716065E+02  0.62029018275E+02  0.00000000000E+00 0.  1.
         -3    1    6    6    0  502  0.15828529976E+00 -0.61294312566E+01  0.28378220745E+00  0.61380382947E+01  0.00000000000E+00 0.  1.
<mgrwt>
<rscale>  0 0.12893075E+04</rscale>
<asrwt>0</asrwt>
<pdfrwt beam="1">  1        2 0.12149014E+00 0.12893075E+04</pdfrwt>
<pdfrwt beam="2">  1       -2 0.80962759E-01 0.12893075E+04</pdfrwt>
<totfact> 0.46273334E+01</totfact>
</mgrwt>
</event>
<event>
12    1  0.1097093E-007  0.4708126E+04  0.7818608E-02  0.7875180E-01
          2   -1    0    0  501    0  0.00000000000E+00  0.00000000000E+00  0.28058968597E+04  0.28058968597E+04  0.00000000000E+00 0. -1.
         -2   -1    0    0    0  501 -0.00000000000E+00 -0.00000000000E+00 -0.19749875811E+04  0.19749875811E+04  0.00000000000E+00 0.  1.
         23    2    1    2    0    0  0.16593809836E+04 -0.15106155639E+04  0.72419324771E+03  0.23597735899E+04  0.92579182086E+02 0.  0.
        254    2    1    2    0    0 -0.16593809836E+04  0.15106155639E+04  0.10671603088E+03  0.24211108509E+04  0.90270970445E+03 0.  0.
        -24    2    4    4    0    0 -0.10625558666E+03 -0.92294746893E+02  0.88924505270E+02  0.18770533930E+03  0.86701538407E+02 0.  0.
         24    2    4    4    0    0 -0.15531253970E+04  0.16029103107E+04  0.17791525608E+02  0.22334055116E+04  0.79143400728E+02 0.  0.
         11    1    3    3    0    0  0.16035155672E+04 -0.14756692716E+04  0.71347049597E+03  0.22930115835E+04  0.00000000000E+00 0.  1.
        -11    1    3    3    0    0  0.55865416404E+02 -0.34946292262E+02  0.10722751736E+02  0.66762006393E+02  0.00000000000E+00 0. -1.
          2    1    6    6  502    0 -0.60991221017E+03  0.62455102264E+03 -0.31511918636E+02  0.87352726633E+03  0.00000000000E+00 0. -1.
          1    1    5    5  503    0 -0.11131776619E+03 -0.77120510590E+02  0.99919450008E+02  0.16829472574E+03  0.00000000000E+00 0. -1.
         -2    1    5    5    0  503  0.50621795216E+01 -0.15174236303E+02 -0.10994944738E+02  0.19410613557E+02  0.00000000000E+00 0.  1.
         -1    1    6    6    0  502 -0.94321318679E+03  0.97835928811E+03  0.49303444244E+02  0.13598782453E+04  0.00000000000E+00 0.  1.
<mgrwt>
<rscale>  0 0.47081255E+04</rscale>
<asrwt>0</asrwt>
<pdfrwt beam="1">  1        2 0.43167644E+00 0.47081255E+04</pdfrwt>
<pdfrwt beam="2">  1       -2 0.30384424E+00 0.47081255E+04</pdfrwt>
<totfact> 0.51434195E-02</totfact>
</mgrwt>
</event>
<event>
12    1  0.1097093E-007  0.1428467E+04  0.7818608E-02  0.8933467E-01
         -3   -1    0    0    0  501 -0.00000000000E+00  0.00000000000E+00  0.53290837199E+03  0.53290837199E+03  0.00000000000E+00 0. -1.
          3   -1    0    0  501    0  0.00000000000E+00 -0.00000000000E+00 -0.95725517670E+03  0.95725517670E+03  0.00000000000E+00 0.  1.
         23    2    1    2    0    0  0.20295235125E+03  0.33614450764E+03  0.36222769021E+02  0.40452881561E+03  0.90270076823E+02 0.  0.
        254    2    1    2    0    0 -0.20295235125E+03 -0.33614450764E+03 -0.46056957373E+03  0.10856347331E+04  0.90127446127E+03 0.  0.
        -24    2    4    4    0    0 -0.21823858669E+03 -0.60761505499E+03 -0.46970943572E+03  0.80236094890E+03  0.79573881109E+02 0.  0.
         24    2    4    4    0    0  0.15286235442E+02  0.27147054735E+03  0.91398619897E+01  0.28327378418E+03  0.78933976540E+02 0.  0.
         11    1    3    3    0    0  0.14165575510E+03  0.23182538151E+03 -0.17290237309E+02  0.27222842021E+03  0.00000000000E+00 0. -1.
        -11    1    3    3    0    0  0.61296596148E+02  0.10431912613E+03  0.53513006330E+02  0.13230039540E+03  0.00000000000E+00 0.  1.
          4    1    6    6  502    0  0.28534882371E+01  0.20116784280E+03  0.40620252257E+02  0.20524777287E+03  0.00000000000E+00 0. -1.
          1    1    5    5  503    0 -0.10208258632E+03 -0.36509666732E+03 -0.23982425178E+03  0.44858901308E+03  0.00000000000E+00 0. -1.
         -2    1    5    5    0  503 -0.11615600037E+03 -0.24251838767E+03 -0.22988518395E+03  0.35377193582E+03  0.00000000000E+00 0.  1.
         -3    1    6    6    0  502  0.12432747205E+02  0.70302704545E+02 -0.31480390267E+02  0.78026011309E+02  0.00000000000E+00 0.  1.
<mgrwt>
<rscale>  0 0.14284667E+04</rscale>
<asrwt>0</asrwt>
<pdfrwt beam="1">  1        3 0.14727003E+00 0.14284667E+04</pdfrwt>
<pdfrwt beam="2">  1       -3 0.81985904E-01 0.14284667E+04</pdfrwt>
<totfact> 0.11884705E+00</totfact>
</mgrwt>
</event>
<event>
12    1  0.1097093E-007  0.2692976E+04  0.7818608E-02  0.8337288E-01
          1   -1    0    0  501    0  0.00000000000E+00  0.00000000000E+00  0.25984892074E+04  0.25984892074E+04  0.00000000000E+00 0. -1.
         -1   -1    0    0    0  501 -0.00000000000E+00 -0.00000000000E+00 -0.69772445410E+03  0.69772445410E+03  0.00000000000E+00 0.  1.
         23    2    1    2    0    0 -0.11215861788E+04 -0.11226609585E+03  0.13203432901E+04  0.17384053521E+04  0.90484979746E+02 0.  0.
        254    2    1    2    0    0  0.11215861788E+04  0.11226609585E+03  0.58042146314E+03  0.15578083094E+04  0.90516209661E+03 0.  0.
        -24    2    4    4    0    0  0.14485590409E+03  0.46295256309E+02 -0.22731798102E+03  0.28610851379E+03  0.84012698191E+02 0.  0.
         24    2    4    4    0    0  0.97673027472E+03  0.65970839546E+02  0.80773944416E+03  0.12716997956E+04  0.80144739369E+02 0.  0.
         13    1    3    3    0    0 -0.70698973257E+02 -0.26916591346E+02  0.10579988444E+03  0.13006330481E+03  0.00000000000E+00 0.  1.
        -13    1    3    3    0    0 -0.10508872056E+04 -0.85349504509E+02  0.12145434057E+04  0.16083420473E+04  0.00000000000E+00 0. -1.
          2    1    6    6  502    0  0.77525789981E+03  0.23158069932E+02  0.65686273136E+03  0.10163807137E+04  0.00000000000E+00 0. -1.
          3    1    5    5  503    0  0.10168086357E+03  0.32415195512E+02 -0.21351786761E+03  0.23870404836E+03  0.00000000000E+00 0. -1.
         -4    1    5    5    0  503  0.43175040524E+02  0.13880060797E+02 -0.13800113414E+02  0.47404465424E+02  0.00000000000E+00 0.  1.
         -1    1    6    6    0  502  0.20147237491E+03  0.42812769614E+02  0.15087671280E+03  0.25531908186E+03  0.00000000000E+00 0.  1.
<mgrwt>
<rscale>  0 0.26929757E+04</rscale>
<asrwt>0</asrwt>
<pdfrwt beam="1">  1        1 0.39976757E+00 0.26929757E+04</pdfrwt>
<pdfrwt beam="2">  1       -1 0.10734222E+00 0.26929757E+04</pdfrwt>
<totfact> 0.81664380E-01</totfact>
</mgrwt>
</event>
<event>
12    1  0.1097093E-007  0.2088804E+04  0.7818608E-02  0.8566191E-01
         -1   -1    0    0    0  501 -0.00000000000E+00  0.00000000000E+00  0.50120778266E+03  0.50120778266E+03  0.00000000000E+00 0.  1.
          1   -1    0    0  501    0  0.00000000000E+00 -0.00000000000E+00 -0.21762944794E+04  0.21762944794E+04  0.00000000000E+00 0. -1.
         23    2    1    2    0    0  0.65158149318E+03 -0.53996918000E+03 -0.67713558070E+03  0.10874449932E+04  0.88875536121E+02 0.  0.
        254    2    1    2    0    0 -0.65158149318E+03  0.53996918000E+03 -0.99795111599E+03  0.15900572688E+04  0.90346584368E+03 0.  0.
        -24    2    4    4    0    0 -0.35322562807E+02 -0.20373291795E+03 -0.38111314426E+03  0.44119529707E+03  0.81555356202E+02 0.  0.
         24    2    4    4    0    0 -0.61625893037E+03  0.74370209795E+03 -0.61683797173E+03  0.11488619718E+04  0.80789028219E+02 0.  0.
         11    1    3    3    0    0  0.12171582718E+03 -0.12221527155E+03 -0.18029778678E+03  0.24951674714E+03  0.00000000000E+00 0. -1.
        -11    1    3    3    0    0  0.52986566599E+03 -0.41775390845E+03 -0.49683779392E+03  0.83792824603E+03  0.00000000000E+00 0.  1.
          2    1    6    6  502    0 -0.29286595878E+02  0.68679596312E+02 -0.45282890914E+02  0.87322000992E+02  0.00000000000E+00 0. -1.
          1    1    5    5  503    0 -0.45185785846E+02 -0.14330297754E+03 -0.32538074139E+03  0.35839939381E+03  0.00000000000E+00 0. -1.
         -4    1    5    5    0  503  0.98632230385E+01 -0.60429940406E+02 -0.55732402867E+02  0.82795903254E+02  0.00000000000E+00 0.  1.
         -1    1    6    6    0  502 -0.58697233449E+03  0.67502250164E+03 -0.57155508081E+03  0.10615399708E+04  0.00000000000E+00 0.  1.
<mgrwt>
<rscale>  0 0.20888042E+04</rscale>
<asrwt>0</asrwt>
<pdfrwt beam="1">  1        1 0.33481453E+00 0.20888042E+04</pdfrwt>
<pdfrwt beam="2">  1       -1 0.77108891E-01 0.20888042E+04</pdfrwt>
<totfact> 0.35106046E+00</totfact>
</mgrwt>
</event>
<event>
12    1  0.1097093E-007  0.2122642E+04  0.7818608E-02  0.8551334E-01
         -1   -1    0    0    0  501 -0.00000000000E+00  0.00000000000E+00  0.47551652074E+03  0.47551652074E+03  0.00000000000E+00 0.  1.
          1   -1    0    0  501    0  0.00000000000E+00 -0.00000000000E+00 -0.23687984110E+04  0.23687984110E+04  0.00000000000E+00 0. -1.
         23    2    1    2    0    0 -0.50506084872E+03  0.14885757273E+03  0.14617026693E+03  0.55396703264E+03  0.90932328950E+02 0.  0.
        254    2    1    2    0    0  0.50506084872E+03 -0.14885757273E+03 -0.20394521572E+04  0.22903478991E+04  0.89949061116E+03 0.  0.
        -24    2    4    4    0    0 -0.24435789605E+03 -0.12024565721E+03 -0.65502500736E+03  0.71378481459E+03  0.79127756331E+02 0.  0.
         24    2    4    4    0    0  0.74941874477E+03 -0.28611915521E+02 -0.13844271498E+04  0.15765630845E+04  0.80408516635E+02 0.  0.
         11    1    3    3    0    0 -0.10797543040E+02  0.95768920257E+01 -0.96170233920E+01  0.17343325387E+02  0.00000000000E+00 0. -1.
        -11    1    3    3    0    0 -0.49426330568E+03  0.13928068070E+03  0.15578729032E+03  0.53662370725E+03  0.00000000000E+00 0.  1.
          2    1    6    6  502    0  0.36678774914E+03 -0.48214924499E+00 -0.59767963303E+03  0.70125204394E+03  0.00000000000E+00 0. -1.
          1    1    5    5  503    0 -0.86424595623E+02 -0.20966610695E+02 -0.29765599107E+03  0.31065720418E+03  0.00000000000E+00 0. -1.
         -2    1    5    5    0  503 -0.15793330043E+03 -0.99279046510E+02 -0.35736901630E+03  0.40312761040E+03  0.00000000000E+00 0.  1.
         -1    1    6    6    0  502  0.38263099564E+03 -0.28129766276E+02 -0.78674751680E+03  0.87531104058E+03  0.00000000000E+00 0.  1.
<mgrwt>
<rscale>  0 0.21226425E+04</rscale>
<asrwt>0</asrwt>
<pdfrwt beam="1">  1        1 0.36443052E+00 0.21226425E+04</pdfrwt>
<pdfrwt beam="2">  1       -1 0.73156388E-01 0.21226425E+04</pdfrwt>
<totfact> 0.28856931E+00</totfact>
</mgrwt>
</event>
<event>
12    1  0.1097093E-007  0.2217005E+04  0.7818608E-02  0.8511383E-01
         -2   -1    0    0    0  501 -0.00000000000E+00  0.00000000000E+00  0.53942732158E+03  0.53942732158E+03  0.00000000000E+00 0. -1.
          2   -1    0    0  501    0  0.00000000000E+00 -0.00000000000E+00 -0.22779310620E+04  0.22779310620E+04  0.00000000000E+00 0.  1.
         23    2    1    2    0    0  0.83016020922E+02  0.87612721895E+03 -0.39379145181E+03  0.96838142072E+03  0.90555535278E+02 0.  0.
        254    2    1    2    0    0 -0.83016020922E+02 -0.87612721895E+03 -0.13447122886E+04  0.18489769628E+04  0.91431619614E+03 0.  0.
        -24    2    4    4    0    0 -0.26488739283E+03 -0.88202331078E+03 -0.66007494751E+03  0.11358854722E+04  0.80040101717E+02 0.  0.
         24    2    4    4    0    0  0.18187137190E+03  0.58960918289E+01 -0.68463734109E+03  0.71309149069E+03  0.81604077540E+02 0.  0.
         13    1    3    3    0    0  0.91301039768E+02  0.56699547676E+03 -0.23220061133E+03  0.61946499048E+03  0.00000000000E+00 0.  1.
        -13    1    3    3    0    0 -0.82850188452E+01  0.30913174219E+03 -0.16159084048E+03  0.34891643025E+03  0.00000000000E+00 0. -1.
          2    1    6    6  502    0  0.17019375092E+03 -0.17259877769E+02 -0.55037864410E+03  0.57635099385E+03  0.00000000000E+00 0. -1.
          3    1    5    5  503    0 -0.21888386858E+03 -0.80170088073E+03 -0.57922000940E+03  0.10129808830E+04  0.00000000000E+00 0. -1.
         -4    1    5    5    0  503 -0.46003524241E+02 -0.80322430052E+02 -0.80854938106E+02  0.12290458913E+03  0.00000000000E+00 0.  1.
         -1    1    6    6    0  502  0.11677620987E+02  0.23155969598E+02 -0.13425869699E+03  0.13674049684E+03  0.00000000000E+00 0.  1.
<mgrwt>
<rscale>  0 0.22170054E+04</rscale>
<asrwt>0</asrwt>
<pdfrwt beam="1">  1        2 0.35045092E+00 0.22170054E+04</pdfrwt>
<pdfrwt beam="2">  1       -2 0.82988822E-01 0.22170054E+04</pdfrwt>
<totfact> 0.54184020E+00</totfact>
</mgrwt>
</event>
<event>
12    1  0.1097093E-007  0.1297716E+04  0.7818608E-02  0.9031378E-01
         -1   -1    0    0    0  501 -0.00000000000E+00  0.00000000000E+00  0.26560018049E+03  0.26560018049E+03  0.00000000000E+00 0.  1.
          1   -1    0    0  501    0  0.00000000000E+00 -0.00000000000E+00 -0.15851528972E+04  0.15851528972E+04  0.00000000000E+00 0. -1.
         23    2    1    2    0    0  0.79062194261E+02 -0.29391461163E+03 -0.24864798932E+03  0.40653754053E+03  0.10397268765E+03 0.  0.
        254    2    1    2    0    0 -0.79062194261E+02  0.29391461163E+03 -0.10709047274E+04  0.14442155371E+04  0.91993747240E+03 0.  0.
        -24    2    4    4    0    0 -0.20839647368E+02 -0.77545109007E+02  0.13617262538E+03  0.17738678776E+03  0.80470825362E+02 0.  0.
         24    2    4    4    0    0 -0.58222546893E+02  0.37145972063E+03 -0.12070773527E+04  0.12668287494E+04  0.80294182359E+02 0.  0.
         13    1    3    3    0    0  0.94101262154E+02 -0.28269066836E+03 -0.21298909982E+03  0.36624229433E+03  0.00000000000E+00 0.  1.
        -13    1    3    3    0    0 -0.15039067893E+02 -0.11223943269E+02 -0.35658889503E+02  0.40295246198E+02  0.00000000000E+00 0. -1.
          4    1    6    6  502    0 -0.45618025177E+02  0.36429405677E+03 -0.11836140345E+04  0.12392470886E+04  0.00000000000E+00 0. -1.
          1    1    5    5  503    0 -0.24923723574E+02 -0.93726589005E+02  0.11687140262E+03  0.15187096574E+03  0.00000000000E+00 0. -1.
         -2    1    5    5    0  503  0.40840762061E+01  0.16181479997E+02  0.19301222757E+02  0.25515822019E+02  0.00000000000E+00 0.  1.
         -3    1    6    6    0  502 -0.12604521716E+02  0.71656638677E+01 -0.23463318226E+02  0.27581660729E+02  0.00000000000E+00 0.  1.
<mgrwt>
<rscale>  0 0.12977163E+04</rscale>
<asrwt>0</asrwt>
<pdfrwt beam="1">  1        1 0.24386967E+00 0.12977163E+04</pdfrwt>
<pdfrwt beam="2">  1       -1 0.40861567E-01 0.12977163E+04</pdfrwt>
<totfact> 0.32880631E+01</totfact>
</mgrwt>
</event>
<event>
12    1  0.1097093E-007  0.1545861E+04  0.7818608E-02  0.8854516E-01
          2   -1    0    0  501    0  0.00000000000E+00  0.00000000000E+00  0.12634082167E+04  0.12634082167E+04  0.00000000000E+00 0. -1.
         -2   -1    0    0    0  501 -0.00000000000E+00 -0.00000000000E+00 -0.47286504953E+03  0.47286504953E+03  0.00000000000E+00 0.  1.
         23    2    1    2    0    0 -0.10912708472E+03 -0.56131272944E+03  0.36003750194E+03  0.68180739441E+03  0.90849432702E+02 0.  0.
        254    2    1    2    0    0  0.10912708472E+03  0.56131272944E+03  0.43050566522E+03  0.10544658718E+04  0.77432709249E+03 0.  0.
        -24    2    4    4    0    0 -0.20971603670E+03 -0.32053837340E+02  0.27720937186E+03  0.35830971611E+03  0.80824206000E+02 0.  0.
         24    2    4    4    0    0  0.31884312142E+03  0.59336656678E+03  0.15329629336E+03  0.69615615570E+03  0.85958250986E+02 0.  0.
         13    1    3    3    0    0 -0.26874632836E+02 -0.16611291374E+03  0.15618713017E+03  0.22958694570E+03  0.00000000000E+00 0. -1.
        -13    1    3    3    0    0 -0.82252451883E+02 -0.39519981569E+03  0.20385037176E+03  0.45222044871E+03  0.00000000000E+00 0.  1.
          2    1    6    6  502    0  0.20195080318E+03  0.36026537983E+03  0.51428819118E+02  0.41619730206E+03  0.00000000000E+00 0. -1.
          3    1    5    5  503    0 -0.90343120815E+02  0.13150044178E+02  0.16397869144E+03  0.18768008522E+03  0.00000000000E+00 0. -1.
         -4    1    5    5    0  503 -0.11937291588E+03 -0.45203881518E+02  0.11323068042E+03  0.17062963089E+03  0.00000000000E+00 0.  1.
         -1    1    6    6    0  502  0.11689231823E+03  0.23310118695E+03  0.10186747424E+03  0.27995885363E+03  0.00000000000E+00 0.  1.
<mgrwt>
<rscale>  0 0.15458610E+04</rscale>
<asrwt>0</asrwt>
<pdfrwt beam="1">  1        2 0.19437049E+00 0.15458610E+04</pdfrwt>
<pdfrwt beam="2">  1       -2 0.72748469E-01 0.15458610E+04</pdfrwt>
<totfact> 0.28569083E+01</totfact>
</mgrwt>
</event>
<event>
12    1  0.1097093E-007  0.1410485E+04  0.7818608E-02  0.8946264E-01
          1   -1    0    0  501    0  0.00000000000E+00  0.00000000000E+00  0.51823429793E+03  0.51823429793E+03  0.00000000000E+00 0. -1.
         -1   -1    0    0    0  501 -0.00000000000E+00 -0.00000000000E+00 -0.95973391500E+03  0.95973391500E+03  0.00000000000E+00 0.  1.
         23    2    1    2    0    0 -0.10512913539E+03 -0.35243614693E+03  0.59627123929E+02  0.38363782888E+03  0.91428754063E+02 0.  0.
        254    2    1    2    0    0  0.10512913539E+03  0.35243614693E+03 -0.50112674101E+03  0.10943303840E+04  0.90064843647E+03 0.  0.
        -24    2    4    4    0    0  0.79272740811E+02  0.19454994174E+03 -0.75261808086E+03  0.78629029408E+03  0.87661871199E+02 0.  0.
         24    2    4    4    0    0  0.25856394582E+02  0.15788620520E+03  0.25149133985E+03  0.30804008997E+03  0.77744427930E+02 0.  0.
         13    1    3    3    0    0 -0.65257974796E+02 -0.16704707761E+03 -0.14745693966E+02  0.17994656124E+03  0.00000000000E+00 0.  1.
        -13    1    3    3    0    0 -0.39871160597E+02 -0.18538906933E+03  0.74372817895E+02  0.20369126764E+03  0.00000000000E+00 0. -1.
          4    1    6    6  502    0 -0.86013167898E+01  0.12886540154E+03  0.21141892689E+03  0.24774631584E+03  0.00000000000E+00 0. -1.
          1    1    5    5  503    0  0.39245306241E+02  0.17215677465E+03 -0.65584051706E+03  0.67919432634E+03  0.00000000000E+00 0. -1.
         -2    1    5    5    0  503  0.40027434570E+02  0.22393167088E+02 -0.96777563800E+02  0.10709596774E+03  0.00000000000E+00 0.  1.
         -3    1    6    6    0  502  0.34457711372E+02  0.29020803653E+02  0.40072412958E+02  0.60293774123E+02  0.00000000000E+00 0.  1.
<mgrwt>
<rscale>  0 0.14104851E+04</rscale>
<asrwt>0</asrwt>
<pdfrwt beam="1">  1        1 0.79728354E-01 0.14104851E+04</pdfrwt>
<pdfrwt beam="2">  1       -1 0.14765137E+00 0.14104851E+04</pdfrwt>
<totfact> 0.14958027E+01</totfact>
</mgrwt>
</event>
<event>
12    1  0.1097093E-007  0.1482626E+04  0.7818608E-02  0.8896090E-01
          1   -1    0    0  501    0  0.00000000000E+00  0.00000000000E+00  0.35438014189E+04  0.35438014189E+04  0.00000000000E+00 0. -1.
         -1   -1    0    0    0  501 -0.00000000000E+00 -0.00000000000E+00 -0.15507210463E+03  0.15507210463E+03  0.00000000000E+00 0.  1.
         23    2    1    2    0    0  0.97548060752E+02  0.65828519459E+02  0.21909180823E+04  0.21958857520E+04  0.89124488011E+02 0.  0.
        254    2    1    2    0    0 -0.97548060752E+02 -0.65828519459E+02  0.11978112320E+04  0.15029877715E+04  0.90020635179E+03 0.  0.
        -24    2    4    4    0    0  0.34190727937E+03 -0.18830491807E+03  0.32304322221E+03  0.51294050665E+03  0.79948171259E+02 0.  0.
         24    2    4    4    0    0 -0.43945534013E+03  0.12247639862E+03  0.87476800974E+03  0.99004726487E+03  0.82783160232E+02 0.  0.
         13    1    3    3    0    0  0.97542056902E+02  0.72960352354E+02  0.15021406180E+04  0.15070713659E+04  0.00000000000E+00 0. -1.
        -13    1    3    3    0    0  0.60038505536E-02 -0.71318328954E+01  0.68877746439E+03  0.68881438612E+03  0.00000000000E+00 0.  1.
          2    1    6    6  502    0 -0.35458353137E+02  0.20368413780E+01  0.32379116969E+02  0.48060906625E+02  0.00000000000E+00 0. -1.
          3    1    5    5  503    0  0.45373207242E+01  0.58725645921E+01  0.54312405829E+00  0.74410535535E+01  0.00000000000E+00 0. -1.
         -4    1    5    5    0  503  0.33736995865E+03 -0.19417748267E+03  0.32250009815E+03  0.50549945310E+03  0.00000000000E+00 0.  1.
         -1    1    6    6    0  502 -0.40399698699E+03  0.12043955724E+03  0.84238889278E+03  0.94198635824E+03  0.00000000000E+00 0.  1.
<mgrwt>
<rscale>  0 0.14826257E+04</rscale>
<asrwt>0</asrwt>
<pdfrwt beam="1">  1        1 0.54520016E+00 0.14826257E+04</pdfrwt>
<pdfrwt beam="2">  1       -1 0.23857250E-01 0.14826257E+04</pdfrwt>
<totfact> 0.34352782E+00</totfact>
</mgrwt>
</event>
<event>
12    1  0.1097093E-007  0.1495278E+04  0.7818608E-02  0.8887599E-01
         -2   -1    0    0    0  501 -0.00000000000E+00  0.00000000000E+00  0.37992067793E+03  0.37992067793E+03  0.00000000000E+00 0.  1.
          2   -1    0    0  501    0  0.00000000000E+00 -0.00000000000E+00 -0.14712651885E+04  0.14712651885E+04  0.00000000000E+00 0. -1.
         23    2    1    2    0    0  0.17973673047E+03  0.44172800486E+03 -0.32990074838E+03  0.58760217588E+03  0.94936245746E+02 0.  0.
        254    2    1    2    0    0 -0.17973673047E+03 -0.44172800486E+03 -0.76144376222E+03  0.12635836906E+04  0.88849210325E+03 0.  0.
        -24    2    4    4    0    0 -0.22819259420E+03 -0.64453558719E+03 -0.77709980473E+03  0.10381587120E+04  0.79946367553E+02 0.  0.
         24    2    4    4    0    0  0.48455863726E+02  0.20280758233E+03  0.15656042510E+02  0.22542497854E+03  0.84216525121E+02 0.  0.
         11    1    3    3    0    0  0.11117000233E+03  0.37069266840E+03 -0.25169531191E+03  0.46165176688E+03  0.00000000000E+00 0. -1.
        -11    1    3    3    0    0  0.68566728142E+02  0.71035336465E+02 -0.78205436470E+02  0.12595040900E+03  0.00000000000E+00 0.  1.
          2    1    6    6  502    0  0.91843577457E+01  0.73343292328E+02 -0.33933922815E+02  0.81333277780E+02  0.00000000000E+00 0. -1.
          1    1    5    5  503    0 -0.34208245525E+02 -0.37253658863E+02 -0.49310370625E+02  0.70636759635E+02  0.00000000000E+00 0. -1.
         -2    1    5    5    0  503 -0.19398434867E+03 -0.60728192833E+03 -0.72778943410E+03  0.96752195241E+03  0.00000000000E+00 0.  1.
         -1    1    6    6    0  502  0.39271505981E+02  0.12946429000E+03  0.49589965325E+02  0.14409170076E+03  0.00000000000E+00 0.  1.
<mgrwt>
<rscale>  0 0.14952780E+04</rscale>
<asrwt>0</asrwt>
<pdfrwt beam="1">  1        2 0.22634849E+00 0.14952780E+04</pdfrwt>
<pdfrwt beam="2">  1       -2 0.58449335E-01 0.14952780E+04</pdfrwt>
<totfact> 0.34859562E+01</totfact>
</mgrwt>
</event>
<event>
12    1  0.1097093E-007  0.1882078E+04  0.7818608E-02  0.8663829E-01
          1   -1    0    0  501    0  0.00000000000E+00  0.00000000000E+00  0.16126948465E+04  0.16126948465E+04  0.00000000000E+00 0. -1.
         -1   -1    0    0    0  501 -0.00000000000E+00 -0.00000000000E+00 -0.54911473252E+03  0.54911473252E+03  0.00000000000E+00 0.  1.
         23    2    1    2    0    0  0.58965747466E+03 -0.15735054781E+03  0.85619372914E+03  0.10552938935E+04  0.90124178638E+02 0.  0.
        254    2    1    2    0    0 -0.58965747466E+03  0.15735054781E+03  0.20738638480E+03  0.11065156855E+04  0.89939575119E+03 0.  0.
        -24    2    4    4    0    0 -0.28977391759E+01  0.20843916013E+03 -0.26511740925E+03  0.34722598725E+03  0.82603663169E+02 0.  0.
         24    2    4    4    0    0 -0.58675973549E+03 -0.51088612313E+02  0.47250379405E+03  0.75928969821E+03  0.79774538073E+02 0.  0.
         11    1    3    3    0    0  0.23342904486E+03 -0.26662071773E+02  0.37453637917E+03  0.44212835736E+03  0.00000000000E+00 0.  1.
        -11    1    3    3    0    0  0.35622842980E+03 -0.13068847604E+03  0.48165734997E+03  0.61316553617E+03  0.00000000000E+00 0. -1.
          4    1    6    6  502    0 -0.15294551860E+03  0.73269272457E+01  0.87636602276E+02  0.17642615900E+03  0.00000000000E+00 0. -1.
          1    1    5    5  503    0 -0.18118882167E+02  0.51175264456E+02 -0.12407637868E+03  0.13543319139E+03  0.00000000000E+00 0. -1.
         -2    1    5    5    0  503  0.15221142991E+02  0.15726389567E+03 -0.14104103057E+03  0.21179279586E+03  0.00000000000E+00 0.  1.
         -3    1    6    6    0  502 -0.43381421689E+03 -0.58415539559E+02  0.38486719177E+03  0.58286353921E+03  0.00000000000E+00 0.  1.
<mgrwt>
<rscale>  0 0.18820781E+04</rscale>
<asrwt>0</asrwt>
<pdfrwt beam="1">  1        1 0.24810690E+00 0.18820781E+04</pdfrwt>
<pdfrwt beam="2">  1       -1 0.84479191E-01 0.18820781E+04</pdfrwt>
<totfact> 0.71100295E+00</totfact>
</mgrwt>
</event>
<event>
12    1  0.1097093E-007  0.1561886E+04  0.7818608E-02  0.8844311E-01
         -2   -1    0    0    0  501 -0.00000000000E+00  0.00000000000E+00  0.68101676919E+03  0.68101676919E+03  0.00000000000E+00 0.  1.
          2   -1    0    0  501    0  0.00000000000E+00 -0.00000000000E+00 -0.89553195165E+03  0.89553195165E+03  0.00000000000E+00 0. -1.
         23    2    1    2    0    0  0.45161889320E+03 -0.24743482912E+03 -0.58316673147E+02  0.52631449159E+03  0.91774126684E+02 0.  0.
        254    2    1    2    0    0 -0.45161889320E+03  0.24743482912E+03 -0.15619850931E+03  0.10502342293E+04  0.90189264473E+03 0.  0.
        -24    2    4    4    0    0  0.31988180373E+02  0.48064671677E+03 -0.14281192276E+02  0.48899632740E+03  0.82879103127E+02 0.  0.
         24    2    4    4    0    0 -0.48360707358E+03 -0.23321188765E+03 -0.14191731703E+03  0.56123790185E+03  0.81141058921E+02 0.  0.
         11    1    3    3    0    0  0.10272138861E+03 -0.89071246137E+02  0.12989070160E+02  0.13657996380E+03  0.00000000000E+00 0.  1.
        -11    1    3    3    0    0  0.34889750459E+03 -0.15836358298E+03 -0.71305743307E+02  0.38973452779E+03  0.00000000000E+00 0. -1.
          4    1    6    6  502    0 -0.16262499761E+03 -0.87295137979E+02 -0.88246373185E+02  0.20458434286E+03  0.00000000000E+00 0. -1.
          3    1    5    5  503    0  0.17975751798E+02  0.15827935168E+03  0.33570325643E+02  0.16279572348E+03  0.00000000000E+00 0. -1.
         -4    1    5    5    0  503  0.14012428575E+02  0.32236736509E+03 -0.47851517919E+02  0.32620060392E+03  0.00000000000E+00 0.  1.
         -3    1    6    6    0  502 -0.32098207597E+03 -0.14591674967E+03 -0.53670943844E+02  0.35665355899E+03  0.00000000000E+00 0.  1.
<mgrwt>
<rscale>  0 0.15618864E+04</rscale>
<asrwt>0</asrwt>
<pdfrwt beam="1">  1        2 0.13777415E+00 0.15618864E+04</pdfrwt>
<pdfrwt beam="2">  1       -2 0.10477181E+00 0.15618864E+04</pdfrwt>
<totfact> 0.20986602E+01</totfact>
</mgrwt>
</event>
<event>
12    1  0.1097093E-007  0.1883409E+04  0.7818608E-02  0.8663159E-01
          1   -1    0    0  501    0  0.00000000000E+00  0.00000000000E+00  0.77071036271E+03  0.77071036271E+03  0.00000000000E+00 0. -1.
         -1   -1    0    0    0  501 -0.00000000000E+00 -0.00000000000E+00 -0.11506367696E+04  0.11506367696E+04  0.00000000000E+00 0.  1.
         23    2    1    2    0    0  0.42195086463E+03 -0.38089069527E+03  0.30258845800E+03  0.65052248482E+03  0.92192594264E+02 0.  0.
        254    2    1    2    0    0 -0.42195086463E+03  0.38089069527E+03 -0.68251486489E+03  0.12708246475E+04  0.90887209770E+03 0.  0.
        -24    2    4    4    0    0 -0.17740288035E+03  0.66118038945E+03 -0.47741954034E+03  0.83875948214E+03  0.83407206076E+02 0.  0.
         24    2    4    4    0    0 -0.24454798427E+03 -0.28028969419E+03 -0.20509532455E+03  0.43206516535E+03  0.79058115823E+02 0.  0.
         11    1    3    3    0    0  0.38477101905E+03 -0.35688648153E+03  0.30353069306E+03  0.60625702423E+03  0.00000000000E+00 0. -1.
        -11    1    3    3    0    0  0.37179845574E+02 -0.24004213732E+02 -0.94223505482E+00  0.44265460583E+02  0.00000000000E+00 0.  1.
          4    1    6    6  502    0 -0.13442273147E+03 -0.94706648919E+02 -0.85164143291E+02  0.18518032127E+03  0.00000000000E+00 0. -1.
          3    1    5    5  503    0 -0.48651478358E+02  0.30349363647E+03 -0.24616696660E+03  0.39379376477E+03  0.00000000000E+00 0. -1.
         -4    1    5    5    0  503 -0.12875140200E+03  0.35768675298E+03 -0.23125257374E+03  0.44496571737E+03  0.00000000000E+00 0.  1.
         -3    1    6    6    0  502 -0.11012525281E+03 -0.18558304527E+03 -0.11993118126E+03  0.24688484408E+03  0.00000000000E+00 0.  1.
<mgrwt>
<rscale>  0 0.18834093E+04</rscale>
<asrwt>0</asrwt>
<pdfrwt beam="1">  1        1 0.11857082E+00 0.18834093E+04</pdfrwt>
<pdfrwt beam="2">  1       -1 0.17702104E+00 0.18834093E+04</pdfrwt>
<totfact> 0.48073747E+00</totfact>
</mgrwt>
</event>
<event>
12    1  0.1097093E-007  0.2044438E+04  0.7818608E-02  0.8586122E-01
          2   -1    0    0  501    0  0.00000000000E+00  0.00000000000E+00  0.15579999832E+04  0.15579999832E+04  0.00000000000E+00 0. -1.
         -2   -1    0    0    0  501 -0.00000000000E+00 -0.00000000000E+00 -0.67068776598E+03  0.67068776598E+03  0.00000000000E+00 0.  1.
         23    2    1    2    0    0  0.67565000258E+03  0.26108371868E+03 -0.60565413559E+02  0.73094975413E+03  0.77147518434E+02 0.  0.
        254    2    1    2    0    0 -0.67565000258E+03 -0.26108371868E+03  0.94787763073E+03  0.14977379950E+04  0.90558238979E+03 0.  0.
        -24    2    4    4    0    0 -0.93310848406E+01  0.27560911715E+03  0.14371358139E+03  0.32102838004E+03  0.79738150938E+02 0.  0.
         24    2    4    4    0    0 -0.66631891774E+03 -0.53669283582E+03  0.80416404935E+03  0.11767096150E+04  0.77107713907E+02 0.  0.
         13    1    3    3    0    0  0.64667380857E+03  0.26527023633E+03 -0.61415899290E+02  0.70166033497E+03  0.00000000000E+00 0.  1.
        -13    1    3    3    0    0  0.28976194005E+02 -0.41865176522E+01  0.85048573043E+00  0.29289419166E+02  0.00000000000E+00 0. -1.
          2    1    6    6  502    0 -0.13244593653E+03 -0.10410508215E+03  0.20229959939E+03  0.26325828030E+03  0.00000000000E+00 0. -1.
          3    1    5    5  503    0 -0.27636424372E+02  0.14032803402E+03  0.36938402861E+02  0.14771653492E+03  0.00000000000E+00 0. -1.
         -4    1    5    5    0  503  0.18305339531E+02  0.13528108313E+03  0.10677517852E+03  0.17331184511E+03  0.00000000000E+00 0.  1.
         -3    1    6    6    0  502 -0.53387298121E+03 -0.43258775367E+03  0.60186444995E+03  0.91345133467E+03  0.00000000000E+00 0.  1.
<mgrwt>
<rscale>  0 0.20444378E+04</rscale>
<asrwt>0</asrwt>
<pdfrwt beam="1">  1        2 0.23969230E+00 0.20444378E+04</pdfrwt>
<pdfrwt beam="2">  1       -2 0.10318273E+00 0.20444378E+04</pdfrwt>
<totfact> 0.83551891E+00</totfact>
</mgrwt>
</event>
<event>
12    1  0.1097093E-007  0.1338836E+04  0.7818608E-02  0.8999322E-01
          2   -1    0    0  501    0  0.00000000000E+00  0.00000000000E+00  0.67056048770E+03  0.67056048770E+03  0.00000000000E+00 0. -1.
         -2   -1    0    0    0  501 -0.00000000000E+00 -0.00000000000E+00 -0.66827741616E+03  0.66827741616E+03  0.00000000000E+00 0.  1.
         23    2    1    2    0    0  0.20300393658E+03  0.13721853537E+03 -0.27281234440E+03  0.37756930268E+03  0.89958203384E+02 0.  0.
        254    2    1    2    0    0 -0.20300393658E+03 -0.13721853537E+03  0.27509541594E+03  0.96126860118E+03  0.88787404007E+03 0.  0.
        -24    2    4    4    0    0 -0.16416863881E+03  0.21517211590E+03 -0.21270051388E+03  0.35304266790E+03  0.78404306807E+02 0.  0.
         24    2    4    4    0    0 -0.38835297767E+02 -0.35239065127E+03  0.48779592981E+03  0.60822593328E+03  0.79413886147E+02 0.  0.
         13    1    3    3    0    0  0.21239441564E+03  0.13021193674E+03 -0.25753696107E+03  0.35831804669E+03  0.00000000000E+00 0.  1.
        -13    1    3    3    0    0 -0.93904790653E+01  0.70065986254E+01 -0.15275383334E+02  0.19251255995E+02  0.00000000000E+00 0. -1.
          4    1    6    6  502    0  0.19863735973E+02 -0.16547946366E+03  0.20509045102E+03  0.26427280223E+03  0.00000000000E+00 0. -1.
          3    1    5    5  503    0 -0.12568225315E+03  0.15566320854E+03 -0.11014754570E+03  0.22838464282E+03  0.00000000000E+00 0. -1.
         -4    1    5    5    0  503 -0.38486385656E+02  0.59508907360E+02 -0.10255296818E+03  0.12465802508E+03  0.00000000000E+00 0.  1.
         -3    1    6    6    0  502 -0.58699033741E+02 -0.18691118761E+03  0.28270547879E+03  0.34395313105E+03  0.00000000000E+00 0.  1.
<mgrwt>
<rscale>  0 0.13388360E+04</rscale>
<asrwt>0</asrwt>
<pdfrwt beam="1">  1        2 0.10316315E+00 0.13388360E+04</pdfrwt>
<pdfrwt beam="2">  1       -2 0.10281191E+00 0.13388360E+04</pdfrwt>
<totfact> 0.32695569E+01</totfact>
</mgrwt>
</event>
<event>
12    1  0.1097093E-007  0.4381198E+04  0.7818608E-02  0.7931772E-01
          2   -1    0    0  501    0  0.00000000000E+00  0.00000000000E+00  0.21118107686E+04  0.21118107686E+04  0.00000000000E+00 0. -1.
         -2   -1    0    0    0  501 -0.00000000000E+00 -0.00000000000E+00 -0.22723264695E+04  0.22723264695E+04  0.00000000000E+00 0.  1.
         23    2    1    2    0    0 -0.45557034989E+03  0.23270351298E+03  0.19588092336E+04  0.20264859125E+04  0.89533631517E+02 0.  0.
        254    2    1    2    0    0  0.45557034989E+03 -0.23270351298E+03 -0.21193249345E+04  0.23576513257E+04  0.89737747171E+03 0.  0.
        -24    2    4    4    0    0  0.19035024437E+02  0.29685550954E+03 -0.40175360032E+03  0.50628115704E+03  0.80181848939E+02 0.  0.
         24    2    4    4    0    0  0.43653532545E+03 -0.52955902253E+03 -0.17175713342E+04  0.18513701686E+04  0.80773538719E+02 0.  0.
         13    1    3    3    0    0 -0.13833685560E+02  0.28359601005E+02  0.15415377903E+03  0.15735000926E+03  0.00000000000E+00 0.  1.
        -13    1    3    3    0    0 -0.44173666433E+03  0.20434391198E+03  0.18046554546E+04  0.18691359032E+04  0.00000000000E+00 0. -1.
          4    1    6    6  502    0  0.34491732266E+03 -0.37664200420E+03 -0.13332323912E+04  0.14277029690E+04  0.00000000000E+00 0. -1.
          3    1    5    5  503    0  0.22727481470E+02  0.29162885829E+03 -0.35914375433E+03  0.46319344304E+03  0.00000000000E+00 0. -1.
         -2    1    5    5    0  503 -0.36924570328E+01  0.52266512543E+01 -0.42609845987E+02  0.43087713995E+02  0.00000000000E+00 0.  1.
         -3    1    6    6    0  502  0.91618002794E+02 -0.15291701832E+03 -0.38433894302E+03  0.42366719964E+03  0.00000000000E+00 0.  1.
<mgrwt>
<rscale>  0 0.43811978E+04</rscale>
<asrwt>0</asrwt>
<pdfrwt beam="1">  1        2 0.32489396E+00 0.43811978E+04</pdfrwt>
<pdfrwt beam="2">  1       -2 0.34958869E+00 0.43811978E+04</pdfrwt>
<totfact> 0.69287151E-02</totfact>
</mgrwt>
</event>
<event>
12    1  0.1097093E-007  0.1429547E+04  0.7818608E-02  0.8932705E-01
          2   -1    0    0  501    0  0.00000000000E+00  0.00000000000E+00  0.12521267853E+04  0.12521267853E+04  0.00000000000E+00 0. -1.
         -2   -1    0    0    0  501 -0.00000000000E+00 -0.00000000000E+00 -0.40802651637E+03  0.40802651637E+03  0.00000000000E+00 0.  1.
         23    2    1    2    0    0 -0.43667663218E+02  0.28944882771E+03 -0.10235197928E+03  0.32333611095E+03  0.91557764853E+02 0.  0.
        254    2    1    2    0    0  0.43667663218E+02 -0.28944882771E+03  0.94645224817E+03  0.13368171907E+04  0.89756384428E+03 0.  0.
        -24    2    4    4    0    0  0.35650977522E+03 -0.44674821349E+03  0.66843500010E+03  0.88225154211E+03  0.69851614990E+02 0.  0.
         24    2    4    4    0    0 -0.31284211200E+03  0.15729938577E+03  0.27801724807E+03  0.45456564857E+03  0.81994236544E+02 0.  0.
         13    1    3    3    0    0 -0.61623778682E+02  0.24556163022E+03 -0.61003020047E+02  0.26042152904E+03  0.00000000000E+00 0.  1.
        -13    1    3    3    0    0  0.17956115464E+02  0.43887197497E+02 -0.41348959235E+02  0.62914581907E+02  0.00000000000E+00 0. -1.
          4    1    6    6  502    0 -0.13328036736E+02  0.16886344133E+02 -0.13953908784E+01  0.21557650547E+02  0.00000000000E+00 0. -1.
          1    1    5    5  503    0  0.54246830565E+02 -0.10870608632E+03  0.16144297077E+03  0.20204842153E+03  0.00000000000E+00 0. -1.
         -2    1    5    5    0  503  0.30226294466E+03 -0.33804212717E+03  0.50699202933E+03  0.68020312058E+03  0.00000000000E+00 0.  1.
         -3    1    6    6    0  502 -0.29951407527E+03  0.14041304164E+03  0.27941263895E+03  0.43300799802E+03  0.00000000000E+00 0.  1.
<mgrwt>
<rscale>  0 0.14295467E+04</rscale>
<asrwt>0</asrwt>
<pdfrwt beam="1">  1        2 0.19263489E+00 0.14295467E+04</pdfrwt>
<pdfrwt beam="2">  1       -2 0.62773311E-01 0.14295467E+04</pdfrwt>
<totfact> 0.40298033E+01</totfact>
</mgrwt>
</event>
<event>
12    1  0.2253634E-007  0.2502950E+04  0.7818608E-02  0.8401935E-01
          2   -1    0    0  501    0  0.00000000000E+00  0.00000000000E+00  0.15171474660E+04  0.15171474660E+04  0.00000000000E+00 0. -1.
         -2   -1    0    0    0  501 -0.00000000000E+00 -0.00000000000E+00 -0.10323253953E+04  0.10323253953E+04  0.00000000000E+00 0.  1.
         23    2    1    2    0    0 -0.84684346417E+03  0.34055527849E+03 -0.39308554520E+03  0.99731361884E+03  0.83644832265E+02 0.  0.
        254    2    1    2    0    0  0.84684346417E+03 -0.34055527849E+03  0.87790761588E+03  0.15521592425E+04  0.89741561246E+03 0.  0.
        -24    2    4    4    0    0  0.94765443566E+03 -0.46202057922E+03  0.58095585003E+03  0.12064067835E+04  0.79973011052E+02 0.  0.
         24    2    4    4    0    0 -0.10081097150E+03  0.12146530074E+03  0.29695176585E+03  0.34575245900E+03  0.80297823146E+02 0.  0.
         11    1    3    3    0    0 -0.32080323585E+03  0.13137671009E+03 -0.19380150048E+03  0.39715686784E+03  0.00000000000E+00 0. -1.
        -11    1    3    3    0    0 -0.52604022832E+03  0.20917856840E+03 -0.19928404472E+03  0.60015675099E+03  0.00000000000E+00 0.  1.
          2    1    6    6  502    0 -0.15903650127E+02  0.45094276110E+01  0.11975162201E+01  0.16573927412E+02  0.00000000000E+00 0. -1.
          1    1    5    5  503    0  0.31339959658E+01  0.31599523534E+01  0.26027614179E+01  0.51557343403E+01  0.00000000000E+00 0. -1.
         -2    1    5    5    0  503  0.94452043970E+03 -0.46518053158E+03  0.57835308861E+03  0.12012510491E+04  0.00000000000E+00 0.  1.
         -1    1    6    6    0  502 -0.84907321369E+02  0.11695587313E+03  0.29575424963E+03  0.32917853158E+03  0.00000000000E+00 0.  1.
<mgrwt>
<rscale>  0 0.25029501E+04</rscale>
<asrwt>0</asrwt>
<pdfrwt beam="1">  1        2 0.23340730E+00 0.25029501E+04</pdfrwt>
<pdfrwt beam="2">  1       -2 0.15881929E+00 0.25029501E+04</pdfrwt>
<totfact> 0.28454506E+00</totfact>
</mgrwt>
</event>
<event>
12    1  0.1097093E-007  0.1528441E+04  0.7818608E-02  0.8865757E-01
          1   -1    0    0  501    0  0.00000000000E+00  0.00000000000E+00  0.91073800492E+03  0.91073800492E+03  0.00000000000E+00 0. -1.
         -1   -1    0    0    0  501 -0.00000000000E+00 -0.00000000000E+00 -0.64127421757E+03  0.64127421757E+03  0.00000000000E+00 0.  1.
         23    2    1    2    0    0 -0.39895537338E+03  0.21219660418E+03 -0.12347433919E+03  0.47735991739E+03  0.91835665835E+02 0.  0.
        254    2    1    2    0    0  0.39895537338E+03 -0.21219660418E+03  0.39293812654E+03  0.10746523051E+04  0.89234769949E+03 0.  0.
        -24    2    4    4    0    0 -0.37279793094E+02  0.18371045466E+02  0.54497505962E+03  0.55223975477E+03  0.79016788436E+02 0.  0.
         24    2    4    4    0    0  0.43623516648E+03 -0.23056764964E+03 -0.15203693308E+03  0.52241255033E+03  0.79605792426E+02 0.  0.
         13    1    3    3    0    0 -0.26589778557E+03  0.17159723259E+03 -0.51145768188E+02  0.32056689194E+03  0.00000000000E+00 0.  1.
        -13    1    3    3    0    0 -0.13305758782E+03  0.40599371585E+02 -0.72328571000E+02  0.15679302545E+03  0.00000000000E+00 0. -1.
          2    1    6    6  502    0  0.22227459123E+03 -0.11033894131E+03 -0.35351997426E+02  0.25066000797E+03  0.00000000000E+00 0. -1.
          1    1    5    5  503    0 -0.30311045036E+02  0.55579164972E+01  0.63890031228E+02  0.70933673085E+02  0.00000000000E+00 0. -1.
         -4    1    5    5    0  503 -0.69687480586E+01  0.12813128969E+02  0.48108502839E+03  0.48130608168E+03  0.00000000000E+00 0.  1.
         -1    1    6    6    0  502  0.21396057525E+03 -0.12022870833E+03 -0.11668493566E+03  0.27175254236E+03  0.00000000000E+00 0.  1.
<mgrwt>
<rscale>  0 0.15284408E+04</rscale>
<asrwt>0</asrwt>
<pdfrwt beam="1">  1        1 0.14011354E+00 0.15284408E+04</pdfrwt>
<pdfrwt beam="2">  1       -1 0.98657573E-01 0.15284408E+04</pdfrwt>
<totfact> 0.16922510E+01</totfact>
</mgrwt>
</event>
<event>
12    1  0.1097093E-007  0.3554197E+04  0.7818608E-02  0.8101065E-01
          4   -1    0    0  501    0  0.00000000000E+00  0.00000000000E+00  0.13975609381E+04  0.13975609381E+04  0.00000000000E+00 0. -1.
         -4   -1    0    0    0  501 -0.00000000000E+00 -0.00000000000E+00 -0.22597074387E+04  0.22597074387E+04  0.00000000000E+00 0.  1.
         23    2    1    2    0    0  0.16009062101E+04  0.43670372410E+03 -0.46938790877E+03  0.17280939834E+04  0.11123385425E+03 0.  0.
        254    2    1    2    0    0 -0.16009062101E+04 -0.43670372410E+03 -0.39275859185E+03  0.19291743934E+04  0.90213285741E+03 0.  0.
        -24    2    4    4    0    0 -0.46863780646E+03 -0.57095450049E+03 -0.97240488042E+02  0.74859459352E+03  0.72991216347E+02 0.  0.
         24    2    4    4    0    0 -0.11322684037E+04  0.13425077639E+03 -0.29551810381E+03  0.11805797999E+04  0.79891834974E+02 0.  0.
         11    1    3    3    0    0  0.43203190071E+03  0.14255020316E+03 -0.17421983818E+03  0.48715980506E+03  0.00000000000E+00 0. -1.
        -11    1    3    3    0    0  0.11688743094E+04  0.29415352094E+03 -0.29516807059E+03  0.12409341784E+04  0.00000000000E+00 0.  1.
          2    1    6    6  502    0 -0.10450684722E+04  0.14467249327E+03 -0.26785878315E+03  0.10885065777E+04  0.00000000000E+00 0. -1.
          3    1    5    5  503    0 -0.41043800793E+03 -0.49063876013E+03 -0.10835289684E+03  0.64878817926E+03  0.00000000000E+00 0. -1.
         -4    1    5    5    0  503 -0.58199798528E+02 -0.80315740355E+02  0.11112408798E+02  0.99806414257E+02  0.00000000000E+00 0.  1.
         -1    1    6    6    0  502 -0.87199931425E+02 -0.10421716875E+02 -0.27659320653E+02  0.92073222178E+02  0.00000000000E+00 0.  1.
<mgrwt>
<rscale>  0 0.35541969E+04</rscale>
<asrwt>0</asrwt>
<pdfrwt beam="1">  1        4 0.21500938E+00 0.35541969E+04</pdfrwt>
<pdfrwt beam="2">  1       -4 0.34764730E+00 0.35541969E+04</pdfrwt>
<totfact> 0.25992265E-03</totfact>
</mgrwt>
</event>
<event>
12    1  0.1097093E-007  0.2034619E+04  0.7818608E-02  0.8590604E-01
          1   -1    0    0  501    0  0.00000000000E+00  0.00000000000E+00  0.13325951217E+04  0.13325951217E+04  0.00000000000E+00 0. -1.
         -1   -1    0    0    0  501 -0.00000000000E+00 -0.00000000000E+00 -0.77661913284E+03  0.77661913284E+03  0.00000000000E+00 0.  1.
         23    2    1    2    0    0 -0.83045098844E+03  0.19911586983E+03  0.36742028221E+03  0.93437437902E+03  0.93604714486E+02 0.  0.
        254    2    1    2    0    0  0.83045098844E+03 -0.19911586983E+03  0.18855570665E+03  0.11748398755E+04  0.78447403065E+03 0.  0.
        -24    2    4    4    0    0  0.54461872350E+03  0.81160287062E+02 -0.21916280899E+03  0.59791771001E+03  0.79225658198E+02 0.  0.
         24    2    4    4    0    0  0.28583226494E+03 -0.28027615689E+03  0.40771851565E+03  0.57692216550E+03  0.79686819757E+02 0.  0.
         11    1    3    3    0    0 -0.81583768789E+03  0.20645757082E+03  0.35307871888E+03  0.91262283735E+03  0.00000000000E+00 0. -1.
        -11    1    3    3    0    0 -0.14613300552E+02 -0.73417009881E+01  0.14341563325E+02  0.21751541670E+02  0.00000000000E+00 0.  1.
          2    1    6    6  502    0  0.48182534994E+02 -0.24911421577E+02  0.89999731264E+02  0.10508133626E+03  0.00000000000E+00 0. -1.
          1    1    5    5  503    0  0.13860035053E+03  0.29880524072E+02 -0.93409195470E+02  0.16978863532E+03  0.00000000000E+00 0. -1.
         -2    1    5    5    0  503  0.40601837297E+03  0.51279762990E+02 -0.12575361352E+03  0.42812907469E+03  0.00000000000E+00 0.  1.
         -1    1    6    6    0  502  0.23764972995E+03 -0.25536473532E+03  0.31771878438E+03  0.47184082924E+03  0.00000000000E+00 0.  1.
<mgrwt>
<rscale>  0 0.20346192E+04</rscale>
<asrwt>0</asrwt>
<pdfrwt beam="1">  1        1 0.20501463E+00 0.20346192E+04</pdfrwt>
<pdfrwt beam="2">  1       -1 0.11947987E+00 0.20346192E+04</pdfrwt>
<totfact> 0.49621585E+00</totfact>
</mgrwt>
</event>
<event>
12    1  0.1097093E-007  0.2322673E+04  0.7818608E-02  0.8469035E-01
         -2   -1    0    0    0  501 -0.00000000000E+00  0.00000000000E+00  0.87070677227E+03  0.87070677227E+03  0.00000000000E+00 0.  1.
          2   -1    0    0  501    0  0.00000000000E+00 -0.00000000000E+00 -0.15489746395E+04  0.15489746395E+04  0.00000000000E+00 0. -1.
         23    2    1    2    0    0  0.23868491774E+03 -0.12344185460E+03 -0.12712129816E+04  0.13025084469E+04  0.91309518826E+02 0.  0.
        254    2    1    2    0    0 -0.23868491774E+03  0.12344185460E+03  0.59294511438E+03  0.11171729649E+04  0.90790040385E+03 0.  0.
        -24    2    4    4    0    0 -0.38088505846E+03  0.43872924269E+03  0.42635314491E+03  0.72492103040E+03  0.78592111505E+02 0.  0.
         24    2    4    4    0    0  0.14220014072E+03 -0.31528738809E+03  0.16659196948E+03  0.39225193446E+03  0.80508873316E+02 0.  0.
         11    1    3    3    0    0  0.16041576803E+03 -0.52486169034E+02 -0.93420661740E+03  0.94933135446E+03  0.00000000000E+00 0.  1.
        -11    1    3    3    0    0  0.78269149714E+02 -0.70955685561E+02 -0.33700636425E+03  0.35317709248E+03  0.00000000000E+00 0. -1.
          2    1    6    6  502    0  0.11266306912E+03 -0.19336156302E+03  0.14012103376E+03  0.26403705289E+03  0.00000000000E+00 0. -1.
          3    1    5    5  503    0 -0.24656183726E+03  0.30705052171E+03  0.32888407765E+03  0.51306675882E+03  0.00000000000E+00 0. -1.
         -2    1    5    5    0  503 -0.13432322121E+03  0.13167872098E+03  0.97469067252E+02  0.21185427157E+03  0.00000000000E+00 0.  1.
         -1    1    6    6    0  502  0.29537071607E+02 -0.12192582508E+03  0.26470935717E+02  0.12821488158E+03  0.00000000000E+00 0.  1.
<mgrwt>
<rscale>  0 0.23226732E+04</rscale>
<asrwt>0</asrwt>
<pdfrwt beam="1">  1        2 0.23830379E+00 0.23226732E+04</pdfrwt>
<pdfrwt beam="2">  1       -2 0.13395489E+00 0.23226732E+04</pdfrwt>
<totfact> 0.43387166E+00</totfact>
</mgrwt>
</event>
<event>
12    1  0.1097093E-007  0.1313333E+04  0.7818608E-02  0.9019059E-01
         -2   -1    0    0    0  501 -0.00000000000E+00  0.00000000000E+00  0.21463515975E+04  0.21463515975E+04  0.00000000000E+00 0.  1.
          2   -1    0    0  501    0  0.00000000000E+00 -0.00000000000E+00 -0.20090400790E+03  0.20090400790E+03  0.00000000000E+00 0. -1.
         23    2    1    2    0    0 -0.11606678020E+03  0.16991065107E+02  0.11699649420E+04  0.11793743738E+04  0.91355100227E+02 0.  0.
        254    2    1    2    0    0  0.11606678020E+03 -0.16991065107E+02  0.77548264757E+03  0.11678812316E+04  0.86533984110E+03 0.  0.
        -24    2    4    4    0    0 -0.19914450473E+03  0.29452482329E+03  0.56160571694E+03  0.66939848154E+03  0.79309145011E+02 0.  0.
         24    2    4    4    0    0  0.31521128493E+03 -0.31151588840E+03  0.21387693063E+03  0.49848275003E+03  0.79632956380E+02 0.  0.
         11    1    3    3    0    0 -0.11259860383E+03  0.13205158464E+02  0.68024331171E+03  0.68962582965E+03  0.00000000000E+00 0.  1.
        -11    1    3    3    0    0 -0.34681763771E+01  0.37859066432E+01  0.48972163027E+03  0.48974854414E+03  0.00000000000E+00 0. -1.
          4    1    6    6  502    0  0.29934987265E+03 -0.30128646777E+03  0.18337236871E+03  0.46261140012E+03  0.00000000000E+00 0. -1.
          3    1    5    5  503    0 -0.13693102367E+03  0.24471131569E+03  0.47582999622E+03  0.55231143259E+03  0.00000000000E+00 0. -1.
         -4    1    5    5    0  503 -0.62213481060E+02  0.49813507604E+02  0.85775720729E+02  0.11708704895E+03  0.00000000000E+00 0.  1.
         -3    1    6    6    0  502  0.15861412286E+02 -0.10229420630E+02  0.30504561917E+02  0.35871349903E+02  0.00000000000E+00 0.  1.
<mgrwt>
<rscale>  0 0.13133326E+04</rscale>
<asrwt>0</asrwt>
<pdfrwt beam="1">  1        2 0.30908310E-01 0.13133326E+04</pdfrwt>
<pdfrwt beam="2">  1       -2 0.33020792E+00 0.13133326E+04</pdfrwt>
<totfact> 0.35213534E+00</totfact>
</mgrwt>
</event>
<event>
12    1  0.1097093E-007  0.2443988E+04  0.7818608E-02  0.8423216E-01
          2   -1    0    0  501    0  0.00000000000E+00  0.00000000000E+00  0.37111355682E+04  0.37111355682E+04  0.00000000000E+00 0. -1.
         -2   -1    0    0    0  501 -0.00000000000E+00 -0.00000000000E+00 -0.40237527006E+03  0.40237527006E+03  0.00000000000E+00 0.  1.
         23    2    1    2    0    0 -0.75007644364E+03 -0.67365382382E+03  0.91375500577E+03  0.13636726920E+04  0.90724057569E+02 0.  0.
        254    2    1    2    0    0  0.75007644364E+03  0.67365382382E+03  0.23950052924E+04  0.27498381463E+04  0.89951950206E+03 0.  0.
        -24    2    4    4    0    0  0.23157040279E+03 -0.14680182725E+03  0.10576685204E+04  0.10954789872E+04  0.78967617138E+02 0.  0.
         24    2    4    4    0    0  0.51850604085E+03  0.82045565107E+03  0.13373367720E+04  0.16543591590E+04  0.80240859898E+02 0.  0.
         13    1    3    3    0    0 -0.38334540282E+03 -0.40228120586E+03  0.48387997695E+03  0.73683356231E+03  0.00000000000E+00 0. -1.
        -13    1    3    3    0    0 -0.36673104082E+03 -0.27137261796E+03  0.42987502882E+03  0.62683912967E+03  0.00000000000E+00 0.  1.
          2    1    6    6  502    0  0.22608608584E+02  0.33902357323E+02  0.88051188176E+02  0.97023351588E+02  0.00000000000E+00 0. -1.
          3    1    5    5  503    0 -0.35023988736E+01 -0.14712794192E+00  0.58545250612E+02  0.58650104976E+02  0.00000000000E+00 0. -1.
         -4    1    5    5    0  503  0.23507280166E+03 -0.14665469931E+03  0.99912326975E+03  0.10368288823E+04  0.00000000000E+00 0.  1.
         -3    1    6    6    0  502  0.49589743227E+03  0.78655329375E+03  0.12492855838E+04  0.15573358074E+04  0.00000000000E+00 0.  1.
<mgrwt>
<rscale>  0 0.24439879E+04</rscale>
<asrwt>0</asrwt>
<pdfrwt beam="1">  1        2 0.57094391E+00 0.24439879E+04</pdfrwt>
<pdfrwt beam="2">  1       -2 0.61903890E-01 0.24439879E+04</pdfrwt>
<totfact> 0.12469010E+00</totfact>
</mgrwt>
</event>
<event>
12    1  0.1097093E-007  0.1518633E+04  0.7818608E-02  0.8872156E-01
         -1   -1    0    0    0  501 -0.00000000000E+00  0.00000000000E+00  0.61021259649E+03  0.61021259649E+03  0.00000000000E+00 0.  1.
          1   -1    0    0  501    0  0.00000000000E+00 -0.00000000000E+00 -0.94485314754E+03  0.94485314754E+03  0.00000000000E+00 0. -1.
         23    2    1    2    0    0 -0.33222510860E+02 -0.16965549929E+03 -0.56941952342E+03  0.60209828075E+03  0.91635268129E+02 0.  0.
        254    2    1    2    0    0  0.33222510860E+02  0.16965549929E+03  0.23477897237E+03  0.95296746328E+03  0.90727013427E+03 0.  0.
        -24    2    4    4    0    0  0.29960605706E+03 -0.48428522073E+02 -0.21532945238E+03  0.38072448713E+03  0.80468943448E+02 0.  0.
         24    2    4    4    0    0 -0.26638354620E+03  0.21808402136E+03  0.45010842475E+03  0.57224297614E+03  0.79646692699E+02 0.  0.
         13    1    3    3    0    0  0.18158935891E+02 -0.71566515216E+01 -0.25558291893E+02  0.32158838570E+02  0.00000000000E+00 0.  1.
        -13    1    3    3    0    0 -0.51381446750E+02 -0.16249884776E+03 -0.54386123153E+03  0.56993944218E+03  0.00000000000E+00 0. -1.
          2    1    6    6  502    0 -0.20770235642E+03  0.17350313085E+03  0.29391312926E+03  0.39953539621E+03  0.00000000000E+00 0. -1.
          1    1    5    5  503    0  0.99373504571E+02 -0.54059298199E+02 -0.67062716540E+02  0.13151011019E+03  0.00000000000E+00 0. -1.
         -2    1    5    5    0  503  0.20023255249E+03  0.56307761256E+01 -0.14826673584E+03  0.24921437694E+03  0.00000000000E+00 0.  1.
         -1    1    6    6    0  502 -0.58681189787E+02  0.44580890509E+02  0.15619529549E+03  0.17270757993E+03  0.00000000000E+00 0.  1.
<mgrwt>
<rscale>  0 0.15186327E+04</rscale>
<asrwt>0</asrwt>
<pdfrwt beam="1">  1        1 0.14536202E+00 0.15186327E+04</pdfrwt>
<pdfrwt beam="2">  1       -1 0.93878862E-01 0.15186327E+04</pdfrwt>
<totfact> 0.17778449E+01</totfact>
</mgrwt>
</event>
<event>
12    1  0.1097093E-007  0.1281256E+04  0.7818608E-02  0.9044563E-01
         -2   -1    0    0    0  501 -0.00000000000E+00  0.00000000000E+00  0.11977049734E+03  0.11977049734E+03  0.00000000000E+00 0.  1.
          2   -1    0    0  501    0  0.00000000000E+00 -0.00000000000E+00 -0.34265895195E+04  0.34265895195E+04  0.00000000000E+00 0. -1.
         23    2    1    2    0    0  0.13111012446E+03  0.13776756523E+03 -0.15218269321E+04  0.15364211825E+04  0.91994957073E+02 0.  0.
        254    2    1    2    0    0 -0.13111012446E+03 -0.13776756523E+03 -0.17849920901E+04  0.20099388343E+04  0.90415020283E+03 0.  0.
        -24    2    4    4    0    0  0.26656866053E+03  0.23574209916E+03 -0.84285051161E+03  0.91841347797E+03  0.80331460190E+02 0.  0.
         24    2    4    4    0    0 -0.39767878499E+03 -0.37350966440E+03 -0.94214157844E+03  0.10915253563E+04  0.78351542665E+02 0.  0.
         11    1    3    3    0    0  0.48443665697E+01 -0.11845949855E+02 -0.49170678574E+02  0.50808956364E+02  0.00000000000E+00 0.  1.
        -11    1    3    3    0    0  0.12626575789E+03  0.14961351509E+03 -0.14726562535E+04  0.14856122261E+04  0.00000000000E+00 0. -1.
          4    1    6    6  502    0 -0.18072872719E+03 -0.12182150167E+03 -0.40466545120E+03  0.45962754323E+03  0.00000000000E+00 0. -1.
          1    1    5    5  503    0  0.14777105339E+03  0.80410919943E+02 -0.42426138020E+03  0.45639885955E+03  0.00000000000E+00 0. -1.
         -2    1    5    5    0  503  0.11879760714E+03  0.15533117922E+03 -0.41858913141E+03  0.46201461842E+03  0.00000000000E+00 0.  1.
         -3    1    6    6    0  502 -0.21695005780E+03 -0.25168816273E+03 -0.53747612724E+03  0.63189781310E+03  0.00000000000E+00 0.  1.
<mgrwt>
<rscale>  0 0.12812562E+04</rscale>
<asrwt>0</asrwt>
<pdfrwt beam="1">  1        2 0.52716758E+00 0.12812562E+04</pdfrwt>
<pdfrwt beam="2">  1       -2 0.18426232E-01 0.12812562E+04</pdfrwt>
<totfact> 0.22583126E+01</totfact>
</mgrwt>
</event>
<event>
12    1  0.1097093E-007  0.1740315E+04  0.7818608E-02  0.8738700E-01
         -2   -1    0    0    0  501 -0.00000000000E+00  0.00000000000E+00  0.72923913993E+03  0.72923913993E+03  0.00000000000E+00 0. -1.
          2   -1    0    0  501    0  0.00000000000E+00 -0.00000000000E+00 -0.10383066293E+04  0.10383066293E+04  0.00000000000E+00 0.  1.
         23    2    1    2    0    0 -0.22768437080E+03 -0.29712649691E+03  0.40759043503E+03  0.56086453130E+03  0.91185151560E+02 0.  0.
        254    2    1    2    0    0  0.22768437080E+03  0.29712649691E+03 -0.71665792435E+03  0.12066812379E+04  0.89574365833E+03 0.  0.
        -24    2    4    4    0    0  0.50945420077E+03  0.34529473178E+03 -0.65782337017E+03  0.90410781821E+03  0.76859131746E+02 0.  0.
         24    2    4    4    0    0 -0.28176982997E+03 -0.48168234867E+02 -0.58834554183E+02  0.30257341967E+03  0.79842054046E+02 0.  0.
         13    1    3    3    0    0 -0.22290313471E+03 -0.26239180247E+03  0.39407387097E+03  0.52328718811E+03  0.00000000000E+00 0. -1.
        -13    1    3    3    0    0 -0.47812360944E+01 -0.34734694444E+02  0.13516564064E+02  0.37577343185E+02  0.00000000000E+00 0.  1.
          4    1    6    6  502    0 -0.26098550799E+03 -0.63504297630E+02 -0.64258982577E+02  0.27618010073E+03  0.00000000000E+00 0. -1.
          1    1    5    5  503    0  0.39527758117E+03  0.28339868863E+03 -0.55857880369E+03  0.74065475279E+03  0.00000000000E+00 0. -1.
         -2    1    5    5    0  503  0.11417661961E+03  0.61896043147E+02 -0.99244566478E+02  0.16345306543E+03  0.00000000000E+00 0.  1.
         -3    1    6    6    0  502 -0.20784321975E+02  0.15336062763E+02  0.54244283932E+01  0.26393318935E+02  0.00000000000E+00 0.  1.
<mgrwt>
<rscale>  0 0.17403147E+04</rscale>
<asrwt>0</asrwt>
<pdfrwt beam="1">  1        2 0.15973948E+00 0.17403147E+04</pdfrwt>
<pdfrwt beam="2">  1       -2 0.11219064E+00 0.17403147E+04</pdfrwt>
<totfact> 0.14146596E+01</totfact>
</mgrwt>
</event>
<event>
12    1  0.1097093E-007  0.1337470E+04  0.7818608E-02  0.9000368E-01
          1   -1    0    0  501    0  0.00000000000E+00  0.00000000000E+00  0.35187081298E+03  0.35187081298E+03  0.00000000000E+00 0. -1.
         -1   -1    0    0    0  501 -0.00000000000E+00 -0.00000000000E+00 -0.12709389389E+04  0.12709389389E+04  0.00000000000E+00 0.  1.
         23    2    1    2    0    0 -0.92795476684E+02  0.98017253847E+02 -0.66549168759E+03  0.68689076097E+03  0.10354394581E+03 0.  0.
        254    2    1    2    0    0  0.92795476684E+02 -0.98017253847E+02 -0.25357643830E+03  0.93591899087E+03  0.89074405126E+03 0.  0.
        -24    2    4    4    0    0 -0.78695984429E+02  0.33060897838E+03  0.83380386659E+02  0.35883672930E+03  0.79474240283E+02 0.  0.
         24    2    4    4    0    0  0.17149146111E+03 -0.42862623222E+03 -0.33695682496E+03  0.57708226156E+03  0.79713653414E+02 0.  0.
         11    1    3    3    0    0 -0.54163048474E+02 -0.81519500549E+01 -0.27409333450E+03  0.27951251515E+03  0.00000000000E+00 0. -1.
        -11    1    3    3    0    0 -0.38632428210E+02  0.10616920390E+03 -0.39139835309E+03  0.40737824582E+03  0.00000000000E+00 0.  1.
          4    1    6    6  502    0  0.38217911856E+02 -0.34264289386E+02 -0.48630228865E+02  0.70707492342E+02  0.00000000000E+00 0. -1.
          3    1    5    5  503    0 -0.80683256133E+02  0.23769226466E+03  0.87449484626E+02  0.26580973057E+03  0.00000000000E+00 0. -1.
         -4    1    5    5    0  503  0.19872717039E+01  0.92916713712E+02 -0.40690979666E+01  0.93026998738E+02  0.00000000000E+00 0.  1.
         -3    1    6    6    0  502  0.13327354926E+03 -0.39436194284E+03 -0.28832659609E+03  0.50637476922E+03  0.00000000000E+00 0.  1.
<mgrwt>
<rscale>  0 0.13374697E+04</rscale>
<asrwt>0</asrwt>
<pdfrwt beam="1">  1        1 0.54133971E-01 0.13374697E+04</pdfrwt>
<pdfrwt beam="2">  1       -1 0.19552907E+00 0.13374697E+04</pdfrwt>
<totfact> 0.11262317E+01</totfact>
</mgrwt>
</event>
<event>
12    1  0.1097093E-007  0.1339748E+04  0.7818608E-02  0.8998625E-01
         -2   -1    0    0    0  501 -0.00000000000E+00  0.00000000000E+00  0.11846011255E+04  0.11846011255E+04  0.00000000000E+00 0.  1.
          2   -1    0    0  501    0  0.00000000000E+00 -0.00000000000E+00 -0.37880371667E+03  0.37880371667E+03  0.00000000000E+00 0. -1.
         23    2    1    2    0    0 -0.27521774045E+03  0.25553295987E+03  0.28700774136E+03  0.48279066549E+03  0.98343707680E+02 0.  0.
        254    2    1    2    0    0  0.27521774045E+03 -0.25553295987E+03  0.51878966743E+03  0.10806141767E+04  0.87036910648E+03 0.  0.
        -24    2    4    4    0    0  0.39698371431E+02 -0.23568484922E+03  0.71828554279E+03  0.76107919231E+03  0.78639094240E+02 0.  0.
         24    2    4    4    0    0  0.23551936902E+03 -0.19848110649E+02 -0.19949587536E+03  0.31953498434E+03  0.80253855063E+02 0.  0.
         11    1    3    3    0    0 -0.18003875520E+03  0.14553789710E+03  0.23065605377E+03  0.32679878826E+03  0.00000000000E+00 0.  1.
        -11    1    3    3    0    0 -0.95178985253E+02  0.10999506276E+03  0.56351687594E+02  0.15599187723E+03  0.00000000000E+00 0. -1.
          4    1    6    6  502    0  0.95534952417E+02 -0.31318066739E+02 -0.12542847644E+03  0.16074840944E+03  0.00000000000E+00 0. -1.
          1    1    5    5  503    0  0.22429024643E+02 -0.48327228977E+02  0.26486743712E+03  0.27017279925E+03  0.00000000000E+00 0. -1.
         -2    1    5    5    0  503  0.17269346788E+02 -0.18735762024E+03  0.45341810567E+03  0.49090639307E+03  0.00000000000E+00 0.  1.
         -3    1    6    6    0  502  0.13998441660E+03  0.11469956090E+02 -0.74067398925E+02  0.15878657490E+03  0.00000000000E+00 0.  1.
<mgrwt>
<rscale>  0 0.13397482E+04</rscale>
<asrwt>0</asrwt>
<pdfrwt beam="1">  1        2 0.58277496E-01 0.13397482E+04</pdfrwt>
<pdfrwt beam="2">  1       -2 0.18224632E+00 0.13397482E+04</pdfrwt>
<totfact> 0.14444990E+01</totfact>
</mgrwt>
</event>
<event>
12    1  0.1097093E-007  0.2680894E+04  0.7818608E-02  0.8341231E-01
          2   -1    0    0  501    0  0.00000000000E+00  0.00000000000E+00  0.11272967709E+04  0.11272967709E+04  0.00000000000E+00 0. -1.
         -2   -1    0    0    0  501 -0.00000000000E+00 -0.00000000000E+00 -0.15939003649E+04  0.15939003649E+04  0.00000000000E+00 0.  1.
         23    2    1    2    0    0 -0.39328635627E+03  0.95195998810E+03  0.40426463900E+03  0.11104302105E+04  0.93399020853E+02 0.  0.
        254    2    1    2    0    0  0.39328635627E+03 -0.95195998810E+03 -0.87086823299E+03  0.16107669253E+04  0.88048658795E+03 0.  0.
        -24    2    4    4    0    0  0.81016383461E+02  0.15651746579E+03 -0.18623722107E+03  0.26868573890E+03  0.80289179174E+02 0.  0.
         24    2    4    4    0    0  0.31226997281E+03 -0.11084774539E+04 -0.68463101192E+03  0.13420811864E+04  0.78914427009E+02 0.  0.
         11    1    3    3    0    0 -0.13001293994E+02  0.26854334089E+02 -0.39906895092E+01  0.30101735958E+02  0.00000000000E+00 0. -1.
        -11    1    3    3    0    0 -0.38028506227E+03  0.92510565401E+03  0.40825532851E+03  0.10803284746E+04  0.00000000000E+00 0.  1.
          4    1    6    6  502    0  0.14995946358E+03 -0.45946064840E+03 -0.32636261623E+03  0.58318477811E+03  0.00000000000E+00 0. -1.
          1    1    5    5  503    0  0.71581906578E+01 -0.89723660234E+01 -0.18368666144E+02  0.21659892462E+02  0.00000000000E+00 0. -1.
         -2    1    5    5    0  503  0.73858192803E+02  0.16548983181E+03 -0.16786855492E+03  0.24702584644E+03  0.00000000000E+00 0.  1.
         -3    1    6    6    0  502  0.16231050923E+03 -0.64901680549E+03 -0.35826839569E+03  0.75889640832E+03  0.00000000000E+00 0.  1.
<mgrwt>
<rscale>  0 0.26808944E+04</rscale>
<asrwt>0</asrwt>
<pdfrwt beam="1">  1        2 0.17343027E+00 0.26808944E+04</pdfrwt>
<pdfrwt beam="2">  1       -2 0.24521544E+00 0.26808944E+04</pdfrwt>
<totfact> 0.12665790E+00</totfact>
</mgrwt>
</event>
<event>
12    1  0.1097093E-007  0.1900057E+04  0.7818608E-02  0.8654828E-01
         -1   -1    0    0    0  501 -0.00000000000E+00  0.00000000000E+00  0.31623883104E+03  0.31623883104E+03  0.00000000000E+00 0.  1.
          1   -1    0    0  501    0  0.00000000000E+00 -0.00000000000E+00 -0.28540258288E+04  0.28540258288E+04  0.00000000000E+00 0. -1.
         23    2    1    2    0    0 -0.15831906858E+03  0.59661390163E+03 -0.35008600699E+03  0.71532019530E+03  0.90053841784E+02 0.  0.
        254    2    1    2    0    0  0.15831906858E+03 -0.59661390163E+03 -0.21877009908E+04  0.24549444645E+04  0.92720204047E+03 0.  0.
        -24    2    4    4    0    0  0.27590990824E+03 -0.78159117481E+03 -0.13585075878E+04  0.15933826807E+04  0.79463568894E+02 0.  0.
         24    2    4    4    0    0 -0.11759083966E+03  0.18497727318E+03 -0.82919340292E+03  0.86156178388E+03  0.81748460675E+02 0.  0.
         11    1    3    3    0    0 -0.14831501526E+03  0.57053017992E+03 -0.35320745442E+03  0.68720996486E+03  0.00000000000E+00 0.  1.
        -11    1    3    3    0    0 -0.10004053320E+02  0.26083721718E+02  0.31214474295E+01  0.28110230442E+02  0.00000000000E+00 0. -1.
          4    1    6    6  502    0 -0.11349672738E+03  0.14594465013E+03 -0.75847538284E+03  0.78068319720E+03  0.00000000000E+00 0. -1.
          1    1    5    5  503    0  0.48148113181E+02 -0.91675003550E+02 -0.13109467066E+03  0.16705795328E+03  0.00000000000E+00 0. -1.
         -2    1    5    5    0  503  0.22776179506E+03 -0.68991617126E+03 -0.12274129172E+04  0.14263247274E+04  0.00000000000E+00 0.  1.
         -3    1    6    6    0  502 -0.40941122859E+01  0.39032623050E+02 -0.70718020088E+02  0.80878586676E+02  0.00000000000E+00 0.  1.
<mgrwt>
<rscale>  0 0.19000566E+04</rscale>
<asrwt>0</asrwt>
<pdfrwt beam="1">  1        1 0.43908089E+00 0.19000566E+04</pdfrwt>
<pdfrwt beam="2">  1       -1 0.48652129E-01 0.19000566E+04</pdfrwt>
<totfact> 0.30215104E+00</totfact>
</mgrwt>
</event>
<event>
12    1  0.1097093E-007  0.1957487E+04  0.7818608E-02  0.8626759E-01
          1   -1    0    0  501    0  0.00000000000E+00  0.00000000000E+00  0.63331206383E+03  0.63331206383E+03  0.00000000000E+00 0. -1.
         -1   -1    0    0    0  501 -0.00000000000E+00 -0.00000000000E+00 -0.15125858926E+04  0.15125858926E+04  0.00000000000E+00 0.  1.
         23    2    1    2    0    0  0.53764136146E+03 -0.73916775810E+02 -0.96262709860E+03  0.11074003627E+04  0.71851993674E+02 0.  0.
        254    2    1    2    0    0 -0.53764136146E+03  0.73916775810E+02  0.83353269774E+02  0.10384975938E+04  0.88148032392E+03 0.  0.
        -24    2    4    4    0    0  0.88676226429E+02  0.32424820440E+03 -0.41403387105E+02  0.34796504899E+03  0.79781349098E+02 0.  0.
         24    2    4    4    0    0 -0.62631758788E+03 -0.25033142859E+03  0.12475665688E+03  0.69053254481E+03  0.79570264417E+02 0.  0.
         13    1    3    3    0    0  0.46317738108E+03 -0.38095889599E+02 -0.81129745763E+03  0.93498029279E+03  0.00000000000E+00 0.  1.
        -13    1    3    3    0    0  0.74463980373E+02 -0.35820886211E+02 -0.15132964097E+03  0.17242006988E+03  0.00000000000E+00 0. -1.
          2    1    6    6  502    0 -0.51191222681E+03 -0.22481136965E+03  0.78794433029E+02  0.56462628575E+03  0.00000000000E+00 0. -1.
          1    1    5    5  503    0  0.90234909151E+02  0.31012475341E+03 -0.21755387838E+02  0.32371746695E+03  0.00000000000E+00 0. -1.
         -4    1    5    5    0  503 -0.15586827211E+01  0.14123450992E+02 -0.19647999267E+02  0.24247582043E+02  0.00000000000E+00 0.  1.
         -1    1    6    6    0  502 -0.11440536108E+03 -0.25520058940E+02  0.45962223851E+02  0.12590625907E+03  0.00000000000E+00 0.  1.
<mgrwt>
<rscale>  0 0.19574871E+04</rscale>
<asrwt>0</asrwt>
<pdfrwt beam="1">  1        1 0.97432626E-01 0.19574871E+04</pdfrwt>
<pdfrwt beam="2">  1       -1 0.23270552E+00 0.19574871E+04</pdfrwt>
<totfact> 0.26687129E+00</totfact>
</mgrwt>
</event>
<event>
12    1  0.1097093E-007  0.1532888E+04  0.7818608E-02  0.8862873E-01
          1   -1    0    0  501    0  0.00000000000E+00  0.00000000000E+00  0.81025295702E+03  0.81025295702E+03  0.00000000000E+00 0. -1.
         -1   -1    0    0    0  501 -0.00000000000E+00 -0.00000000000E+00 -0.72500353354E+03  0.72500353354E+03  0.00000000000E+00 0.  1.
         23    2    1    2    0    0  0.32515201940E+03  0.30926883864E+03  0.23430114991E+03  0.51401508880E+03  0.89125935549E+02 0.  0.
        254    2    1    2    0    0 -0.32515201940E+03 -0.30926883864E+03 -0.14905172644E+03  0.10212414018E+04  0.90517762525E+03 0.  0.
        -24    2    4    4    0    0 -0.16841550897E+03  0.18855448535E+03  0.24584376339E+03  0.36196626200E+03  0.81632354018E+02 0.  0.
         24    2    4    4    0    0 -0.15673651043E+03 -0.49782332399E+03 -0.39489548982E+03  0.65927513977E+03  0.79415781950E+02 0.  0.
         11    1    3    3    0    0  0.40221910345E+02  0.73899459638E+02  0.70501880178E+02  0.10976997456E+03  0.00000000000E+00 0.  1.
        -11    1    3    3    0    0  0.28493010906E+03  0.23536937900E+03  0.16379926974E+03  0.40424511424E+03  0.00000000000E+00 0. -1.
          2    1    6    6  502    0 -0.11029358504E+03 -0.25089454667E+03 -0.17331540560E+03  0.32426991576E+03  0.00000000000E+00 0. -1.
          1    1    5    5  503    0 -0.80074972862E+02  0.10566193144E+03  0.74350096006E+02  0.15200125595E+03  0.00000000000E+00 0. -1.
         -2    1    5    5    0  503 -0.88340536109E+02  0.82892553910E+02  0.17149366738E+03  0.20996500605E+03  0.00000000000E+00 0.  1.
         -1    1    6    6    0  502 -0.46442925395E+02 -0.24692877732E+03 -0.22158008422E+03  0.33500522400E+03  0.00000000000E+00 0.  1.
<mgrwt>
<rscale>  0 0.15328878E+04</rscale>
<asrwt>0</asrwt>
<pdfrwt beam="1">  1        1 0.12465430E+00 0.15328878E+04</pdfrwt>
<pdfrwt beam="2">  1       -1 0.11153901E+00 0.15328878E+04</pdfrwt>
<totfact> 0.15435859E+01</totfact>
</mgrwt>
</event>
<event>
12    1  0.1097093E-007  0.2456647E+04  0.7818608E-02  0.8418595E-01
         -2   -1    0    0    0  501 -0.00000000000E+00  0.00000000000E+00  0.78817315289E+03  0.78817315289E+03  0.00000000000E+00 0.  1.
          2   -1    0    0  501    0  0.00000000000E+00 -0.00000000000E+00 -0.19142733661E+04  0.19142733661E+04  0.00000000000E+00 0. -1.
         23    2    1    2    0    0  0.55847208945E+03 -0.24848600835E+03 -0.14404896436E+04  0.15675659307E+04  0.92823287493E+02 0.  0.
        254    2    1    2    0    0 -0.55847208945E+03  0.24848600835E+03  0.31438943042E+03  0.11348805883E+04  0.90303757654E+03 0.  0.
        -24    2    4    4    0    0 -0.53497652221E+03 -0.18821944743E+03 -0.28746476622E+02  0.57339168651E+03  0.79531292806E+02 0.  0.
         24    2    4    4    0    0 -0.23495567242E+02  0.43670545578E+03  0.34313590704E+03  0.56148890176E+03  0.79144420616E+02 0.  0.
         13    1    3    3    0    0  0.15463718737E+03 -0.11309394301E+03 -0.48350548222E+03  0.52007735098E+03  0.00000000000E+00 0.  1.
        -13    1    3    3    0    0  0.40383490208E+03 -0.13539206533E+03 -0.95698416141E+03  0.10474885797E+04  0.00000000000E+00 0. -1.
          4    1    6    6  502    0  0.27131349088E+02  0.13155912712E+03  0.88703874316E+02  0.16097295223E+03  0.00000000000E+00 0. -1.
          3    1    5    5  503    0 -0.43222708604E+02 -0.17096373192E+02  0.19662438621E+02  0.50468802323E+02  0.00000000000E+00 0. -1.
         -2    1    5    5    0  503 -0.49175381361E+03 -0.17112307424E+03 -0.48408915243E+02  0.52292288419E+03  0.00000000000E+00 0.  1.
         -3    1    6    6    0  502 -0.50626916330E+02  0.30514632866E+03  0.25443203273E+03  0.40051594953E+03  0.00000000000E+00 0.  1.
<mgrwt>
<rscale>  0 0.24566472E+04</rscale>
<asrwt>0</asrwt>
<pdfrwt beam="1">  1        2 0.29450359E+00 0.24566472E+04</pdfrwt>
<pdfrwt beam="2">  1       -2 0.12125741E+00 0.24566472E+04</pdfrwt>
<totfact> 0.34530537E+00</totfact>
</mgrwt>
</event>
<event>
12    1  0.1097093E-007  0.1627787E+04  0.7818608E-02  0.8803657E-01
         -2   -1    0    0    0  501 -0.00000000000E+00  0.00000000000E+00  0.71720545899E+03  0.71720545899E+03  0.00000000000E+00 0.  1.
          2   -1    0    0  501    0  0.00000000000E+00 -0.00000000000E+00 -0.92361596985E+03  0.92361596985E+03  0.00000000000E+00 0. -1.
         23    2    1    2    0    0  0.11512049656E+03 -0.19007605831E+02 -0.62670429086E+03  0.64409077453E+03  0.92090389535E+02 0.  0.
        254    2    1    2    0    0 -0.11512049656E+03  0.19007605831E+02  0.42029378001E+03  0.99673065431E+03  0.89622046278E+03 0.  0.
        -24    2    4    4    0    0  0.33271277015E+03 -0.19974658852E+03  0.14509360230E+03  0.42177451276E+03  0.79025939617E+02 0.  0.
         24    2    4    4    0    0 -0.44783326671E+03  0.21875419435E+03  0.27520017771E+03  0.57495614155E+03  0.80195976058E+02 0.  0.
         11    1    3    3    0    0  0.67327876971E+02 -0.46560767272E+02 -0.24244310652E+03  0.25588983561E+03  0.00000000000E+00 0.  1.
        -11    1    3    3    0    0  0.47792619587E+02  0.27553161441E+02 -0.38426118434E+03  0.38820093893E+03  0.00000000000E+00 0. -1.
          4    1    6    6  502    0 -0.23631421283E+03  0.78770571824E+02  0.16240016039E+03  0.29736008855E+03  0.00000000000E+00 0. -1.
          3    1    5    5  503    0  0.31650044135E+03 -0.16583595958E+03  0.12155319276E+03  0.37742452694E+03  0.00000000000E+00 0. -1.
         -4    1    5    5    0  503  0.16212328800E+02 -0.33910628937E+02  0.23540409549E+02  0.44349985815E+02  0.00000000000E+00 0.  1.
         -3    1    6    6    0  502 -0.21151905389E+03  0.13998362253E+03  0.11280001731E+03  0.27759605299E+03  0.00000000000E+00 0.  1.
<mgrwt>
<rscale>  0 0.16277867E+04</rscale>
<asrwt>0</asrwt>
<pdfrwt beam="1">  1        2 0.14209476E+00 0.16277867E+04</pdfrwt>
<pdfrwt beam="2">  1       -2 0.11033930E+00 0.16277867E+04</pdfrwt>
<totfact> 0.17641522E+01</totfact>
</mgrwt>
</event>
<event>
12    1  0.1097093E-007  0.1530769E+04  0.7818608E-02  0.8864246E-01
         -1   -1    0    0    0  501 -0.00000000000E+00  0.00000000000E+00  0.56834181833E+03  0.56834181833E+03  0.00000000000E+00 0.  1.
          1   -1    0    0  501    0  0.00000000000E+00 -0.00000000000E+00 -0.10307415707E+04  0.10307415707E+04  0.00000000000E+00 0. -1.
         23    2    1    2    0    0 -0.38487743918E+03  0.24560164171E+03  0.48872765190E+02  0.46725597722E+03  0.86537803683E+02 0.  0.
        254    2    1    2    0    0  0.38487743918E+03 -0.24560164171E+03 -0.51127251759E+03  0.11318274118E+04  0.90065692324E+03 0.  0.
        -24    2    4    4    0    0 -0.12809711321E+02  0.51146227878E+02 -0.61176175310E+03  0.61938889457E+03  0.81302735658E+02 0.  0.
         24    2    4    4    0    0  0.39768715050E+03 -0.29674786959E+03  0.10048923552E+03  0.51243851728E+03  0.79251370691E+02 0.  0.
         11    1    3    3    0    0 -0.27572867418E+03  0.21656817757E+03  0.22863471118E+02  0.35135568248E+03  0.00000000000E+00 0.  1.
        -11    1    3    3    0    0 -0.10914876500E+03  0.29033464140E+02  0.26009294072E+02  0.11590029473E+03  0.00000000000E+00 0. -1.
          2    1    6    6  502    0  0.91269808189E+02 -0.30313152015E+02  0.25811254945E+02  0.99575528890E+02  0.00000000000E+00 0. -1.
          1    1    5    5  503    0 -0.29444058988E+02  0.34061646482E+01 -0.81498840944E+02  0.86721483166E+02  0.00000000000E+00 0. -1.
         -2    1    5    5    0  503  0.16634347667E+02  0.47740063230E+02 -0.53026291216E+03  0.53266741141E+03  0.00000000000E+00 0.  1.
         -1    1    6    6    0  502  0.30641734231E+03 -0.26643471758E+03  0.74677980573E+02  0.41286298839E+03  0.00000000000E+00 0.  1.
<mgrwt>
<rscale>  0 0.15307691E+04</rscale>
<asrwt>0</asrwt>
<pdfrwt beam="1">  1        1 0.15857562E+00 0.15307691E+04</pdfrwt>
<pdfrwt beam="2">  1       -1 0.87437204E-01 0.15307691E+04</pdfrwt>
<totfact> 0.17791001E+01</totfact>
</mgrwt>
</event>
<event>
12    1  0.1097093E-007  0.1975675E+04  0.7818608E-02  0.8618078E-01
          1   -1    0    0  501    0  0.00000000000E+00  0.00000000000E+00  0.99643428884E+03  0.99643428884E+03  0.00000000000E+00 0. -1.
         -1   -1    0    0    0  501 -0.00000000000E+00 -0.00000000000E+00 -0.97931507335E+03  0.97931507335E+03  0.00000000000E+00 0.  1.
         23    2    1    2    0    0  0.24764482800E+02 -0.99214070903E+02 -0.76409740801E+03  0.77650275310E+03  0.93032065316E+02 0.  0.
        254    2    1    2    0    0 -0.24764482800E+02  0.99214070903E+02  0.78121662350E+03  0.11992466091E+04  0.90412184196E+03 0.  0.
        -24    2    4    4    0    0  0.39581547201E+03  0.15903746602E+03  0.20390148573E+03  0.47846506125E+03  0.73417950610E+02 0.  0.
         24    2    4    4    0    0 -0.42057995481E+03 -0.59823395120E+02  0.57731513776E+03  0.72078154784E+03  0.75940334626E+02 0.  0.
         13    1    3    3    0    0  0.43267902702E+02 -0.93916887036E+02 -0.44627475483E+03  0.45809786058E+03  0.00000000000E+00 0. -1.
        -13    1    3    3    0    0 -0.18503419902E+02 -0.52971838661E+01 -0.31782265318E+03  0.31840489252E+03  0.00000000000E+00 0.  1.
          2    1    6    6  502    0  0.18027363845E+01 -0.36606007077E+01  0.13256488504E+02  0.13870268327E+02  0.00000000000E+00 0. -1.
          1    1    5    5  503    0  0.80832172280E+02  0.46312715622E+02  0.76272282463E+02  0.12040003644E+03  0.00000000000E+00 0. -1.
         -2    1    5    5    0  503  0.31498329973E+03  0.11272475040E+03  0.12762920327E+03  0.35806502481E+03  0.00000000000E+00 0.  1.
         -1    1    6    6    0  502 -0.42238269120E+03 -0.56162794412E+02  0.56405864926E+03  0.70691127951E+03  0.00000000000E+00 0.  1.
<mgrwt>
<rscale>  0 0.19756752E+04</rscale>
<asrwt>0</asrwt>
<pdfrwt beam="1">  1        1 0.15329758E+00 0.19756752E+04</pdfrwt>
<pdfrwt beam="2">  1       -1 0.15066386E+00 0.19756752E+04</pdfrwt>
<totfact> 0.48809612E+00</totfact>
</mgrwt>
</event>
<event>
12    1  0.1097093E-007  0.5725039E+04  0.7818608E-02  0.7725461E-01
          2   -1    0    0  501    0  0.00000000000E+00  0.00000000000E+00  0.51359479165E+04  0.51359479165E+04  0.00000000000E+00 0.  1.
         -2   -1    0    0    0  501 -0.00000000000E+00 -0.00000000000E+00 -0.15954246148E+04  0.15954246148E+04  0.00000000000E+00 0. -1.
         23    2    1    2    0    0 -0.18114003961E+04  0.93699886630E+03  0.39660792928E+04  0.44607083031E+04  0.94843754423E+02 0.  0.
        254    2    1    2    0    0  0.18114003961E+04 -0.93699886630E+03 -0.42555599115E+03  0.22706642283E+04  0.90314996864E+03 0.  0.
        -24    2    4    4    0    0  0.16379004503E+04 -0.97540169618E+03 -0.12518447883E+03  0.19121173915E+04  0.79971313822E+02 0.  0.
         24    2    4    4    0    0  0.17349994576E+03  0.38402829884E+02 -0.30037151231E+03  0.35854683684E+03  0.82193553742E+02 0.  0.
         13    1    3    3    0    0 -0.14822088198E+04  0.74411097066E+03  0.32903207491E+04  0.36846783787E+04  0.00000000000E+00 0.  1.
        -13    1    3    3    0    0 -0.32919157624E+03  0.19288789563E+03  0.67575854370E+03  0.77602992438E+03  0.00000000000E+00 0. -1.
          4    1    6    6  502    0  0.12932282573E+03  0.38315805814E+01 -0.25667909413E+03  0.28744257101E+03  0.00000000000E+00 0. -1.
          3    1    5    5  503    0  0.11867448849E+04 -0.69429692157E+03 -0.55923465023E+02  0.13760592542E+04  0.00000000000E+00 0. -1.
         -4    1    5    5    0  503  0.45115556537E+03 -0.28110477462E+03 -0.69261013812E+02  0.53605813725E+03  0.00000000000E+00 0.  1.
         -3    1    6    6    0  502  0.44177120033E+02  0.34571249303E+02 -0.43692418179E+02  0.71104265830E+02  0.00000000000E+00 0.  1.
<mgrwt>
<rscale>  0 0.57250389E+04</rscale>
<asrwt>0</asrwt>
<pdfrwt beam="1">  1        2 0.79014583E+00 0.57250389E+04</pdfrwt>
<pdfrwt beam="2">  1       -2 0.24544994E+00 0.57250389E+04</pdfrwt>
<totfact> 0.10449360E-03</totfact>
</mgrwt>
</event>
<event>
12    1  0.1097093E-007  0.1271481E+04  0.7818608E-02  0.9052492E-01
         -1   -1    0    0    0  501 -0.00000000000E+00  0.00000000000E+00  0.36632658027E+03  0.36632658027E+03  0.00000000000E+00 0. -1.
          1   -1    0    0  501    0  0.00000000000E+00 -0.00000000000E+00 -0.11032937067E+04  0.11032937067E+04  0.00000000000E+00 0.  1.
         23    2    1    2    0    0 -0.26463207611E+02 -0.23501124099E+03  0.35023401217E+02  0.25767618812E+03  0.96123850012E+02 0.  0.
        254    2    1    2    0    0  0.26463207611E+02  0.23501124099E+03 -0.77199052766E+03  0.12119440989E+04  0.90382992825E+03 0.  0.
        -24    2    4    4    0    0 -0.39480868614E+03 -0.63721697981E+02 -0.39560770699E+03  0.56801421574E+03  0.78742225096E+02 0.  0.
         24    2    4    4    0    0  0.42127189375E+03  0.29873293898E+03 -0.37638282067E+03  0.64392988311E+03  0.79185158803E+02 0.  0.
         11    1    3    3    0    0 -0.75109418305E+01  0.74423213153E+00  0.19201354487E+02  0.20631532729E+02  0.00000000000E+00 0.  1.
        -11    1    3    3    0    0 -0.18952265781E+02 -0.23575547313E+03  0.15822046730E+02  0.23704465539E+03  0.00000000000E+00 0. -1.
          2    1    6    6  502    0  0.22750382247E+02  0.77522704699E+01 -0.12271135015E+01  0.24066229397E+02  0.00000000000E+00 0. -1.
          1    1    5    5  503    0 -0.19837111029E+03 -0.34891126767E+01 -0.23273566078E+03  0.30582537354E+03  0.00000000000E+00 0. -1.
         -2    1    5    5    0  503 -0.19643757584E+03 -0.60232585304E+02 -0.16287204622E+03  0.26218884220E+03  0.00000000000E+00 0.  1.
         -1    1    6    6    0  502  0.39852151150E+03  0.29098066851E+03 -0.37515570716E+03  0.61986365371E+03  0.00000000000E+00 0.  1.
<mgrwt>
<rscale>  0 0.12714807E+04</rscale>
<asrwt>0</asrwt>
<pdfrwt beam="1">  1        1 0.16973749E+00 0.12714807E+04</pdfrwt>
<pdfrwt beam="2">  1       -1 0.56357936E-01 0.12714807E+04</pdfrwt>
<totfact> 0.39541800E+01</totfact>
</mgrwt>
</event>
<event>
12    1  0.1097093E-007  0.1294152E+04  0.7818608E-02  0.9034216E-01
         -3   -1    0    0    0  501 -0.00000000000E+00  0.00000000000E+00  0.15618903048E+03  0.15618903048E+03  0.00000000000E+00 0.  1.
          3   -1    0    0  501    0  0.00000000000E+00 -0.00000000000E+00 -0.26807732104E+04  0.26807732104E+04  0.00000000000E+00 0. -1.
         23    2    1    2    0    0  0.94825925828E+02  0.22114206291E+03 -0.11562913097E+04  0.11845944512E+04  0.91425668634E+02 0.  0.
        254    2    1    2    0    0 -0.94825925828E+02 -0.22114206291E+03 -0.13682928703E+04  0.16523677897E+04  0.89453796191E+03 0.  0.
        -24    2    4    4    0    0  0.60316357479E+02 -0.39525752543E+03 -0.19213918091E+03  0.45079615565E+03  0.80206824640E+02 0.  0.
         24    2    4    4    0    0 -0.15514228331E+03  0.17411546252E+03 -0.11761536894E+04  0.12015716340E+04  0.77791826900E+02 0.  0.
         13    1    3    3    0    0  0.65466897229E+02  0.21824209677E+03 -0.10308360978E+04  0.10557170966E+04  0.00000000000E+00 0. -1.
        -13    1    3    3    0    0  0.29359028599E+02  0.28999661407E+01 -0.12545521183E+03  0.12887735464E+03  0.00000000000E+00 0.  1.
          4    1    6    6  502    0 -0.13347440999E+03  0.17468255490E+03 -0.11201666470E+04  0.11415352513E+04  0.00000000000E+00 0. -1.
          1    1    5    5  503    0  0.37613581735E+02 -0.29381316364E+03 -0.10223239266E+03  0.31335669575E+03  0.00000000000E+00 0. -1.
         -2    1    5    5    0  503  0.22702775744E+02 -0.10144436179E+03 -0.89906788248E+02  0.13743945990E+03  0.00000000000E+00 0.  1.
         -3    1    6    6    0  502 -0.21667873316E+02 -0.56709238259E+00 -0.55987042402E+02  0.60036382675E+02  0.00000000000E+00 0.  1.
<mgrwt>
<rscale>  0 0.12941520E+04</rscale>
<asrwt>0</asrwt>
<pdfrwt beam="1">  1        3 0.41242666E+00 0.12941520E+04</pdfrwt>
<pdfrwt beam="2">  1       -3 0.24029081E-01 0.12941520E+04</pdfrwt>
<totfact> 0.41059660E-01</totfact>
</mgrwt>
</event>
<event>
12    1  0.1097093E-007  0.1454284E+04  0.7818608E-02  0.8915436E-01
          2   -1    0    0  501    0  0.00000000000E+00  0.00000000000E+00  0.23281240763E+04  0.23281240763E+04  0.00000000000E+00 0. -1.
         -2   -1    0    0    0  501 -0.00000000000E+00 -0.00000000000E+00 -0.22710808336E+03  0.22710808336E+03  0.00000000000E+00 0.  1.
         23    2    1    2    0    0 -0.44008728334E+03 -0.57934727962E+02  0.66909503551E+03  0.80802788379E+03  0.90485605384E+02 0.  0.
        254    2    1    2    0    0  0.44008728334E+03  0.57934727962E+02  0.14319209574E+04  0.17472042758E+04  0.89738057902E+03 0.  0.
        -24    2    4    4    0    0 -0.13691518312E+03  0.79140296565E+02  0.10150808819E+04  0.10305655945E+04  0.81653499018E+02 0.  0.
         24    2    4    4    0    0  0.57700246646E+03 -0.21205568603E+02  0.41684007552E+03  0.71663868134E+03  0.80211150042E+02 0.  0.
         11    1    3    3    0    0 -0.10906502506E+03 -0.14928685047E+02  0.10249509044E+03  0.15041040154E+03  0.00000000000E+00 0. -1.
        -11    1    3    3    0    0 -0.33102225828E+03 -0.43006042916E+02  0.56659994507E+03  0.65761748225E+03  0.00000000000E+00 0.  1.
          2    1    6    6  502    0  0.32248819695E+03  0.10706782279E+02  0.27231109852E+03  0.42221630326E+03  0.00000000000E+00 0. -1.
          3    1    5    5  503    0 -0.32528220038E+02  0.23189729090E+02  0.97405792564E+02  0.10527932874E+03  0.00000000000E+00 0. -1.
         -4    1    5    5    0  503 -0.10438696308E+03  0.55950567475E+02  0.91767508931E+03  0.92528626576E+03  0.00000000000E+00 0.  1.
         -3    1    6    6    0  502  0.25451426951E+03 -0.31912350882E+02  0.14452897700E+03  0.29442237808E+03  0.00000000000E+00 0.  1.
<mgrwt>
<rscale>  0 0.14542844E+04</rscale>
<asrwt>0</asrwt>
<pdfrwt beam="1">  1        2 0.35817292E+00 0.14542844E+04</pdfrwt>
<pdfrwt beam="2">  1       -2 0.34939707E-01 0.14542844E+04</pdfrwt>
<totfact> 0.32626084E+01</totfact>
</mgrwt>
</event>
<event>
12    1  0.1097093E-007  0.1411594E+04  0.7818608E-02  0.8945469E-01
         -2   -1    0    0    0  501 -0.00000000000E+00  0.00000000000E+00  0.32919419280E+03  0.32919419280E+03  0.00000000000E+00 0. -1.
          2   -1    0    0  501    0  0.00000000000E+00 -0.00000000000E+00 -0.15132392483E+04  0.15132392483E+04  0.00000000000E+00 0.  1.
         23    2    1    2    0    0  0.77291231875E+02  0.34739657666E+03 -0.90663486256E+02  0.38062983605E+03  0.10000444167E+03 0.  0.
        254    2    1    2    0    0 -0.77291231875E+02 -0.34739657666E+03 -0.10933815692E+04  0.14618036050E+04  0.90262295991E+03 0.  0.
        -24    2    4    4    0    0 -0.30749377074E+03 -0.24308789724E+03 -0.11256458625E+04  0.11945555460E+04  0.78994936325E+02 0.  0.
         24    2    4    4    0    0  0.23020253887E+03 -0.10430867942E+03  0.32264293275E+02  0.26724805900E+03  0.80666169594E+02 0.  0.
         11    1    3    3    0    0  0.91827395606E+02  0.25852698991E+03 -0.95374470401E+02  0.29045613214E+03  0.00000000000E+00 0. -1.
        -11    1    3    3    0    0 -0.14536163731E+02  0.88869586747E+02  0.47109841443E+01  0.90173703907E+02  0.00000000000E+00 0.  1.
          2    1    6    6  502    0  0.89028709051E+02 -0.62681033009E+00  0.22442122197E+02  0.91815863418E+02  0.00000000000E+00 0. -1.
          1    1    5    5  503    0 -0.28004759808E+03 -0.23566080639E+03 -0.10840452385E+04  0.11441664005E+04  0.00000000000E+00 0. -1.
         -2    1    5    5    0  503 -0.27446172667E+02 -0.74270908479E+01 -0.41600623955E+02  0.50389145517E+02  0.00000000000E+00 0.  1.
         -1    1    6    6    0  502  0.14117382982E+03 -0.10368186909E+03  0.98221710777E+01  0.17543219559E+03  0.00000000000E+00 0.  1.
<mgrwt>
<rscale>  0 0.14115942E+04</rscale>
<asrwt>0</asrwt>
<pdfrwt beam="1">  1        2 0.23280604E+00 0.14115942E+04</pdfrwt>
<pdfrwt beam="2">  1       -2 0.50645260E-01 0.14115942E+04</pdfrwt>
<totfact> 0.44719280E+01</totfact>
</mgrwt>
</event>
<event>
12    1  0.1097093E-007  0.2126572E+04  0.7818608E-02  0.8549627E-01
         -2   -1    0    0    0  501 -0.00000000000E+00  0.00000000000E+00  0.55128973608E+03  0.55128973608E+03  0.00000000000E+00 0.  1.
          2   -1    0    0  501    0  0.00000000000E+00 -0.00000000000E+00 -0.20507866418E+04  0.20507866418E+04  0.00000000000E+00 0. -1.
         23    2    1    2    0    0 -0.47062798725E+03 -0.25271494168E+03  0.21905831714E+03  0.58635917072E+03  0.10234738223E+03 0.  0.
        254    2    1    2    0    0  0.47062798725E+03  0.25271494168E+03 -0.17185552228E+04  0.20157172071E+04  0.90792525083E+03 0.  0.
        -24    2    4    4    0    0 -0.69409669277E+02  0.45105889653E+03 -0.63333217259E+03  0.78482218448E+03  0.81020923859E+02 0.  0.
         24    2    4    4    0    0  0.54003765652E+03 -0.19834395484E+03 -0.10852230502E+04  0.12308950226E+04  0.80078043958E+02 0.  0.
         11    1    3    3    0    0 -0.37538748703E+02 -0.80346302680E+00 -0.43183276936E+01  0.37794856279E+02  0.00000000000E+00 0. -1.
        -11    1    3    3    0    0 -0.43308923854E+03 -0.25191147866E+03  0.22337664483E+03  0.54856431444E+03  0.00000000000E+00 0.  1.
          2    1    6    6  502    0  0.35249364792E+03 -0.13976023957E+03 -0.78965291859E+03  0.87597741308E+03  0.00000000000E+00 0. -1.
          3    1    5    5  503    0 -0.68084740506E+02  0.29200671912E+03 -0.35930651112E+03  0.46797929958E+03  0.00000000000E+00 0. -1.
         -4    1    5    5    0  503 -0.13249287708E+01  0.15905217740E+03 -0.27402566146E+03  0.31684288490E+03  0.00000000000E+00 0.  1.
         -1    1    6    6    0  502  0.18754400861E+03 -0.58583715273E+02 -0.29557013165E+03  0.35491760957E+03  0.00000000000E+00 0.  1.
<mgrwt>
<rscale>  0 0.21265725E+04</rscale>
<asrwt>0</asrwt>
<pdfrwt beam="1">  1        2 0.31550563E+00 0.21265725E+04</pdfrwt>
<pdfrwt beam="2">  1       -2 0.84813806E-01 0.21265725E+04</pdfrwt>
<totfact> 0.69697406E+00</totfact>
</mgrwt>
</event>
<event>
12    1  0.1097093E-007  0.1533092E+04  0.7818608E-02  0.8862740E-01
         -2   -1    0    0    0  501 -0.00000000000E+00  0.00000000000E+00  0.62469092887E+03  0.62469092887E+03  0.00000000000E+00 0.  1.
          2   -1    0    0  501    0  0.00000000000E+00 -0.00000000000E+00 -0.94061409086E+03  0.94061409086E+03  0.00000000000E+00 0. -1.
         23    2    1    2    0    0 -0.48807826650E+03 -0.14411594548E+02 -0.14528321369E+01  0.49645654781E+03  0.89659940079E+02 0.  0.
        254    2    1    2    0    0  0.48807826650E+03  0.14411594548E+02 -0.31447032985E+03  0.10688484719E+04  0.89728333278E+03 0.  0.
        -24    2    4    4    0    0  0.12551198958E+03  0.20469347114E+03  0.25821569849E+03  0.36032335150E+03  0.74194973101E+02 0.  0.
         24    2    4    4    0    0  0.36256627692E+03 -0.19028187660E+03 -0.57268602834E+03  0.70852512042E+03  0.79856505565E+02 0.  0.
         11    1    3    3    0    0 -0.32533265092E+03 -0.29127527421E+02  0.36590205214E+02  0.32867702951E+03  0.00000000000E+00 0. -1.
        -11    1    3    3    0    0 -0.16274561558E+03  0.14715932873E+02 -0.38043037351E+02  0.16777951830E+03  0.00000000000E+00 0.  1.
          2    1    6    6  502    0  0.68312467518E+02 -0.67250615981E+02 -0.10216961715E+03  0.14009949763E+03  0.00000000000E+00 0. -1.
          3    1    5    5  503    0  0.71943608945E+02  0.17671018316E+03  0.19215461554E+03  0.27078731133E+03  0.00000000000E+00 0. -1.
         -4    1    5    5    0  503  0.53568380631E+02  0.27983287980E+02  0.66061082952E+02  0.89536040176E+02  0.00000000000E+00 0.  1.
         -1    1    6    6    0  502  0.29425380940E+03 -0.12303126062E+03 -0.47051641119E+03  0.56842562278E+03  0.00000000000E+00 0.  1.
<mgrwt>
<rscale>  0 0.15330924E+04</rscale>
<asrwt>0</asrwt>
<pdfrwt beam="1">  1        2 0.14470986E+00 0.15330924E+04</pdfrwt>
<pdfrwt beam="2">  1       -2 0.96106298E-01 0.15330924E+04</pdfrwt>
<totfact> 0.24082404E+01</totfact>
</mgrwt>
</event>
<event>
12    1  0.1097093E-007  0.1131619E+04  0.7818608E-02  0.9174911E-01
         -1   -1    0    0    0  501 -0.00000000000E+00  0.00000000000E+00  0.32055468248E+03  0.32055468248E+03  0.00000000000E+00 0.  1.
          1   -1    0    0  501    0  0.00000000000E+00 -0.00000000000E+00 -0.99870693320E+03  0.99870693320E+03  0.00000000000E+00 0. -1.
         23    2    1    2    0    0 -0.14013870357E+02  0.16717818099E+03 -0.17166383635E+02  0.19154908459E+03  0.90837405944E+02 0.  0.
        254    2    1    2    0    0  0.14013870357E+02 -0.16717818099E+03 -0.66098586708E+03  0.11277125311E+04  0.89815828423E+03 0.  0.
        -24    2    4    4    0    0  0.36728626532E+03 -0.34589876393E+03 -0.35706039053E+03  0.62341841272E+03  0.81321825220E+02 0.  0.
         24    2    4    4    0    0 -0.35327239496E+03  0.17872058293E+03 -0.30392547655E+03  0.50429411837E+03  0.72107078139E+02 0.  0.
         11    1    3    3    0    0  0.38818262146E+02  0.73409716388E+02 -0.42642444627E+01  0.83150632692E+02  0.00000000000E+00 0. -1.
        -11    1    3    3    0    0 -0.52832132503E+02  0.93768464605E+02 -0.12902139172E+02  0.10839845190E+03  0.00000000000E+00 0.  1.
          2    1    6    6  502    0 -0.12334419541E+03  0.35749896829E+02 -0.68754094458E+02  0.14566733048E+03  0.00000000000E+00 0. -1.
          3    1    5    5  503    0  0.12610595845E+03 -0.12171288861E+03 -0.17262995848E+03  0.24600374505E+03  0.00000000000E+00 0. -1.
         -4    1    5    5    0  503  0.24118030687E+03 -0.22418587531E+03 -0.18443043205E+03  0.37741466767E+03  0.00000000000E+00 0.  1.
         -1    1    6    6    0  502 -0.22992819955E+03  0.14297068610E+03 -0.23517138209E+03  0.35862678788E+03  0.00000000000E+00 0.  1.
<mgrwt>
<rscale>  0 0.11316186E+04</rscale>
<asrwt>0</asrwt>
<pdfrwt beam="1">  1        1 0.15364722E+00 0.11316186E+04</pdfrwt>
<pdfrwt beam="2">  1       -1 0.49316105E-01 0.11316186E+04</pdfrwt>
<totfact> 0.62121546E+01</totfact>
</mgrwt>
</event>
<event>
12    1  0.1097093E-007  0.1903753E+04  0.7818608E-02  0.8652991E-01
          2   -1    0    0  501    0  0.00000000000E+00  0.00000000000E+00  0.24958538810E+04  0.24958538810E+04  0.00000000000E+00 0. -1.
         -2   -1    0    0    0  501 -0.00000000000E+00 -0.00000000000E+00 -0.36302949130E+03  0.36302949130E+03  0.00000000000E+00 0.  1.
         23    2    1    2    0    0  0.42130348266E+03  0.41156820831E+03  0.15063644418E+04  0.16199459804E+04  0.90587709750E+02 0.  0.
        254    2    1    2    0    0 -0.42130348266E+03 -0.41156820831E+03  0.62645994785E+03  0.12389373919E+04  0.89198025774E+03 0.  0.
        -24    2    4    4    0    0 -0.24486419936E+03  0.22284999447E+03  0.42656094957E+03  0.54601493193E+03  0.80978182456E+02 0.  0.
         24    2    4    4    0    0 -0.17643928330E+03 -0.63441820278E+03  0.19989899828E+03  0.69292245996E+03  0.81022523419E+02 0.  0.
         13    1    3    3    0    0  0.40155885260E+03  0.35503673480E+03  0.13578736541E+04  0.14598361057E+04  0.00000000000E+00 0. -1.
        -13    1    3    3    0    0  0.19744630052E+02  0.56531473509E+02  0.14849078776E+03  0.16010987466E+03  0.00000000000E+00 0.  1.
          4    1    6    6  502    0 -0.17864578985E+03 -0.63585523268E+03  0.20047052539E+03  0.69022795271E+03  0.00000000000E+00 0. -1.
          1    1    5    5  503    0 -0.19848468958E+03  0.19441960285E+03  0.30352001685E+03  0.41148457395E+03  0.00000000000E+00 0. -1.
         -2    1    5    5    0  503 -0.46379509783E+02  0.28430391624E+02  0.12304093272E+03  0.13453035799E+03  0.00000000000E+00 0.  1.
         -3    1    6    6    0  502  0.22065065502E+01  0.14370298999E+01 -0.57152711038E+00  0.26945072513E+01  0.00000000000E+00 0.  1.
<mgrwt>
<rscale>  0 0.19037527E+04</rscale>
<asrwt>0</asrwt>
<pdfrwt beam="1">  1        2 0.38397751E+00 0.19037527E+04</pdfrwt>
<pdfrwt beam="2">  1       -2 0.55850692E-01 0.19037527E+04</pdfrwt>
<totfact> 0.98764553E+00</totfact>
</mgrwt>
</event>
<event>
12    1  0.1097093E-007  0.1365126E+04  0.7818608E-02  0.8979456E-01
         -2   -1    0    0    0  501 -0.00000000000E+00  0.00000000000E+00  0.11640081962E+04  0.11640081962E+04  0.00000000000E+00 0.  1.
          2   -1    0    0  501    0  0.00000000000E+00 -0.00000000000E+00 -0.40024822496E+03  0.40024822496E+03  0.00000000000E+00 0. -1.
         23    2    1    2    0    0 -0.60986683005E+02 -0.34235067512E+03  0.51190304011E+02  0.36283595999E+03  0.90034028999E+02 0.  0.
        254    2    1    2    0    0  0.60986683005E+02  0.34235067512E+03  0.71256966724E+03  0.12014204612E+04  0.90262518999E+03 0.  0.
        -24    2    4    4    0    0  0.46911260546E+03  0.15080479674E+03  0.45822379985E+03  0.67764364333E+03  0.80144452571E+02 0.  0.
         24    2    4    4    0    0 -0.40812592246E+03  0.19154587838E+03  0.25434586739E+03  0.52377681784E+03  0.79960881338E+02 0.  0.
         13    1    3    3    0    0  0.56875104260E+01 -0.63777596106E+00 -0.78436889542E+01  0.97096853416E+01  0.00000000000E+00 0.  1.
        -13    1    3    3    0    0 -0.66674193431E+02 -0.34171289916E+03  0.59033992965E+02  0.35312627465E+03  0.00000000000E+00 0. -1.
          2    1    6    6  502    0 -0.32532233453E+03  0.15891081498E+03  0.16575350571E+03  0.39819780652E+03  0.00000000000E+00 0. -1.
          3    1    5    5  503    0  0.18688786400E+03  0.25906835923E+02  0.20316641063E+03  0.27726310296E+03  0.00000000000E+00 0. -1.
         -4    1    5    5    0  503  0.28222474147E+03  0.12489796081E+03  0.25505738922E+03  0.40038054037E+03  0.00000000000E+00 0.  1.
         -1    1    6    6    0  502 -0.82803587924E+02  0.32635063405E+02  0.88592361680E+02  0.12557901132E+03  0.00000000000E+00 0.  1.
<mgrwt>
<rscale>  0 0.13651259E+04</rscale>
<asrwt>0</asrwt>
<pdfrwt beam="1">  1        2 0.61576651E-01 0.13651259E+04</pdfrwt>
<pdfrwt beam="2">  1       -2 0.17907818E+00 0.13651259E+04</pdfrwt>
<totfact> 0.14250572E+01</totfact>
</mgrwt>
</event>
<event>
12    1  0.1097093E-007  0.1752598E+04  0.7818608E-02  0.8731922E-01
         -1   -1    0    0    0  501 -0.00000000000E+00  0.00000000000E+00  0.16186401758E+04  0.16186401758E+04  0.00000000000E+00 0.  1.
          1   -1    0    0  501    0  0.00000000000E+00 -0.00000000000E+00 -0.47441028890E+03  0.47441028890E+03  0.00000000000E+00 0. -1.
         23    2    1    2    0    0  0.21990468967E+03 -0.45685098119E+03 -0.34351921366E+02  0.51660045357E+03  0.92871322652E+02 0.  0.
        254    2    1    2    0    0 -0.21990468967E+03  0.45685098119E+03  0.11785818083E+04  0.15764500111E+04  0.91600691440E+03 0.  0.
        -24    2    4    4    0    0  0.12839778299E+03  0.60421637126E+03  0.51426404112E+03  0.80782962905E+03  0.80980192644E+02 0.  0.
         24    2    4    4    0    0 -0.34830247266E+03 -0.14736539007E+03  0.66431776715E+03  0.76862038208E+03  0.80174967026E+02 0.  0.
         13    1    3    3    0    0  0.14772168967E+03 -0.36868481672E+03 -0.54459529228E+02  0.40089404087E+03  0.00000000000E+00 0. -1.
        -13    1    3    3    0    0  0.72182999998E+02 -0.88166164476E+02  0.20107607862E+02  0.11570641270E+03  0.00000000000E+00 0.  1.
          2    1    6    6  502    0 -0.17073449245E+03 -0.10590946428E+03  0.39833465023E+03  0.44613627415E+03  0.00000000000E+00 0. -1.
          1    1    5    5  503    0  0.12165679924E+03  0.41491230031E+03  0.38019049563E+03  0.57575811477E+03  0.00000000000E+00 0. -1.
         -2    1    5    5    0  503  0.67409837430E+01  0.18930407095E+03  0.13407354549E+03  0.23207151428E+03  0.00000000000E+00 0.  1.
         -1    1    6    6    0  502 -0.17756798021E+03 -0.41455925791E+02  0.26598311692E+03  0.32248410793E+03  0.00000000000E+00 0.  1.
<mgrwt>
<rscale>  0 0.17525976E+04</rscale>
<asrwt>0</asrwt>
<pdfrwt beam="1">  1        1 0.72986199E-01 0.17525976E+04</pdfrwt>
<pdfrwt beam="2">  1       -1 0.24902156E+00 0.17525976E+04</pdfrwt>
<totfact> 0.31943452E+00</totfact>
</mgrwt>
</event>
<event>
12    1  0.1097093E-007  0.1685527E+04  0.7818608E-02  0.8769662E-01
         -2   -1    0    0    0  501 -0.00000000000E+00  0.00000000000E+00  0.21836891787E+03  0.21836891787E+03  0.00000000000E+00 0.  1.
          2   -1    0    0  501    0  0.00000000000E+00 -0.00000000000E+00 -0.32525266793E+04  0.32525266793E+04  0.00000000000E+00 0. -1.
         23    2    1    2    0    0  0.39791113153E+03 -0.26339886132E+03 -0.34728579916E+03  0.59735251377E+03  0.92251670322E+02 0.  0.
        254    2    1    2    0    0 -0.39791113153E+03  0.26339886132E+03 -0.26868719623E+04  0.28735430834E+04  0.90014258971E+03 0.  0.
        -24    2    4    4    0    0  0.72316124870E+02  0.85680450974E+02 -0.20672282107E+04  0.20716641753E+04  0.76086913916E+02 0.  0.
         24    2    4    4    0    0 -0.47022725640E+03  0.17771841034E+03 -0.61964375154E+03  0.80187890809E+03  0.79711344063E+02 0.  0.
         11    1    3    3    0    0  0.74021681279E+02 -0.14431067361E+02 -0.34992278038E+02  0.83137984861E+02  0.00000000000E+00 0. -1.
        -11    1    3    3    0    0  0.32388945025E+03 -0.24896779396E+03 -0.31229352112E+03  0.51421452891E+03  0.00000000000E+00 0.  1.
          4    1    6    6  502    0 -0.24441676428E+03  0.11748896135E+03 -0.28194425429E+03  0.39119786966E+03  0.00000000000E+00 0. -1.
          3    1    5    5  503    0  0.75664800067E+02  0.79934237773E+02 -0.20531066017E+04  0.20560548053E+04  0.00000000000E+00 0. -1.
         -4    1    5    5    0  503 -0.33486751967E+01  0.57462132014E+01 -0.14121609043E+02  0.15609370061E+02  0.00000000000E+00 0.  1.
         -3    1    6    6    0  502 -0.22581049211E+03  0.60229448997E+02 -0.33769949726E+03  0.41068103843E+03  0.00000000000E+00 0.  1.
<mgrwt>
<rscale>  0 0.16855275E+04</rscale>
<asrwt>0</asrwt>
<pdfrwt beam="1">  1        2 0.50038865E+00 0.16855275E+04</pdfrwt>
<pdfrwt beam="2">  1       -2 0.33595223E-01 0.16855275E+04</pdfrwt>
<totfact> 0.95219344E+00</totfact>
</mgrwt>
</event>
<event>
12    1  0.1097093E-007  0.1936890E+04  0.7818608E-02  0.8636709E-01
         -1   -1    0    0    0  501 -0.00000000000E+00  0.00000000000E+00  0.80568694835E+03  0.80568694835E+03  0.00000000000E+00 0.  1.
          1   -1    0    0  501    0  0.00000000000E+00 -0.00000000000E+00 -0.11640815816E+04  0.11640815816E+04  0.00000000000E+00 0. -1.
         23    2    1    2    0    0 -0.44125580106E+03 -0.82205000292E+02 -0.76202376564E+03  0.88905208879E+03  0.90934334227E+02 0.  0.
        254    2    1    2    0    0  0.44125580106E+03  0.82205000292E+02  0.40362913234E+03  0.10807164412E+04  0.89641910162E+03 0.  0.
        -24    2    4    4    0    0 -0.10032996192E+03  0.27275953773E+03 -0.96153199572E+02  0.31567915780E+03  0.77097510980E+02 0.  0.
         24    2    4    4    0    0  0.54158576299E+03 -0.19055453743E+03  0.49978233192E+03  0.76503728340E+03  0.76638732305E+02 0.  0.
         11    1    3    3    0    0 -0.35528328035E+03 -0.93651023545E+02 -0.56733643297E+03  0.67591963404E+03  0.00000000000E+00 0. -1.
        -11    1    3    3    0    0 -0.85972520712E+02  0.11446023252E+02 -0.19468733267E+03  0.21313245475E+03  0.00000000000E+00 0.  1.
          4    1    6    6  502    0  0.10456649508E+03 -0.13890881956E+02  0.11943069075E+03  0.15934490386E+03  0.00000000000E+00 0. -1.
          1    1    5    5  503    0 -0.21542909449E+02  0.72994238667E+02  0.88883530012E+01  0.76624138789E+02  0.00000000000E+00 0. -1.
         -2    1    5    5    0  503 -0.78787052475E+02  0.19976529906E+03 -0.10504155257E+03  0.23905501901E+03  0.00000000000E+00 0.  1.
         -3    1    6    6    0  502  0.43701926791E+03 -0.17666365548E+03  0.38035164117E+03  0.60569237954E+03  0.00000000000E+00 0.  1.
<mgrwt>
<rscale>  0 0.19368896E+04</rscale>
<asrwt>0</asrwt>
<pdfrwt beam="1">  1        1 0.17908947E+00 0.19368896E+04</pdfrwt>
<pdfrwt beam="2">  1       -1 0.12395184E+00 0.19368896E+04</pdfrwt>
<totfact> 0.60535682E+00</totfact>
</mgrwt>
</event>
<event>
12    1  0.1097093E-007  0.2589849E+04  0.7818608E-02  0.8371657E-01
          2   -1    0    0  501    0  0.00000000000E+00  0.00000000000E+00  0.89738813814E+03  0.89738813814E+03  0.00000000000E+00 0. -1.
         -2   -1    0    0    0  501 -0.00000000000E+00 -0.00000000000E+00 -0.18685665804E+04  0.18685665804E+04  0.00000000000E+00 0.  1.
         23    2    1    2    0    0 -0.38760426163E+03 -0.99857624791E+03 -0.28298709149E+02  0.10760046865E+04  0.97947342436E+02 0.  0.
        254    2    1    2    0    0  0.38760426163E+03  0.99857624791E+03 -0.94287973315E+03  0.16899500321E+04  0.90527196644E+03 0.  0.
        -24    2    4    4    0    0 -0.13460309164E+03  0.16648801557E+02  0.80668438975E+02  0.17656283982E+03  0.79195103933E+02 0.  0.
         24    2    4    4    0    0  0.52220735327E+03  0.98192744636E+03 -0.10235481721E+04  0.15133871923E+04  0.76209601202E+02 0.  0.
         13    1    3    3    0    0 -0.77114208497E+02 -0.13312150391E+03 -0.28924964341E+02  0.15653941842E+03  0.00000000000E+00 0. -1.
        -13    1    3    3    0    0 -0.31049005313E+03 -0.86545474400E+03  0.62625519215E+00  0.91946526808E+03  0.00000000000E+00 0.  1.
          2    1    6    6  502    0  0.32173350515E+03  0.58624548216E+03 -0.66415154609E+03  0.94249323067E+03  0.00000000000E+00 0. -1.
          3    1    5    5  503    0 -0.12052702985E+03  0.87665155372E+01  0.95977828228E+02  0.15432226097E+03  0.00000000000E+00 0. -1.
         -4    1    5    5    0  503 -0.14076061789E+02  0.78822860202E+01 -0.15309389253E+02  0.22240578852E+02  0.00000000000E+00 0.  1.
         -1    1    6    6    0  502  0.20047384813E+03  0.39568196420E+03 -0.35939662604E+03  0.57089396159E+03  0.00000000000E+00 0.  1.
<mgrwt>
<rscale>  0 0.25898490E+04</rscale>
<asrwt>0</asrwt>
<pdfrwt beam="1">  1        2 0.13805972E+00 0.25898490E+04</pdfrwt>
<pdfrwt beam="2">  1       -2 0.28747178E+00 0.25898490E+04</pdfrwt>
<totfact> 0.98825880E-01</totfact>
</mgrwt>
</event>
<event>
12    1  0.1097093E-007  0.1805962E+04  0.7818608E-02  0.8703136E-01
          4   -1    0    0  501    0  0.00000000000E+00  0.00000000000E+00  0.12850469525E+04  0.12850469525E+04  0.00000000000E+00 0.  1.
         -4   -1    0    0    0  501 -0.00000000000E+00 -0.00000000000E+00 -0.63450943807E+03  0.63450943807E+03  0.00000000000E+00 0. -1.
         23    2    1    2    0    0 -0.18537426751E+03 -0.28168809981E+03 -0.37412991755E+03  0.51425420466E+03  0.10379011117E+03 0.  0.
        254    2    1    2    0    0  0.18537426751E+03  0.28168809981E+03  0.10246674320E+04  0.14053021859E+04  0.90067701365E+03 0.  0.
        -24    2    4    4    0    0 -0.33402917237E+03  0.21091371195E+03  0.61384757250E+03  0.73446891438E+03  0.81090455944E+02 0.  0.
         24    2    4    4    0    0  0.51940343987E+03  0.70774387859E+02  0.41081985945E+03  0.67083327151E+03  0.80345341567E+02 0.  0.
         11    1    3    3    0    0 -0.16671858981E+03 -0.16801138400E+03 -0.23375446621E+03  0.33266208653E+03  0.00000000000E+00 0. -1.
        -11    1    3    3    0    0 -0.18655677696E+02 -0.11367671581E+03 -0.14037545134E+03  0.18159211813E+03  0.00000000000E+00 0.  1.
          4    1    6    6  502    0  0.22915241128E+03  0.56687018088E+02  0.22362904733E+03  0.32516795111E+03  0.00000000000E+00 0. -1.
          3    1    5    5  503    0 -0.61126493528E+02  0.68363292814E+02  0.10208421050E+03  0.13722672498E+03  0.00000000000E+00 0. -1.
         -4    1    5    5    0  503 -0.27290267884E+03  0.14255041913E+03  0.51176336199E+03  0.59724218939E+03  0.00000000000E+00 0.  1.
         -3    1    6    6    0  502  0.29025102859E+03  0.14087369771E+02  0.18719081212E+03  0.34566532040E+03  0.00000000000E+00 0.  1.
<mgrwt>
<rscale>  0 0.18059617E+04</rscale>
<asrwt>0</asrwt>
<pdfrwt beam="1">  1        4 0.19769953E+00 0.18059617E+04</pdfrwt>
<pdfrwt beam="2">  1       -4 0.97616837E-01 0.18059617E+04</pdfrwt>
<totfact> 0.22499419E-01</totfact>
</mgrwt>
</event>
<event>
12    1  0.1097093E-007  0.3916203E+04  0.7818608E-02  0.8021668E-01
          2   -1    0    0  501    0  0.00000000000E+00  0.00000000000E+00  0.35801306267E+04  0.35801306267E+04  0.00000000000E+00 0. -1.
         -2   -1    0    0    0  501 -0.00000000000E+00 -0.00000000000E+00 -0.10709554877E+04  0.10709554877E+04  0.00000000000E+00 0.  1.
         23    2    1    2    0    0  0.10581808569E+04 -0.24197567527E+02  0.29967104593E+04  0.31795112930E+04  0.93199983627E+02 0.  0.
        254    2    1    2    0    0 -0.10581808569E+04  0.24197567527E+02 -0.48753532031E+03  0.14715748214E+04  0.89861533382E+03 0.  0.
        -24    2    4    4    0    0 -0.60474058548E+03 -0.36537520075E+03 -0.25409130398E+02  0.71165698904E+03  0.81239356751E+02 0.  0.
         24    2    4    4    0    0 -0.45344027140E+03  0.38957276828E+03 -0.46212618991E+03  0.75991783233E+03  0.80867020316E+02 0.  0.
         13    1    3    3    0    0  0.50915657300E+03 -0.43401611250E+02  0.15463207276E+04  0.16285674405E+04  0.00000000000E+00 0.  1.
        -13    1    3    3    0    0  0.54902428388E+03  0.19204043724E+02  0.14503897318E+04  0.15509438525E+04  0.00000000000E+00 0. -1.
          4    1    6    6  502    0 -0.21259489556E+03  0.23275224125E+03 -0.25894531022E+03  0.40794959138E+03  0.00000000000E+00 0. -1.
          1    1    5    5  503    0 -0.39021090607E+03 -0.19260462029E+03 -0.13517222490E+01  0.43515849771E+03  0.00000000000E+00 0. -1.
         -2    1    5    5    0  503 -0.21452967941E+03 -0.17277058046E+03 -0.24057408149E+02  0.27649849133E+03  0.00000000000E+00 0.  1.
         -3    1    6    6    0  502 -0.24084537584E+03  0.15682052703E+03 -0.20318087969E+03  0.35196824094E+03  0.00000000000E+00 0.  1.
<mgrwt>
<rscale>  0 0.39162025E+04</rscale>
<asrwt>0</asrwt>
<pdfrwt beam="1">  1        2 0.55078932E+00 0.39162025E+04</pdfrwt>
<pdfrwt beam="2">  1       -2 0.16476238E+00 0.39162025E+04</pdfrwt>
<totfact> 0.13143516E-01</totfact>
</mgrwt>
</event>
<event>
12    1  0.1097093E-007  0.1721019E+04  0.7818608E-02  0.8749466E-01
          1   -1    0    0  501    0  0.00000000000E+00  0.00000000000E+00  0.36998902148E+04  0.36998902148E+04  0.00000000000E+00 0. -1.
         -1   -1    0    0    0  501 -0.00000000000E+00 -0.00000000000E+00 -0.20013475869E+03  0.20013475869E+03  0.00000000000E+00 0.  1.
         23    2    1    2    0    0  0.16315451871E+03  0.95592522964E+02 -0.63680488110E+02  0.21986125886E+03  0.92338730547E+02 0.  0.
        254    2    1    2    0    0 -0.16315451871E+03 -0.95592522964E+02  0.35634359443E+04  0.36801637147E+04  0.89987327465E+03 0.  0.
        -24    2    4    4    0    0 -0.17824590807E+03 -0.48446653194E+03  0.20626199490E+04  0.21276618959E+04  0.77875958834E+02 0.  0.
         24    2    4    4    0    0  0.15091389358E+02  0.38887400898E+03  0.15008159953E+04  0.15525018188E+04  0.79765285107E+02 0.  0.
         11    1    3    3    0    0 -0.41528222677E+01 -0.72688089357E+01 -0.15536561345E+02  0.17648406573E+02  0.00000000000E+00 0. -1.
        -11    1    3    3    0    0  0.16730734098E+03  0.10286133190E+03 -0.48143926765E+02  0.20221285229E+03  0.00000000000E+00 0.  1.
          2    1    6    6  502    0 -0.16480712282E+02  0.32800052134E+03  0.12625099164E+04  0.13045256781E+04  0.00000000000E+00 0. -1.
          3    1    5    5  503    0 -0.14784865623E+03 -0.44291445439E+03  0.17704347158E+04  0.18309755656E+04  0.00000000000E+00 0. -1.
         -4    1    5    5    0  503 -0.30397251842E+02 -0.41552077559E+02  0.29218523316E+03  0.29668633023E+03  0.00000000000E+00 0.  1.
         -1    1    6    6    0  502  0.31572101639E+02  0.60873487637E+02  0.23830607890E+03  0.24797614067E+03  0.00000000000E+00 0.  1.
<mgrwt>
<rscale>  0 0.17210190E+04</rscale>
<asrwt>0</asrwt>
<pdfrwt beam="1">  1        1 0.56921383E+00 0.17210190E+04</pdfrwt>
<pdfrwt beam="2">  1       -1 0.30789966E-01 0.17210190E+04</pdfrwt>
<totfact> 0.16134639E+00</totfact>
</mgrwt>
</event>
<event>
12    1  0.1097093E-007  0.2007081E+04  0.7818608E-02  0.8603317E-01
         -1   -1    0    0    0  501 -0.00000000000E+00  0.00000000000E+00  0.90925004259E+03  0.90925004259E+03  0.00000000000E+00 0.  1.
          1   -1    0    0  501    0  0.00000000000E+00 -0.00000000000E+00 -0.11076088725E+04  0.11076088725E+04  0.00000000000E+00 0. -1.
         23    2    1    2    0    0  0.51934067524E+03 -0.53783306867E+03 -0.35952335749E+03  0.83469847912E+03  0.92116012490E+02 0.  0.
        254    2    1    2    0    0 -0.51934067524E+03  0.53783306867E+03  0.16116452759E+03  0.11821604360E+04  0.90141563372E+03 0.  0.
        -24    2    4    4    0    0 -0.48003190422E+03 -0.65137507854E+02  0.27380094315E+03  0.56231188211E+03  0.80957842673E+02 0.  0.
         24    2    4    4    0    0 -0.39308771020E+02  0.60297057652E+03 -0.11263641556E+03  0.61984855386E+03  0.80041064357E+02 0.  0.
         13    1    3    3    0    0  0.20746149952E+03 -0.19563331715E+03 -0.90278743571E+02  0.29910352740E+03  0.00000000000E+00 0. -1.
        -13    1    3    3    0    0  0.31187917572E+03 -0.34219975152E+03 -0.26924461392E+03  0.53559495172E+03  0.00000000000E+00 0.  1.
          4    1    6    6  502    0 -0.52871945482E+01  0.50207318910E+03 -0.10596549529E+03  0.51316091807E+03  0.00000000000E+00 0. -1.
          1    1    5    5  503    0 -0.45811192385E+03 -0.51424960205E+02  0.27434991281E+03  0.53645031081E+03  0.00000000000E+00 0. -1.
         -2    1    5    5    0  503 -0.21919980369E+02 -0.13712547649E+02 -0.54896965944E+00  0.25861571300E+02  0.00000000000E+00 0.  1.
         -3    1    6    6    0  502 -0.34021576472E+02  0.10089738742E+03 -0.66709202725E+01  0.10668763580E+03  0.00000000000E+00 0.  1.
<mgrwt>
<rscale>  0 0.20070809E+04</rscale>
<asrwt>0</asrwt>
<pdfrwt beam="1">  1        1 0.17040136E+00 0.20070809E+04</pdfrwt>
<pdfrwt beam="2">  1       -1 0.13988462E+00 0.20070809E+04</pdfrwt>
<totfact> 0.48733189E+00</totfact>
</mgrwt>
</event>
<event>
12    1  0.1097093E-007  0.3972046E+04  0.7818608E-02  0.8010210E-01
         -3   -1    0    0    0  501 -0.00000000000E+00  0.00000000000E+00  0.11861789923E+04  0.11861789923E+04  0.00000000000E+00 0.  1.
          3   -1    0    0  501    0  0.00000000000E+00 -0.00000000000E+00 -0.33252035289E+04  0.33252035289E+04  0.00000000000E+00 0. -1.
         23    2    1    2    0    0 -0.25077587491E+03 -0.11424511342E+04  0.65484670147E+03  0.13435901412E+04  0.91253117350E+02 0.  0.
        254    2    1    2    0    0  0.25077587491E+03  0.11424511342E+04 -0.27938712382E+04  0.31677923800E+04  0.92795955411E+03 0.  0.
        -24    2    4    4    0    0  0.40399629180E+03  0.43692184054E+03 -0.20135014360E+04  0.21011229079E+04  0.80098331315E+02 0.  0.
         24    2    4    4    0    0 -0.15322041689E+03  0.70552929370E+03 -0.78036980217E+03  0.10666694722E+04  0.86940521732E+02 0.  0.
         13    1    3    3    0    0 -0.22996938527E+03 -0.86740084515E+03  0.50033763347E+03  0.10274278037E+04  0.00000000000E+00 0. -1.
        -13    1    3    3    0    0 -0.20806489648E+02 -0.27505028908E+03  0.15450906800E+03  0.31616233746E+03  0.00000000000E+00 0.  1.
          4    1    6    6  502    0 -0.14586546073E+03  0.59891158497E+03 -0.62276109365E+03  0.87624380113E+03  0.00000000000E+00 0. -1.
          3    1    5    5  503    0  0.38565362868E+03  0.41270910306E+03 -0.19580647568E+04  0.20379094967E+04  0.00000000000E+00 0. -1.
         -4    1    5    5    0  503  0.18342663124E+02  0.24212737478E+02 -0.55436679190E+02  0.63213411127E+02  0.00000000000E+00 0.  1.
         -3    1    6    6    0  502 -0.73549561590E+01  0.10661770872E+03 -0.15760870851E+03  0.19042567104E+03  0.00000000000E+00 0.  1.
<mgrwt>
<rscale>  0 0.39720456E+04</rscale>
<asrwt>0</asrwt>
<pdfrwt beam="1">  1        3 0.51156977E+00 0.39720456E+04</pdfrwt>
<pdfrwt beam="2">  1       -3 0.18248908E+00 0.39720456E+04</pdfrwt>
<totfact> 0.11680474E-03</totfact>
</mgrwt>
</event>
<event>
12    1  0.1097093E-007  0.2679310E+04  0.7818608E-02  0.8341749E-01
          1   -1    0    0  501    0  0.00000000000E+00  0.00000000000E+00  0.99413274471E+03  0.99413274471E+03  0.00000000000E+00 0. -1.
         -1   -1    0    0    0  501 -0.00000000000E+00 -0.00000000000E+00 -0.18052676185E+04  0.18052676185E+04  0.00000000000E+00 0.  1.
         23    2    1    2    0    0 -0.71884428285E+03  0.14599213003E+03  0.60907730255E+03  0.95774860599E+03  0.90864882029E+02 0.  0.
        254    2    1    2    0    0  0.71884428285E+03 -0.14599213003E+03 -0.14202121763E+04  0.18416517572E+04  0.91467358331E+03 0.  0.
        -24    2    4    4    0    0  0.73435737993E+03 -0.62522688748E+02 -0.45555420751E+03  0.87003475847E+03  0.78999980376E+02 0.  0.
         24    2    4    4    0    0 -0.15513097079E+02 -0.83469441280E+02 -0.96465796878E+03  0.97161699871E+03  0.79163069891E+02 0.  0.
         11    1    3    3    0    0 -0.36362574453E+03  0.27494406873E+02  0.30075394785E+03  0.47268653635E+03  0.00000000000E+00 0.  1.
        -11    1    3    3    0    0 -0.35521853832E+03  0.11849772316E+03  0.30832335469E+03  0.48506206965E+03  0.00000000000E+00 0. -1.
          4    1    6    6  502    0  0.27496946055E+02 -0.59778447224E+02 -0.61930578935E+03  0.62279146230E+03  0.00000000000E+00 0. -1.
          3    1    5    5  503    0  0.31526790858E+03 -0.31292917343E+02 -0.15055730495E+03  0.35077143973E+03  0.00000000000E+00 0. -1.
         -4    1    5    5    0  503  0.41908947135E+03 -0.31229771405E+02 -0.30499690255E+03  0.51926331874E+03  0.00000000000E+00 0.  1.
         -3    1    6    6    0  502 -0.43010043134E+02 -0.23690994056E+02 -0.34535217943E+03  0.34882553640E+03  0.00000000000E+00 0.  1.
<mgrwt>
<rscale>  0 0.26793101E+04</rscale>
<asrwt>0</asrwt>
<pdfrwt beam="1">  1        1 0.15294350E+00 0.26793101E+04</pdfrwt>
<pdfrwt beam="2">  1       -1 0.27773348E+00 0.26793101E+04</pdfrwt>
<totfact> 0.61575762E-01</totfact>
</mgrwt>
</event>
<event>
12    1  0.1097093E-007  0.1919249E+04  0.7818608E-02  0.8645334E-01
         -1   -1    0    0    0  501 -0.00000000000E+00  0.00000000000E+00  0.80213382106E+03  0.80213382106E+03  0.00000000000E+00 0.  1.
          1   -1    0    0  501    0  0.00000000000E+00 -0.00000000000E+00 -0.11480366190E+04  0.11480366190E+04  0.00000000000E+00 0. -1.
         23    2    1    2    0    0  0.48286737762E+03 -0.56920628905E+03 -0.60857054277E+02  0.75461137721E+03  0.92617739669E+02 0.  0.
        254    2    1    2    0    0 -0.48286737762E+03  0.56920628905E+03 -0.28504574366E+03  0.11955590628E+04  0.88935577408E+03 0.  0.
        -24    2    4    4    0    0 -0.52394239763E+03  0.45072642818E+02  0.96811552366E+02  0.54075884933E+03  0.80625537449E+02 0.  0.
         24    2    4    4    0    0  0.41075020011E+02  0.52413364624E+03 -0.38185729603E+03  0.65480021351E+03  0.80901722504E+02 0.  0.
         11    1    3    3    0    0  0.47990692316E+03 -0.55442333940E+03 -0.48085365586E+02  0.73485243182E+03  0.00000000000E+00 0. -1.
        -11    1    3    3    0    0  0.29604544557E+01 -0.14782949648E+02 -0.12771688691E+02  0.19758945390E+02  0.00000000000E+00 0.  1.
          2    1    6    6  502    0  0.10725266862E+01  0.70154434277E+01 -0.23062645548E+02  0.24129906333E+02  0.00000000000E+00 0. -1.
          1    1    5    5  503    0 -0.14289569572E+03 -0.69411273275E+01  0.57454333705E+02  0.15416990486E+03  0.00000000000E+00 0. -1.
         -2    1    5    5    0  503 -0.38104670191E+03  0.52013770145E+02  0.39357218661E+02  0.38658894446E+03  0.00000000000E+00 0.  1.
         -1    1    6    6    0  502  0.40002493325E+02  0.51711820281E+03 -0.35879465048E+03  0.63067030718E+03  0.00000000000E+00 0.  1.
<mgrwt>
<rscale>  0 0.19192488E+04</rscale>
<asrwt>0</asrwt>
<pdfrwt beam="1">  1        1 0.17662102E+00 0.19192488E+04</pdfrwt>
<pdfrwt beam="2">  1       -1 0.12340520E+00 0.19192488E+04</pdfrwt>
<totfact> 0.62997834E+00</totfact>
</mgrwt>
</event>
<event>
12    1  0.1135129E-007  0.2661326E+04  0.7818608E-02  0.8347663E-01
         -1   -1    0    0    0  501 -0.00000000000E+00  0.00000000000E+00  0.10499782923E+04  0.10499782923E+04  0.00000000000E+00 0.  1.
          1   -1    0    0  501    0  0.00000000000E+00 -0.00000000000E+00 -0.16863818720E+04  0.16863818720E+04  0.00000000000E+00 0. -1.
         23    2    1    2    0    0  0.77626932525E+03 -0.16366588168E+03 -0.11729125052E+04  0.14189543390E+04  0.91252864882E+02 0.  0.
        254    2    1    2    0    0 -0.77626932525E+03  0.16366588168E+03  0.53650892538E+03  0.13174058253E+04  0.90461908850E+03 0.  0.
        -24    2    4    4    0    0 -0.98993172112E+02  0.41833190788E+03  0.36547276990E+03  0.56984656222E+03  0.79709006127E+02 0.  0.
         24    2    4    4    0    0 -0.67727615314E+03 -0.25466602620E+03  0.17103615548E+03  0.74755926305E+03  0.77676977151E+02 0.  0.
         11    1    3    3    0    0  0.94726813135E+02 -0.23722969923E+02 -0.96732645004E+02  0.13745236643E+03  0.00000000000E+00 0.  1.
        -11    1    3    3    0    0  0.68154251212E+03 -0.13994291175E+03 -0.10761798602E+04  0.12815019726E+04  0.00000000000E+00 0. -1.
          4    1    6    6  502    0 -0.63969267902E+03 -0.22237197560E+03  0.14959208889E+03  0.69356601141E+03  0.00000000000E+00 0. -1.
          3    1    5    5  503    0 -0.40581806248E+02  0.32003984475E+03  0.26089580591E+03  0.41489638076E+03  0.00000000000E+00 0. -1.
         -4    1    5    5    0  503 -0.58411365864E+02  0.98292063127E+02  0.10457696399E+03  0.15495018146E+03  0.00000000000E+00 0.  1.
         -3    1    6    6    0  502 -0.37583474118E+02 -0.32294050596E+02  0.21444066584E+02  0.53993251637E+02  0.00000000000E+00 0.  1.
<mgrwt>
<rscale>  0 0.26613263E+04</rscale>
<asrwt>0</asrwt>
<pdfrwt beam="1">  1        1 0.25944336E+00 0.26613263E+04</pdfrwt>
<pdfrwt beam="2">  1       -1 0.16153513E+00 0.26613263E+04</pdfrwt>
<totfact> 0.12137422E+00</totfact>
</mgrwt>
</event>
<event>
12    1  0.1097093E-007  0.1246782E+04  0.7818608E-02  0.9072866E-01
         -2   -1    0    0    0  501 -0.00000000000E+00  0.00000000000E+00  0.51909594580E+03  0.51909594580E+03  0.00000000000E+00 0.  1.
          2   -1    0    0  501    0  0.00000000000E+00 -0.00000000000E+00 -0.74864113581E+03  0.74864113581E+03  0.00000000000E+00 0. -1.
         23    2    1    2    0    0  0.30952993861E+02 -0.16006271127E+03 -0.30378300975E+03  0.35663922185E+03  0.91264769635E+02 0.  0.
        254    2    1    2    0    0 -0.30952993861E+02  0.16006271127E+03  0.74237819738E+02  0.91109785976E+03  0.89331399677E+03 0.  0.
        -24    2    4    4    0    0 -0.71245645130E+02  0.45903265965E+03  0.26970563670E+03  0.54283052919E+03  0.78338549775E+02 0.  0.
         24    2    4    4    0    0  0.40292651269E+02 -0.29896994838E+03 -0.19546781696E+03  0.36826733058E+03  0.80041436280E+02 0.  0.
         13    1    3    3    0    0  0.46093614683E+02 -0.13427203520E+03 -0.29164856183E+03  0.32436473971E+03  0.00000000000E+00 0. -1.
        -13    1    3    3    0    0 -0.15140620821E+02 -0.25790676062E+02 -0.12134447929E+02  0.32274482135E+02  0.00000000000E+00 0.  1.
          2    1    6    6  502    0  0.58560254979E+02 -0.18745394969E+03 -0.14699418656E+03  0.24530710874E+03  0.00000000000E+00 0. -1.
          1    1    5    5  503    0 -0.11189170874E+02  0.29707090511E+03  0.18804335416E+03  0.35176216859E+03  0.00000000000E+00 0. -1.
         -2    1    5    5    0  503 -0.60056474256E+02  0.16196175453E+03  0.81662282540E+02  0.19106836060E+03  0.00000000000E+00 0.  1.
         -1    1    6    6    0  502 -0.18267603710E+02 -0.11151599869E+03 -0.48473630400E+02  0.12296022183E+03  0.00000000000E+00 0.  1.
<mgrwt>
<rscale>  0 0.12467824E+04</rscale>
<asrwt>0</asrwt>
<pdfrwt beam="1">  1        2 0.11517556E+00 0.12467824E+04</pdfrwt>
<pdfrwt beam="2">  1       -2 0.79860915E-01 0.12467824E+04</pdfrwt>
<totfact> 0.51336716E+01</totfact>
</mgrwt>
</event>
<event>
12    1  0.1097093E-007  0.2069398E+04  0.7818608E-02  0.8574845E-01
         -2   -1    0    0    0  501 -0.00000000000E+00  0.00000000000E+00  0.26921510233E+03  0.26921510233E+03  0.00000000000E+00 0. -1.
          2   -1    0    0  501    0  0.00000000000E+00 -0.00000000000E+00 -0.39767551046E+04  0.39767551046E+04  0.00000000000E+00 0.  1.
         23    2    1    2    0    0 -0.13760164953E+03  0.32735452456E+03 -0.30664317707E+04  0.30882376893E+04  0.90072317191E+02 0.  0.
        254    2    1    2    0    0  0.13760164953E+03 -0.32735452456E+03 -0.64110823153E+03  0.11577325176E+04  0.89623078452E+03 0.  0.
        -24    2    4    4    0    0 -0.14656813075E+03  0.22271038668E+03 -0.40089226527E+03  0.48820602974E+03  0.80922097292E+02 0.  0.
         24    2    4    4    0    0  0.28416978028E+03 -0.55006491124E+03 -0.24021596626E+03  0.66952648788E+03  0.85077240959E+02 0.  0.
         11    1    3    3    0    0 -0.13889963443E+01  0.14378463524E+02 -0.38378472511E+02  0.41007032037E+02  0.00000000000E+00 0. -1.
        -11    1    3    3    0    0 -0.13621265319E+03  0.31297606103E+03 -0.30280532982E+04  0.30472306572E+04  0.00000000000E+00 0.  1.
          2    1    6    6  502    0  0.46491322180E+02 -0.61393414698E+02 -0.57909824172E+02  0.96354253367E+02  0.00000000000E+00 0. -1.
          1    1    5    5  503    0 -0.42838340231E+02  0.18618662407E+02 -0.43840237219E+02  0.64060474421E+02  0.00000000000E+00 0. -1.
         -2    1    5    5    0  503 -0.10372979052E+03  0.20409172428E+03 -0.35705202805E+03  0.42414555532E+03  0.00000000000E+00 0.  1.
         -1    1    6    6    0  502  0.23767845810E+03 -0.48867149654E+03 -0.18230614209E+03  0.57317223452E+03  0.00000000000E+00 0.  1.
<mgrwt>
<rscale>  0 0.20693985E+04</rscale>
<asrwt>0</asrwt>
<pdfrwt beam="1">  1        2 0.61180845E+00 0.20693985E+04</pdfrwt>
<pdfrwt beam="2">  1       -2 0.41417710E-01 0.20693985E+04</pdfrwt>
<totfact> 0.18392672E+00</totfact>
</mgrwt>
</event>
<event>
12    1  0.1097093E-007  0.1728540E+04  0.7818608E-02  0.8745252E-01
          2   -1    0    0  501    0  0.00000000000E+00  0.00000000000E+00  0.19845567619E+04  0.19845567619E+04  0.00000000000E+00 0. -1.
         -2   -1    0    0    0  501 -0.00000000000E+00 -0.00000000000E+00 -0.37638759958E+03  0.37638759958E+03  0.00000000000E+00 0.  1.
         23    2    1    2    0    0 -0.42600268147E+03 -0.45765507426E+03  0.72197504077E+03  0.96004875189E+03  0.97566361549E+02 0.  0.
        254    2    1    2    0    0  0.42600268147E+03  0.45765507426E+03  0.88619412151E+03  0.14008956095E+04  0.88670290188E+03 0.  0.
        -24    2    4    4    0    0 -0.14158924756E+03  0.38697107101E+03  0.11113488687E+03  0.43440500403E+03  0.81009997029E+02 0.  0.
         24    2    4    4    0    0  0.56759192904E+03  0.70684003244E+02  0.77505923464E+03  0.96649060550E+03  0.78933181245E+02 0.  0.
         13    1    3    3    0    0 -0.34157120399E+03 -0.33201103260E+03  0.49274804576E+03  0.68534870669E+03  0.00000000000E+00 0. -1.
        -13    1    3    3    0    0 -0.84431477483E+02 -0.12564404166E+03  0.22922699501E+03  0.27470004520E+03  0.00000000000E+00 0.  1.
          2    1    6    6  502    0  0.52138432002E+03  0.83610434752E+02  0.69048532919E+03  0.86925387764E+03  0.00000000000E+00 0. -1.
          3    1    5    5  503    0 -0.10564640239E+03  0.27011814024E+03  0.11519561555E+03  0.31208172306E+03  0.00000000000E+00 0. -1.
         -2    1    5    5    0  503 -0.35942845172E+02  0.11685293077E+03 -0.40607286859E+01  0.12232328097E+03  0.00000000000E+00 0.  1.
         -1    1    6    6    0  502  0.46207609015E+02 -0.12926431508E+02  0.84573905455E+02  0.97236727868E+02  0.00000000000E+00 0.  1.
<mgrwt>
<rscale>  0 0.17285399E+04</rscale>
<asrwt>0</asrwt>
<pdfrwt beam="1">  1        2 0.30531642E+00 0.17285399E+04</pdfrwt>
<pdfrwt beam="2">  1       -2 0.57905785E-01 0.17285399E+04</pdfrwt>
<totfact> 0.18062215E+01</totfact>
</mgrwt>
</event>
<event>
12    1  0.1097093E-007  0.5153681E+04  0.7818608E-02  0.7805228E-01
          2   -1    0    0  501    0  0.00000000000E+00  0.00000000000E+00  0.38218505185E+04  0.38218505185E+04  0.00000000000E+00 0.  1.
         -2   -1    0    0    0  501 -0.00000000000E+00 -0.00000000000E+00 -0.17374059457E+04  0.17374059457E+04  0.00000000000E+00 0. -1.
         23    2    1    2    0    0 -0.21318692471E+04 -0.11402583992E+04  0.33465417989E+03  0.24422942928E+04  0.88047082289E+02 0.  0.
        254    2    1    2    0    0  0.21318692471E+04  0.11402583992E+04  0.17497903929E+04  0.31169621714E+04  0.89923915359E+03 0.  0.
        -24    2    4    4    0    0  0.21426750798E+04  0.91742851162E+03  0.15039577390E+04  0.27750767727E+04  0.80191285255E+02 0.  0.
         24    2    4    4    0    0 -0.10805832649E+02  0.22282988756E+03  0.24583265395E+03  0.34188539877E+03  0.81743546145E+02 0.  0.
         13    1    3    3    0    0 -0.16878824726E+03 -0.11394682929E+03  0.41048728171E+02  0.20774587939E+03  0.00000000000E+00 0.  1.
        -13    1    3    3    0    0 -0.19630809998E+04 -0.10263115699E+04  0.29360545172E+03  0.22345484134E+04  0.00000000000E+00 0. -1.
          4    1    6    6  502    0 -0.44458946441E+02  0.15256429022E+03  0.15169731129E+03  0.21969190887E+03  0.00000000000E+00 0. -1.
          3    1    5    5  503    0  0.20740138026E+04  0.90262544618E+03  0.14616081612E+04  0.26930585524E+04  0.00000000000E+00 0. -1.
         -4    1    5    5    0  503  0.68661277160E+02  0.14803065446E+02  0.42349577736E+02  0.82018220307E+02  0.00000000000E+00 0.  1.
         -3    1    6    6    0  502  0.33653113792E+02  0.70265597338E+02  0.94135342662E+02  0.12219348991E+03  0.00000000000E+00 0.  1.
<mgrwt>
<rscale>  0 0.51536806E+04</rscale>
<asrwt>0</asrwt>
<pdfrwt beam="1">  1        2 0.58797700E+00 0.51536806E+04</pdfrwt>
<pdfrwt beam="2">  1       -2 0.26729322E+00 0.51536806E+04</pdfrwt>
<totfact> 0.17052148E-02</totfact>
</mgrwt>
</event>
<event>
12    1  0.1097093E-007  0.2326902E+04  0.7818608E-02  0.8467389E-01
          1   -1    0    0  501    0  0.00000000000E+00  0.00000000000E+00  0.12175674712E+04  0.12175674712E+04  0.00000000000E+00 0. -1.
         -1   -1    0    0    0  501 -0.00000000000E+00 -0.00000000000E+00 -0.11117401176E+04  0.11117401176E+04  0.00000000000E+00 0.  1.
         23    2    1    2    0    0  0.51347842979E+03  0.53926778277E+03 -0.60004590647E+03  0.96058445769E+03  0.90540438938E+02 0.  0.
        254    2    1    2    0    0 -0.51347842979E+03 -0.53926778277E+03  0.70587326009E+03  0.13687231312E+04  0.90591175677E+03 0.  0.
        -24    2    4    4    0    0  0.14654116825E+03 -0.44728902178E+03  0.43196744454E+03  0.64398624092E+03  0.81121035209E+02 0.  0.
         24    2    4    4    0    0 -0.66001959804E+03 -0.91978760999E+02  0.27390581555E+03  0.72473689024E+03  0.78314762385E+02 0.  0.
         11    1    3    3    0    0  0.14877767975E+03  0.10060240065E+03 -0.14817867594E+03  0.23283591006E+03  0.00000000000E+00 0. -1.
        -11    1    3    3    0    0  0.36470075004E+03  0.43866538212E+03 -0.45186723054E+03  0.72774854763E+03  0.00000000000E+00 0.  1.
          4    1    6    6  502    0 -0.60344810834E+03 -0.64330449158E+02  0.26019544465E+03  0.66029515791E+03  0.00000000000E+00 0. -1.
          1    1    5    5  503    0  0.11216014797E+03 -0.34653777058E+03  0.37686805404E+03  0.52411626133E+03  0.00000000000E+00 0. -1.
         -2    1    5    5    0  503  0.34381020282E+02 -0.10075125120E+03  0.55099390497E+02  0.11986997959E+03  0.00000000000E+00 0.  1.
         -3    1    6    6    0  502 -0.56571489703E+02 -0.27648311841E+02  0.13710370894E+02  0.64441732324E+02  0.00000000000E+00 0.  1.
<mgrwt>
<rscale>  0 0.23269023E+04</rscale>
<asrwt>0</asrwt>
<pdfrwt beam="1">  1        1 0.18731807E+00 0.23269023E+04</pdfrwt>
<pdfrwt beam="2">  1       -1 0.17103694E+00 0.23269023E+04</pdfrwt>
<totfact> 0.22621762E+00</totfact>
</mgrwt>
</event>
<event>
12    1  0.1153461E-007  0.1307860E+04  0.7818608E-02  0.9023355E-01
          2   -1    0    0  501    0  0.00000000000E+00  0.00000000000E+00  0.35229523525E+03  0.35229523525E+03  0.00000000000E+00 0.  1.
         -2   -1    0    0    0  501 -0.00000000000E+00 -0.00000000000E+00 -0.12138236528E+04  0.12138236528E+04  0.00000000000E+00 0. -1.
         23    2    1    2    0    0  0.24774723592E+02 -0.15506075669E+03  0.11031742766E+03  0.23095669610E+03  0.12850461250E+03 0.  0.
        254    2    1    2    0    0 -0.24774723592E+02  0.15506075669E+03 -0.97184584524E+03  0.13351621920E+04  0.90195127742E+03 0.  0.
        -24    2    4    4    0    0 -0.29565678653E+02 -0.96158854302E+02  0.14071174871E+03  0.19167485325E+03  0.82576016682E+02 0.  0.
         24    2    4    4    0    0  0.47909550613E+01  0.25121961099E+03 -0.11125575939E+04  0.11434873387E+04  0.81514709200E+02 0.  0.
         11    1    3    3    0    0 -0.18439582450E+02 -0.11579607799E+03  0.12434128449E+03  0.17090788428E+03  0.00000000000E+00 0.  1.
        -11    1    3    3    0    0  0.43214306042E+02 -0.39264678701E+02 -0.14023856840E+02  0.60048811819E+02  0.00000000000E+00 0. -1.
          2    1    6    6  502    0  0.19862338776E+02  0.18766762750E+03 -0.94481138121E+03  0.96347402507E+03  0.00000000000E+00 0. -1.
          1    1    5    5  503    0 -0.49457122493E+02 -0.59984023877E+02  0.12559767701E+03  0.14771210701E+03  0.00000000000E+00 0. -1.
         -2    1    5    5    0  503  0.19891443839E+02 -0.36174830425E+02  0.15114071693E+02  0.43962746245E+02  0.00000000000E+00 0.  1.
         -1    1    6    6    0  502 -0.15071383715E+02  0.63551983493E+02 -0.16774621274E+03  0.18001331368E+03  0.00000000000E+00 0.  1.
<mgrwt>
<rscale>  0 0.13078598E+04</rscale>
<asrwt>0</asrwt>
<pdfrwt beam="1">  1        2 0.54199267E-01 0.13078598E+04</pdfrwt>
<pdfrwt beam="2">  1       -2 0.18674210E+00 0.13078598E+04</pdfrwt>
<totfact> 0.14636336E+01</totfact>
</mgrwt>
</event>
<event>
12    1  0.1097093E-007  0.1562597E+04  0.7818608E-02  0.8843861E-01
          1   -1    0    0  501    0  0.00000000000E+00  0.00000000000E+00  0.11733226490E+04  0.11733226490E+04  0.00000000000E+00 0. -1.
         -1   -1    0    0    0  501 -0.00000000000E+00 -0.00000000000E+00 -0.52025535772E+03  0.52025535772E+03  0.00000000000E+00 0.  1.
         23    2    1    2    0    0 -0.20779805374E+03  0.11696221594E+03 -0.27962311109E+03  0.37836724918E+03  0.90069417113E+02 0.  0.
        254    2    1    2    0    0  0.20779805374E+03 -0.11696221594E+03  0.93269040240E+03  0.13152107576E+04  0.89610700199E+03 0.  0.
        -24    2    4    4    0    0 -0.60097891022E+02 -0.39637708199E+03  0.14439732688E+03  0.43322815550E+03  0.78163284700E+02 0.  0.
         24    2    4    4    0    0  0.26789594476E+03  0.27941486604E+03  0.78829307552E+03  0.88198260207E+03  0.81525657743E+02 0.  0.
         11    1    3    3    0    0 -0.18218563210E+03  0.71049177071E+02 -0.25201739653E+03  0.31898645467E+03  0.00000000000E+00 0.  1.
        -11    1    3    3    0    0 -0.25612421636E+02  0.45913038871E+02 -0.27605714560E+02  0.59380794511E+02  0.00000000000E+00 0. -1.
          4    1    6    6  502    0  0.20783357122E+03  0.25555649969E+03  0.68596740291E+03  0.76095676336E+03  0.00000000000E+00 0. -1.
          1    1    5    5  503    0 -0.74841496567E+02 -0.36262164190E+03  0.14112840717E+03  0.39624857362E+03  0.00000000000E+00 0. -1.
         -2    1    5    5    0  503  0.14743605545E+02 -0.33755440085E+02  0.32689197091E+01  0.36979581878E+02  0.00000000000E+00 0.  1.
         -3    1    6    6    0  502  0.60062373544E+02  0.23858366356E+02  0.10232567261E+03  0.12102583871E+03  0.00000000000E+00 0.  1.
<mgrwt>
<rscale>  0 0.15625971E+04</rscale>
<asrwt>0</asrwt>
<pdfrwt beam="1">  1        1 0.18051118E+00 0.15625971E+04</pdfrwt>
<pdfrwt beam="2">  1       -1 0.80039286E-01 0.15625971E+04</pdfrwt>
<totfact> 0.16767934E+01</totfact>
</mgrwt>
</event>
<event>
12    1  0.1097093E-007  0.2904621E+04  0.7818608E-02  0.8271504E-01
          2   -1    0    0  501    0  0.00000000000E+00  0.00000000000E+00  0.22794821560E+04  0.22794821560E+04  0.00000000000E+00 0. -1.
         -2   -1    0    0    0  501 -0.00000000000E+00 -0.00000000000E+00 -0.92530017268E+03  0.92530017268E+03  0.00000000000E+00 0.  1.
         23    2    1    2    0    0 -0.12020719470E+04 -0.47451228215E+03  0.38410408640E+03  0.13512475866E+04  0.90527451220E+02 0.  0.
        254    2    1    2    0    0  0.12020719470E+04  0.47451228215E+03  0.97007789690E+03  0.18535347421E+04  0.90796533101E+03 0.  0.
        -24    2    4    4    0    0  0.12228226513E+04  0.16075065516E+03  0.87683697711E+03  0.15154376264E+04  0.81068521795E+02 0.  0.
         24    2    4    4    0    0 -0.20750704338E+02  0.31376162698E+03  0.93240919794E+02  0.33809711570E+03  0.82090439287E+02 0.  0.
         13    1    3    3    0    0 -0.24593330048E+03 -0.97142857247E+02  0.41003754613E+02  0.26758406322E+03  0.00000000000E+00 0.  1.
        -13    1    3    3    0    0 -0.95613864652E+03 -0.37736942490E+03  0.34310033179E+03  0.10836635234E+04  0.00000000000E+00 0. -1.
          2    1    6    6  502    0  0.98892651008E+01  0.27652179456E+03  0.81750093624E+02  0.28852240509E+03  0.00000000000E+00 0. -1.
          3    1    5    5  503    0  0.98756557808E+02 -0.86427764876E+01  0.75964938147E+02  0.12489286258E+03  0.00000000000E+00 0. -1.
         -4    1    5    5    0  503  0.11240660935E+04  0.16939343165E+03  0.80087203896E+03  0.13905447638E+04  0.00000000000E+00 0.  1.
         -1    1    6    6    0  502 -0.30639969438E+02  0.37239832429E+02  0.11490826170E+02  0.49574710615E+02  0.00000000000E+00 0.  1.
<mgrwt>
<rscale>  0 0.29046206E+04</rscale>
<asrwt>0</asrwt>
<pdfrwt beam="1">  1        2 0.35068956E+00 0.29046206E+04</pdfrwt>
<pdfrwt beam="2">  1       -2 0.14235387E+00 0.29046206E+04</pdfrwt>
<totfact> 0.13814443E+00</totfact>
</mgrwt>
</event>
<event>
12    1  0.1097093E-007  0.2676180E+04  0.7818608E-02  0.8342775E-01
         -1   -1    0    0    0  501 -0.00000000000E+00  0.00000000000E+00  0.87457552625E+03  0.87457552625E+03  0.00000000000E+00 0.  1.
          1   -1    0    0  501    0  0.00000000000E+00 -0.00000000000E+00 -0.20472621389E+04  0.20472621389E+04  0.00000000000E+00 0. -1.
         23    2    1    2    0    0 -0.48515731924E+03 -0.10539773949E+04 -0.78735684547E+03  0.14050285643E+04  0.89042074466E+02 0.  0.
        254    2    1    2    0    0  0.48515731924E+03  0.10539773949E+04 -0.38532976715E+03  0.15168091008E+04  0.89776658748E+03 0.  0.
        -24    2    4    4    0    0 -0.17240778565E+03  0.18482751389E+03  0.14623652129E+03  0.30162270353E+03  0.75534632350E+02 0.  0.
         24    2    4    4    0    0  0.65756510488E+03  0.86914988098E+03 -0.53156628844E+03  0.12151863973E+04  0.79384371248E+02 0.  0.
         11    1    3    3    0    0 -0.47658754923E+03 -0.98798425333E+03 -0.73590411658E+03  0.13209100824E+04  0.00000000000E+00 0. -1.
        -11    1    3    3    0    0 -0.85697700068E+01 -0.65993141545E+02 -0.51452728890E+02  0.84118481912E+02  0.00000000000E+00 0.  1.
          4    1    6    6  502    0  0.12178306246E+03  0.19333222066E+03 -0.83219755845E+02  0.24317481286E+03  0.00000000000E+00 0. -1.
          3    1    5    5  503    0 -0.76572616532E+02  0.31451791896E+02  0.40984371857E+02  0.92370447398E+02  0.00000000000E+00 0. -1.
         -4    1    5    5    0  503 -0.95835169115E+02  0.15337572200E+03  0.10525214944E+03  0.20925225614E+03  0.00000000000E+00 0.  1.
         -1    1    6    6    0  502  0.53578204242E+03  0.67581766032E+03 -0.44834653260E+03  0.97201158443E+03  0.00000000000E+00 0.  1.
<mgrwt>
<rscale>  0 0.26761804E+04</rscale>
<asrwt>0</asrwt>
<pdfrwt beam="1">  1        1 0.31496341E+00 0.26761804E+04</pdfrwt>
<pdfrwt beam="2">  1       -1 0.13455008E+00 0.26761804E+04</pdfrwt>
<totfact> 0.11248904E+00</totfact>
</mgrwt>
</event>
<event>
12    1  0.1231490E-007  0.1722206E+04  0.7818608E-02  0.8748800E-01
         -1   -1    0    0    0  501 -0.00000000000E+00  0.00000000000E+00  0.90474193021E+03  0.90474193021E+03  0.00000000000E+00 0.  1.
          1   -1    0    0  501    0  0.00000000000E+00 -0.00000000000E+00 -0.81956915232E+03  0.81956915232E+03  0.00000000000E+00 0. -1.
         23    2    1    2    0    0  0.50824072807E+02 -0.40068027046E+03  0.50372828197E+03  0.65219423902E+03  0.92126965860E+02 0.  0.
        254    2    1    2    0    0 -0.50824072807E+02  0.40068027046E+03 -0.41855550408E+03  0.10721168435E+04  0.90062092505E+03 0.  0.
        -24    2    4    4    0    0  0.25245421931E+03  0.54075188057E+03 -0.41031270455E+03  0.72851767407E+03  0.78966807817E+02 0.  0.
         24    2    4    4    0    0 -0.30327829212E+03 -0.14007161011E+03 -0.82427995324E+01  0.34359916945E+03  0.79966662266E+02 0.  0.
         11    1    3    3    0    0  0.12766620985E+02 -0.35282731880E+03  0.43341216813E+03  0.55901360537E+03  0.00000000000E+00 0.  1.
        -11    1    3    3    0    0  0.38057451823E+02 -0.47852951659E+02  0.70316113835E+02  0.93180633645E+02  0.00000000000E+00 0. -1.
          2    1    6    6  502    0 -0.18937862689E+02  0.51286979644E+01 -0.14291020734E+02  0.24273019171E+02  0.00000000000E+00 0. -1.
          3    1    5    5  503    0 -0.45414788910E+01  0.16858528558E+02 -0.54552154531E+01  0.18291921476E+02  0.00000000000E+00 0. -1.
         -4    1    5    5    0  503  0.25699569820E+03  0.52389335201E+03 -0.40485748910E+03  0.71022575260E+03  0.00000000000E+00 0.  1.
         -1    1    6    6    0  502 -0.28434042943E+03 -0.14520030807E+03  0.60482212017E+01  0.31932615028E+03  0.00000000000E+00 0.  1.
<mgrwt>
<rscale>  0 0.17222062E+04</rscale>
<asrwt>0</asrwt>
<pdfrwt beam="1">  1        1 0.12608756E+00 0.17222062E+04</pdfrwt>
<pdfrwt beam="2">  1       -1 0.13919107E+00 0.17222062E+04</pdfrwt>
<totfact> 0.85956216E+00</totfact>
</mgrwt>
</event>
<event>
12    1  0.1097093E-007  0.2072747E+04  0.7818608E-02  0.8573345E-01
          1   -1    0    0  501    0  0.00000000000E+00  0.00000000000E+00  0.12731809325E+04  0.12731809325E+04  0.00000000000E+00 0. -1.
         -1   -1    0    0    0  501 -0.00000000000E+00 -0.00000000000E+00 -0.84361137117E+03  0.84361137117E+03  0.00000000000E+00 0.  1.
         23    2    1    2    0    0 -0.31717819687E+03  0.20176991914E+03 -0.59156695422E+03  0.70670335232E+03  0.90360710520E+02 0.  0.
        254    2    1    2    0    0  0.31717819687E+03 -0.20176991914E+03  0.10211365156E+04  0.14100889514E+04  0.89683775485E+03 0.  0.
        -24    2    4    4    0    0  0.51729086253E+03  0.41482413187E+02  0.93751188251E+03  0.10744465980E+04  0.78716802399E+02 0.  0.
         24    2    4    4    0    0 -0.20011266566E+03 -0.24325233233E+03  0.83624633064E+02  0.33564235341E+03  0.80286574247E+02 0.  0.
         13    1    3    3    0    0 -0.32194868194E+03  0.18997803139E+03 -0.57458466436E+03  0.68548533371E+03  0.00000000000E+00 0.  1.
        -13    1    3    3    0    0  0.47704850707E+01  0.11791887751E+02 -0.16982289861E+02  0.21218018604E+02  0.00000000000E+00 0. -1.
          2    1    6    6  502    0 -0.85431107515E+00  0.42448402330E+01 -0.41540283827E+01  0.60003723069E+01  0.00000000000E+00 0. -1.
          3    1    5    5  503    0  0.28720896425E+03  0.60119976584E+02  0.49871340551E+03  0.57863499856E+03  0.00000000000E+00 0. -1.
         -4    1    5    5    0  503  0.23008189828E+03 -0.18637563397E+02  0.43879847701E+03  0.49581159941E+03  0.00000000000E+00 0.  1.
         -1    1    6    6    0  502 -0.19925835458E+03 -0.24749717256E+03  0.87778661447E+02  0.32964198110E+03  0.00000000000E+00 0.  1.
<mgrwt>
<rscale>  0 0.20727469E+04</rscale>
<asrwt>0</asrwt>
<pdfrwt beam="1">  1        1 0.19587399E+00 0.20727469E+04</pdfrwt>
<pdfrwt beam="2">  1       -1 0.12978636E+00 0.20727469E+04</pdfrwt>
<totfact> 0.44393226E+00</totfact>
</mgrwt>
</event>
<event>
12    1  0.1097093E-007  0.1204620E+04  0.7818608E-02  0.9108822E-01
         -1   -1    0    0    0  501 -0.00000000000E+00  0.00000000000E+00  0.23780307240E+03  0.23780307240E+03  0.00000000000E+00 0.  1.
          1   -1    0    0  501    0  0.00000000000E+00 -0.00000000000E+00 -0.15255376337E+04  0.15255376337E+04  0.00000000000E+00 0. -1.
         23    2    1    2    0    0 -0.11891956046E+03 -0.84705660406E+02 -0.20145179007E+00  0.18504715746E+03  0.11369036519E+03 0.  0.
        254    2    1    2    0    0  0.11891956046E+03  0.84705660406E+02 -0.12875331095E+04  0.15782935486E+04  0.90108385116E+03 0.  0.
        -24    2    4    4    0    0 -0.24604257692E+03 -0.60005698858E+02 -0.40147207297E+02  0.26815704138E+03  0.78477812393E+02 0.  0.
         24    2    4    4    0    0  0.36496213738E+03  0.14471135926E+03 -0.12473859022E+04  0.13101365072E+04  0.79670191415E+02 0.  0.
         13    1    3    3    0    0 -0.26656608185E+02 -0.73311725905E+02 -0.35372281886E+02  0.85652683793E+02  0.00000000000E+00 0. -1.
        -13    1    3    3    0    0 -0.92262952275E+02 -0.11393934501E+02  0.35170830096E+02  0.99394473667E+02  0.00000000000E+00 0.  1.
          2    1    6    6  502    0  0.13247086844E+03  0.19525785636E+02 -0.35123037494E+03  0.37588903093E+03  0.00000000000E+00 0. -1.
          3    1    5    5  503    0 -0.19315075743E+03 -0.19669491544E+02 -0.51057196162E+02  0.20075094339E+03  0.00000000000E+00 0. -1.
         -4    1    5    5    0  503 -0.52891819489E+02 -0.40336207315E+02  0.10909988865E+02  0.67406097992E+02  0.00000000000E+00 0.  1.
         -1    1    6    6    0  502  0.23249126893E+03  0.12518557363E+03 -0.89615552724E+03  0.93424747630E+03  0.00000000000E+00 0.  1.
<mgrwt>
<rscale>  0 0.12046203E+04</rscale>
<asrwt>0</asrwt>
<pdfrwt beam="1">  1        1 0.23469810E+00 0.12046203E+04</pdfrwt>
<pdfrwt beam="2">  1       -1 0.36585088E-01 0.12046203E+04</pdfrwt>
<totfact> 0.44513399E+01</totfact>
</mgrwt>
</event>
<event>
12    1  0.1097093E-007  0.1528020E+04  0.7818608E-02  0.8866031E-01
         -1   -1    0    0    0  501 -0.00000000000E+00  0.00000000000E+00  0.33692120745E+03  0.33692120745E+03  0.00000000000E+00 0.  1.
          1   -1    0    0  501    0  0.00000000000E+00 -0.00000000000E+00 -0.17324858306E+04  0.17324858306E+04  0.00000000000E+00 0. -1.
         23    2    1    2    0    0 -0.46474638221E+03  0.14879247047E+03 -0.38270802946E+03  0.62673458833E+03  0.90567153843E+02 0.  0.
        254    2    1    2    0    0  0.46474638221E+03 -0.14879247047E+03 -0.10128565937E+04  0.14426724497E+04  0.90404475481E+03 0.  0.
        -24    2    4    4    0    0  0.41734810023E+03 -0.44104374266E+03 -0.94860549282E+03  0.11291433809E+04  0.80083543116E+02 0.  0.
         24    2    4    4    0    0  0.47398281975E+02  0.29225127219E+03 -0.64251100846E+02  0.31352906880E+03  0.80714743350E+02 0.  0.
         13    1    3    3    0    0 -0.45952215864E+03  0.15512603837E+03 -0.38375243866E+03  0.61845827364E+03  0.00000000000E+00 0. -1.
        -13    1    3    3    0    0 -0.52242235732E+01 -0.63335678999E+01  0.10444092017E+01  0.82763146911E+01  0.00000000000E+00 0.  1.
          4    1    6    6  502    0  0.54285129759E+02  0.26452698987E+03 -0.79028870534E+02  0.28136624897E+03  0.00000000000E+00 0. -1.
          1    1    5    5  503    0  0.20935866006E+03 -0.18209930241E+03 -0.37790099139E+03  0.46882871475E+03  0.00000000000E+00 0. -1.
         -2    1    5    5    0  503  0.20798944018E+03 -0.25894444025E+03 -0.57070450143E+03  0.66031466614E+03  0.00000000000E+00 0.  1.
         -3    1    6    6    0  502 -0.68868477842E+01  0.27724282316E+02  0.14777769688E+02  0.32162819828E+02  0.00000000000E+00 0.  1.
<mgrwt>
<rscale>  0 0.15280199E+04</rscale>
<asrwt>0</asrwt>
<pdfrwt beam="1">  1        1 0.26653628E+00 0.15280199E+04</pdfrwt>
<pdfrwt beam="2">  1       -1 0.51834032E-01 0.15280199E+04</pdfrwt>
<totfact> 0.16377543E+01</totfact>
</mgrwt>
</event>
<event>
12    1  0.1097093E-007  0.1035305E+04  0.7818608E-02  0.9270649E-01
         -2   -1    0    0    0  501 -0.00000000000E+00  0.00000000000E+00  0.32923616278E+03  0.32923616278E+03  0.00000000000E+00 0.  1.
          2   -1    0    0  501    0  0.00000000000E+00 -0.00000000000E+00 -0.81389573232E+03  0.81389573232E+03  0.00000000000E+00 0. -1.
         23    2    1    2    0    0 -0.59769831896E+02 -0.63357183748E+02 -0.19846540623E+02  0.12876346070E+03  0.92733910185E+02 0.  0.
        254    2    1    2    0    0  0.59769831896E+02  0.63357183748E+02 -0.46481302892E+03  0.10143684344E+04  0.89738821216E+03 0.  0.
        -24    2    4    4    0    0 -0.25879127568E+03 -0.29825601117E+03 -0.28672674939E+03  0.49433333534E+03  0.78890082010E+02 0.  0.
         24    2    4    4    0    0  0.31856110757E+03  0.36161319492E+03 -0.17808627952E+03  0.52003509907E+03  0.80476700430E+02 0.  0.
         11    1    3    3    0    0 -0.79989566094E+02 -0.60609109308E+02 -0.31598967756E+02  0.10521544363E+03  0.00000000000E+00 0. -1.
        -11    1    3    3    0    0  0.20219734198E+02 -0.27480744401E+01  0.11752427134E+02  0.23548017065E+02  0.00000000000E+00 0.  1.
          2    1    6    6  502    0  0.16913474010E+03  0.13186577630E+03 -0.82258803544E+02  0.22969905099E+03  0.00000000000E+00 0. -1.
          3    1    5    5  503    0 -0.38911954207E+02 -0.58960087691E+02 -0.90138245063E+02  0.11452220459E+03  0.00000000000E+00 0. -1.
         -4    1    5    5    0  503 -0.21987932147E+03 -0.23929592348E+03 -0.19658850433E+03  0.37981113075E+03  0.00000000000E+00 0.  1.
         -1    1    6    6    0  502  0.14942636748E+03  0.22974741862E+03 -0.95827475976E+02  0.29033604808E+03  0.00000000000E+00 0.  1.
<mgrwt>
<rscale>  0 0.10353046E+04</rscale>
<asrwt>0</asrwt>
<pdfrwt beam="1">  1        2 0.12521473E+00 0.10353046E+04</pdfrwt>
<pdfrwt beam="2">  1       -2 0.50651718E-01 0.10353046E+04</pdfrwt>
<totfact> 0.12362235E+02</totfact>
</mgrwt>
</event>
<event>
12    1  0.1097093E-007  0.1257852E+04  0.7818608E-02  0.9063673E-01
         -1   -1    0    0    0  501 -0.00000000000E+00  0.00000000000E+00  0.74721449576E+03  0.74721449576E+03  0.00000000000E+00 0.  1.
          1   -1    0    0  501    0  0.00000000000E+00 -0.00000000000E+00 -0.52936360819E+03  0.52936360819E+03  0.00000000000E+00 0. -1.
         23    2    1    2    0    0  0.25792111832E+02  0.13612316666E+03  0.32499552553E+03  0.36563025493E+03  0.94173468506E+02 0.  0.
        254    2    1    2    0    0 -0.25792111832E+02 -0.13612316666E+03 -0.10714463797E+03  0.91094784902E+03  0.89395260538E+03 0.  0.
        -24    2    4    4    0    0 -0.14549593927E+03 -0.20954592049E+03  0.34184510867E+03  0.43391174809E+03  0.79641482108E+02 0.  0.
         24    2    4    4    0    0  0.11970382744E+03  0.73422753825E+02 -0.44898974663E+03  0.47703610094E+03  0.79067957691E+02 0.  0.
         11    1    3    3    0    0  0.30715133397E+02  0.43434561731E+02  0.41931284179E+02  0.67736350398E+02  0.00000000000E+00 0. -1.
        -11    1    3    3    0    0 -0.49230215648E+01  0.92688604931E+02  0.28306424135E+03  0.29789390453E+03  0.00000000000E+00 0.  1.
          2    1    6    6  502    0  0.13000470086E+03  0.73262241997E+02 -0.43320595427E+03  0.45818770953E+03  0.00000000000E+00 0. -1.
          1    1    5    5  503    0 -0.12684287748E+03 -0.11696705860E+03  0.23010221944E+03  0.28760639728E+03  0.00000000000E+00 0. -1.
         -2    1    5    5    0  503 -0.18653061790E+02 -0.92578861884E+02  0.11174288923E+03  0.14630535081E+03  0.00000000000E+00 0.  1.
         -1    1    6    6    0  502 -0.10300873423E+02  0.16051182769E+00 -0.15783792362E+02  0.18848391408E+02  0.00000000000E+00 0.  1.
<mgrwt>
<rscale>  0 0.12578524E+04</rscale>
<asrwt>0</asrwt>
<pdfrwt beam="1">  1        1 0.81440555E-01 0.12578524E+04</pdfrwt>
<pdfrwt beam="2">  1       -1 0.11495608E+00 0.12578524E+04</pdfrwt>
<totfact> 0.27732150E+01</totfact>
</mgrwt>
</event>
<event>
12    1  0.1097093E-007  0.1356956E+04  0.7818608E-02  0.8985579E-01
         -1   -1    0    0    0  501 -0.00000000000E+00  0.00000000000E+00  0.37844830572E+03  0.37844830572E+03  0.00000000000E+00 0.  1.
          1   -1    0    0  501    0  0.00000000000E+00 -0.00000000000E+00 -0.12163686752E+04  0.12163686752E+04  0.00000000000E+00 0. -1.
         23    2    1    2    0    0  0.73735042265E+01  0.36462451194E+03 -0.30513178424E+03  0.48361192166E+03  0.88145798233E+02 0.  0.
        254    2    1    2    0    0 -0.73735042265E+01 -0.36462451194E+03 -0.53278858519E+03  0.11112050592E+04  0.90438244334E+03 0.  0.
        -24    2    4    4    0    0  0.47814833085E+02  0.25904240206E+03  0.15269313580E+02  0.27547777953E+03  0.79155737329E+02 0.  0.
         24    2    4    4    0    0 -0.55188337311E+02 -0.62366691400E+03 -0.54805789877E+03  0.83572727968E+03  0.77887440590E+02 0.  0.
         13    1    3    3    0    0 -0.21888290431E+02  0.22651612572E+03 -0.14363389707E+03  0.26910843327E+03  0.00000000000E+00 0.  1.
        -13    1    3    3    0    0  0.29261794658E+02  0.13810838622E+03 -0.16149788718E+03  0.21450348840E+03  0.00000000000E+00 0. -1.
          2    1    6    6  502    0 -0.55572704270E+01 -0.34183421543E+01 -0.15101847949E+02  0.16450961344E+02  0.00000000000E+00 0. -1.
          3    1    5    5  503    0 -0.17821733159E+02  0.26500704385E+02 -0.74227544515E+01  0.32787174159E+02  0.00000000000E+00 0. -1.
         -4    1    5    5    0  503  0.65636566244E+02  0.23254169767E+03  0.22692068031E+02  0.24269060537E+03  0.00000000000E+00 0.  1.
         -1    1    6    6    0  502 -0.49631066884E+02 -0.62024857185E+03 -0.53295605082E+03  0.81927631834E+03  0.00000000000E+00 0.  1.
<mgrwt>
<rscale>  0 0.13569564E+04</rscale>
<asrwt>0</asrwt>
<pdfrwt beam="1">  1        1 0.18713364E+00 0.13569564E+04</pdfrwt>
<pdfrwt beam="2">  1       -1 0.58222817E-01 0.13569564E+04</pdfrwt>
<totfact> 0.30394860E+01</totfact>
</mgrwt>
</event>
<event>
12    1  0.1097093E-007  0.1852668E+04  0.7818608E-02  0.8678782E-01
          2   -1    0    0  501    0  0.00000000000E+00  0.00000000000E+00  0.28548099292E+04  0.28548099292E+04  0.00000000000E+00 0. -1.
         -2   -1    0    0    0  501 -0.00000000000E+00 -0.00000000000E+00 -0.30057847790E+03  0.30057847790E+03  0.00000000000E+00 0.  1.
         23    2    1    2    0    0  0.30233658313E+03  0.36445798760E+03  0.19668470396E+04  0.20249884810E+04  0.88623005052E+02 0.  0.
        254    2    1    2    0    0 -0.30233658313E+03 -0.36445798760E+03  0.58738441171E+03  0.11303999260E+04  0.84175204869E+03 0.  0.
        -24    2    4    4    0    0 -0.24219585107E+03  0.23055384211E+03  0.11594754223E+03  0.36466078686E+03  0.87862122313E+02 0.  0.
         24    2    4    4    0    0 -0.60140732062E+02 -0.59501182971E+03  0.47143686948E+03  0.76573913919E+03  0.80297710103E+02 0.  0.
         11    1    3    3    0    0  0.25047850441E+03  0.33023554912E+03  0.17956381758E+04  0.18428541606E+04  0.00000000000E+00 0. -1.
        -11    1    3    3    0    0  0.51858078722E+02  0.34222438482E+02  0.17120886380E+03  0.18213432040E+03  0.00000000000E+00 0.  1.
          2    1    6    6  502    0 -0.34106625058E+02 -0.11255545937E+03  0.12202015182E+03  0.16947244838E+03  0.00000000000E+00 0. -1.
          3    1    5    5  503    0 -0.71705067818E+02  0.54026430239E+02 -0.72228805809E+01  0.90070205501E+02  0.00000000000E+00 0. -1.
         -4    1    5    5    0  503 -0.17049078325E+03  0.17652741187E+03  0.12317042281E+03  0.27459058136E+03  0.00000000000E+00 0.  1.
         -1    1    6    6    0  502 -0.26034107004E+02 -0.48245637034E+03  0.34941671765E+03  0.59626669082E+03  0.00000000000E+00 0.  1.
<mgrwt>
<rscale>  0 0.18526677E+04</rscale>
<asrwt>0</asrwt>
<pdfrwt beam="1">  1        2 0.43920151E+00 0.18526677E+04</pdfrwt>
<pdfrwt beam="2">  1       -2 0.46242845E-01 0.18526677E+04</pdfrwt>
<totfact> 0.89492173E+00</totfact>
</mgrwt>
</event>
<event>
12    1  0.1097093E-007  0.1943485E+04  0.7818608E-02  0.8633509E-01
         -2   -1    0    0    0  501 -0.00000000000E+00  0.00000000000E+00  0.10556686344E+04  0.10556686344E+04  0.00000000000E+00 0.  1.
          2   -1    0    0  501    0  0.00000000000E+00 -0.00000000000E+00 -0.89448847834E+03  0.89448847834E+03  0.00000000000E+00 0. -1.
         23    2    1    2    0    0  0.33982601490E+03 -0.40304737190E+03  0.63229033056E+03  0.82828352854E+03  0.91288756872E+02 0.  0.
        254    2    1    2    0    0 -0.33982601490E+03  0.40304737190E+03 -0.47111017455E+03  0.11218735841E+04  0.87104915926E+03 0.  0.
        -24    2    4    4    0    0 -0.18577819077E+03 -0.16598039963E+02 -0.61333190408E+03  0.64605908874E+03  0.80170384041E+02 0.  0.
         24    2    4    4    0    0 -0.15404782413E+03  0.41964541186E+03  0.14222172953E+03  0.47581449541E+03  0.79620411190E+02 0.  0.
         11    1    3    3    0    0  0.18220444639E+03 -0.22279381040E+03  0.41436146943E+03  0.50451062386E+03  0.00000000000E+00 0. -1.
        -11    1    3    3    0    0  0.15762156851E+03 -0.18025356150E+03  0.21792886113E+03  0.32377290468E+03  0.00000000000E+00 0.  1.
          2    1    6    6  502    0 -0.10626740688E+03  0.17657429587E+03  0.56672280401E+02  0.21373579741E+03  0.00000000000E+00 0. -1.
          1    1    5    5  503    0 -0.10939944581E+02 -0.78681277628E+01 -0.15256114211E+03  0.15315512367E+03  0.00000000000E+00 0. -1.
         -2    1    5    5    0  503 -0.17483824619E+03 -0.87299122004E+01 -0.46077076197E+03  0.49290396507E+03  0.00000000000E+00 0.  1.
         -1    1    6    6    0  502 -0.47780417249E+02  0.24307111599E+03  0.85549449131E+02  0.26207869801E+03  0.00000000000E+00 0.  1.
<mgrwt>
<rscale>  0 0.19434849E+04</rscale>
<asrwt>0</asrwt>
<pdfrwt beam="1">  1        2 0.13761361E+00 0.19434849E+04</pdfrwt>
<pdfrwt beam="2">  1       -2 0.16241056E+00 0.19434849E+04</pdfrwt>
<totfact> 0.66723927E+00</totfact>
</mgrwt>
</event>
<event>
12    1  0.1097093E-007  0.1193170E+04  0.7818608E-02  0.9118856E-01
         -2   -1    0    0    0  501 -0.00000000000E+00  0.00000000000E+00  0.11269706240E+03  0.11269706240E+03  0.00000000000E+00 0.  1.
          2   -1    0    0  501    0  0.00000000000E+00 -0.00000000000E+00 -0.31581436150E+04  0.31581436150E+04  0.00000000000E+00 0. -1.
         23    2    1    2    0    0  0.26033153618E+02  0.18470544174E+03 -0.11458320539E+04  0.11644459564E+04  0.90606094914E+02 0.  0.
        254    2    1    2    0    0 -0.26033153618E+02 -0.18470544174E+03 -0.18996144987E+04  0.21063947209E+04  0.89082526429E+03 0.  0.
        -24    2    4    4    0    0  0.30248285022E+03 -0.21413211207E+03 -0.33771962297E+03  0.50799941470E+03  0.81611429936E+02 0.  0.
         24    2    4    4    0    0 -0.32851600384E+03  0.29426670331E+02 -0.15618948757E+04  0.15983953062E+04  0.81013940364E+02 0.  0.
         11    1    3    3    0    0 -0.18625664988E+02  0.75207302396E+02 -0.65513465421E+03  0.65970028716E+03  0.00000000000E+00 0.  1.
        -11    1    3    3    0    0  0.44658818607E+02  0.10949813934E+03 -0.49069739969E+03  0.50474566929E+03  0.00000000000E+00 0. -1.
          2    1    6    6  502    0 -0.48091390786E+02 -0.24540630942E+02 -0.26075366316E+03  0.26628461707E+03  0.00000000000E+00 0. -1.
          1    1    5    5  503    0  0.22453806520E+03 -0.15596236357E+03 -0.19713505656E+03  0.33705167571E+03  0.00000000000E+00 0. -1.
         -2    1    5    5    0  503  0.77944785028E+02 -0.58169748496E+02 -0.14058456641E+03  0.17094773899E+03  0.00000000000E+00 0.  1.
         -1    1    6    6    0  502 -0.28042461306E+03  0.53967301273E+02 -0.13011412125E+04  0.13321106892E+04  0.00000000000E+00 0.  1.
<mgrwt>
<rscale>  0 0.11931697E+04</rscale>
<asrwt>0</asrwt>
<pdfrwt beam="1">  1        2 0.48586830E+00 0.11931697E+04</pdfrwt>
<pdfrwt beam="2">  1       -2 0.17338008E-01 0.11931697E+04</pdfrwt>
<totfact> 0.38041693E+01</totfact>
</mgrwt>
</event>
<event>
12    1  0.1097093E-007  0.2373456E+04  0.7818608E-02  0.8449509E-01
         -2   -1    0    0    0  501 -0.00000000000E+00  0.00000000000E+00  0.62216672399E+03  0.62216672399E+03  0.00000000000E+00 0.  1.
          2   -1    0    0  501    0  0.00000000000E+00 -0.00000000000E+00 -0.22635786197E+04  0.22635786197E+04  0.00000000000E+00 0. -1.
         23    2    1    2    0    0 -0.11351079393E+03  0.58103202850E+03  0.29644780527E+03  0.66850916623E+03  0.92413665620E+02 0.  0.
        254    2    1    2    0    0  0.11351079393E+03 -0.58103202850E+03 -0.19378597010E+04  0.22172361775E+04  0.90019616055E+03 0.  0.
        -24    2    4    4    0    0 -0.88581037600E+02 -0.77473315042E+03 -0.13462812063E+04  0.15579123070E+04  0.80991451647E+02 0.  0.
         24    2    4    4    0    0  0.20209183153E+03  0.19370112192E+03 -0.59157849476E+03  0.65932387054E+03  0.79885028616E+02 0.  0.
         11    1    3    3    0    0 -0.59644557102E+02  0.25142286147E+03  0.79914648786E+02  0.27047602399E+03  0.00000000000E+00 0.  1.
        -11    1    3    3    0    0 -0.53866236830E+02  0.32960916703E+03  0.21653315649E+03  0.39803314224E+03  0.00000000000E+00 0. -1.
          4    1    6    6  502    0  0.19870096704E+03  0.20079631099E+03 -0.56626357817E+03  0.63281567046E+03  0.00000000000E+00 0. -1.
          1    1    5    5  503    0 -0.42175495362E+02 -0.59970264444E+03 -0.10765299754E+04  0.12330202034E+04  0.00000000000E+00 0. -1.
         -2    1    5    5    0  503 -0.46405542238E+02 -0.17503050599E+03 -0.26975123089E+03  0.32489210354E+03  0.00000000000E+00 0.  1.
         -3    1    6    6    0  502  0.33908644893E+01 -0.70951890680E+01 -0.25314916582E+02  0.26508200079E+02  0.00000000000E+00 0.  1.
<mgrwt>
<rscale>  0 0.23734560E+04</rscale>
<asrwt>0</asrwt>
<pdfrwt beam="1">  1        2 0.34824287E+00 0.23734560E+04</pdfrwt>
<pdfrwt beam="2">  1       -2 0.95717956E-01 0.23734560E+04</pdfrwt>
<totfact> 0.39228938E+00</totfact>
</mgrwt>
</event>
<event>
12    1  0.1097093E-007  0.2156368E+04  0.7818608E-02  0.8536811E-01
          1   -1    0    0  501    0  0.00000000000E+00  0.00000000000E+00  0.24899136586E+04  0.24899136586E+04  0.00000000000E+00 0.  1.
         -1   -1    0    0    0  501 -0.00000000000E+00 -0.00000000000E+00 -0.46687613057E+03  0.46687613057E+03  0.00000000000E+00 0. -1.
         23    2    1    2    0    0 -0.65067249264E+02  0.49412905284E+02  0.20486927694E+04  0.20522316473E+04  0.88528462754E+02 0.  0.
        254    2    1    2    0    0  0.65067249264E+02 -0.49412905284E+02 -0.25655241388E+02  0.90455814184E+03  0.90049534059E+03 0.  0.
        -24    2    4    4    0    0 -0.54514227182E+02 -0.13158355171E+03 -0.43498013657E+03  0.46438656658E+03  0.78492878465E+02 0.  0.
         24    2    4    4    0    0  0.11958147645E+03  0.82170646428E+02  0.40932489518E+03  0.44017157525E+03  0.71780228527E+02 0.  0.
         13    1    3    3    0    0  0.17449499375E+02  0.15248502699E+02  0.19220386408E+03  0.19359578309E+03  0.00000000000E+00 0. -1.
        -13    1    3    3    0    0 -0.82516748639E+02  0.34164402585E+02  0.18564889053E+04  0.18586358642E+04  0.00000000000E+00 0.  1.
          4    1    6    6  502    0  0.12908074901E+03  0.79974207528E+02  0.39019888717E+03  0.41870381558E+03  0.00000000000E+00 0. -1.
          1    1    5    5  503    0 -0.64761433524E+02 -0.13321478969E+03 -0.36940089553E+03  0.39799151383E+03  0.00000000000E+00 0. -1.
         -2    1    5    5    0  503  0.10247206343E+02  0.16312379735E+01 -0.65579241034E+02  0.66395052750E+02  0.00000000000E+00 0.  1.
         -3    1    6    6    0  502 -0.94992725636E+01  0.21964388999E+01  0.19126008012E+02  0.21467759677E+02  0.00000000000E+00 0.  1.
<mgrwt>
<rscale>  0 0.21563685E+04</rscale>
<asrwt>0</asrwt>
<pdfrwt beam="1">  1        1 0.38306363E+00 0.21563685E+04</pdfrwt>
<pdfrwt beam="2">  1       -1 0.71827098E-01 0.21563685E+04</pdfrwt>
<totfact> 0.24652664E+00</totfact>
</mgrwt>
</event>
<event>
12    1  0.1097093E-007  0.1315707E+04  0.7818608E-02  0.9017201E-01
         -2   -1    0    0    0  501 -0.00000000000E+00  0.00000000000E+00  0.56580556014E+03  0.56580556014E+03  0.00000000000E+00 0.  1.
          2   -1    0    0  501    0  0.00000000000E+00 -0.00000000000E+00 -0.76487621280E+03  0.76487621280E+03  0.00000000000E+00 0. -1.
         23    2    1    2    0    0 -0.26623286627E+02  0.12973168346E+03  0.28460405754E+03  0.32633328357E+03  0.89189872272E+02 0.  0.
        254    2    1    2    0    0  0.26623286627E+02 -0.12973168346E+03 -0.48367471020E+03  0.10043484894E+04  0.87019282560E+03 0.  0.
        -24    2    4    4    0    0  0.16194276210E+02 -0.18207482791E+03  0.21788539048E+03  0.29621418167E+03  0.82796742056E+02 0.  0.
         24    2    4    4    0    0  0.10429010416E+02  0.52343144450E+02 -0.70156010068E+03  0.70813430770E+03  0.80118998078E+02 0.  0.
         11    1    3    3    0    0  0.38718770955E+01  0.12837220035E+03  0.24132979525E+03  0.27337608405E+03  0.00000000000E+00 0.  1.
        -11    1    3    3    0    0 -0.30495163722E+02  0.13594831124E+01  0.43274262282E+02  0.52957199518E+02  0.00000000000E+00 0. -1.
          4    1    6    6  502    0  0.10394155417E+02 -0.48780362149E+01 -0.45007736456E+03  0.45022379746E+03  0.00000000000E+00 0. -1.
          3    1    5    5  503    0 -0.56857068561E+01 -0.78176045498E+02  0.15264854804E+03  0.17159662168E+03  0.00000000000E+00 0. -1.
         -2    1    5    5    0  503  0.21879983067E+02 -0.10389878241E+03  0.65236842435E+02  0.12461755999E+03  0.00000000000E+00 0.  1.
         -3    1    6    6    0  502  0.34854999200E-01  0.57221180665E+02 -0.25148273611E+03  0.25791051025E+03  0.00000000000E+00 0.  1.
<mgrwt>
<rscale>  0 0.13157070E+04</rscale>
<asrwt>0</asrwt>
<pdfrwt beam="1">  1        2 0.11767326E+00 0.13157070E+04</pdfrwt>
<pdfrwt beam="2">  1       -2 0.87047010E-01 0.13157070E+04</pdfrwt>
<totfact> 0.40854412E+01</totfact>
</mgrwt>
</event>
<event>
12    1  0.1097093E-007  0.1379196E+04  0.7818608E-02  0.8969017E-01
         -1   -1    0    0    0  501 -0.00000000000E+00  0.00000000000E+00  0.17531506951E+03  0.17531506951E+03  0.00000000000E+00 0.  1.
          1   -1    0    0  501    0  0.00000000000E+00 -0.00000000000E+00 -0.27125192080E+04  0.27125192080E+04  0.00000000000E+00 0. -1.
         23    2    1    2    0    0 -0.35679662046E+03  0.81031175946E+02 -0.42048134064E+03  0.56465846095E+03  0.90358950006E+02 0.  0.
        254    2    1    2    0    0  0.35679662046E+03 -0.81031175946E+02 -0.21167227979E+04  0.23231758166E+04  0.88473758362E+03 0.  0.
        -24    2    4    4    0    0 -0.37571617802E+02 -0.36654063833E+03 -0.14213880280E+04  0.14704614477E+04  0.78417326679E+02 0.  0.
         24    2    4    4    0    0  0.39436823826E+03  0.28550946238E+03 -0.69533476991E+03  0.85271436889E+03  0.81175071275E+02 0.  0.
         11    1    3    3    0    0 -0.31781292527E+03  0.41640546425E+02 -0.34371269628E+03  0.46997596551E+03  0.00000000000E+00 0.  1.
        -11    1    3    3    0    0 -0.38983695188E+02  0.39390629521E+02 -0.76768644368E+02  0.94682495440E+02  0.00000000000E+00 0. -1.
          2    1    6    6  502    0  0.85496323808E+02  0.10170882576E+03 -0.21596672754E+03  0.25356642922E+03  0.00000000000E+00 0. -1.
          1    1    5    5  503    0  0.14618351982E+02 -0.20783056265E+03 -0.72766627166E+03  0.75690517365E+03  0.00000000000E+00 0. -1.
         -2    1    5    5    0  503 -0.52189969784E+02 -0.15871007568E+03 -0.69372175631E+03  0.71355627406E+03  0.00000000000E+00 0.  1.
         -1    1    6    6    0  502  0.30887191445E+03  0.18380063663E+03 -0.47936804237E+03  0.59914793967E+03  0.00000000000E+00 0.  1.
<mgrwt>
<rscale>  0 0.13791961E+04</rscale>
<asrwt>0</asrwt>
<pdfrwt beam="1">  1        1 0.41731062E+00 0.13791961E+04</pdfrwt>
<pdfrwt beam="2">  1       -1 0.26971551E-01 0.13791961E+04</pdfrwt>
<totfact> 0.11602351E+01</totfact>
</mgrwt>
</event>
<event>
12    1  0.1097093E-007  0.2810892E+04  0.7818608E-02  0.8299895E-01
         -2   -1    0    0    0  501 -0.00000000000E+00  0.00000000000E+00  0.79079356832E+03  0.79079356832E+03  0.00000000000E+00 0. -1.
          2   -1    0    0  501    0  0.00000000000E+00 -0.00000000000E+00 -0.24978430820E+04  0.24978430820E+04  0.00000000000E+00 0.  1.
         23    2    1    2    0    0 -0.78178476449E+03  0.26408153441E+03 -0.18798428527E+04  0.20549740409E+04  0.90458183504E+02 0.  0.
        254    2    1    2    0    0  0.78178476449E+03 -0.26408153441E+03  0.17279333903E+03  0.12336626095E+04  0.90063278929E+03 0.  0.
        -24    2    4    4    0    0  0.81026433756E+03 -0.21982802022E+03  0.43902955845E+03  0.95070204271E+03  0.78960532021E+02 0.  0.
         24    2    4    4    0    0 -0.28479573067E+02 -0.44253514191E+02 -0.26623621942E+03  0.28296056675E+03  0.80096805189E+02 0.  0.
         11    1    3    3    0    0 -0.41925881684E+03  0.18083493583E+03 -0.10983950712E+04  0.11895171129E+04  0.00000000000E+00 0. -1.
        -11    1    3    3    0    0 -0.36252594766E+03  0.83246598577E+02 -0.78144778152E+03  0.86545692795E+03  0.00000000000E+00 0.  1.
          2    1    6    6  502    0  0.22014519201E+02 -0.34474912772E+02 -0.15669440806E+03  0.16194534937E+03  0.00000000000E+00 0. -1.
          3    1    5    5  503    0  0.23837835692E+03 -0.85715443214E+02  0.16664989280E+03  0.30322197318E+03  0.00000000000E+00 0. -1.
         -4    1    5    5    0  503  0.57188598064E+03 -0.13411257701E+03  0.27237966565E+03  0.64748006952E+03  0.00000000000E+00 0.  1.
         -1    1    6    6    0  502 -0.50494092268E+02 -0.97786014190E+01 -0.10954181137E+03  0.12101521738E+03  0.00000000000E+00 0.  1.
<mgrwt>
<rscale>  0 0.28108918E+04</rscale>
<asrwt>0</asrwt>
<pdfrwt beam="1">  1        2 0.38428355E+00 0.28108918E+04</pdfrwt>
<pdfrwt beam="2">  1       -2 0.12166055E+00 0.28108918E+04</pdfrwt>
<totfact> 0.15570552E+00</totfact>
</mgrwt>
</event>
<event>
12    1  0.1097093E-007  0.1966117E+04  0.7818608E-02  0.8622628E-01
          1   -1    0    0  501    0  0.00000000000E+00  0.00000000000E+00  0.12892960469E+04  0.12892960469E+04  0.00000000000E+00 0. -1.
         -1   -1    0    0    0  501 -0.00000000000E+00 -0.00000000000E+00 -0.74955976630E+03  0.74955976630E+03  0.00000000000E+00 0.  1.
         23    2    1    2    0    0  0.53962479655E+03  0.13426852270E+03  0.77320746085E+03  0.95680268650E+03  0.91644127752E+02 0.  0.
        254    2    1    2    0    0 -0.53962479655E+03 -0.13426852270E+03 -0.23347118024E+03  0.10820531267E+04  0.89839146242E+03 0.  0.
        -24    2    4    4    0    0 -0.47054687743E+03 -0.27453962864E+03 -0.51300449510E+03  0.75260301840E+03  0.80320108049E+02 0.  0.
         24    2    4    4    0    0 -0.69077919117E+02  0.14027110593E+03  0.27953331486E+03  0.32945010829E+03  0.77141154190E+02 0.  0.
         11    1    3    3    0    0  0.17400710673E+03  0.86523339445E+02  0.28673210597E+03  0.34638138237E+03  0.00000000000E+00 0.  1.
        -11    1    3    3    0    0  0.36561768982E+03  0.47745183258E+02  0.48647535488E+03  0.61042130413E+03  0.00000000000E+00 0. -1.
          2    1    6    6  502    0 -0.45004195296E+02  0.42325052719E+02  0.52701213267E+02  0.81204713913E+02  0.00000000000E+00 0. -1.
          1    1    5    5  503    0 -0.93348009016E+02 -0.24157792611E+02 -0.11222494333E+03  0.14795907420E+03  0.00000000000E+00 0. -1.
         -2    1    5    5    0  503 -0.37719886842E+03 -0.25038183602E+03 -0.40077955177E+03  0.60464394421E+03  0.00000000000E+00 0.  1.
         -1    1    6    6    0  502 -0.24073723822E+02  0.97946053213E+02  0.22683210159E+03  0.24824539438E+03  0.00000000000E+00 0.  1.
<mgrwt>
<rscale>  0 0.19661174E+04</rscale>
<asrwt>0</asrwt>
<pdfrwt beam="1">  1        1 0.19835324E+00 0.19661174E+04</pdfrwt>
<pdfrwt beam="2">  1       -1 0.11531689E+00 0.19661174E+04</pdfrwt>
<totfact> 0.58410200E+00</totfact>
</mgrwt>
</event>
<event>
12    1  0.1097093E-007  0.1555374E+04  0.7818608E-02  0.8848442E-01
          2   -1    0    0  501    0  0.00000000000E+00  0.00000000000E+00  0.12383173785E+04  0.12383173785E+04  0.00000000000E+00 0. -1.
         -2   -1    0    0    0  501 -0.00000000000E+00 -0.00000000000E+00 -0.48840229518E+03  0.48840229518E+03  0.00000000000E+00 0.  1.
         23    2    1    2    0    0  0.40238654456E+03  0.63026910784E+02  0.59514851209E+03  0.72681216793E+03  0.90370643920E+02 0.  0.
        254    2    1    2    0    0 -0.40238654456E+03 -0.63026910784E+02  0.15476657124E+03  0.99990750577E+03  0.89998611422E+03 0.  0.
        -24    2    4    4    0    0 -0.56829686515E+03  0.24897547750E+03  0.10551996833E+03  0.63450242335E+03  0.80676800798E+02 0.  0.
         24    2    4    4    0    0  0.16591032059E+03 -0.31200238829E+03  0.49246602907E+02  0.36540508242E+03  0.78891834706E+02 0.  0.
         13    1    3    3    0    0  0.80213937624E+02  0.59508294521E+01  0.63194269497E+02  0.10228980329E+03  0.00000000000E+00 0.  1.
        -13    1    3    3    0    0  0.32217260693E+03  0.57076081332E+02  0.53195424259E+03  0.62452236464E+03  0.00000000000E+00 0. -1.
          2    1    6    6  502    0  0.14710619310E+03 -0.20275773537E+03  0.23485496884E+02  0.25159988049E+03  0.00000000000E+00 0. -1.
          1    1    5    5  503    0 -0.42965714814E+03  0.22285387878E+03  0.93016408463E+02  0.49287033637E+03  0.00000000000E+00 0. -1.
         -2    1    5    5    0  503 -0.13863971701E+03  0.26121598726E+02  0.12503559865E+02  0.14163208698E+03  0.00000000000E+00 0.  1.
         -1    1    6    6    0  502  0.18804127493E+02 -0.10924465291E+03  0.25761106023E+02  0.11380520192E+03  0.00000000000E+00 0.  1.
<mgrwt>
<rscale>  0 0.15553740E+04</rscale>
<asrwt>0</asrwt>
<pdfrwt beam="1">  1        2 0.19051036E+00 0.15553740E+04</pdfrwt>
<pdfrwt beam="2">  1       -2 0.75138815E-01 0.15553740E+04</pdfrwt>
<totfact> 0.27501093E+01</totfact>
</mgrwt>
</event>
<event>
12    1  0.1097093E-007  0.1184118E+04  0.7818608E-02  0.9126873E-01
          2   -1    0    0  501    0  0.00000000000E+00  0.00000000000E+00  0.10777675662E+04  0.10777675662E+04  0.00000000000E+00 0. -1.
         -2   -1    0    0    0  501 -0.00000000000E+00 -0.00000000000E+00 -0.32524056431E+03  0.32524056431E+03  0.00000000000E+00 0.  1.
         23    2    1    2    0    0 -0.17251344630E+03  0.11370351663E+03  0.51333799725E+02  0.23151715565E+03  0.90970629969E+02 0.  0.
        254    2    1    2    0    0  0.17251344630E+03 -0.11370351663E+03  0.70119320221E+03  0.11714909749E+04  0.91543968595E+03 0.  0.
        -24    2    4    4    0    0  0.30708424645E+03  0.24145147922E+03  0.34921478443E+02  0.40031920552E+03  0.80227211173E+02 0.  0.
         24    2    4    4    0    0 -0.13457080015E+03 -0.35515499585E+03  0.66627172377E+03  0.77117176939E+03  0.80892006270E+02 0.  0.
         13    1    3    3    0    0 -0.76006392024E+02  0.41436811738E+02 -0.23391365220E+02  0.89672386845E+02  0.00000000000E+00 0. -1.
        -13    1    3    3    0    0 -0.96507054275E+02  0.72266704892E+02  0.74725164945E+02  0.14184476880E+03  0.00000000000E+00 0.  1.
          4    1    6    6  502    0 -0.32204717063E+00 -0.97483759679E+02  0.15484668677E+03  0.18297727597E+03  0.00000000000E+00 0. -1.
          3    1    5    5  503    0  0.37107363277E+02  0.18017796810E+02 -0.19583725895E+02  0.45663111273E+02  0.00000000000E+00 0. -1.
         -4    1    5    5    0  503  0.26997688317E+03  0.22343368241E+03  0.54505204337E+02  0.35465609424E+03  0.00000000000E+00 0.  1.
         -3    1    6    6    0  502 -0.13424875298E+03 -0.25767123617E+03  0.51142503699E+03  0.58819449342E+03  0.00000000000E+00 0.  1.
<mgrwt>
<rscale>  0 0.11841178E+04</rscale>
<asrwt>0</asrwt>
<pdfrwt beam="1">  1        2 0.16581039E+00 0.11841178E+04</pdfrwt>
<pdfrwt beam="2">  1       -2 0.50037010E-01 0.11841178E+04</pdfrwt>
<totfact> 0.83916398E+01</totfact>
</mgrwt>
</event>
<event>
12    1  0.1097093E-007  0.2211586E+04  0.7818608E-02  0.8513621E-01
          2   -1    0    0  501    0  0.00000000000E+00  0.00000000000E+00  0.12578831920E+04  0.12578831920E+04  0.00000000000E+00 0. -1.
         -2   -1    0    0    0  501 -0.00000000000E+00 -0.00000000000E+00 -0.97209181607E+03  0.97209181607E+03  0.00000000000E+00 0.  1.
         23    2    1    2    0    0 -0.19484424343E+03 -0.77763855749E+03 -0.33833305090E+03  0.87488091818E+03  0.90892036852E+02 0.  0.
        254    2    1    2    0    0  0.19484424343E+03  0.77763855749E+03  0.62412442689E+03  0.13550940899E+04  0.89669542603E+03 0.  0.
        -24    2    4    4    0    0  0.52849691920E+03  0.29679718477E+03  0.29530017905E+03  0.67900558403E+03  0.80304575863E+02 0.  0.
         24    2    4    4    0    0 -0.33365267577E+03  0.48084137272E+03  0.32882424784E+03  0.67608850591E+03  0.80235578650E+02 0.  0.
         13    1    3    3    0    0 -0.26224045641E+02 -0.27154147404E+03 -0.99132673399E+02  0.29025809141E+03  0.00000000000E+00 0. -1.
        -13    1    3    3    0    0 -0.16862019779E+03 -0.50609708345E+03 -0.23920037751E+03  0.58462282677E+03  0.00000000000E+00 0.  1.
          2    1    6    6  502    0 -0.23706067043E+03  0.35303096653E+03  0.27786655212E+03  0.50797484739E+03  0.00000000000E+00 0. -1.
          1    1    5    5  503    0  0.46114889837E+03  0.25901532089E+03  0.28583372851E+03  0.60120559153E+03  0.00000000000E+00 0. -1.
         -2    1    5    5    0  503  0.67348020830E+02  0.37781863877E+02  0.94664505334E+01  0.77799992503E+02  0.00000000000E+00 0.  1.
         -1    1    6    6    0  502 -0.96592005340E+02  0.12781040619E+03  0.50957695719E+02  0.16811365852E+03  0.00000000000E+00 0.  1.
<mgrwt>
<rscale>  0 0.22115858E+04</rscale>
<asrwt>0</asrwt>
<pdfrwt beam="1">  1        2 0.19352049E+00 0.22115858E+04</pdfrwt>
<pdfrwt beam="2">  1       -2 0.14955259E+00 0.22115858E+04</pdfrwt>
<totfact> 0.48265031E+00</totfact>
</mgrwt>
</event>
<event>
12    1  0.1097093E-007  0.1413781E+04  0.7818608E-02  0.8943903E-01
         -2   -1    0    0    0  501 -0.00000000000E+00  0.00000000000E+00  0.14162177556E+03  0.14162177556E+03  0.00000000000E+00 0.  1.
          2   -1    0    0  501    0  0.00000000000E+00 -0.00000000000E+00 -0.35283720751E+04  0.35283720751E+04  0.00000000000E+00 0. -1.
         23    2    1    2    0    0  0.22949553448E+02  0.33771472023E+03 -0.41019781600E+03  0.54033672289E+03  0.95517598306E+02 0.  0.
        254    2    1    2    0    0 -0.22949553448E+02 -0.33771472023E+03 -0.29765524835E+04  0.31296571277E+04  0.90571029360E+03 0.  0.
        -24    2    4    4    0    0  0.30427725551E+03 -0.44733331282E+03 -0.12077603467E+04  0.13256773559E+04  0.77740953185E+02 0.  0.
         24    2    4    4    0    0 -0.32722680895E+03  0.10961859259E+03 -0.17687921368E+04  0.18039797719E+04  0.81386570259E+02 0.  0.
         11    1    3    3    0    0  0.12361759531E+02  0.30391781880E+03 -0.31104834826E+03  0.43505163905E+03  0.00000000000E+00 0.  1.
        -11    1    3    3    0    0  0.10587793917E+02  0.33796901432E+02 -0.99149467737E+02  0.10528508384E+03  0.00000000000E+00 0. -1.
          2    1    6    6  502    0 -0.18781046208E+03  0.49673231088E+02 -0.79251698012E+03  0.81598000179E+03  0.00000000000E+00 0. -1.
          3    1    5    5  503    0  0.14602535591E+03 -0.19851827547E+03 -0.64216136782E+03  0.68782565566E+03  0.00000000000E+00 0. -1.
         -4    1    5    5    0  503  0.15825189960E+03 -0.24881503735E+03 -0.56559897888E+03  0.63785170020E+03  0.00000000000E+00 0.  1.
         -1    1    6    6    0  502 -0.13941634688E+03  0.59945361497E+02 -0.97627515667E+03  0.98799977008E+03  0.00000000000E+00 0.  1.
<mgrwt>
<rscale>  0 0.14137812E+04</rscale>
<asrwt>0</asrwt>
<pdfrwt beam="1">  1        2 0.54282645E+00 0.14137812E+04</pdfrwt>
<pdfrwt beam="2">  1       -2 0.21787966E-01 0.14137812E+04</pdfrwt>
<totfact> 0.14111240E+01</totfact>
</mgrwt>
</event>
<event>
12    1  0.1097093E-007  0.1287223E+04  0.7818608E-02  0.9039759E-01
         -2   -1    0    0    0  501 -0.00000000000E+00  0.00000000000E+00  0.42462051658E+03  0.42462051658E+03  0.00000000000E+00 0.  1.
          2   -1    0    0  501    0  0.00000000000E+00 -0.00000000000E+00 -0.97554391989E+03  0.97554391989E+03  0.00000000000E+00 0. -1.
         23    2    1    2    0    0  0.27385768578E+02 -0.10151921351E+03 -0.46409140073E+03  0.48482023216E+03  0.92810011529E+02 0.  0.
        254    2    1    2    0    0 -0.27385768578E+02  0.10151921351E+03 -0.86832002573E+02  0.91534420432E+03  0.90512931931E+03 0.  0.
        -24    2    4    4    0    0 -0.39801423456E+03  0.25115771961E+03  0.60462532407E+02  0.48147175608E+03  0.81632120140E+02 0.  0.
         24    2    4    4    0    0  0.37062846599E+03 -0.14963850610E+03 -0.14729453498E+03  0.43387244824E+03  0.82416497150E+02 0.  0.
         11    1    3    3    0    0  0.10657298692E+02 -0.10552313053E+01 -0.22095203764E+03  0.22121142481E+03  0.00000000000E+00 0.  1.
        -11    1    3    3    0    0  0.16728469886E+02 -0.10046398221E+03 -0.24313936310E+03  0.26360880735E+03  0.00000000000E+00 0. -1.
          2    1    6    6  502    0  0.33748073067E+03 -0.14884959033E+03 -0.11207302923E+03  0.38549942671E+03  0.00000000000E+00 0. -1.
          3    1    5    5  503    0 -0.32376701642E+03  0.21543620682E+03  0.19308360231E+02  0.38937212652E+03  0.00000000000E+00 0. -1.
         -4    1    5    5    0  503 -0.74247218141E+02  0.35721512790E+02  0.41154172176E+02  0.92099629561E+02  0.00000000000E+00 0.  1.
         -1    1    6    6    0  502  0.33147735319E+02 -0.78891576754E+00 -0.35221505750E+02  0.48373021532E+02  0.00000000000E+00 0.  1.
<mgrwt>
<rscale>  0 0.12872233E+04</rscale>
<asrwt>0</asrwt>
<pdfrwt beam="1">  1        2 0.15008368E+00 0.12872233E+04</pdfrwt>
<pdfrwt beam="2">  1       -2 0.65326234E-01 0.12872233E+04</pdfrwt>
<totfact> 0.55362121E+01</totfact>
</mgrwt>
</event>
<event>
12    1  0.1097093E-007  0.4302566E+04  0.7818608E-02  0.7946144E-01
          2   -1    0    0  501    0  0.00000000000E+00  0.00000000000E+00  0.22578220958E+04  0.22578220958E+04  0.00000000000E+00 0. -1.
         -2   -1    0    0    0  501 -0.00000000000E+00 -0.00000000000E+00 -0.20497706667E+04  0.20497706667E+04  0.00000000000E+00 0.  1.
         23    2    1    2    0    0 -0.17489420911E+04  0.10723133080E+04  0.24031562327E+03  0.20677486635E+04  0.95805363570E+02 0.  0.
        254    2    1    2    0    0  0.17489420911E+04 -0.10723133080E+04 -0.32264194243E+02  0.22398440990E+04  0.89844662664E+03 0.  0.
        -24    2    4    4    0    0  0.17383191200E+04 -0.11575269069E+04  0.62983690929E+02  0.20909046422E+04  0.79330790333E+02 0.  0.
         24    2    4    4    0    0  0.10622971138E+02  0.85213598875E+02 -0.95247885173E+02  0.14893945681E+03  0.75740327544E+02 0.  0.
         11    1    3    3    0    0 -0.72168800434E+03  0.39678753419E+03  0.70021724243E+02  0.82654519826E+03  0.00000000000E+00 0. -1.
        -11    1    3    3    0    0 -0.10272540868E+04  0.67552577384E+03  0.17029389903E+03  0.12412034652E+04  0.00000000000E+00 0.  1.
          4    1    6    6  502    0  0.64849014415E+01 -0.63144863088E+01 -0.42008872137E+02  0.42972921966E+02  0.00000000000E+00 0. -1.
          1    1    5    5  503    0  0.44621914688E+03 -0.25614898333E+03  0.17423135991E+02  0.51480811413E+03  0.00000000000E+00 0. -1.
         -2    1    5    5    0  503  0.12920999731E+04 -0.90137792358E+03  0.45560554938E+02  0.15760965281E+04  0.00000000000E+00 0.  1.
         -3    1    6    6    0  502  0.41380696969E+01  0.91528085183E+02 -0.53239013036E+02  0.10596653485E+03  0.00000000000E+00 0.  1.
<mgrwt>
<rscale>  0 0.43025655E+04</rscale>
<asrwt>0</asrwt>
<pdfrwt beam="1">  1        2 0.34735725E+00 0.43025655E+04</pdfrwt>
<pdfrwt beam="2">  1       -2 0.31534933E+00 0.43025655E+04</pdfrwt>
<totfact> 0.94333791E-02</totfact>
</mgrwt>
</event>
<event>
12    1  0.1097093E-007  0.1737072E+04  0.7818608E-02  0.8740499E-01
         -1   -1    0    0    0  501 -0.00000000000E+00  0.00000000000E+00  0.13582861225E+04  0.13582861225E+04  0.00000000000E+00 0.  1.
          1   -1    0    0  501    0  0.00000000000E+00 -0.00000000000E+00 -0.55537273927E+03  0.55537273927E+03  0.00000000000E+00 0. -1.
         23    2    1    2    0    0  0.68139226383E+02 -0.18205454840E+03 -0.36650583028E+03  0.42476095249E+03  0.91151140252E+02 0.  0.
        254    2    1    2    0    0 -0.68139226383E+02  0.18205454840E+03  0.11694192135E+04  0.14888979093E+04  0.90082677281E+03 0.  0.
        -24    2    4    4    0    0 -0.40271930560E+03  0.16767449196E+03  0.10228700408E+04  0.11147274367E+04  0.77823925608E+02 0.  0.
         24    2    4    4    0    0  0.33458007922E+03  0.14380056440E+02  0.14654917274E+03  0.37417047262E+03  0.79851531703E+02 0.  0.
         13    1    3    3    0    0  0.45355722007E+02 -0.16702496397E+03 -0.35538427141E+03  0.39528781979E+03  0.00000000000E+00 0. -1.
        -13    1    3    3    0    0  0.22783504376E+02 -0.15029584428E+02 -0.11121558870E+02  0.29473132705E+02  0.00000000000E+00 0.  1.
          2    1    6    6  502    0  0.27473585891E+03  0.50012472119E+01  0.15081002099E+03  0.31344611511E+03  0.00000000000E+00 0. -1.
          3    1    5    5  503    0 -0.40201578691E+03  0.17209000999E+03  0.10001718194E+04  0.10915930253E+04  0.00000000000E+00 0. -1.
         -4    1    5    5    0  503 -0.70351869892E+00 -0.44155180368E+01  0.22698221386E+02  0.23134411430E+02  0.00000000000E+00 0.  1.
         -1    1    6    6    0  502  0.59844220313E+02  0.93788092283E+01 -0.42608482566E+01  0.60724357513E+02  0.00000000000E+00 0.  1.
<mgrwt>
<rscale>  0 0.17370723E+04</rscale>
<asrwt>0</asrwt>
<pdfrwt beam="1">  1        1 0.85441960E-01 0.17370723E+04</pdfrwt>
<pdfrwt beam="2">  1       -1 0.20896709E+00 0.17370723E+04</pdfrwt>
<totfact> 0.47413259E+00</totfact>
</mgrwt>
</event>
<event>
12    1  0.1097093E-007  0.2883161E+04  0.7818608E-02  0.8277905E-01
         -2   -1    0    0    0  501 -0.00000000000E+00  0.00000000000E+00  0.10513262964E+04  0.10513262964E+04  0.00000000000E+00 0.  1.
          2   -1    0    0  501    0  0.00000000000E+00 -0.00000000000E+00 -0.19766982618E+04  0.19766982618E+04  0.00000000000E+00 0. -1.
         23    2    1    2    0    0 -0.76664039655E+03  0.97730275248E+03 -0.19081034111E+02  0.12468285067E+04  0.10657894531E+03 0.  0.
        254    2    1    2    0    0  0.76664039655E+03 -0.97730275248E+03 -0.90629093133E+03  0.17811960515E+04  0.89913177786E+03 0.  0.
        -24    2    4    4    0    0  0.94318244768E+03 -0.67065679147E+03 -0.60452094851E+03  0.13080926867E+04  0.79292106584E+02 0.  0.
         24    2    4    4    0    0 -0.17654205113E+03 -0.30664596101E+03 -0.30176998282E+03  0.47310336481E+03  0.86964533241E+02 0.  0.
         13    1    3    3    0    0 -0.36173607720E+03  0.46964729699E+03 -0.62090365625E+02  0.59605099331E+03  0.00000000000E+00 0.  1.
        -13    1    3    3    0    0 -0.40490431934E+03  0.50765545549E+03  0.43009331514E+02  0.65077751337E+03  0.00000000000E+00 0. -1.
          4    1    6    6  502    0 -0.65575373041E+02 -0.19917083106E+03 -0.16608310979E+03  0.26749345572E+03  0.00000000000E+00 0. -1.
          3    1    5    5  503    0  0.34340066772E+03 -0.21892002439E+03 -0.17703581504E+03  0.44406269318E+03  0.00000000000E+00 0. -1.
         -4    1    5    5    0  503  0.59978177997E+03 -0.45173676708E+03 -0.42748513347E+03  0.86402999348E+03  0.00000000000E+00 0.  1.
         -3    1    6    6    0  502 -0.11096667809E+03 -0.10747512995E+03 -0.13568687303E+03  0.20560990909E+03  0.00000000000E+00 0.  1.
<mgrwt>
<rscale>  0 0.28831614E+04</rscale>
<asrwt>0</asrwt>
<pdfrwt beam="1">  1        2 0.30410742E+00 0.28831614E+04</pdfrwt>
<pdfrwt beam="2">  1       -2 0.16174251E+00 0.28831614E+04</pdfrwt>
<totfact> 0.14550148E+00</totfact>
</mgrwt>
</event>
<event>
12    1  0.1097093E-007  0.1779222E+04  0.7818608E-02  0.8717428E-01
         -1   -1    0    0    0  501 -0.00000000000E+00  0.00000000000E+00  0.13142183774E+04  0.13142183774E+04  0.00000000000E+00 0.  1.
          1   -1    0    0  501    0  0.00000000000E+00 -0.00000000000E+00 -0.60218868222E+03  0.60218868222E+03  0.00000000000E+00 0. -1.
         23    2    1    2    0    0 -0.62864567187E+02 -0.65498526467E+03  0.31720748506E+03  0.73752875977E+03  0.10183531881E+03 0.  0.
        254    2    1    2    0    0  0.62864567187E+02  0.65498526467E+03  0.39482221011E+03  0.11788782998E+04  0.89493676731E+03 0.  0.
        -24    2    4    4    0    0 -0.26072648128E+03  0.62195905369E+03  0.23824403990E+02  0.67944414395E+03  0.79154153481E+02 0.  0.
         24    2    4    4    0    0  0.32359104847E+03  0.33026210982E+02  0.37099780612E+03  0.49943415589E+03  0.77415803676E+02 0.  0.
         11    1    3    3    0    0  0.14949287074E+02 -0.34262350437E+03  0.18350922213E+03  0.38896012847E+03  0.00000000000E+00 0. -1.
        -11    1    3    3    0    0 -0.77813854261E+02 -0.31236176030E+03  0.13369826293E+03  0.34856863129E+03  0.00000000000E+00 0.  1.
          4    1    6    6  502    0  0.78861120155E+02  0.19346408673E+02  0.14421136583E+03  0.16550008410E+03  0.00000000000E+00 0. -1.
          1    1    5    5  503    0 -0.65676909792E+02  0.24749701439E+03  0.24453385908E+02  0.25722790808E+03  0.00000000000E+00 0. -1.
         -2    1    5    5    0  503 -0.19504957149E+03  0.37446203930E+03 -0.62898191870E+00  0.42221623587E+03  0.00000000000E+00 0.  1.
         -3    1    6    6    0  502  0.24472992831E+03  0.13679802308E+02  0.22678644029E+03  0.33393407179E+03  0.00000000000E+00 0.  1.
<mgrwt>
<rscale>  0 0.17792217E+04</rscale>
<asrwt>0</asrwt>
<pdfrwt beam="1">  1        1 0.92644413E-01 0.17792217E+04</pdfrwt>
<pdfrwt beam="2">  1       -1 0.20218744E+00 0.17792217E+04</pdfrwt>
<totfact> 0.46806370E+00</totfact>
</mgrwt>
</event>
<event>
12    1  0.1097093E-007  0.1658074E+04  0.7818608E-02  0.8785644E-01
         -2   -1    0    0    0  501 -0.00000000000E+00  0.00000000000E+00  0.17832786516E+03  0.17832786516E+03  0.00000000000E+00 0. -1.
          2   -1    0    0  501    0  0.00000000000E+00 -0.00000000000E+00 -0.38541482561E+04  0.38541482561E+04  0.00000000000E+00 0.  1.
         23    2    1    2    0    0  0.55798165624E+03 -0.35425148879E+02 -0.93047023753E+03  0.10892936177E+04  0.90483438839E+02 0.  0.
        254    2    1    2    0    0 -0.55798165624E+03  0.35425148879E+02 -0.27453501534E+04  0.29431825036E+04  0.90154163228E+03 0.  0.
        -24    2    4    4    0    0 -0.25795594246E+03 -0.41526793500E+03 -0.15771177902E+04  0.16526323839E+04  0.70032463353E+02 0.  0.
         24    2    4    4    0    0 -0.30002571378E+03  0.45069308388E+03 -0.11682323632E+04  0.12905501197E+04  0.87252921469E+02 0.  0.
         11    1    3    3    0    0  0.45344708017E+03 -0.12121779983E+01 -0.78996182233E+03  0.91085421700E+03  0.00000000000E+00 0. -1.
        -11    1    3    3    0    0  0.10453457607E+03 -0.34212970881E+02 -0.14050841520E+03  0.17843940068E+03  0.00000000000E+00 0.  1.
          2    1    6    6  502    0 -0.13308621075E+03  0.12709290899E+03 -0.37352078736E+03  0.41639203354E+03  0.00000000000E+00 0. -1.
          3    1    5    5  503    0 -0.56097208617E+01 -0.23554521994E+02 -0.43430375081E+02  0.49724058103E+02  0.00000000000E+00 0. -1.
         -4    1    5    5    0  503 -0.25234622160E+03 -0.39171341300E+03 -0.15336874151E+04  0.16029083258E+04  0.00000000000E+00 0.  1.
         -1    1    6    6    0  502 -0.16693950302E+03  0.32360017489E+03 -0.79471157584E+03  0.87415808618E+03  0.00000000000E+00 0.  1.
<mgrwt>
<rscale>  0 0.16580736E+04</rscale>
<asrwt>0</asrwt>
<pdfrwt beam="1">  1        2 0.59294586E+00 0.16580736E+04</pdfrwt>
<pdfrwt beam="2">  1       -2 0.27435058E-01 0.16580736E+04</pdfrwt>
<totfact> 0.52401418E+00</totfact>
</mgrwt>
</event>
<event>
12    1  0.1097093E-007  0.2301198E+04  0.7818608E-02  0.8477449E-01
          2   -1    0    0  501    0  0.00000000000E+00  0.00000000000E+00  0.67735464375E+03  0.67735464375E+03  0.00000000000E+00 0. -1.
         -2   -1    0    0    0  501 -0.00000000000E+00 -0.00000000000E+00 -0.19544821459E+04  0.19544821459E+04  0.00000000000E+00 0.  1.
         23    2    1    2    0    0  0.66221045900E+03 -0.34850472716E+03 -0.12505806208E+04  0.14601800877E+04  0.90530449672E+02 0.  0.
        254    2    1    2    0    0 -0.66221045900E+03  0.34850472716E+03 -0.26546881326E+02  0.11716567020E+04  0.90116394381E+03 0.  0.
        -24    2    4    4    0    0 -0.10837927889E+03  0.34048113668E+03  0.34239645246E+03  0.50149415742E+03  0.81163949746E+02 0.  0.
         24    2    4    4    0    0 -0.55383118010E+03  0.80235904808E+01 -0.36894333379E+03  0.67016254460E+03  0.78773717564E+02 0.  0.
         13    1    3    3    0    0  0.12167819844E+03 -0.40592373938E+02 -0.27000643852E+03  0.29892608056E+03  0.00000000000E+00 0. -1.
        -13    1    3    3    0    0  0.54053226055E+03 -0.30791235322E+03 -0.98057418232E+03  0.11612540071E+04  0.00000000000E+00 0.  1.
          4    1    6    6  502    0 -0.21939021807E+03  0.41716057865E+02 -0.14902409245E+03  0.26847807620E+03  0.00000000000E+00 0. -1.
          1    1    5    5  503    0 -0.34404778475E+02  0.50144844596E+02  0.95702403678E+02  0.11338934823E+03  0.00000000000E+00 0. -1.
         -2    1    5    5    0  503 -0.73974500418E+02  0.29033629208E+03  0.24669404878E+03  0.38810480919E+03  0.00000000000E+00 0.  1.
         -1    1    6    6    0  502 -0.33444096203E+03 -0.33692467384E+02 -0.21991924134E+03  0.40168446840E+03  0.00000000000E+00 0.  1.
<mgrwt>
<rscale>  0 0.23011976E+04</rscale>
<asrwt>0</asrwt>
<pdfrwt beam="1">  1        2 0.10420841E+00 0.23011976E+04</pdfrwt>
<pdfrwt beam="2">  1       -2 0.30068955E+00 0.23011976E+04</pdfrwt>
<totfact> 0.12191527E+00</totfact>
</mgrwt>
</event>
<event>
12    1  0.1097093E-007  0.1939161E+04  0.7818608E-02  0.8635605E-01
         -1   -1    0    0    0  501 -0.00000000000E+00  0.00000000000E+00  0.48272082952E+03  0.48272082952E+03  0.00000000000E+00 0.  1.
          1   -1    0    0  501    0  0.00000000000E+00 -0.00000000000E+00 -0.19474738798E+04  0.19474738798E+04  0.00000000000E+00 0. -1.
         23    2    1    2    0    0 -0.46333130937E+03 -0.56202924347E+03 -0.85561735982E+03  0.11273590307E+04  0.91129275521E+02 0.  0.
        254    2    1    2    0    0  0.46333130937E+03  0.56202924347E+03 -0.60913569046E+03  0.13028356787E+04  0.89206599724E+03 0.  0.
        -24    2    4    4    0    0  0.28762922108E+02  0.51510393278E+03 -0.67512212075E+03  0.85376228829E+03  0.83431407329E+02 0.  0.
         24    2    4    4    0    0  0.43456838726E+03  0.46925310687E+02  0.65986430281E+02  0.44907339037E+03  0.79126689317E+02 0.  0.
         13    1    3    3    0    0 -0.29625480225E+03 -0.36666189976E+03 -0.48521292486E+03  0.67649053138E+03  0.00000000000E+00 0. -1.
        -13    1    3    3    0    0 -0.16707650712E+03 -0.19536734371E+03 -0.37040443496E+03  0.45086849930E+03  0.00000000000E+00 0.  1.
          2    1    6    6  502    0  0.33741489024E+03  0.45577085987E+02  0.82956954887E+02  0.35043963144E+03  0.00000000000E+00 0. -1.
          3    1    5    5  503    0 -0.45943477373E+00  0.29566211924E+03 -0.44654462935E+03  0.53555429775E+03  0.00000000000E+00 0. -1.
         -4    1    5    5    0  503  0.29222356881E+02  0.21944181354E+03 -0.22857749139E+03  0.31820799054E+03  0.00000000000E+00 0.  1.
         -1    1    6    6    0  502  0.97153497029E+02  0.13482247006E+01 -0.16970524606E+02  0.98633758927E+02  0.00000000000E+00 0.  1.
<mgrwt>
<rscale>  0 0.19391609E+04</rscale>
<asrwt>0</asrwt>
<pdfrwt beam="1">  1        1 0.29961137E+00 0.19391609E+04</pdfrwt>
<pdfrwt beam="2">  1       -1 0.74264742E-01 0.19391609E+04</pdfrwt>
<totfact> 0.55054027E+00</totfact>
</mgrwt>
</event>
<event>
12    1  0.1097093E-007  0.1483386E+04  0.7818608E-02  0.8895577E-01
         -1   -1    0    0    0  501 -0.00000000000E+00  0.00000000000E+00  0.27934806318E+03  0.27934806318E+03  0.00000000000E+00 0.  1.
          1   -1    0    0  501    0  0.00000000000E+00 -0.00000000000E+00 -0.19692586492E+04  0.19692586492E+04  0.00000000000E+00 0. -1.
         23    2    1    2    0    0 -0.13592939637E+03 -0.19024653679E+03  0.65860739100E+02  0.26321470680E+03  0.10135975219E+03 0.  0.
        254    2    1    2    0    0  0.13592939637E+03  0.19024653679E+03 -0.17557713252E+04  0.19853920056E+04  0.89687118593E+03 0.  0.
        -24    2    4    4    0    0 -0.24594321962E+03  0.19089613488E+03 -0.14608978144E+04  0.14958733106E+04  0.80530340306E+02 0.  0.
         24    2    4    4    0    0  0.38187261599E+03 -0.64959808808E+00 -0.29487351076E+03  0.48951869500E+03  0.82771061278E+02 0.  0.
         13    1    3    3    0    0 -0.20770413350E+02 -0.71976190682E+00 -0.16611720992E+02  0.26605965539E+02  0.00000000000E+00 0. -1.
        -13    1    3    3    0    0 -0.11515898302E+03 -0.18952677488E+03  0.82472460092E+02  0.23660874126E+03  0.00000000000E+00 0.  1.
          4    1    6    6  502    0  0.40150907245E+02 -0.16226857788E+02 -0.62281469083E+02  0.75857680280E+02  0.00000000000E+00 0. -1.
          3    1    5    5  503    0 -0.48381488346E+02  0.53491424291E+02 -0.50623120601E+03  0.51134346072E+03  0.00000000000E+00 0. -1.
         -4    1    5    5    0  503 -0.19756173127E+03  0.13740471059E+03 -0.95466660839E+03  0.98452984990E+03  0.00000000000E+00 0.  1.
         -3    1    6    6    0  502  0.34172170874E+03  0.15577259700E+02 -0.23259204168E+03  0.41366101472E+03  0.00000000000E+00 0.  1.
<mgrwt>
<rscale>  0 0.14833861E+04</rscale>
<asrwt>0</asrwt>
<pdfrwt beam="1">  1        1 0.30296287E+00 0.14833861E+04</pdfrwt>
<pdfrwt beam="2">  1       -1 0.42976626E-01 0.14833861E+04</pdfrwt>
<totfact> 0.16169366E+01</totfact>
</mgrwt>
</event>
<event>
12    1  0.1097093E-007  0.1312250E+04  0.7818608E-02  0.9019907E-01
          2   -1    0    0  501    0  0.00000000000E+00  0.00000000000E+00  0.20929158012E+04  0.20929158012E+04  0.00000000000E+00 0. -1.
         -2   -1    0    0    0  501 -0.00000000000E+00 -0.00000000000E+00 -0.20569379449E+03  0.20569379449E+03  0.00000000000E+00 0.  1.
         23    2    1    2    0    0 -0.29154683587E+03 -0.16520253343E+03  0.52266779717E+03  0.62799317264E+03  0.94352340323E+02 0.  0.
        254    2    1    2    0    0  0.29154683587E+03  0.16520253343E+03  0.13645542096E+04  0.16706164231E+04  0.90369220848E+03 0.  0.
        -24    2    4    4    0    0  0.56701903607E+03  0.68353172334E-02  0.11231279960E+04  0.12607177134E+04  0.80511304642E+02 0.  0.
         24    2    4    4    0    0 -0.27547220020E+03  0.16519569811E+03  0.24142621352E+03  0.40989870964E+03  0.80967795042E+02 0.  0.
         13    1    3    3    0    0 -0.20784447137E+03 -0.15763337693E+03  0.42957172266E+03  0.50257285115E+03  0.00000000000E+00 0. -1.
        -13    1    3    3    0    0 -0.83702364507E+02 -0.75691564956E+01  0.93096074508E+02  0.12542032149E+03  0.00000000000E+00 0.  1.
          4    1    6    6  502    0 -0.26390946663E+03  0.13003359862E+03  0.21632046227E+03  0.36517322704E+03  0.00000000000E+00 0. -1.
          1    1    5    5  503    0  0.54180175532E+03  0.15735684400E+02  0.10467970683E+04  0.11788048422E+04  0.00000000000E+00 0. -1.
         -2    1    5    5    0  503  0.25217280745E+02 -0.15728849082E+02  0.76330927758E+02  0.81912871235E+02  0.00000000000E+00 0.  1.
         -3    1    6    6    0  502 -0.11562733563E+02  0.35162099491E+02  0.25105751249E+02  0.44725482601E+02  0.00000000000E+00 0.  1.
<mgrwt>
<rscale>  0 0.13122497E+04</rscale>
<asrwt>0</asrwt>
<pdfrwt beam="1">  1        2 0.32198703E+00 0.13122497E+04</pdfrwt>
<pdfrwt beam="2">  1       -2 0.31645201E-01 0.13122497E+04</pdfrwt>
<totfact> 0.53946997E+01</totfact>
</mgrwt>
</event>
<event>
12    1  0.1097093E-007  0.1519247E+04  0.7818608E-02  0.8871754E-01
          2   -1    0    0  501    0  0.00000000000E+00  0.00000000000E+00  0.20713219812E+04  0.20713219812E+04  0.00000000000E+00 0.  1.
         -2   -1    0    0    0  501 -0.00000000000E+00 -0.00000000000E+00 -0.27857956882E+03  0.27857956882E+03  0.00000000000E+00 0. -1.
         23    2    1    2    0    0 -0.40939813624E+03 -0.19776208715E+03  0.31161451450E+03  0.55869393436E+03  0.91206521589E+02 0.  0.
        254    2    1    2    0    0  0.40939813624E+03  0.19776208715E+03  0.14811278979E+04  0.17912076157E+04  0.89887051094E+03 0.  0.
        -24    2    4    4    0    0  0.63256547013E+03  0.18921249221E+03  0.13821763414E+04  0.15339744944E+04  0.82011398519E+02 0.  0.
         24    2    4    4    0    0 -0.22316733389E+03  0.85495949381E+01  0.98951556559E+02  0.25723312134E+03  0.80627003420E+02 0.  0.
         13    1    3    3    0    0 -0.11552847521E+03 -0.29778152256E+02  0.12231345530E+03  0.17086295176E+03  0.00000000000E+00 0.  1.
        -13    1    3    3    0    0 -0.29386966103E+03 -0.16798393489E+03  0.18930105919E+03  0.38783098260E+03  0.00000000000E+00 0. -1.
          2    1    6    6  502    0  0.51910181953E+01 -0.58376627708E+01 -0.31236974452E+00  0.78180912879E+01  0.00000000000E+00 0. -1.
          1    1    5    5  503    0  0.22773579329E+03  0.10597796366E+03  0.48539468997E+03  0.54653721316E+03  0.00000000000E+00 0. -1.
         -4    1    5    5    0  503  0.40482967684E+03  0.83234528546E+02  0.89678165140E+03  0.98743728119E+03  0.00000000000E+00 0.  1.
         -1    1    6    6    0  502 -0.22835835209E+03  0.14387257709E+02  0.99263926304E+02  0.24941503005E+03  0.00000000000E+00 0.  1.
<mgrwt>
<rscale>  0 0.15192472E+04</rscale>
<asrwt>0</asrwt>
<pdfrwt beam="1">  1        2 0.31866491E+00 0.15192472E+04</pdfrwt>
<pdfrwt beam="2">  1       -2 0.42858396E-01 0.15192472E+04</pdfrwt>
<totfact> 0.30376316E+01</totfact>
</mgrwt>
</event>
<event>
12    1  0.1097093E-007  0.1308499E+04  0.7818608E-02  0.9022852E-01
          1   -1    0    0  501    0  0.00000000000E+00  0.00000000000E+00  0.95468947068E+03  0.95468947068E+03  0.00000000000E+00 0. -1.
         -1   -1    0    0    0  501 -0.00000000000E+00 -0.00000000000E+00 -0.44835776608E+03  0.44835776608E+03  0.00000000000E+00 0.  1.
         23    2    1    2    0    0  0.71095943538E+02  0.92597970008E+02  0.47965048331E+03  0.50179946179E+03  0.90050521783E+02 0.  0.
        254    2    1    2    0    0 -0.71095943538E+02 -0.92597970008E+02  0.26681221288E+02  0.90124777497E+03  0.89325620461E+03 0.  0.
        -24    2    4    4    0    0 -0.32102880569E+03 -0.33278791973E+03  0.19454856685E+03  0.50778065761E+03  0.78643231026E+02 0.  0.
         24    2    4    4    0    0  0.24993286215E+03  0.24018994972E+03 -0.16786734556E+03  0.39346711735E+03  0.80493969981E+02 0.  0.
         13    1    3    3    0    0 -0.13491567441E+02 -0.81559000728E+01  0.45380664617E+02  0.48041084700E+02  0.00000000000E+00 0.  1.
        -13    1    3    3    0    0  0.84587510979E+02  0.10075387008E+03  0.43426981870E+03  0.45375837709E+03  0.00000000000E+00 0. -1.
          2    1    6    6  502    0  0.81671660964E+02  0.65567874879E+02 -0.12525216519E+02  0.10548121856E+03  0.00000000000E+00 0. -1.
          3    1    5    5  503    0 -0.20655050130E+03 -0.19285322319E+03  0.79776423249E+02  0.29363200266E+03  0.00000000000E+00 0. -1.
         -2    1    5    5    0  503 -0.11447830439E+03 -0.13993469653E+03  0.11477214360E+03  0.21414865495E+03  0.00000000000E+00 0.  1.
         -1    1    6    6    0  502  0.16826120119E+03  0.17462207484E+03 -0.15534212904E+03  0.28798589879E+03  0.00000000000E+00 0.  1.
<mgrwt>
<rscale>  0 0.13084990E+04</rscale>
<asrwt>0</asrwt>
<pdfrwt beam="1">  1        1 0.14687530E+00 0.13084990E+04</pdfrwt>
<pdfrwt beam="2">  1       -1 0.68978118E-01 0.13084990E+04</pdfrwt>
<totfact> 0.34317032E+01</totfact>
</mgrwt>
</event>
<event>
12    1  0.1097093E-007  0.3673435E+04  0.7818608E-02  0.8073875E-01
         -1   -1    0    0    0  501 -0.00000000000E+00  0.00000000000E+00  0.12998653969E+04  0.12998653969E+04  0.00000000000E+00 0.  1.
          1   -1    0    0  501    0  0.00000000000E+00 -0.00000000000E+00 -0.25952930357E+04  0.25952930357E+04  0.00000000000E+00 0. -1.
         23    2    1    2    0    0 -0.31460627751E+03  0.24610127583E+03 -0.23894039694E+04  0.24243254183E+04  0.92517332757E+02 0.  0.
        254    2    1    2    0    0  0.31460627751E+03 -0.24610127583E+03  0.10939763305E+04  0.14708330143E+04  0.89834436408E+03 0.  0.
        -24    2    4    4    0    0 -0.19647298343E+03 -0.11432716464E+03 -0.14703009483E+02  0.24040436924E+03  0.76848867730E+02 0.  0.
         24    2    4    4    0    0  0.51107926094E+03 -0.13177411119E+03  0.11086793400E+04  0.12304286451E+04  0.78856479425E+02 0.  0.
         13    1    3    3    0    0 -0.24197232631E+03  0.22812752816E+03 -0.18344224478E+04  0.18643225291E+04  0.00000000000E+00 0. -1.
        -13    1    3    3    0    0 -0.72633951201E+02  0.17973747669E+02 -0.55498152162E+03  0.56000288911E+03  0.00000000000E+00 0.  1.
          4    1    6    6  502    0  0.39914855813E+03 -0.12249117121E+03  0.80886165435E+03  0.91026415636E+03  0.00000000000E+00 0. -1.
          3    1    5    5  503    0 -0.89089698536E+02 -0.27546875332E+02 -0.37426779575E+02  0.10048168268E+03  0.00000000000E+00 0. -1.
         -4    1    5    5    0  503 -0.10738328489E+03 -0.86780289305E+02  0.22723770092E+02  0.13992268656E+03  0.00000000000E+00 0.  1.
         -3    1    6    6    0  502  0.11193070280E+03 -0.92829399860E+01  0.29981768567E+03  0.32016448874E+03  0.00000000000E+00 0.  1.
<mgrwt>
<rscale>  0 0.36734352E+04</rscale>
<asrwt>0</asrwt>
<pdfrwt beam="1">  1        1 0.39927585E+00 0.36734352E+04</pdfrwt>
<pdfrwt beam="2">  1       -1 0.19997929E+00 0.36734352E+04</pdfrwt>
<totfact> 0.14072595E-01</totfact>
</mgrwt>
</event>
<event>
12    1  0.1097093E-007  0.1684016E+04  0.7818608E-02  0.8770533E-01
         -1   -1    0    0    0  501 -0.00000000000E+00  0.00000000000E+00  0.69228333811E+03  0.69228333811E+03  0.00000000000E+00 0.  1.
          1   -1    0    0  501    0  0.00000000000E+00 -0.00000000000E+00 -0.10241149880E+04  0.10241149880E+04  0.00000000000E+00 0. -1.
         23    2    1    2    0    0 -0.24563454780E+02 -0.24489362939E+03 -0.72348402982E+03  0.77059399684E+03  0.99043997966E+02 0.  0.
        254    2    1    2    0    0  0.24563454780E+02  0.24489362939E+03  0.39165237991E+03  0.94580432928E+03  0.82497150834E+03 0.  0.
        -24    2    4    4    0    0 -0.64051175447E+02  0.43093524999E+03 -0.55912665019E+02  0.44665026810E+03  0.81009216340E+02 0.  0.
         24    2    4    4    0    0  0.88614630227E+02 -0.18604162060E+03  0.44756504493E+03  0.49915406118E+03  0.79851550160E+02 0.  0.
         13    1    3    3    0    0  0.29027489978E+01 -0.19143914242E+03 -0.42522908046E+03  0.46634444574E+03  0.00000000000E+00 0. -1.
        -13    1    3    3    0    0 -0.27466203778E+02 -0.53454486970E+02 -0.29825494936E+03  0.30424955110E+03  0.00000000000E+00 0.  1.
          2    1    6    6  502    0  0.80644764121E+02 -0.19366425659E+03  0.42934792379E+03  0.47785883054E+03  0.00000000000E+00 0. -1.
          1    1    5    5  503    0 -0.39676273468E+01  0.28532254441E+03 -0.43409298460E+02  0.28863309514E+03  0.00000000000E+00 0. -1.
         -2    1    5    5    0  503 -0.60083548100E+02  0.14561270557E+03 -0.12503366559E+02  0.15801717296E+03  0.00000000000E+00 0.  1.
         -1    1    6    6    0  502  0.79698661066E+01  0.76226359979E+01  0.18217121147E+02  0.21295230644E+02  0.00000000000E+00 0.  1.
<mgrwt>
<rscale>  0 0.16840163E+04</rscale>
<asrwt>0</asrwt>
<pdfrwt beam="1">  1        1 0.15755615E+00 0.16840163E+04</pdfrwt>
<pdfrwt beam="2">  1       -1 0.10650513E+00 0.16840163E+04</pdfrwt>
<totfact> 0.11372864E+01</totfact>
</mgrwt>
</event>
<event>
12    1  0.1097093E-007  0.1161069E+04  0.7818608E-02  0.9147632E-01
         -2   -1    0    0    0  501 -0.00000000000E+00  0.00000000000E+00  0.30472554729E+03  0.30472554729E+03  0.00000000000E+00 0. -1.
          2   -1    0    0  501    0  0.00000000000E+00 -0.00000000000E+00 -0.11059806557E+04  0.11059806557E+04  0.00000000000E+00 0.  1.
         23    2    1    2    0    0  0.17169263265E+03  0.12832743466E+03 -0.17232647535E+03  0.28960655574E+03  0.90715227094E+02 0.  0.
        254    2    1    2    0    0 -0.17169263265E+03 -0.12832743466E+03 -0.62892863307E+03  0.11210996473E+04  0.90297669019E+03 0.  0.
        -24    2    4    4    0    0 -0.38042254192E+03  0.14769131173E+03 -0.19898290499E+02  0.41611063739E+03  0.78854845264E+02 0.  0.
         24    2    4    4    0    0  0.20872990927E+03 -0.27601874640E+03 -0.60903034257E+03  0.70498900988E+03  0.79605417450E+02 0.  0.
         13    1    3    3    0    0 -0.10522525499E+01  0.32010041109E+02 -0.94549196756E+01  0.33393793934E+02  0.00000000000E+00 0. -1.
        -13    1    3    3    0    0  0.17274488520E+03  0.96317393552E+02 -0.16287155567E+03  0.25621276180E+03  0.00000000000E+00 0.  1.
          2    1    6    6  502    0  0.45965926968E+02 -0.39763802852E+02 -0.16993194503E+03  0.18047407681E+03  0.00000000000E+00 0. -1.
          1    1    5    5  503    0 -0.72858111658E+02  0.58336571044E+02 -0.21698416131E+02  0.95824220415E+02  0.00000000000E+00 0. -1.
         -2    1    5    5    0  503 -0.30756443026E+03  0.89354740691E+02  0.18001256319E+01  0.32028641698E+03  0.00000000000E+00 0.  1.
         -1    1    6    6    0  502  0.16276398230E+03 -0.23625494354E+03 -0.43909839754E+03  0.52451493306E+03  0.00000000000E+00 0.  1.
<mgrwt>
<rscale>  0 0.11610694E+04</rscale>
<asrwt>0</asrwt>
<pdfrwt beam="1">  1        2 0.17015087E+00 0.11610694E+04</pdfrwt>
<pdfrwt beam="2">  1       -2 0.46880853E-01 0.11610694E+04</pdfrwt>
<totfact> 0.92127315E+01</totfact>
</mgrwt>
</event>
<event>
12    1  0.1097093E-007  0.1167339E+04  0.7818608E-02  0.9141935E-01
          2   -1    0    0  501    0  0.00000000000E+00  0.00000000000E+00  0.56021233661E+03  0.56021233661E+03  0.00000000000E+00 0. -1.
         -2   -1    0    0    0  501 -0.00000000000E+00 -0.00000000000E+00 -0.60810849990E+03  0.60810849990E+03  0.00000000000E+00 0.  1.
         23    2    1    2    0    0 -0.20439723239E+03  0.11333797398E+02 -0.92578213910E+02  0.24308927523E+03  0.92816951407E+02 0.  0.
        254    2    1    2    0    0  0.20439723239E+03 -0.11333797398E+02  0.44682050622E+02  0.92523156128E+03  0.90119380422E+03 0.  0.
        -24    2    4    4    0    0 -0.18358864060E+03 -0.31531043735E+03 -0.13059507571E+03  0.39572208323E+03  0.80096395017E+02 0.  0.
         24    2    4    4    0    0  0.38798587300E+03  0.30397663996E+03  0.17527712633E+03  0.52950947805E+03  0.81996225798E+02 0.  0.
         11    1    3    3    0    0 -0.17524426331E+03 -0.26235724755E+02 -0.71687663076E+02  0.19114912010E+03  0.00000000000E+00 0.  1.
        -11    1    3    3    0    0 -0.29152969081E+02  0.37569522154E+02 -0.20890550834E+02  0.51940155133E+02  0.00000000000E+00 0. -1.
          2    1    6    6  502    0  0.17616115589E+03  0.17464373390E+03  0.56726798565E+02  0.25446240648E+03  0.00000000000E+00 0. -1.
          3    1    5    5  503    0 -0.15290866298E+03 -0.27617682396E+03 -0.81918899233E+02  0.32613709289E+03  0.00000000000E+00 0. -1.
         -4    1    5    5    0  503 -0.30679977622E+02 -0.39133613390E+02 -0.48676176479E+02  0.69584990339E+02  0.00000000000E+00 0.  1.
         -1    1    6    6    0  502  0.21182471710E+03  0.12933290605E+03  0.11855032777E+03  0.27504707157E+03  0.00000000000E+00 0.  1.
<mgrwt>
<rscale>  0 0.11673387E+04</rscale>
<asrwt>0</asrwt>
<pdfrwt beam="1">  1        2 0.86186513E-01 0.11673387E+04</pdfrwt>
<pdfrwt beam="2">  1       -2 0.93555154E-01 0.11673387E+04</pdfrwt>
<totfact> 0.51463654E+01</totfact>
</mgrwt>
</event>
<event>
12    1  0.1097093E-007  0.1580985E+04  0.7818608E-02  0.8832315E-01
          1   -1    0    0  501    0  0.00000000000E+00  0.00000000000E+00  0.19969440870E+04  0.19969440870E+04  0.00000000000E+00 0. -1.
         -1   -1    0    0    0  501 -0.00000000000E+00 -0.00000000000E+00 -0.31291746377E+03  0.31291746377E+03  0.00000000000E+00 0.  1.
         23    2    1    2    0    0  0.12982866579E+03  0.27604465219E+03 -0.59569551190E+02  0.32314510917E+03  0.88420007305E+02 0.  0.
        254    2    1    2    0    0 -0.12982866579E+03 -0.27604465219E+03  0.17435961745E+04  0.19867164416E+04  0.90214104629E+03 0.  0.
        -24    2    4    4    0    0  0.31446826074E+03 -0.23631482311E+02  0.26256919106E+03  0.41798194283E+03  0.79483271622E+02 0.  0.
         24    2    4    4    0    0 -0.44429692652E+03 -0.25241316988E+03  0.14810269834E+04  0.15687344988E+04  0.79842563468E+02 0.  0.
         11    1    3    3    0    0  0.13198354537E+03  0.21724034074E+03 -0.69379632141E+02  0.26348919380E+03  0.00000000000E+00 0.  1.
        -11    1    3    3    0    0 -0.21548795810E+01  0.58804311444E+02  0.98100809518E+01  0.59655915371E+02  0.00000000000E+00 0. -1.
          4    1    6    6  502    0 -0.87689474860E+02 -0.76522053497E+02  0.41321491034E+03  0.42929201110E+03  0.00000000000E+00 0. -1.
          1    1    5    5  503    0  0.28081553033E+02  0.18930275789E+02  0.15012089587E+02  0.37044457021E+02  0.00000000000E+00 0. -1.
         -2    1    5    5    0  503  0.28638670770E+03 -0.42561758100E+02  0.24755710147E+03  0.38093748581E+03  0.00000000000E+00 0.  1.
         -3    1    6    6    0  502 -0.35660745166E+03 -0.17589111638E+03  0.10678120731E+04  0.11394424877E+04  0.00000000000E+00 0.  1.
<mgrwt>
<rscale>  0 0.15809854E+04</rscale>
<asrwt>0</asrwt>
<pdfrwt beam="1">  1        1 0.30722216E+00 0.15809854E+04</pdfrwt>
<pdfrwt beam="2">  1       -1 0.48141149E-01 0.15809854E+04</pdfrwt>
<totfact> 0.12417950E+01</totfact>
</mgrwt>
</event>
<event>
12    1  0.1097093E-007  0.1294307E+04  0.7818608E-02  0.9034092E-01
          2   -1    0    0  501    0  0.00000000000E+00  0.00000000000E+00  0.21592095911E+04  0.21592095911E+04  0.00000000000E+00 0. -1.
         -2   -1    0    0    0  501 -0.00000000000E+00 -0.00000000000E+00 -0.19396351179E+03  0.19396351179E+03  0.00000000000E+00 0.  1.
         23    2    1    2    0    0 -0.17027415632E+02  0.24154202934E+03  0.92165934325E+03  0.95772868627E+03  0.95685979523E+02 0.  0.
        254    2    1    2    0    0  0.17027415632E+02 -0.24154202934E+03  0.10435867360E+04  0.13954444166E+04  0.89418083146E+03 0.  0.
        -24    2    4    4    0    0 -0.18558725959E+03  0.21778362363E+03  0.82114398466E+02  0.30771766806E+03  0.77942614507E+02 0.  0.
         24    2    4    4    0    0  0.20261467523E+03 -0.45932565297E+03  0.96147233756E+03  0.10877267485E+04  0.81778123525E+02 0.  0.
         11    1    3    3    0    0 -0.15428100095E+01  0.24456250241E+03  0.86306214469E+03  0.89704485029E+03  0.00000000000E+00 0. -1.
        -11    1    3    3    0    0 -0.15484605623E+02 -0.30204730709E+01  0.58597198567E+02  0.60683835976E+02  0.00000000000E+00 0.  1.
          4    1    6    6  502    0  0.33801448884E+02 -0.49646130670E+02  0.17504546634E+03  0.18506266918E+03  0.00000000000E+00 0. -1.
          1    1    5    5  503    0 -0.10201650928E+03  0.60946731832E+02  0.34196038805E+02  0.12365775899E+03  0.00000000000E+00 0. -1.
         -2    1    5    5    0  503 -0.83570750310E+02  0.15683689179E+03  0.47918359661E+02  0.18405990907E+03  0.00000000000E+00 0.  1.
         -3    1    6    6    0  502  0.16881322634E+03 -0.40967952230E+03  0.78642687122E+03  0.90266407935E+03  0.00000000000E+00 0.  1.
<mgrwt>
<rscale>  0 0.12943073E+04</rscale>
<asrwt>0</asrwt>
<pdfrwt beam="1">  1        2 0.33218607E+00 0.12943073E+04</pdfrwt>
<pdfrwt beam="2">  1       -2 0.29840542E-01 0.12943073E+04</pdfrwt>
<totfact> 0.55388243E+01</totfact>
</mgrwt>
</event>
<event>
12    1  0.1097093E-007  0.1451463E+04  0.7818608E-02  0.8917387E-01
         -2   -1    0    0    0  501 -0.00000000000E+00  0.00000000000E+00  0.36600059278E+03  0.36600059278E+03  0.00000000000E+00 0.  1.
          2   -1    0    0  501    0  0.00000000000E+00 -0.00000000000E+00 -0.14390315415E+04  0.14390315415E+04  0.00000000000E+00 0. -1.
         23    2    1    2    0    0  0.13464764764E+03 -0.11210340981E+03  0.16944210037E+03  0.26107126319E+03  0.93543656007E+02 0.  0.
        254    2    1    2    0    0 -0.13464764764E+03  0.11210340981E+03 -0.12424730491E+04  0.15439608711E+04  0.89965478392E+03 0.  0.
        -24    2    4    4    0    0 -0.47032577952E+03 -0.47615182019E+02 -0.95354232490E+03  0.10673364743E+04  0.80564505473E+02 0.  0.
         24    2    4    4    0    0  0.33567813187E+03  0.15971859183E+03 -0.28893072416E+03  0.47662439677E+03  0.74162088966E+02 0.  0.
         13    1    3    3    0    0  0.77313649641E+01 -0.61454517591E+02  0.50906055609E+02  0.80173924902E+02  0.00000000000E+00 0. -1.
        -13    1    3    3    0    0  0.12691628268E+03 -0.50648892217E+02  0.11853604476E+03  0.18089733829E+03  0.00000000000E+00 0.  1.
          2    1    6    6  502    0  0.27611307818E+03  0.11407264951E+03 -0.19656207054E+03  0.35761382647E+03  0.00000000000E+00 0. -1.
          1    1    5    5  503    0 -0.59198959576E+02  0.19252681441E+02 -0.10478912726E+03  0.12188496113E+03  0.00000000000E+00 0. -1.
         -2    1    5    5    0  503 -0.41112681994E+03 -0.66867863459E+02 -0.84875319764E+03  0.94545151316E+03  0.00000000000E+00 0.  1.
         -1    1    6    6    0  502  0.59565053692E+02  0.45645942321E+02 -0.92368653615E+02  0.11901057030E+03  0.00000000000E+00 0.  1.
<mgrwt>
<rscale>  0 0.14514633E+04</rscale>
<asrwt>0</asrwt>
<pdfrwt beam="1">  1        2 0.22138946E+00 0.14514633E+04</pdfrwt>
<pdfrwt beam="2">  1       -2 0.56307785E-01 0.14514633E+04</pdfrwt>
<totfact> 0.39451954E+01</totfact>
</mgrwt>
</event>
<event>
12    1  0.1097093E-007  0.1959935E+04  0.7818608E-02  0.8625585E-01
          2   -1    0    0  501    0  0.00000000000E+00  0.00000000000E+00  0.17885217325E+04  0.17885217325E+04  0.00000000000E+00 0.  1.
         -2   -1    0    0    0  501 -0.00000000000E+00 -0.00000000000E+00 -0.53694412130E+03  0.53694412130E+03  0.00000000000E+00 0. -1.
         23    2    1    2    0    0 -0.30172156251E+03  0.13145683895E+03 -0.33069574473E+03  0.47642985263E+03  0.96482781376E+02 0.  0.
        254    2    1    2    0    0  0.30172156251E+03 -0.13145683895E+03  0.15822733559E+04  0.18490360011E+04  0.89834757132E+03 0.  0.
        -24    2    4    4    0    0  0.22866150385E+01 -0.47902217258E+03  0.89079577683E+03  0.10149192892E+04  0.84122393865E+02 0.  0.
         24    2    4    4    0    0  0.29943494748E+03  0.34756533363E+03  0.69147757909E+03  0.83411671194E+03  0.84536961475E+02 0.  0.
         13    1    3    3    0    0 -0.30209227019E+03  0.12089424138E+03 -0.29500600031E+03  0.43920803445E+03  0.00000000000E+00 0. -1.
        -13    1    3    3    0    0  0.37070767836E+00  0.10562597572E+02 -0.35689744424E+02  0.37221818181E+02  0.00000000000E+00 0.  1.
          4    1    6    6  502    0  0.23874796941E+03  0.31246830136E+03  0.54876493881E+03  0.67511479788E+03  0.00000000000E+00 0. -1.
          1    1    5    5  503    0 -0.36227453601E+02 -0.33439022699E+03  0.59874127058E+03  0.68674621324E+03  0.00000000000E+00 0. -1.
         -2    1    5    5    0  503  0.38514068640E+02 -0.14463194558E+03  0.29205450624E+03  0.32817307596E+03  0.00000000000E+00 0.  1.
         -3    1    6    6    0  502  0.60686978070E+02  0.35097032267E+02  0.14271264027E+03  0.15900191406E+03  0.00000000000E+00 0.  1.
<mgrwt>
<rscale>  0 0.19599349E+04</rscale>
<asrwt>0</asrwt>
<pdfrwt beam="1">  1        2 0.27515719E+00 0.19599349E+04</pdfrwt>
<pdfrwt beam="2">  1       -2 0.82606789E-01 0.19599349E+04</pdfrwt>
<totfact> 0.10492644E+01</totfact>
</mgrwt>
</event>
<event>
12    1  0.1097093E-007  0.1554833E+04  0.7818608E-02  0.8848787E-01
         -1   -1    0    0    0  501 -0.00000000000E+00  0.00000000000E+00  0.68702235023E+03  0.68702235023E+03  0.00000000000E+00 0.  1.
          1   -1    0    0  501    0  0.00000000000E+00 -0.00000000000E+00 -0.87970383085E+03  0.87970383085E+03  0.00000000000E+00 0. -1.
         23    2    1    2    0    0  0.44384255455E+03  0.18746731062E+03  0.10741477893E+03  0.50376631725E+03  0.10051050636E+03 0.  0.
        254    2    1    2    0    0 -0.44384255455E+03 -0.18746731062E+03 -0.30009625955E+03  0.10629598638E+04  0.89871335883E+03 0.  0.
        -24    2    4    4    0    0 -0.50905817246E+03  0.22225697039E+03 -0.31091604289E+02  0.56208829479E+03  0.80238266733E+02 0.  0.
         24    2    4    4    0    0  0.65215617915E+02 -0.40972428102E+03 -0.26900465526E+03  0.50087156904E+03  0.79885923931E+02 0.  0.
         11    1    3    3    0    0  0.39235919553E+03  0.18767350573E+03  0.70962915625E+02  0.44068448857E+03  0.00000000000E+00 0.  1.
        -11    1    3    3    0    0  0.51483359014E+02 -0.20619510848E+00  0.36451863301E+02  0.63081828682E+02  0.00000000000E+00 0. -1.
          2    1    6    6  502    0  0.41280225179E+02 -0.38045056565E+03 -0.22968755301E+03  0.44632170225E+03  0.00000000000E+00 0. -1.
          3    1    5    5  503    0 -0.40257795050E+03  0.14664962602E+03 -0.44729773316E+02  0.43078518041E+03  0.00000000000E+00 0. -1.
         -4    1    5    5    0  503 -0.10648022197E+03  0.75607344377E+02  0.13638169028E+02  0.13130311439E+03  0.00000000000E+00 0.  1.
         -1    1    6    6    0  502  0.23935392737E+02 -0.29273715369E+02 -0.39317102249E+02  0.54549866785E+02  0.00000000000E+00 0.  1.
<mgrwt>
<rscale>  0 0.15548327E+04</rscale>
<asrwt>0</asrwt>
<pdfrwt beam="1">  1        1 0.13533905E+00 0.15548327E+04</pdfrwt>
<pdfrwt beam="2">  1       -1 0.10569575E+00 0.15548327E+04</pdfrwt>
<totfact> 0.15274211E+01</totfact>
</mgrwt>
</event>
<event>
12    1  0.1097093E-007  0.2547919E+04  0.7818608E-02  0.8386110E-01
          1   -1    0    0  501    0  0.00000000000E+00  0.00000000000E+00  0.11394394713E+04  0.11394394713E+04  0.00000000000E+00 0. -1.
         -1   -1    0    0    0  501 -0.00000000000E+00 -0.00000000000E+00 -0.14243602912E+04  0.14243602912E+04  0.00000000000E+00 0.  1.
         23    2    1    2    0    0  0.56815711695E+02  0.80899529314E+03  0.65231168791E+03  0.10448366651E+04  0.92041887717E+02 0.  0.
        254    2    1    2    0    0 -0.56815711695E+02 -0.80899529314E+03 -0.93723250780E+03  0.15189630974E+04  0.87814731574E+03 0.  0.
        -24    2    4    4    0    0  0.33726847746E+03 -0.59691538627E+03 -0.77083806585E+03  0.10346708621E+04  0.79337664073E+02 0.  0.
         24    2    4    4    0    0 -0.39408418915E+03 -0.21207990687E+03 -0.16639444195E+03  0.48429223525E+03  0.81065552331E+02 0.  0.
         11    1    3    3    0    0  0.38221977083E+02  0.11494131112E+03  0.81263953109E+02  0.14586382214E+03  0.00000000000E+00 0.  1.
        -11    1    3    3    0    0  0.18593734611E+02  0.69405398202E+03  0.57104773480E+03  0.89897284294E+03  0.00000000000E+00 0. -1.
          2    1    6    6  502    0 -0.55532438991E+02 -0.42053036287E+02  0.20393513240E+01  0.69688367717E+02  0.00000000000E+00 0. -1.
          3    1    5    5  503    0 -0.25410370014E+01 -0.82492935778E+00 -0.90295236408E+01  0.94164576496E+01  0.00000000000E+00 0. -1.
         -4    1    5    5    0  503  0.33980951446E+03 -0.59609045692E+03 -0.76180854221E+03  0.10252544045E+04  0.00000000000E+00 0.  1.
         -1    1    6    6    0  502 -0.33855175016E+03 -0.17002687058E+03 -0.16843379327E+03  0.41460386754E+03  0.00000000000E+00 0.  1.
<mgrwt>
<rscale>  0 0.25479186E+04</rscale>
<asrwt>0</asrwt>
<pdfrwt beam="1">  1        1 0.17529838E+00 0.25479186E+04</pdfrwt>
<pdfrwt beam="2">  1       -1 0.21913235E+00 0.25479186E+04</pdfrwt>
<totfact> 0.11687906E+00</totfact>
</mgrwt>
</event>
<event>
12    1  0.1097093E-007  0.1543559E+04  0.7818608E-02  0.8855993E-01
          2   -1    0    0  501    0  0.00000000000E+00  0.00000000000E+00  0.25972431465E+04  0.25972431465E+04  0.00000000000E+00 0. -1.
         -2   -1    0    0    0  501 -0.00000000000E+00 -0.00000000000E+00 -0.22933680577E+03  0.22933680577E+03  0.00000000000E+00 0.  1.
         23    2    1    2    0    0 -0.52080032521E+02  0.78661293568E+02 -0.11911834331E+03  0.17729973567E+03  0.91356924541E+02 0.  0.
        254    2    1    2    0    0  0.52080032521E+02 -0.78661293568E+02  0.24870246841E+04  0.26492802166E+04  0.90801649664E+03 0.  0.
        -24    2    4    4    0    0 -0.61176118671E+02 -0.40852211060E+03  0.20091261251E+04  0.20525317200E+04  0.75271793217E+02 0.  0.
         24    2    4    4    0    0  0.11325615119E+03  0.32986081703E+03  0.47789855900E+03  0.59674849663E+03  0.78016800361E+02 0.  0.
         11    1    3    3    0    0 -0.20639489129E+02  0.93713305863E+02 -0.80274758413E+02  0.12510878884E+03  0.00000000000E+00 0.  1.
        -11    1    3    3    0    0 -0.31440543391E+02 -0.15052012295E+02 -0.38843584897E+02  0.52190946826E+02  0.00000000000E+00 0. -1.
          2    1    6    6  502    0  0.90694411494E+02  0.18427953743E+03  0.22980746488E+03  0.30821404106E+03  0.00000000000E+00 0. -1.
          1    1    5    5  503    0 -0.18774464387E+01 -0.10639312677E+02  0.14962704320E+03  0.15001657187E+03  0.00000000000E+00 0. -1.
         -2    1    5    5    0  503 -0.59298672233E+02 -0.39788279792E+03  0.18594990819E+04  0.19025151481E+04  0.00000000000E+00 0.  1.
         -1    1    6    6    0  502  0.22561739698E+02  0.14558127959E+03  0.24809109412E+03  0.28853445557E+03  0.00000000000E+00 0.  1.
<mgrwt>
<rscale>  0 0.15435588E+04</rscale>
<asrwt>0</asrwt>
<pdfrwt beam="1">  1        2 0.39957585E+00 0.15435588E+04</pdfrwt>
<pdfrwt beam="2">  1       -2 0.35282587E-01 0.15435588E+04</pdfrwt>
<totfact> 0.22260932E+01</totfact>
</mgrwt>
</event>
<event>
12    1  0.1097093E-007  0.1827345E+04  0.7818608E-02  0.8691891E-01
         -2   -1    0    0    0  501 -0.00000000000E+00  0.00000000000E+00  0.37321911092E+03  0.37321911092E+03  0.00000000000E+00 0.  1.
          2   -1    0    0  501    0  0.00000000000E+00 -0.00000000000E+00 -0.22367496189E+04  0.22367496189E+04  0.00000000000E+00 0. -1.
         23    2    1    2    0    0  0.48698494790E+03 -0.24437754745E+03 -0.10809052544E+03  0.56305334540E+03  0.92036856221E+02 0.  0.
        254    2    1    2    0    0 -0.48698494790E+03  0.24437754745E+03 -0.17554399825E+04  0.20469153844E+04  0.90078761843E+03 0.  0.
        -24    2    4    4    0    0 -0.63059798961E+03  0.42529552158E+03 -0.10398527990E+04  0.12907618010E+04  0.79006824321E+02 0.  0.
         24    2    4    4    0    0  0.14361304172E+03 -0.18091797414E+03 -0.71558718357E+03  0.75615358340E+03  0.79669349653E+02 0.  0.
         13    1    3    3    0    0  0.46482279151E+03 -0.21589216428E+03 -0.83227002990E+02  0.51922672131E+03  0.00000000000E+00 0. -1.
        -13    1    3    3    0    0  0.22162156391E+02 -0.28485383168E+02 -0.24863522452E+02  0.43826624087E+02  0.00000000000E+00 0.  1.
          2    1    6    6  502    0  0.59359653967E+02 -0.95376036027E+02 -0.46369569707E+03  0.47710989955E+03  0.00000000000E+00 0. -1.
          1    1    5    5  503    0 -0.27327116789E+03  0.20914362662E+03 -0.41361165847E+03  0.53804534361E+03  0.00000000000E+00 0. -1.
         -2    1    5    5    0  503 -0.35732682172E+03  0.21615189496E+03 -0.62624114050E+03  0.75271645742E+03  0.00000000000E+00 0.  1.
         -1    1    6    6    0  502  0.84253387749E+02 -0.85541938109E+02 -0.25189148651E+03  0.27904368385E+03  0.00000000000E+00 0.  1.
<mgrwt>
<rscale>  0 0.18273453E+04</rscale>
<asrwt>0</asrwt>
<pdfrwt beam="1">  1        2 0.34411533E+00 0.18273453E+04</pdfrwt>
<pdfrwt beam="2">  1       -2 0.57418323E-01 0.18273453E+04</pdfrwt>
<totfact> 0.13182363E+01</totfact>
</mgrwt>
</event>
<event>
12    1  0.1097093E-007  0.1609654E+04  0.7818608E-02  0.8814639E-01
         -2   -1    0    0    0  501 -0.00000000000E+00  0.00000000000E+00  0.43599328730E+03  0.43599328730E+03  0.00000000000E+00 0.  1.
          2   -1    0    0  501    0  0.00000000000E+00 -0.00000000000E+00 -0.14856793678E+04  0.14856793678E+04  0.00000000000E+00 0. -1.
         23    2    1    2    0    0  0.16641083124E+02  0.18717682084E+02  0.28971815465E+03  0.30064653242E+03  0.76318091271E+02 0.  0.
        254    2    1    2    0    0 -0.16641083124E+02 -0.18717682084E+02 -0.13394042351E+04  0.16210261226E+04  0.91274021933E+03 0.  0.
        -24    2    4    4    0    0  0.35824476458E+03 -0.20086198833E+03 -0.35432046536E+03  0.54838806349E+03  0.80632662800E+02 0.  0.
         24    2    4    4    0    0 -0.37488584770E+03  0.18214430625E+03 -0.98508376975E+03  0.10726380591E+04  0.80289634418E+02 0.  0.
         11    1    3    3    0    0  0.22793495316E+02  0.19852761759E+02  0.29231432812E+03  0.29387300319E+03  0.00000000000E+00 0.  1.
        -11    1    3    3    0    0 -0.61524121924E+01 -0.11350796757E+01 -0.25961734695E+01  0.67735292381E+01  0.00000000000E+00 0. -1.
          2    1    6    6  502    0 -0.10969828437E+03  0.33225606441E+02 -0.35392338669E+03  0.37202072276E+03  0.00000000000E+00 0. -1.
          1    1    5    5  503    0  0.25521503363E+03 -0.10208809241E+03 -0.25047360966E+03  0.37187863765E+03  0.00000000000E+00 0. -1.
         -2    1    5    5    0  503  0.10302973094E+03 -0.98773895925E+02 -0.10384685570E+03  0.17650942585E+03  0.00000000000E+00 0.  1.
         -1    1    6    6    0  502 -0.26518756333E+03  0.14891869981E+03 -0.63116038306E+03  0.70061733638E+03  0.00000000000E+00 0.  1.
<mgrwt>
<rscale>  0 0.16096537E+04</rscale>
<asrwt>0</asrwt>
<pdfrwt beam="1">  1        2 0.22856605E+00 0.16096537E+04</pdfrwt>
<pdfrwt beam="2">  1       -2 0.67075891E-01 0.16096537E+04</pdfrwt>
<totfact> 0.25276946E+01</totfact>
</mgrwt>
</event>
<event>
12    1  0.1097093E-007  0.1787874E+04  0.7818608E-02  0.8712775E-01
         -2   -1    0    0    0  501 -0.00000000000E+00  0.00000000000E+00  0.13891471057E+04  0.13891471057E+04  0.00000000000E+00 0. -1.
          2   -1    0    0  501    0  0.00000000000E+00 -0.00000000000E+00 -0.57526157255E+03  0.57526157255E+03  0.00000000000E+00 0.  1.
         23    2    1    2    0    0 -0.61221554175E+03  0.18021498554E+03  0.51680610854E+03  0.82644265757E+03  0.92917177385E+02 0.  0.
        254    2    1    2    0    0  0.61221554175E+03 -0.18021498554E+03  0.29707942461E+03  0.11379660207E+04  0.89410579304E+03 0.  0.
        -24    2    4    4    0    0  0.42112543705E+03  0.33371408675E+03  0.12907504284E+03  0.55836636324E+03  0.80005646536E+02 0.  0.
         24    2    4    4    0    0  0.19109010470E+03 -0.51392907229E+03  0.16800438177E+03  0.57959965745E+03  0.84093823603E+02 0.  0.
         11    1    3    3    0    0 -0.56557674018E+03  0.13965365696E+03  0.47689880107E+03  0.75286961647E+03  0.00000000000E+00 0. -1.
        -11    1    3    3    0    0 -0.46638801568E+02  0.40561328575E+02  0.39907307473E+02  0.73573041103E+02  0.00000000000E+00 0.  1.
          4    1    6    6  502    0  0.18235209951E+02 -0.43759765058E+02 -0.91079724157E+01  0.48274165777E+02  0.00000000000E+00 0. -1.
          1    1    5    5  503    0  0.31969472466E+02  0.92727521463E+01  0.23705372773E+02  0.40865337396E+02  0.00000000000E+00 0. -1.
         -2    1    5    5    0  503  0.38915596459E+03  0.32444133461E+03  0.10536967007E+03  0.51750102584E+03  0.00000000000E+00 0.  1.
         -3    1    6    6    0  502  0.17285489475E+03 -0.47016930723E+03  0.17711235418E+03  0.53132549167E+03  0.00000000000E+00 0.  1.
<mgrwt>
<rscale>  0 0.17878735E+04</rscale>
<asrwt>0</asrwt>
<pdfrwt beam="1">  1        2 0.88501781E-01 0.17878735E+04</pdfrwt>
<pdfrwt beam="2">  1       -2 0.21371494E+00 0.17878735E+04</pdfrwt>
<totfact> 0.53402070E+00</totfact>
</mgrwt>
</event>
<event>
12    1  0.1115674E-007  0.1713767E+04  0.7818608E-02  0.8753551E-01
          1   -1    0    0  501    0  0.00000000000E+00  0.00000000000E+00  0.78239219666E+03  0.78239219666E+03  0.00000000000E+00 0. -1.
         -1   -1    0    0    0  501 -0.00000000000E+00 -0.00000000000E+00 -0.93846684293E+03  0.93846684293E+03  0.00000000000E+00 0.  1.
         23    2    1    2    0    0 -0.49926672405E+02 -0.46677986132E+03 -0.42154002259E+03  0.63799405947E+03  0.94680080851E+02 0.  0.
        254    2    1    2    0    0  0.49926672405E+02  0.46677986132E+03  0.26546537632E+03  0.10828649801E+04  0.93901468976E+03 0.  0.
        -24    2    4    4    0    0 -0.22465853328E+03  0.55681065144E+03  0.42801668799E+03  0.74172329908E+03  0.80284550609E+02 0.  0.
         24    2    4    4    0    0  0.27458520569E+03 -0.90030790111E+02 -0.16255131168E+03  0.34114168104E+03  0.80325209405E+02 0.  0.
         11    1    3    3    0    0 -0.31071992606E+02 -0.42318210039E+02 -0.63335990773E+02  0.82266319673E+02  0.00000000000E+00 0. -1.
        -11    1    3    3    0    0 -0.18854679799E+02 -0.42446165129E+03 -0.35820403182E+03  0.55572773979E+03  0.00000000000E+00 0.  1.
          2    1    6    6  502    0  0.72236729773E+02 -0.19105544078E+02 -0.84893900636E+02  0.11309350692E+03  0.00000000000E+00 0. -1.
          3    1    5    5  503    0 -0.26027974914E+01  0.47282325150E+02  0.53812224072E+02  0.71680878105E+02  0.00000000000E+00 0. -1.
         -4    1    5    5    0  503 -0.22205573579E+03  0.50952832629E+03  0.37420446392E+03  0.67004242097E+03  0.00000000000E+00 0.  1.
         -1    1    6    6    0  502  0.20234847591E+03 -0.70925246033E+02 -0.77657411041E+02  0.22804817412E+03  0.00000000000E+00 0.  1.
<mgrwt>
<rscale>  0 0.17137668E+04</rscale>
<asrwt>0</asrwt>
<pdfrwt beam="1">  1        1 0.12036803E+00 0.17137668E+04</pdfrwt>
<pdfrwt beam="2">  1       -1 0.14437951E+00 0.17137668E+04</pdfrwt>
<totfact> 0.84171706E+00</totfact>
</mgrwt>
</event>
<event>
12    1  0.1097093E-007  0.1771260E+04  0.7818608E-02  0.8721734E-01
         -2   -1    0    0    0  501 -0.00000000000E+00  0.00000000000E+00  0.19424051938E+03  0.19424051938E+03  0.00000000000E+00 0. -1.
          2   -1    0    0  501    0  0.00000000000E+00 -0.00000000000E+00 -0.40379846084E+04  0.40379846084E+04  0.00000000000E+00 0.  1.
         23    2    1    2    0    0  0.52466073643E+03 -0.46078862973E+02 -0.50737537362E+03  0.73962254391E+03  0.11054224411E+03 0.  0.
        254    2    1    2    0    0 -0.52466073643E+03  0.46078862973E+02 -0.33363687154E+04  0.34926025839E+04  0.88855188581E+03 0.  0.
        -24    2    4    4    0    0 -0.15094299465E+03  0.27407986866E+03 -0.36195662614E+03  0.48498501546E+03  0.79336649629E+02 0.  0.
         24    2    4    4    0    0 -0.37371774178E+03 -0.22800100569E+03 -0.29744120893E+04  0.30076175684E+04  0.83586792745E+02 0.  0.
         13    1    3    3    0    0  0.50891853202E+03 -0.57360840291E+02 -0.50640284431E+03  0.72023064289E+03  0.00000000000E+00 0. -1.
        -13    1    3    3    0    0  0.15742204409E+02  0.11281977319E+02 -0.97252931611E+00  0.19391901020E+02  0.00000000000E+00 0.  1.
          2    1    6    6  502    0 -0.17114072406E+03 -0.65348330449E+02 -0.10703610156E+04  0.10859246086E+04  0.00000000000E+00 0. -1.
          3    1    5    5  503    0 -0.40476564989E+01  0.12597464924E+02  0.19926664876E+01  0.13380970271E+02  0.00000000000E+00 0. -1.
         -4    1    5    5    0  503 -0.14689533815E+03  0.26148240374E+03 -0.36394929262E+03  0.47160404519E+03  0.00000000000E+00 0.  1.
         -1    1    6    6    0  502 -0.20257701771E+03 -0.16265267524E+03 -0.19040510737E+04  0.19216929599E+04  0.00000000000E+00 0.  1.
<mgrwt>
<rscale>  0 0.17712597E+04</rscale>
<asrwt>0</asrwt>
<pdfrwt beam="1">  1        2 0.62122836E+00 0.17712597E+04</pdfrwt>
<pdfrwt beam="2">  1       -2 0.29883159E-01 0.17712597E+04</pdfrwt>
<totfact> 0.31638108E+00</totfact>
</mgrwt>
</event>
<event>
12    1  0.1097093E-007  0.1769983E+04  0.7818608E-02  0.8722427E-01
         -2   -1    0    0    0  501 -0.00000000000E+00  0.00000000000E+00  0.77713717666E+03  0.77713717666E+03  0.00000000000E+00 0. -1.
          2   -1    0    0  501    0  0.00000000000E+00 -0.00000000000E+00 -0.10078142916E+04  0.10078142916E+04  0.00000000000E+00 0.  1.
         23    2    1    2    0    0  0.23203888676E+03  0.28590599030E+03  0.44330875997E+03  0.58325256691E+03  0.89870016590E+02 0.  0.
        254    2    1    2    0    0 -0.23203888676E+03 -0.28590599030E+03 -0.67398587486E+03  0.12016989013E+04  0.92425051237E+03 0.  0.
        -24    2    4    4    0    0 -0.33271744837E+03  0.76228802054E+02 -0.73286757158E+03  0.81238201366E+03  0.79736616041E+02 0.  0.
         24    2    4    4    0    0  0.10067856162E+03 -0.36213479235E+03  0.58881696717E+02  0.38931688764E+03  0.82600267506E+02 0.  0.
         11    1    3    3    0    0  0.20300154973E+03  0.27848499919E+03  0.37870933024E+03  0.51203933519E+03  0.00000000000E+00 0. -1.
        -11    1    3    3    0    0  0.29037337028E+02  0.74209911040E+01  0.64599429725E+02  0.71213231716E+02  0.00000000000E+00 0.  1.
          2    1    6    6  502    0  0.88612143625E+02 -0.16990704677E+03  0.18443347106E+02  0.19251148951E+03  0.00000000000E+00 0. -1.
          3    1    5    5  503    0 -0.19020842706E+03  0.36381223391E+01 -0.37994444965E+03  0.42491206911E+03  0.00000000000E+00 0. -1.
         -4    1    5    5    0  503 -0.14250902131E+03  0.72590679715E+02 -0.35292312193E+03  0.38746994455E+03  0.00000000000E+00 0.  1.
         -3    1    6    6    0  502  0.12066417991E+02 -0.19222774558E+03  0.40438349611E+02  0.19680539813E+03  0.00000000000E+00 0.  1.
<mgrwt>
<rscale>  0 0.17699830E+04</rscale>
<asrwt>0</asrwt>
<pdfrwt beam="1">  1        2 0.15504835E+00 0.17699830E+04</pdfrwt>
<pdfrwt beam="2">  1       -2 0.11955957E+00 0.17699830E+04</pdfrwt>
<totfact> 0.12627541E+01</totfact>
</mgrwt>
</event>
<event>
12    1  0.1097093E-007  0.1691146E+04  0.7818608E-02  0.8766430E-01
         -1   -1    0    0    0  501 -0.00000000000E+00  0.00000000000E+00  0.18660708580E+04  0.18660708580E+04  0.00000000000E+00 0.  1.
          1   -1    0    0  501    0  0.00000000000E+00 -0.00000000000E+00 -0.38315468522E+03  0.38315468522E+03  0.00000000000E+00 0. -1.
         23    2    1    2    0    0  0.13439755895E+03 -0.19311826633E+03  0.12709286833E+04  0.12958942203E+04  0.93406335986E+02 0.  0.
        254    2    1    2    0    0 -0.13439755895E+03  0.19311826633E+03  0.21198748952E+03  0.95333132293E+03  0.89919105141E+03 0.  0.
        -24    2    4    4    0    0 -0.50099460193E+03  0.83203731498E+02  0.22754385099E+03  0.56206846274E+03  0.78906910876E+02 0.  0.
         24    2    4    4    0    0  0.36659704298E+03  0.10991453484E+03 -0.15556361468E+02  0.39126286019E+03  0.79812458238E+02 0.  0.
         13    1    3    3    0    0  0.14256757071E+03 -0.14241877618E+03  0.98769254876E+03  0.10080402725E+04  0.00000000000E+00 0.  1.
        -13    1    3    3    0    0 -0.81700117576E+01 -0.50699490154E+02  0.28323613453E+03  0.28785394786E+03  0.00000000000E+00 0. -1.
          2    1    6    6  502    0  0.16324236576E+03  0.32019391107E+02  0.29337894589E+02  0.16892016885E+03  0.00000000000E+00 0. -1.
          3    1    5    5  503    0 -0.11250734830E+03 -0.14299058980E+02  0.50812840167E+02  0.12427514328E+03  0.00000000000E+00 0. -1.
         -4    1    5    5    0  503 -0.38848725363E+03  0.97502790478E+02  0.17673101083E+03  0.43779331947E+03  0.00000000000E+00 0.  1.
         -1    1    6    6    0  502  0.20335467722E+03  0.77895143729E+02 -0.44894256057E+02  0.22234269134E+03  0.00000000000E+00 0.  1.
<mgrwt>
<rscale>  0 0.16911461E+04</rscale>
<asrwt>0</asrwt>
<pdfrwt beam="1">  1        1 0.58946876E-01 0.16911461E+04</pdfrwt>
<pdfrwt beam="2">  1       -1 0.28708782E+00 0.16911461E+04</pdfrwt>
<totfact> 0.24256159E+00</totfact>
</mgrwt>
</event>
<event>
12    1  0.1097093E-007  0.2212429E+04  0.7818608E-02  0.8513273E-01
          2   -1    0    0  501    0  0.00000000000E+00  0.00000000000E+00  0.33235231681E+04  0.33235231681E+04  0.00000000000E+00 0. -1.
         -2   -1    0    0    0  501 -0.00000000000E+00 -0.00000000000E+00 -0.36819686759E+03  0.36819686759E+03  0.00000000000E+00 0.  1.
         23    2    1    2    0    0  0.64283781878E+03  0.62580630436E+03  0.88160695734E+03  0.12610796794E+04  0.90648435120E+02 0.  0.
        254    2    1    2    0    0 -0.64283781878E+03 -0.62580630436E+03  0.20737193432E+04  0.24306403563E+04  0.89600593493E+03 0.  0.
        -24    2    4    4    0    0  0.90171162340E+02 -0.68544950653E+02  0.10191989759E+04  0.10284318514E+04  0.77950443074E+02 0.  0.
         24    2    4    4    0    0 -0.73300898112E+03 -0.55726135370E+03  0.10545203672E+04  0.14022085049E+04  0.79580798937E+02 0.  0.
         13    1    3    3    0    0  0.14317948298E+03  0.15211477793E+03  0.25960167815E+03  0.33321509766E+03  0.00000000000E+00 0.  1.
        -13    1    3    3    0    0  0.49965833580E+03  0.47369152643E+03  0.62200527920E+03  0.92786458177E+03  0.00000000000E+00 0. -1.
          4    1    6    6  502    0 -0.56945960726E+02 -0.68444812213E+02  0.84116120963E+02  0.12248696489E+03  0.00000000000E+00 0. -1.
          3    1    5    5  503    0  0.10336375206E+02  0.16398812564E+02  0.99133122220E+02  0.10101058176E+03  0.00000000000E+00 0. -1.
         -4    1    5    5    0  503  0.79834787134E+02 -0.84943763218E+02  0.92006585372E+03  0.92742126961E+03  0.00000000000E+00 0.  1.
         -3    1    6    6    0  502 -0.67606302040E+03 -0.48881654149E+03  0.97040424627E+03  0.12797215400E+04  0.00000000000E+00 0.  1.
<mgrwt>
<rscale>  0 0.22124293E+04</rscale>
<asrwt>0</asrwt>
<pdfrwt beam="1">  1        2 0.51131124E+00 0.22124293E+04</pdfrwt>
<pdfrwt beam="2">  1       -2 0.56645674E-01 0.22124293E+04</pdfrwt>
<totfact> 0.28744810E+00</totfact>
</mgrwt>
</event>
<event>
12    1  0.1097093E-007  0.2462573E+04  0.7818608E-02  0.8416442E-01
         -1   -1    0    0    0  501 -0.00000000000E+00  0.00000000000E+00  0.94385690034E+03  0.94385690034E+03  0.00000000000E+00 0.  1.
          1   -1    0    0  501    0  0.00000000000E+00 -0.00000000000E+00 -0.16062460432E+04  0.16062460432E+04  0.00000000000E+00 0. -1.
         23    2    1    2    0    0 -0.59531664116E+03 -0.53060378638E+03 -0.10195380862E+04  0.12975861750E+04  0.91267140198E+02 0.  0.
        254    2    1    2    0    0  0.59531664116E+03  0.53060378638E+03  0.35714894331E+03  0.12525167686E+04  0.89738542810E+03 0.  0.
        -24    2    4    4    0    0 -0.22701068464E+03  0.19003059709E+03  0.10146760215E+03  0.32303061843E+03  0.80047656978E+02 0.  0.
         24    2    4    4    0    0  0.82232732580E+03  0.34057318929E+03  0.25568134117E+03  0.92948615018E+03  0.79744762366E+02 0.  0.
         13    1    3    3    0    0 -0.31100180255E+03 -0.29632176897E+03 -0.61822642812E+03  0.75281646394E+03  0.00000000000E+00 0.  1.
        -13    1    3    3    0    0 -0.28431483861E+03 -0.23428201742E+03 -0.40131165808E+03  0.54476971103E+03  0.00000000000E+00 0. -1.
          2    1    6    6  502    0  0.59564279650E+03  0.23469904270E+03  0.14794888978E+03  0.65708664242E+03  0.00000000000E+00 0. -1.
          1    1    5    5  503    0 -0.19121341909E+03  0.11479276576E+03  0.80553521109E+02  0.23712616995E+03  0.00000000000E+00 0. -1.
         -2    1    5    5    0  503 -0.35797265550E+02  0.75237831322E+02  0.20914081037E+02  0.85904448479E+02  0.00000000000E+00 0.  1.
         -1    1    6    6    0  502  0.22668452930E+03  0.10587414659E+03  0.10773245139E+03  0.27239950775E+03  0.00000000000E+00 0.  1.
<mgrwt>
<rscale>  0 0.24625730E+04</rscale>
<asrwt>0</asrwt>
<pdfrwt beam="1">  1        1 0.24711478E+00 0.24625730E+04</pdfrwt>
<pdfrwt beam="2">  1       -1 0.14520875E+00 0.24625730E+04</pdfrwt>
<totfact> 0.18744105E+00</totfact>
</mgrwt>
</event>
<event>
12    1  0.1097093E-007  0.1267173E+04  0.7818608E-02  0.9056010E-01
          4   -1    0    0  501    0  0.00000000000E+00  0.00000000000E+00  0.85649580152E+03  0.85649580152E+03  0.00000000000E+00 0. -1.
         -4   -1    0    0    0  501 -0.00000000000E+00 -0.00000000000E+00 -0.46869080770E+03  0.46869080770E+03  0.00000000000E+00 0.  1.
         23    2    1    2    0    0  0.26411056100E+02 -0.27461349476E+03 -0.31691131913E+02  0.29239629999E+03  0.91548637442E+02 0.  0.
        254    2    1    2    0    0 -0.26411056100E+02  0.27461349476E+03  0.41949612573E+03  0.10327903092E+04  0.90253460206E+03 0.  0.
        -24    2    4    4    0    0  0.34760605019E+03  0.36059910729E+03  0.79082032065E+02  0.51338685750E+03  0.80314477829E+02 0.  0.
         24    2    4    4    0    0 -0.37401710629E+03 -0.85985612530E+02  0.34041409367E+03  0.51940345172E+03  0.81337993137E+02 0.  0.
         13    1    3    3    0    0 -0.18176856814E+02 -0.54329841065E+02 -0.35895018898E+02  0.67606080610E+02  0.00000000000E+00 0. -1.
        -13    1    3    3    0    0  0.44587912914E+02 -0.22028365370E+03  0.42038869847E+01  0.22479021938E+03  0.00000000000E+00 0.  1.
          4    1    6    6  502    0 -0.33784326419E+03 -0.94696853058E+02  0.28199197162E+03  0.45013890878E+03  0.00000000000E+00 0. -1.
          3    1    5    5  503    0  0.24207497626E+03  0.26585744521E+03  0.21106999479E+02  0.36017493073E+03  0.00000000000E+00 0. -1.
         -4    1    5    5    0  503  0.10553107393E+03  0.94741662088E+02  0.57975032586E+02  0.15321192677E+03  0.00000000000E+00 0.  1.
         -3    1    6    6    0  502 -0.36173842100E+02  0.87112405273E+01  0.58422122053E+02  0.69264542942E+02  0.00000000000E+00 0.  1.
<mgrwt>
<rscale>  0 0.12671728E+04</rscale>
<asrwt>0</asrwt>
<pdfrwt beam="1">  1        4 0.13176858E+00 0.12671728E+04</pdfrwt>
<pdfrwt beam="2">  1       -4 0.72106278E-01 0.12671728E+04</pdfrwt>
<totfact> 0.14363227E+00</totfact>
</mgrwt>
</event>
<event>
12    1  0.1097093E-007  0.1220447E+04  0.7818608E-02  0.9095145E-01
         -1   -1    0    0    0  501 -0.00000000000E+00  0.00000000000E+00  0.41812898531E+03  0.41812898531E+03  0.00000000000E+00 0.  1.
          1   -1    0    0  501    0  0.00000000000E+00 -0.00000000000E+00 -0.89056960613E+03  0.89056960613E+03  0.00000000000E+00 0. -1.
         23    2    1    2    0    0 -0.21916117687E+03 -0.56816435138E+02  0.51980038885E+02  0.24617393724E+03  0.81485914041E+02 0.  0.
        254    2    1    2    0    0  0.21916117687E+03  0.56816435138E+02 -0.52442065971E+03  0.10625246542E+04  0.89592515520E+03 0.  0.
        -24    2    4    4    0    0  0.95594688533E+02  0.25302741115E+03  0.16777017460E+03  0.32922854902E+03  0.84162882160E+02 0.  0.
         24    2    4    4    0    0  0.12356648833E+03 -0.19621097602E+03 -0.69219083431E+03  0.73329610519E+03  0.69480951606E+02 0.  0.
         13    1    3    3    0    0 -0.13114297098E+03 -0.64586951617E+01 -0.19562808168E+01  0.13131649027E+03  0.00000000000E+00 0.  1.
        -13    1    3    3    0    0 -0.88018205883E+02 -0.50357739976E+02  0.53936319702E+02  0.11485744697E+03  0.00000000000E+00 0. -1.
          4    1    6    6  502    0  0.59570156589E+02 -0.13642208306E+03 -0.50768780166E+03  0.52906189833E+03  0.00000000000E+00 0. -1.
          1    1    5    5  503    0  0.99447910840E+02  0.16287245830E+03  0.13260238096E+03  0.23238054152E+03  0.00000000000E+00 0. -1.
         -2    1    5    5    0  503 -0.38532223071E+01  0.90154952856E+02  0.35167793642E+02  0.96848007497E+02  0.00000000000E+00 0.  1.
         -3    1    6    6    0  502  0.63996331744E+02 -0.59788892953E+02 -0.18450303264E+03  0.20423420686E+03  0.00000000000E+00 0.  1.
<mgrwt>
<rscale>  0 0.12204474E+04</rscale>
<asrwt>0</asrwt>
<pdfrwt beam="1">  1        1 0.13701071E+00 0.12204474E+04</pdfrwt>
<pdfrwt beam="2">  1       -1 0.64327537E-01 0.12204474E+04</pdfrwt>
<totfact> 0.44870998E+01</totfact>
</mgrwt>
</event>
<event>
12    1  0.1097093E-007  0.1495359E+04  0.7818608E-02  0.8887545E-01
          2   -1    0    0  501    0  0.00000000000E+00  0.00000000000E+00  0.96494148944E+03  0.96494148944E+03  0.00000000000E+00 0.  1.
         -2   -1    0    0    0  501 -0.00000000000E+00 -0.00000000000E+00 -0.57933537697E+03  0.57933537697E+03  0.00000000000E+00 0. -1.
         23    2    1    2    0    0  0.15353037576E+03 -0.68144898878E+02 -0.32930685146E+03  0.38094522578E+03  0.91983471905E+02 0.  0.
        254    2    1    2    0    0 -0.15353037576E+03  0.68144898878E+02  0.71491296393E+03  0.11633316406E+04  0.90223314979E+03 0.  0.
        -24    2    4    4    0    0  0.12205277828E+03  0.29485352397E+02  0.83659671626E+03  0.84970683380E+03  0.79632726029E+02 0.  0.
         24    2    4    4    0    0 -0.27558315403E+03  0.38659546480E+02 -0.12168375233E+03  0.31362480684E+03  0.78185347485E+02 0.  0.
         11    1    3    3    0    0  0.11996355548E+03 -0.37747227357E+02 -0.30418757740E+03  0.32915982450E+03  0.00000000000E+00 0. -1.
        -11    1    3    3    0    0  0.33566820273E+02 -0.30397671521E+02 -0.25119274064E+02  0.51785401288E+02  0.00000000000E+00 0.  1.
          4    1    6    6  502    0  0.15966302637E+01  0.10306907608E+02 -0.42905015775E+01  0.11277853361E+02  0.00000000000E+00 0. -1.
          3    1    5    5  503    0 -0.93708447530E+01 -0.42572002122E+01  0.11532563146E+03  0.11578401339E+03  0.00000000000E+00 0. -1.
         -4    1    5    5    0  503  0.13142362303E+03  0.33742552610E+02  0.72127108479E+03  0.73392282040E+03  0.00000000000E+00 0.  1.
         -3    1    6    6    0  502 -0.27717978430E+03  0.28352638872E+02 -0.11739325075E+03  0.30234695348E+03  0.00000000000E+00 0.  1.
<mgrwt>
<rscale>  0 0.14953591E+04</rscale>
<asrwt>0</asrwt>
<pdfrwt beam="1">  1        2 0.14845254E+00 0.14953591E+04</pdfrwt>
<pdfrwt beam="2">  1       -2 0.89128519E-01 0.14953591E+04</pdfrwt>
<totfact> 0.27734764E+01</totfact>
</mgrwt>
</event>
<event>
12    1  0.1097093E-007  0.2898401E+04  0.7818608E-02  0.8273353E-01
         -1   -1    0    0    0  501 -0.00000000000E+00  0.00000000000E+00  0.71495127602E+03  0.71495127602E+03  0.00000000000E+00 0.  1.
          1   -1    0    0  501    0  0.00000000000E+00 -0.00000000000E+00 -0.29375171251E+04  0.29375171251E+04  0.00000000000E+00 0. -1.
         23    2    1    2    0    0 -0.26824495333E+03  0.10469011070E+04 -0.90857224585E+02  0.10888481790E+04  0.96840274340E+02 0.  0.
        254    2    1    2    0    0  0.26824495333E+03 -0.10469011070E+04 -0.21317086245E+04  0.25636202221E+04  0.92736707975E+03 0.  0.
        -24    2    4    4    0    0  0.35811051144E+03 -0.78465265385E+03 -0.21025623431E+04  0.22740505523E+04  0.81330079979E+02 0.  0.
         24    2    4    4    0    0 -0.89865558105E+02 -0.26224845319E+03 -0.29146281380E+02  0.28956966987E+03  0.78428427586E+02 0.  0.
         13    1    3    3    0    0 -0.17024911480E+03  0.46997833503E+03 -0.41616583022E+02  0.50159379629E+03  0.00000000000E+00 0.  1.
        -13    1    3    3    0    0 -0.97995838530E+02  0.57692277201E+03 -0.49240641563E+02  0.58725438271E+03  0.00000000000E+00 0. -1.
          4    1    6    6  502    0 -0.59113846565E+02 -0.16335289050E+03 -0.56099433349E+02  0.18255344453E+03  0.00000000000E+00 0. -1.
          1    1    5    5  503    0  0.75524855716E+02 -0.11271965655E+03 -0.38494147441E+03  0.40815397036E+03  0.00000000000E+00 0. -1.
         -2    1    5    5    0  503  0.28258565572E+03 -0.67193299731E+03 -0.17176208687E+04  0.18658965819E+04  0.00000000000E+00 0.  1.
         -3    1    6    6    0  502 -0.30751711540E+02 -0.98895562697E+02  0.26953151969E+02  0.10701622533E+03  0.00000000000E+00 0.  1.
<mgrwt>
<rscale>  0 0.28984007E+04</rscale>
<asrwt>0</asrwt>
<pdfrwt beam="1">  1        1 0.45192571E+00 0.28984007E+04</pdfrwt>
<pdfrwt beam="2">  1       -1 0.10999251E+00 0.28984007E+04</pdfrwt>
<totfact> 0.43461693E-01</totfact>
</mgrwt>
</event>
<event>
12    1  0.1097093E-007  0.1492935E+04  0.7818608E-02  0.8889165E-01
         -2   -1    0    0    0  501 -0.00000000000E+00  0.00000000000E+00  0.41995244942E+03  0.41995244942E+03  0.00000000000E+00 0.  1.
          2   -1    0    0  501    0  0.00000000000E+00 -0.00000000000E+00 -0.13268499790E+04  0.13268499790E+04  0.00000000000E+00 0. -1.
         23    2    1    2    0    0  0.23630401345E+03 -0.34917178308E+03 -0.47691012874E+02  0.43399121553E+03  0.91177966478E+02 0.  0.
        254    2    1    2    0    0 -0.23630401345E+03  0.34917178308E+03 -0.85920651671E+03  0.13128112129E+04  0.89859719646E+03 0.  0.
        -24    2    4    4    0    0  0.33104292987E+03  0.69066758997E+02 -0.22952774103E+03  0.41661064370E+03  0.80757698842E+02 0.  0.
         24    2    4    4    0    0 -0.56734694332E+03  0.28010502409E+03 -0.62967877567E+03  0.89620056921E+03  0.79616085650E+02 0.  0.
         13    1    3    3    0    0  0.16826055032E+03 -0.28861891748E+03 -0.68144005071E+01  0.33415404887E+03  0.00000000000E+00 0.  1.
        -13    1    3    3    0    0  0.68043463127E+02 -0.60552865599E+02 -0.40876612367E+02  0.99837166652E+02  0.00000000000E+00 0. -1.
          2    1    6    6  502    0 -0.16605707982E+03  0.43174050573E+02 -0.16172718207E+03  0.23578514335E+03  0.00000000000E+00 0. -1.
          3    1    5    5  503    0  0.51477549522E+02  0.33818218877E+02 -0.68286436930E+02  0.91960032087E+02  0.00000000000E+00 0. -1.
         -4    1    5    5    0  503  0.27956538035E+03  0.35248540120E+02 -0.16124130410E+03  0.32465061161E+03  0.00000000000E+00 0.  1.
         -1    1    6    6    0  502 -0.40128986350E+03  0.23693097351E+03 -0.46795159360E+03  0.66041542586E+03  0.00000000000E+00 0.  1.
<mgrwt>
<rscale>  0 0.14929352E+04</rscale>
<asrwt>0</asrwt>
<pdfrwt beam="1">  1        2 0.20413077E+00 0.14929352E+04</pdfrwt>
<pdfrwt beam="2">  1       -2 0.64608069E-01 0.14929352E+04</pdfrwt>
<totfact> 0.34094811E+01</totfact>
</mgrwt>
</event>
<event>
12    1  0.1097093E-007  0.1648067E+04  0.7818608E-02  0.8791551E-01
          2   -1    0    0  501    0  0.00000000000E+00  0.00000000000E+00  0.15360096740E+04  0.15360096740E+04  0.00000000000E+00 0. -1.
         -2   -1    0    0    0  501 -0.00000000000E+00 -0.00000000000E+00 -0.44207506679E+03  0.44207506679E+03  0.00000000000E+00 0.  1.
         23    2    1    2    0    0  0.36972089072E+03 -0.14154883779E+03 -0.11011569301E+03  0.42155502559E+03  0.94093375081E+02 0.  0.
        254    2    1    2    0    0 -0.36972089072E+03  0.14154883779E+03  0.12040503003E+04  0.15565297152E+04  0.90350319220E+03 0.  0.
        -24    2    4    4    0    0 -0.19681224354E+03  0.48925636095E+03  0.42400830258E+03  0.68151490903E+03  0.81072095307E+02 0.  0.
         24    2    4    4    0    0 -0.17290864718E+03 -0.34770752316E+03  0.78004199768E+03  0.87501480620E+03  0.79921655290E+02 0.  0.
         13    1    3    3    0    0  0.19075227422E+03 -0.12299384989E+03 -0.59127533521E+02  0.23454206968E+03  0.00000000000E+00 0. -1.
        -13    1    3    3    0    0  0.17896861650E+03 -0.18554987907E+02 -0.50988159492E+02  0.18701295591E+03  0.00000000000E+00 0.  1.
          2    1    6    6  502    0 -0.93749480214E+02 -0.10317415269E+03  0.26885194804E+03  0.30284524231E+03  0.00000000000E+00 0. -1.
          1    1    5    5  503    0 -0.21908375776E+02  0.86717644619E+02  0.11042798300E+03  0.14210653133E+03  0.00000000000E+00 0. -1.
         -2    1    5    5    0  503 -0.17490386776E+03  0.40253871633E+03  0.31358031957E+03  0.53940837770E+03  0.00000000000E+00 0.  1.
         -1    1    6    6    0  502 -0.79159166970E+02 -0.24453337047E+03  0.51119004964E+03  0.57216956389E+03  0.00000000000E+00 0.  1.
<mgrwt>
<rscale>  0 0.16480674E+04</rscale>
<asrwt>0</asrwt>
<pdfrwt beam="1">  1        2 0.23630918E+00 0.16480674E+04</pdfrwt>
<pdfrwt beam="2">  1       -2 0.68011550E-01 0.16480674E+04</pdfrwt>
<totfact> 0.22906929E+01</totfact>
</mgrwt>
</event>
<event>
12    1  0.1097093E-007  0.1670824E+04  0.7818608E-02  0.8778181E-01
         -1   -1    0    0    0  501 -0.00000000000E+00  0.00000000000E+00  0.30349564154E+03  0.30349564154E+03  0.00000000000E+00 0.  1.
          1   -1    0    0  501    0  0.00000000000E+00 -0.00000000000E+00 -0.22995836359E+04  0.22995836359E+04  0.00000000000E+00 0. -1.
         23    2    1    2    0    0  0.37021136572E+03  0.28473217893E+03 -0.15753013030E+03  0.50176591419E+03  0.93938392915E+02 0.  0.
        254    2    1    2    0    0 -0.37021136572E+03 -0.28473217893E+03 -0.18385578640E+04  0.21013133632E+04  0.90393249860E+03 0.  0.
        -24    2    4    4    0    0 -0.61990595982E+03 -0.20324248120E+01 -0.12535813493E+04  0.14008254715E+04  0.80983162044E+02 0.  0.
         24    2    4    4    0    0  0.24969459410E+03 -0.28269975411E+03 -0.58497651474E+03  0.70048789172E+03  0.78862046354E+02 0.  0.
         11    1    3    3    0    0  0.37848392704E+02  0.23147101206E+02 -0.46945218889E+02  0.64592125689E+02  0.00000000000E+00 0. -1.
        -11    1    3    3    0    0  0.33236297301E+03  0.26158507772E+03 -0.11058491141E+03  0.43717378850E+03  0.00000000000E+00 0.  1.
          2    1    6    6  502    0  0.17205693247E+02 -0.14261473509E+02 -0.95494325563E+01  0.24302616504E+02  0.00000000000E+00 0. -1.
          1    1    5    5  503    0 -0.15551146868E+03  0.78918162198E+01 -0.24306545082E+03  0.28866401064E+03  0.00000000000E+00 0. -1.
         -2    1    5    5    0  503 -0.46439449113E+03 -0.99242410318E+01 -0.10105158985E+04  0.11121614609E+04  0.00000000000E+00 0.  1.
         -1    1    6    6    0  502  0.23248890085E+03 -0.26843828061E+03 -0.57542708218E+03  0.67618527522E+03  0.00000000000E+00 0.  1.
<mgrwt>
<rscale>  0 0.16708245E+04</rscale>
<asrwt>0</asrwt>
<pdfrwt beam="1">  1        1 0.35378212E+00 0.16708245E+04</pdfrwt>
<pdfrwt beam="2">  1       -1 0.46691635E-01 0.16708245E+04</pdfrwt>
<totfact> 0.81266502E+00</totfact>
</mgrwt>
</event>
<event>
12    1  0.1097093E-007  0.3006186E+04  0.7818608E-02  0.8241967E-01
          2   -1    0    0  501    0  0.00000000000E+00  0.00000000000E+00  0.43497027011E+04  0.43497027011E+04  0.00000000000E+00 0. -1.
         -2   -1    0    0    0  501 -0.00000000000E+00 -0.00000000000E+00 -0.51941209135E+03  0.51941209135E+03  0.00000000000E+00 0.  1.
         23    2    1    2    0    0 -0.33143749368E+03  0.12505487889E+04  0.24460036774E+04  0.27685357047E+04  0.90182441889E+02 0.  0.
        254    2    1    2    0    0  0.33143749368E+03 -0.12505487889E+04  0.13842869324E+04  0.21005790877E+04  0.90689531213E+03 0.  0.
        -24    2    4    4    0    0  0.60817279089E+03 -0.61968693855E+03  0.91028431436E+03  0.12604609755E+04  0.79109369719E+02 0.  0.
         24    2    4    4    0    0 -0.27673529721E+03 -0.63086185034E+03  0.47400261800E+03  0.84011811225E+03  0.80937393903E+02 0.  0.
         11    1    3    3    0    0 -0.11733103849E+02  0.38108537980E+02  0.11455993247E+03  0.12130088425E+03  0.00000000000E+00 0.  1.
        -11    1    3    3    0    0 -0.31970438984E+03  0.12124402509E+04  0.23314437450E+04  0.26472348205E+04  0.00000000000E+00 0. -1.
          4    1    6    6  502    0 -0.27536638007E+03 -0.63079712819E+03  0.46412709055E+03  0.83014794849E+03  0.00000000000E+00 0. -1.
          3    1    5    5  503    0  0.60498809837E+03 -0.61399620519E+03  0.88931208071E+03  0.12384982503E+04  0.00000000000E+00 0. -1.
         -4    1    5    5    0  503  0.31846925232E+01 -0.56907333668E+01  0.20972233652E+02  0.21962725174E+02  0.00000000000E+00 0.  1.
         -3    1    6    6    0  502 -0.13689171432E+01 -0.64722150987E-01  0.98755274442E+01  0.99701637600E+01  0.00000000000E+00 0.  1.
<mgrwt>
<rscale>  0 0.30061857E+04</rscale>
<asrwt>0</asrwt>
<pdfrwt beam="1">  1        2 0.66918501E+00 0.30061857E+04</pdfrwt>
<pdfrwt beam="2">  1       -2 0.79909555E-01 0.30061857E+04</pdfrwt>
<totfact> 0.20249772E-01</totfact>
</mgrwt>
</event>
<event>
12    1  0.1097093E-007  0.4112977E+04  0.7818608E-02  0.7982135E-01
          2   -1    0    0  501    0  0.00000000000E+00  0.00000000000E+00  0.29352074511E+04  0.29352074511E+04  0.00000000000E+00 0. -1.
         -2   -1    0    0    0  501 -0.00000000000E+00 -0.00000000000E+00 -0.14408333470E+04  0.14408333470E+04  0.00000000000E+00 0.  1.
         23    2    1    2    0    0  0.19517615943E+04 -0.15023882094E+03  0.68047136510E+03  0.20747603105E+04  0.98204089796E+02 0.  0.
        254    2    1    2    0    0 -0.19517615943E+04  0.15023882094E+03  0.81390273901E+03  0.23012804877E+04  0.89527045644E+03 0.  0.
        -24    2    4    4    0    0 -0.13708533729E+04 -0.30943216891E+03  0.52847684815E+03  0.15035798700E+04  0.80482354840E+02 0.  0.
         24    2    4    4    0    0 -0.58090822136E+03  0.45967098985E+03  0.28542589086E+03  0.79770061761E+03  0.78144453489E+02 0.  0.
         13    1    3    3    0    0  0.13058012933E+04 -0.77814180034E+02  0.41167368235E+03  0.13713669403E+04  0.00000000000E+00 0. -1.
        -13    1    3    3    0    0  0.64596030096E+03 -0.72424640910E+02  0.26879768275E+03  0.70339337023E+03  0.00000000000E+00 0.  1.
          2    1    6    6  502    0 -0.58040822334E+03  0.44797554484E+03  0.28090652400E+03  0.78515238631E+03  0.00000000000E+00 0. -1.
          1    1    5    5  503    0 -0.10472226450E+04 -0.24782941479E+03  0.43863027648E+03  0.11621063663E+04  0.00000000000E+00 0. -1.
         -2    1    5    5    0  503 -0.32363072789E+03 -0.61602754113E+02  0.89846571674E+02  0.34147350379E+03  0.00000000000E+00 0.  1.
         -1    1    6    6    0  502 -0.49999801468E+00  0.11695445010E+02  0.45193668573E+01  0.12548231301E+02  0.00000000000E+00 0.  1.
<mgrwt>
<rscale>  0 0.41129769E+04</rscale>
<asrwt>0</asrwt>
<pdfrwt beam="1">  1        2 0.45157037E+00 0.41129769E+04</pdfrwt>
<pdfrwt beam="2">  1       -2 0.22166667E+00 0.41129769E+04</pdfrwt>
<totfact> 0.14402992E-01</totfact>
</mgrwt>
</event>
<event>
12    1  0.1097093E-007  0.2068862E+04  0.7818608E-02  0.8575085E-01
         -2   -1    0    0    0  501 -0.00000000000E+00  0.00000000000E+00  0.43666582670E+03  0.43666582670E+03  0.00000000000E+00 0.  1.
          2   -1    0    0  501    0  0.00000000000E+00 -0.00000000000E+00 -0.24504942479E+04  0.24504942479E+04  0.00000000000E+00 0. -1.
         23    2    1    2    0    0  0.56206484348E+03 -0.60389787543E+03 -0.10031367235E+04  0.13020744830E+04  0.92223321627E+02 0.  0.
        254    2    1    2    0    0 -0.56206484348E+03  0.60389787543E+03 -0.10106916977E+04  0.15850855916E+04  0.90021613661E+03 0.  0.
        -24    2    4    4    0    0 -0.40597256374E+03  0.44900137175E+03 -0.11576095194E+04  0.13089186231E+04  0.82414855082E+02 0.  0.
         24    2    4    4    0    0 -0.15609227974E+03  0.15489650367E+03  0.14691782166E+03  0.27616696845E+03  0.79533775821E+02 0.  0.
         11    1    3    3    0    0  0.88093357991E+02 -0.12616359658E+03 -0.23437017792E+03  0.28036952959E+03  0.00000000000E+00 0.  1.
        -11    1    3    3    0    0  0.47397148549E+03 -0.47773427884E+03 -0.76876654558E+03  0.10217049534E+04  0.00000000000E+00 0. -1.
          2    1    6    6  502    0 -0.14718614459E+03  0.10574117700E+03  0.97050747745E+02  0.20558162688E+03  0.00000000000E+00 0. -1.
          3    1    5    5  503    0 -0.34230970303E+03  0.38004445212E+03 -0.10352757425E+04  0.11547318223E+04  0.00000000000E+00 0. -1.
         -4    1    5    5    0  503 -0.63662860705E+02  0.68956919629E+02 -0.12233377688E+03  0.15418680087E+03  0.00000000000E+00 0.  1.
         -1    1    6    6    0  502 -0.89061351481E+01  0.49155326670E+02  0.49867073911E+02  0.70585341565E+02  0.00000000000E+00 0.  1.
<mgrwt>
<rscale>  0 0.20688616E+04</rscale>
<asrwt>0</asrwt>
<pdfrwt beam="1">  1        2 0.37699911E+00 0.20688616E+04</pdfrwt>
<pdfrwt beam="2">  1       -2 0.67179358E-01 0.20688616E+04</pdfrwt>
<totfact> 0.69862171E+00</totfact>
</mgrwt>
</event>
<event>
12    1  0.1097093E-007  0.2805391E+04  0.7818608E-02  0.8301597E-01
          1   -1    0    0  501    0  0.00000000000E+00  0.00000000000E+00  0.21001598286E+04  0.21001598286E+04  0.00000000000E+00 0. -1.
         -1   -1    0    0    0  501 -0.00000000000E+00 -0.00000000000E+00 -0.93685964346E+03  0.93685964346E+03  0.00000000000E+00 0.  1.
         23    2    1    2    0    0 -0.29522091822E+03  0.39931197905E+03  0.17672017060E+04  0.18379897755E+04  0.92731322810E+02 0.  0.
        254    2    1    2    0    0  0.29522091822E+03 -0.39931197905E+03 -0.60390152081E+03  0.11990296965E+04  0.90904879912E+03 0.  0.
        -24    2    4    4    0    0  0.66227256863E+02 -0.88078981926E+02  0.23511155540E+03  0.27196425247E+03  0.80889767762E+02 0.  0.
         24    2    4    4    0    0  0.22899366136E+03 -0.31123299712E+03 -0.83901307622E+03  0.92706544408E+03  0.78761158552E+02 0.  0.
         11    1    3    3    0    0 -0.19369237915E+03  0.21828297038E+03  0.11661361600E+04  0.12020972243E+04  0.00000000000E+00 0. -1.
        -11    1    3    3    0    0 -0.10152853907E+03  0.18102900867E+03  0.60106554596E+03  0.63589255127E+03  0.00000000000E+00 0.  1.
          4    1    6    6  502    0  0.57095641493E+02 -0.10284466019E+03 -0.33770988247E+03  0.35760998466E+03  0.00000000000E+00 0. -1.
          3    1    5    5  503    0  0.79327793505E+02 -0.86282972370E+02  0.22930252128E+03  0.25752144845E+03  0.00000000000E+00 0. -1.
         -4    1    5    5    0  503 -0.13100536642E+02 -0.17960095559E+01  0.58090341197E+01  0.14442804023E+02  0.00000000000E+00 0.  1.
         -3    1    6    6    0  502  0.17189801987E+03 -0.20838833693E+03 -0.50130319374E+03  0.56945545942E+03  0.00000000000E+00 0.  1.
<mgrwt>
<rscale>  0 0.28053912E+04</rscale>
<asrwt>0</asrwt>
<pdfrwt beam="1">  1        1 0.32310151E+00 0.28053912E+04</pdfrwt>
<pdfrwt beam="2">  1       -1 0.14413225E+00 0.28053912E+04</pdfrwt>
<totfact> 0.85577285E-01</totfact>
</mgrwt>
</event>
<event>
12    1  0.1097093E-007  0.1240228E+04  0.7818608E-02  0.9078356E-01
         -2   -1    0    0    0  501 -0.00000000000E+00  0.00000000000E+00  0.20721629508E+03  0.20721629508E+03  0.00000000000E+00 0.  1.
          2   -1    0    0  501    0  0.00000000000E+00 -0.00000000000E+00 -0.18557479958E+04  0.18557479958E+04  0.00000000000E+00 0. -1.
         23    2    1    2    0    0 -0.10348684519E+02 -0.28279968077E+03 -0.29228122887E+03  0.41671075638E+03  0.90204118673E+02 0.  0.
        254    2    1    2    0    0  0.10348684519E+02  0.28279968077E+03 -0.13562504719E+04  0.16462535345E+04  0.88918648366E+03 0.  0.
        -24    2    4    4    0    0 -0.15388717402E+03  0.39215781870E+03 -0.13670004080E+04  0.14326747511E+04  0.79986310277E+02 0.  0.
         24    2    4    4    0    0  0.16423585854E+03 -0.10935813794E+03  0.10749936128E+02  0.21357878343E+03  0.81041446430E+02 0.  0.
         11    1    3    3    0    0 -0.40678993014E+02 -0.24370163856E+03 -0.25187465592E+03  0.35282589389E+03  0.00000000000E+00 0.  1.
        -11    1    3    3    0    0  0.30330308494E+02 -0.39098042207E+02 -0.40406572950E+02  0.63884862490E+02  0.00000000000E+00 0. -1.
          2    1    6    6  502    0  0.11162689902E+03 -0.83055680479E+02 -0.29601831446E+02  0.14225005824E+03  0.00000000000E+00 0. -1.
          1    1    5    5  503    0 -0.84534901628E+02  0.16774156397E+03 -0.49018439926E+03  0.52494202266E+03  0.00000000000E+00 0. -1.
         -2    1    5    5    0  503 -0.69352272393E+02  0.22441625473E+03 -0.87681600875E+03  0.90773272844E+03  0.00000000000E+00 0.  1.
         -1    1    6    6    0  502  0.52608959516E+02 -0.26302457456E+02  0.40351767574E+02  0.71328725181E+02  0.00000000000E+00 0.  1.
<mgrwt>
<rscale>  0 0.12402278E+04</rscale>
<asrwt>0</asrwt>
<pdfrwt beam="1">  1        2 0.28549968E+00 0.12402278E+04</pdfrwt>
<pdfrwt beam="2">  1       -2 0.31879431E-01 0.12402278E+04</pdfrwt>
<totfact> 0.72377068E+01</totfact>
</mgrwt>
</event>
<event>
12    1  0.1097093E-007  0.1514495E+04  0.7818608E-02  0.8874870E-01
         -3   -1    0    0    0  501 -0.00000000000E+00  0.00000000000E+00  0.75625867736E+03  0.75625867736E+03  0.00000000000E+00 0.  1.
          3   -1    0    0  501    0  0.00000000000E+00 -0.00000000000E+00 -0.75823802672E+03  0.75823802672E+03  0.00000000000E+00 0. -1.
         23    2    1    2    0    0  0.25397619538E+03  0.11275642390E+03 -0.39078260508E+03  0.48686426797E+03  0.84308078160E+02 0.  0.
        254    2    1    2    0    0 -0.25397619538E+03 -0.11275642390E+03  0.38880325573E+03  0.10276324361E+04  0.90974860986E+03 0.  0.
        -24    2    4    4    0    0 -0.15080292752E+03 -0.47444588883E+03  0.39715242972E+03  0.64189358056E+03  0.80354787973E+02 0.  0.
         24    2    4    4    0    0 -0.10317326786E+03  0.36168946493E+03 -0.83491739921E+01  0.38573885555E+03  0.85210115214E+02 0.  0.
         13    1    3    3    0    0  0.59051227574E+02  0.18842615442E+01 -0.43084225963E+02  0.73122147441E+02  0.00000000000E+00 0.  1.
        -13    1    3    3    0    0  0.19492496781E+03  0.11087216236E+03 -0.34769837912E+03  0.41374212053E+03  0.00000000000E+00 0. -1.
          4    1    6    6  502    0 -0.15862128495E+02  0.10924681039E+03 -0.38531886241E+02  0.11692381689E+03  0.00000000000E+00 0. -1.
          1    1    5    5  503    0 -0.65161111154E+02 -0.19743444400E+03  0.11630655831E+03  0.23823002664E+03  0.00000000000E+00 0. -1.
         -2    1    5    5    0  503 -0.85641816370E+02 -0.27701144483E+03  0.28084587140E+03  0.40366355392E+03  0.00000000000E+00 0.  1.
         -3    1    6    6    0  502 -0.87311139361E+02  0.25244265455E+03  0.30182712249E+02  0.26881503866E+03  0.00000000000E+00 0.  1.
<mgrwt>
<rscale>  0 0.15144954E+04</rscale>
<asrwt>0</asrwt>
<pdfrwt beam="1">  1        3 0.11665200E+00 0.15144954E+04</pdfrwt>
<pdfrwt beam="2">  1       -3 0.11634749E+00 0.15144954E+04</pdfrwt>
<totfact> 0.93481322E-01</totfact>
</mgrwt>
</event>
<event>
12    1  0.1097093E-007  0.2076019E+04  0.7818608E-02  0.8571881E-01
         -2   -1    0    0    0  501 -0.00000000000E+00  0.00000000000E+00  0.87454533586E+03  0.87454533586E+03  0.00000000000E+00 0.  1.
          2   -1    0    0  501    0  0.00000000000E+00 -0.00000000000E+00 -0.12320276460E+04  0.12320276460E+04  0.00000000000E+00 0. -1.
         23    2    1    2    0    0  0.59752874221E+03  0.35457370594E+03 -0.62712996220E+03  0.94058563619E+03  0.92985153704E+02 0.  0.
        254    2    1    2    0    0 -0.59752874221E+03 -0.35457370594E+03  0.26964765206E+03  0.11659873457E+04  0.89669031626E+03 0.  0.
        -24    2    4    4    0    0 -0.52569865038E+03 -0.63484049699E+03  0.25329786766E+03  0.86606025183E+03  0.80740463308E+02 0.  0.
         24    2    4    4    0    0 -0.71830091833E+02  0.28026679104E+03  0.16349784405E+02  0.29992709384E+03  0.77329877237E+02 0.  0.
         13    1    3    3    0    0  0.55634126216E+03  0.33255603388E+03 -0.54832685272E+03  0.84898259879E+03  0.00000000000E+00 0. -1.
        -13    1    3    3    0    0  0.41187480058E+02  0.22017672064E+02 -0.78803109484E+02  0.91603037400E+02  0.00000000000E+00 0.  1.
          4    1    6    6  502    0 -0.82211199601E+02  0.20685450836E+03 -0.54066408450E+01  0.22265825997E+03  0.00000000000E+00 0. -1.
          3    1    5    5  503    0 -0.52450266778E+03 -0.62143556955E+03  0.24186313937E+03  0.84840025565E+03  0.00000000000E+00 0. -1.
         -4    1    5    5    0  503 -0.11959826027E+01 -0.13404927439E+02  0.11434728286E+02  0.17659996178E+02  0.00000000000E+00 0.  1.
         -3    1    6    6    0  502  0.10381107768E+02  0.73412282680E+02  0.21756425250E+02  0.77268833863E+02  0.00000000000E+00 0.  1.
<mgrwt>
<rscale>  0 0.20760193E+04</rscale>
<asrwt>0</asrwt>
<pdfrwt beam="1">  1        2 0.18954271E+00 0.20760193E+04</pdfrwt>
<pdfrwt beam="2">  1       -2 0.13454544E+00 0.20760193E+04</pdfrwt>
<totfact> 0.66611157E+00</totfact>
</mgrwt>
</event>
<event>
12    1  0.1097093E-007  0.2399819E+04  0.7818608E-02  0.8439571E-01
         -1   -1    0    0    0  501 -0.00000000000E+00  0.00000000000E+00  0.50746633386E+03  0.50746633386E+03  0.00000000000E+00 0. -1.
          1   -1    0    0  501    0  0.00000000000E+00 -0.00000000000E+00 -0.28371990630E+04  0.28371990630E+04  0.00000000000E+00 0.  1.
         23    2    1    2    0    0 -0.10073372575E+04  0.14371089386E+03 -0.88993939058E+03  0.13548814615E+04  0.91271487645E+02 0.  0.
        254    2    1    2    0    0  0.10073372575E+04 -0.14371089386E+03 -0.14397933386E+04  0.19897839353E+04  0.92241751938E+03 0.  0.
        -24    2    4    4    0    0  0.32053858468E+03  0.32432232558E+02 -0.11872867472E+04  0.12326837975E+04  0.77863280819E+02 0.  0.
         24    2    4    4    0    0  0.68679867287E+03 -0.17614312641E+03 -0.25250659136E+03  0.75710013784E+03  0.81989157842E+02 0.  0.
         11    1    3    3    0    0 -0.56224254756E+03  0.11082494018E+03 -0.54467554049E+03  0.79061387166E+03  0.00000000000E+00 0. -1.
        -11    1    3    3    0    0 -0.44509470999E+03  0.32885953673E+02 -0.34526385010E+03  0.56426758988E+03  0.00000000000E+00 0.  1.
          4    1    6    6  502    0  0.52986015554E+03 -0.14213313774E+03 -0.23037411635E+03  0.59500071156E+03  0.00000000000E+00 0. -1.
          3    1    5    5  503    0  0.10345016974E+03 -0.80097449542E+01 -0.50509244392E+03  0.51563986516E+03  0.00000000000E+00 0. -1.
         -4    1    5    5    0  503  0.21708841493E+03  0.40441977512E+02 -0.68219430330E+03  0.71704393234E+03  0.00000000000E+00 0.  1.
         -3    1    6    6    0  502  0.15693851734E+03 -0.34009988676E+02 -0.22132475009E+02  0.16209942629E+03  0.00000000000E+00 0.  1.
<mgrwt>
<rscale>  0 0.23998192E+04</rscale>
<asrwt>0</asrwt>
<pdfrwt beam="1">  1        1 0.43649216E+00 0.23998192E+04</pdfrwt>
<pdfrwt beam="2">  1       -1 0.78071744E-01 0.23998192E+04</pdfrwt>
<totfact> 0.11541395E+00</totfact>
</mgrwt>
</event>
<event>
12    1  0.1097093E-007  0.1248800E+04  0.7818608E-02  0.9071183E-01
          1   -1    0    0  501    0  0.00000000000E+00  0.00000000000E+00  0.49622266290E+03  0.49622266290E+03  0.00000000000E+00 0. -1.
         -1   -1    0    0    0  501 -0.00000000000E+00 -0.00000000000E+00 -0.78568635968E+03  0.78568635968E+03  0.00000000000E+00 0.  1.
         23    2    1    2    0    0  0.23545248412E+03 -0.16742005889E+03  0.88770653412E+01  0.30161688005E+03  0.86177674840E+02 0.  0.
        254    2    1    2    0    0 -0.23545248412E+03  0.16742005889E+03 -0.29834076212E+03  0.98029214254E+03  0.88797416966E+03 0.  0.
        -24    2    4    4    0    0 -0.27316547932E+03 -0.31685445992E+03 -0.49583562382E+02  0.42876278975E+03  0.79767614709E+02 0.  0.
         24    2    4    4    0    0  0.37712995195E+02  0.48427451880E+03 -0.24875719974E+03  0.55152935279E+03  0.79752134748E+02 0.  0.
         11    1    3    3    0    0  0.12844772792E+03 -0.38947088197E+02  0.70708503341E+01  0.13440867313E+03  0.00000000000E+00 0.  1.
        -11    1    3    3    0    0  0.10700475620E+03 -0.12847297069E+03  0.18062150071E+01  0.16720820692E+03  0.00000000000E+00 0. -1.
          4    1    6    6  502    0 -0.25156062160E+02  0.12894885116E+03 -0.64203013951E+02  0.14622811180E+03  0.00000000000E+00 0. -1.
          3    1    5    5  503    0 -0.30872616747E+02 -0.66675696424E+02  0.13817654472E+02  0.74764259734E+02  0.00000000000E+00 0. -1.
         -4    1    5    5    0  503 -0.24229286257E+03 -0.25017876349E+03 -0.63401216854E+02  0.35399853002E+03  0.00000000000E+00 0.  1.
         -3    1    6    6    0  502  0.62869057355E+02  0.35532566764E+03 -0.18455418579E+03  0.40530124099E+03  0.00000000000E+00 0.  1.
<mgrwt>
<rscale>  0 0.12488000E+04</rscale>
<asrwt>0</asrwt>
<pdfrwt beam="1">  1        1 0.76341948E-01 0.12488000E+04</pdfrwt>
<pdfrwt beam="2">  1       -1 0.12087482E+00 0.12488000E+04</pdfrwt>
<totfact> 0.26873374E+01</totfact>
</mgrwt>
</event>
<event>
12    1  0.1097093E-007  0.2465703E+04  0.7818608E-02  0.8415307E-01
          2   -1    0    0  501    0  0.00000000000E+00  0.00000000000E+00  0.18740617474E+04  0.18740617474E+04  0.00000000000E+00 0. -1.
         -2   -1    0    0    0  501 -0.00000000000E+00 -0.00000000000E+00 -0.81103115964E+03  0.81103115964E+03  0.00000000000E+00 0.  1.
         23    2    1    2    0    0  0.84452272333E+03 -0.64379273939E+03  0.55948106621E+03  0.12035472115E+04  0.88425705657E+02 0.  0.
        254    2    1    2    0    0 -0.84452272333E+03  0.64379273939E+03  0.50354952159E+03  0.14815456956E+04  0.90206862588E+03 0.  0.
        -24    2    4    4    0    0 -0.21948003121E+03 -0.18559522341E+03 -0.48444184990E+02  0.30264146143E+03  0.81412186213E+02 0.  0.
         24    2    4    4    0    0 -0.62504269213E+03  0.82938796280E+03  0.55199370657E+03  0.11789042341E+04  0.80965309377E+02 0.  0.
         11    1    3    3    0    0  0.16413490716E+03 -0.90799171556E+02  0.12128099859E+03  0.22336928598E+03  0.00000000000E+00 0.  1.
        -11    1    3    3    0    0  0.68038781618E+03 -0.55299356783E+03  0.43820006763E+03  0.98017792555E+03  0.00000000000E+00 0. -1.
          4    1    6    6  502    0 -0.33045220951E+02  0.79554209842E+02  0.51880443177E+02  0.10056062508E+03  0.00000000000E+00 0. -1.
          1    1    5    5  503    0 -0.40247976768E+02  0.62414267397E+00 -0.78898798720E+01  0.41018768782E+02  0.00000000000E+00 0. -1.
         -2    1    5    5    0  503 -0.17923205444E+03 -0.18621936608E+03 -0.40554305118E+02  0.26162269264E+03  0.00000000000E+00 0.  1.
         -3    1    6    6    0  502 -0.59199747117E+03  0.74983375296E+03  0.50011326340E+03  0.10783436090E+04  0.00000000000E+00 0.  1.
<mgrwt>
<rscale>  0 0.24657027E+04</rscale>
<asrwt>0</asrwt>
<pdfrwt beam="1">  1        2 0.28831719E+00 0.24657027E+04</pdfrwt>
<pdfrwt beam="2">  1       -2 0.12477402E+00 0.24657027E+04</pdfrwt>
<totfact> 0.33817658E+00</totfact>
</mgrwt>
</event>
<event>
12    1  0.1097093E-007  0.1405819E+04  0.7818608E-02  0.8949617E-01
          2   -1    0    0  501    0  0.00000000000E+00  0.00000000000E+00  0.15858780684E+04  0.15858780684E+04  0.00000000000E+00 0. -1.
         -2   -1    0    0    0  501 -0.00000000000E+00 -0.00000000000E+00 -0.31155090625E+03  0.31155090625E+03  0.00000000000E+00 0.  1.
         23    2    1    2    0    0 -0.44276366364E+02  0.21086127233E+03  0.84320333614E+03  0.87546449557E+03  0.94991284625E+02 0.  0.
        254    2    1    2    0    0  0.44276366364E+02 -0.21086127233E+03  0.43112382598E+03  0.10219644790E+04  0.90117743553E+03 0.  0.
        -24    2    4    4    0    0  0.56461539116E+02 -0.33704964022E+02  0.69037806985E+03  0.69769065560E+03  0.76331131161E+02 0.  0.
         24    2    4    4    0    0 -0.12185172751E+02 -0.17715630831E+03 -0.25925424387E+03  0.32427382344E+03  0.80049444680E+02 0.  0.
         11    1    3    3    0    0 -0.70819342318E+02  0.10732923101E+03  0.46205829518E+03  0.47961735917E+03  0.00000000000E+00 0. -1.
        -11    1    3    3    0    0  0.26542975954E+02  0.10353204132E+03  0.38114504096E+03  0.39584713640E+03  0.00000000000E+00 0.  1.
          4    1    6    6  502    0 -0.11830010584E+02 -0.15725926779E+03 -0.26030011879E+03  0.30434614881E+03  0.00000000000E+00 0. -1.
          1    1    5    5  503    0  0.32821142799E+02 -0.73395501510E+01  0.86999703751E+02  0.93274031026E+02  0.00000000000E+00 0. -1.
         -2    1    5    5    0  503  0.23640396317E+02 -0.26365413871E+02  0.60337836610E+03  0.60441662458E+03  0.00000000000E+00 0.  1.
         -3    1    6    6    0  502 -0.35516216777E+00 -0.19897040518E+02  0.10458749185E+01  0.19927674623E+02  0.00000000000E+00 0.  1.
<mgrwt>
<rscale>  0 0.14058190E+04</rscale>
<asrwt>0</asrwt>
<pdfrwt beam="1">  1        2 0.24398124E+00 0.14058190E+04</pdfrwt>
<pdfrwt beam="2">  1       -2 0.47930910E-01 0.14058190E+04</pdfrwt>
<totfact> 0.45558230E+01</totfact>
</mgrwt>
</event>
<event>
12    1  0.1097093E-007  0.4380544E+04  0.7818608E-02  0.7931890E-01
          2   -1    0    0  501    0  0.00000000000E+00  0.00000000000E+00  0.23890246166E+04  0.23890246166E+04  0.00000000000E+00 0. -1.
         -2   -1    0    0    0  501 -0.00000000000E+00 -0.00000000000E+00 -0.20080542788E+04  0.20080542788E+04  0.00000000000E+00 0.  1.
         23    2    1    2    0    0 -0.13615361981E+04  0.14616346265E+04 -0.45511501815E+03  0.20505953714E+04  0.87493411522E+02 0.  0.
        254    2    1    2    0    0  0.13615361981E+04 -0.14616346265E+04  0.83608535598E+03  0.23464835240E+04  0.90376413165E+03 0.  0.
        -24    2    4    4    0    0  0.59436194724E+03 -0.12587556886E+04  0.50105289929E+03  0.14815596712E+04  0.78949625774E+02 0.  0.
         24    2    4    4    0    0  0.76717425089E+03 -0.20287893794E+03  0.33503245668E+03  0.86492385285E+03  0.78296420804E+02 0.  0.
         11    1    3    3    0    0 -0.32056445557E+03  0.36231394231E+03 -0.14669859160E+03  0.50552293691E+03  0.00000000000E+00 0. -1.
        -11    1    3    3    0    0 -0.10409717426E+04  0.10993206842E+04 -0.30841642655E+03  0.15450724345E+04  0.00000000000E+00 0.  1.
          4    1    6    6  502    0  0.72009236345E+03 -0.20612547442E+03  0.32595848283E+03  0.81686575129E+03  0.00000000000E+00 0. -1.
          3    1    5    5  503    0  0.37600706234E+03 -0.87157304014E+03  0.36022138188E+03  0.10152735194E+04  0.00000000000E+00 0. -1.
         -4    1    5    5    0  503  0.21835488490E+03 -0.38718264846E+03  0.14083151741E+03  0.46628615177E+03  0.00000000000E+00 0.  1.
         -3    1    6    6    0  502  0.47081887443E+02  0.32465364775E+01  0.90739738521E+01  0.48058101562E+02  0.00000000000E+00 0.  1.
<mgrwt>
<rscale>  0 0.43805438E+04</rscale>
<asrwt>0</asrwt>
<pdfrwt beam="1">  1        2 0.36754225E+00 0.43805438E+04</pdfrwt>
<pdfrwt beam="2">  1       -2 0.30893143E+00 0.43805438E+04</pdfrwt>
<totfact> 0.86453348E-02</totfact>
</mgrwt>
</event>
<event>
12    1  0.1097093E-007  0.1253659E+04  0.7818608E-02  0.9067144E-01
          2   -1    0    0  501    0  0.00000000000E+00  0.00000000000E+00  0.14964813383E+04  0.14964813383E+04  0.00000000000E+00 0. -1.
         -2   -1    0    0    0  501 -0.00000000000E+00 -0.00000000000E+00 -0.26255929193E+03  0.26255929193E+03  0.00000000000E+00 0.  1.
         23    2    1    2    0    0  0.20939555649E+03  0.19580181167E+03  0.22252226060E+03  0.37440006585E+03  0.92056527816E+02 0.  0.
        254    2    1    2    0    0 -0.20939555649E+03 -0.19580181167E+03  0.10113997858E+04  0.13846405644E+04  0.90117429910E+03 0.  0.
        -24    2    4    4    0    0 -0.31700235769E+03 -0.25941166407E+03  0.59199660504E+02  0.42097884881E+03  0.77030416765E+02 0.  0.
         24    2    4    4    0    0  0.10760680119E+03  0.63609852396E+02  0.95220012529E+03  0.96366171559E+03  0.79582576694E+02 0.  0.
         13    1    3    3    0    0  0.11619604905E+03  0.89804257488E+02  0.16788257912E+03  0.22304906825E+03  0.00000000000E+00 0. -1.
        -13    1    3    3    0    0  0.93199507442E+02  0.10599755419E+03  0.54639681478E+02  0.15135099759E+03  0.00000000000E+00 0.  1.
          2    1    6    6  502    0  0.46396950691E+02  0.94600516156E+01  0.14968386057E+03  0.15699499267E+03  0.00000000000E+00 0. -1.
          3    1    5    5  503    0 -0.37085100446E+02 -0.12656646585E+02  0.24508603274E+02  0.46218686831E+02  0.00000000000E+00 0. -1.
         -4    1    5    5    0  503 -0.27991725724E+03 -0.24675501748E+03  0.34691057230E+02  0.37476016198E+03  0.00000000000E+00 0.  1.
         -1    1    6    6    0  502  0.61209850504E+02  0.54149800781E+02  0.80251626472E+03  0.80666672292E+03  0.00000000000E+00 0.  1.
<mgrwt>
<rscale>  0 0.12536588E+04</rscale>
<asrwt>0</asrwt>
<pdfrwt beam="1">  1        2 0.23022789E+00 0.12536588E+04</pdfrwt>
<pdfrwt beam="2">  1       -2 0.40393738E-01 0.12536588E+04</pdfrwt>
<totfact> 0.72710987E+01</totfact>
</mgrwt>
</event>
<event>
12    1  0.1097093E-007  0.2429753E+04  0.7818608E-02  0.8428448E-01
         -2   -1    0    0    0  501 -0.00000000000E+00  0.00000000000E+00  0.72745119874E+03  0.72745119874E+03  0.00000000000E+00 0.  1.
          2   -1    0    0  501    0  0.00000000000E+00 -0.00000000000E+00 -0.20288987578E+04  0.20288987578E+04  0.00000000000E+00 0. -1.
         23    2    1    2    0    0 -0.58747400468E+03  0.70084318924E+03 -0.11370621604E+04  0.14622292113E+04  0.94324056342E+02 0.  0.
        254    2    1    2    0    0  0.58747400468E+03 -0.70084318924E+03 -0.16438539866E+03  0.12941207453E+04  0.90078802278E+03 0.  0.
        -24    2    4    4    0    0  0.74244667447E+03 -0.24658849619E+03 -0.20055518351E+02  0.78661843472E+03  0.79582580675E+02 0.  0.
         24    2    4    4    0    0 -0.15497266979E+03 -0.45425469305E+03 -0.14432988031E+03  0.50750231055E+03  0.79772340571E+02 0.  0.
         11    1    3    3    0    0 -0.44385498195E+03  0.56358820721E+03 -0.83700337467E+03  0.11023672535E+04  0.00000000000E+00 0.  1.
        -11    1    3    3    0    0 -0.14361902273E+03  0.13725498203E+03 -0.30005878571E+03  0.35986195779E+03  0.00000000000E+00 0. -1.
          4    1    6    6  502    0 -0.12061634576E+03 -0.37672369488E+03 -0.86644019801E+02  0.40493978727E+03  0.00000000000E+00 0. -1.
          1    1    5    5  503    0  0.64057906408E+03 -0.24075651188E+03 -0.17440269955E+02  0.68455050827E+03  0.00000000000E+00 0. -1.
         -2    1    5    5    0  503  0.10186761039E+03 -0.58319843113E+01 -0.26152483959E+01  0.10206792646E+03  0.00000000000E+00 0.  1.
         -3    1    6    6    0  502 -0.34356324030E+02 -0.77530998176E+02 -0.57685860508E+02  0.10256252328E+03  0.00000000000E+00 0.  1.
<mgrwt>
<rscale>  0 0.24297529E+04</rscale>
<asrwt>0</asrwt>
<pdfrwt beam="1">  1        2 0.31213827E+00 0.24297529E+04</pdfrwt>
<pdfrwt beam="2">  1       -2 0.11191557E+00 0.24297529E+04</pdfrwt>
<totfact> 0.36385698E+00</totfact>
</mgrwt>
</event>
<event>
12    1  0.1097093E-007  0.1300512E+04  0.7818608E-02  0.9029159E-01
         -2   -1    0    0    0  501 -0.00000000000E+00  0.00000000000E+00  0.24069065439E+03  0.24069065439E+03  0.00000000000E+00 0.  1.
          2   -1    0    0  501    0  0.00000000000E+00 -0.00000000000E+00 -0.17567480264E+04  0.17567480264E+04  0.00000000000E+00 0. -1.
         23    2    1    2    0    0  0.24692214415E+03  0.18022766659E+03 -0.16744994794E+03  0.36020985833E+03  0.90879590112E+02 0.  0.
        254    2    1    2    0    0 -0.24692214415E+03 -0.18022766659E+03 -0.13486074241E+04  0.16372288225E+04  0.87654074392E+03 0.  0.
        -24    2    4    4    0    0 -0.52485477405E+02 -0.49887837172E+03 -0.99468393039E+03  0.11167708529E+04  0.78400647105E+02 0.  0.
         24    2    4    4    0    0 -0.19443666675E+03  0.31865070513E+03 -0.35392349369E+03  0.52045796954E+03  0.79188189853E+02 0.  0.
         11    1    3    3    0    0  0.98678566763E+02  0.36576117747E+02 -0.93993846299E+02  0.14110320716E+03  0.00000000000E+00 0.  1.
        -11    1    3    3    0    0  0.14824357739E+03  0.14365154884E+03 -0.73456101642E+02  0.21910665118E+03  0.00000000000E+00 0. -1.
          2    1    6    6  502    0 -0.14936048515E+03  0.23574624756E+03 -0.21398071995E+03  0.35167114791E+03  0.00000000000E+00 0. -1.
          3    1    5    5  503    0 -0.68384412402E+01 -0.36825699887E+03 -0.69039032670E+03  0.78249522982E+03  0.00000000000E+00 0. -1.
         -4    1    5    5    0  503 -0.45647036165E+02 -0.13062137285E+03 -0.30429360370E+03  0.33427562311E+03  0.00000000000E+00 0.  1.
         -1    1    6    6    0  502 -0.45076181600E+02  0.82904457573E+02 -0.13994277374E+03  0.16878682163E+03  0.00000000000E+00 0.  1.
<mgrwt>
<rscale>  0 0.13005119E+04</rscale>
<asrwt>0</asrwt>
<pdfrwt beam="1">  1        2 0.27026893E+00 0.13005119E+04</pdfrwt>
<pdfrwt beam="2">  1       -2 0.37029331E-01 0.13005119E+04</pdfrwt>
<totfact> 0.61433739E+01</totfact>
</mgrwt>
</event>
<event>
12    1  0.1097093E-007  0.1264761E+04  0.7818608E-02  0.9057986E-01
          2   -1    0    0  501    0  0.00000000000E+00  0.00000000000E+00  0.34564691537E+04  0.34564691537E+04  0.00000000000E+00 0. -1.
         -2   -1    0    0    0  501 -0.00000000000E+00 -0.00000000000E+00 -0.11569758683E+03  0.11569758683E+03  0.00000000000E+00 0.  1.
         23    2    1    2    0    0 -0.19468235357E+03 -0.22635751284E+03  0.68938008412E+03  0.75718889925E+03  0.94610709533E+02 0.  0.
        254    2    1    2    0    0  0.19468235357E+03  0.22635751284E+03  0.26513914827E+04  0.28149778413E+04  0.89726501638E+03 0.  0.
        -24    2    4    4    0    0 -0.73991574361E+02  0.20944044584E+03  0.11285221253E+03  0.26095600830E+03  0.77603884977E+02 0.  0.
         24    2    4    4    0    0  0.26867392793E+03  0.16917067003E+02  0.25385392702E+04  0.25540218330E+04  0.79837523427E+02 0.  0.
         11    1    3    3    0    0 -0.18671983608E+03 -0.21332107440E+03  0.68492364633E+03  0.74127631776E+03  0.00000000000E+00 0.  1.
        -11    1    3    3    0    0 -0.79625174898E+01 -0.13036438441E+02  0.44564377904E+01  0.15912581493E+02  0.00000000000E+00 0. -1.
          2    1    6    6  502    0  0.25020801120E+03 -0.72747601946E+01  0.22484451598E+04  0.22623356532E+04  0.00000000000E+00 0. -1.
          3    1    5    5  503    0 -0.50879724327E+02  0.17272394640E+03  0.54279128066E+02  0.18806523270E+03  0.00000000000E+00 0. -1.
         -4    1    5    5    0  503 -0.23111850034E+02  0.36716499435E+02  0.58573084462E+02  0.72890775590E+02  0.00000000000E+00 0.  1.
         -1    1    6    6    0  502  0.18465916728E+02  0.24191827197E+02  0.29009411041E+03  0.29168617978E+03  0.00000000000E+00 0.  1.
<mgrwt>
<rscale>  0 0.12647611E+04</rscale>
<asrwt>0</asrwt>
<pdfrwt beam="1">  1        2 0.53176441E+00 0.12647611E+04</pdfrwt>
<pdfrwt beam="2">  1       -2 0.17799631E-01 0.12647611E+04</pdfrwt>
<totfact> 0.22923912E+01</totfact>
</mgrwt>
</event>
<event>
12    1  0.1097093E-007  0.2256083E+04  0.7818608E-02  0.8495441E-01
          2   -1    0    0  501    0  0.00000000000E+00  0.00000000000E+00  0.20985544852E+04  0.20985544852E+04  0.00000000000E+00 0.  1.
         -2   -1    0    0    0  501 -0.00000000000E+00 -0.00000000000E+00 -0.60635894424E+03  0.60635894424E+03  0.00000000000E+00 0. -1.
         23    2    1    2    0    0  0.29075381642E+03 -0.68588907067E+03 -0.74819796498E+02  0.75434516648E+03  0.91962107479E+02 0.  0.
        254    2    1    2    0    0 -0.29075381642E+03  0.68588907067E+03  0.15670153375E+04  0.19505682630E+04  0.89117780586E+03 0.  0.
        -24    2    4    4    0    0 -0.22433174210E+03  0.75630865168E+03  0.16298354073E+04  0.18124536171E+04  0.79354598956E+02 0.  0.
         24    2    4    4    0    0 -0.66422074314E+02 -0.70419581008E+02 -0.62820069763E+02  0.13811464587E+03  0.75884681545E+02 0.  0.
         11    1    3    3    0    0  0.15617501434E+03 -0.47673739236E+03 -0.40836069260E+02  0.50332570064E+03  0.00000000000E+00 0. -1.
        -11    1    3    3    0    0  0.13457880208E+03 -0.20915167831E+03 -0.33983727237E+02  0.25101946583E+03  0.00000000000E+00 0.  1.
          4    1    6    6  502    0 -0.60787188771E+02 -0.92522569102E+01 -0.34031154482E+02  0.70276639448E+02  0.00000000000E+00 0. -1.
          1    1    5    5  503    0 -0.94820301334E+02  0.40150648214E+03  0.92397577633E+03  0.10118940557E+04  0.00000000000E+00 0. -1.
         -2    1    5    5    0  503 -0.12951144077E+03  0.35480216954E+03  0.70585963093E+03  0.80055956142E+03  0.00000000000E+00 0.  1.
         -3    1    6    6    0  502 -0.56348855431E+01 -0.61167324098E+02 -0.28788915281E+02  0.67838006423E+02  0.00000000000E+00 0.  1.
<mgrwt>
<rscale>  0 0.22560827E+04</rscale>
<asrwt>0</asrwt>
<pdfrwt beam="1">  1        2 0.32285453E+00 0.22560827E+04</pdfrwt>
<pdfrwt beam="2">  1       -2 0.93285992E-01 0.22560827E+04</pdfrwt>
<totfact> 0.52081534E+00</totfact>
</mgrwt>
</event>
<event>
12    1  0.1097093E-007  0.1626296E+04  0.7818608E-02  0.8804554E-01
         -1   -1    0    0    0  501 -0.00000000000E+00  0.00000000000E+00  0.66005073492E+03  0.66005073492E+03  0.00000000000E+00 0.  1.
          1   -1    0    0  501    0  0.00000000000E+00 -0.00000000000E+00 -0.10017555543E+04  0.10017555543E+04  0.00000000000E+00 0. -1.
         23    2    1    2    0    0 -0.90174024880E+02 -0.39909923906E+03  0.26857610637E+03  0.49864934770E+03  0.95427929187E+02 0.  0.
        254    2    1    2    0    0  0.90174024880E+02  0.39909923906E+03 -0.61028092570E+03  0.11631569415E+04  0.90170932392E+03 0.  0.
        -24    2    4    4    0    0 -0.42247391103E+02 -0.21756207330E+03  0.56899597744E+02  0.24229641787E+03  0.79698758418E+02 0.  0.
         24    2    4    4    0    0  0.13242141598E+03  0.61666131236E+03 -0.66718052344E+03  0.92086052361E+03  0.71046797978E+02 0.  0.
         13    1    3    3    0    0 -0.78540163784E+02 -0.15381703288E+03  0.13427363515E+03  0.21876390477E+03  0.00000000000E+00 0. -1.
        -13    1    3    3    0    0 -0.11633861096E+02 -0.24528220618E+03  0.13430247121E+03  0.27988544293E+03  0.00000000000E+00 0.  1.
          4    1    6    6  502    0  0.10192824491E+03  0.45349681700E+03 -0.44466916969E+03  0.64325686985E+03  0.00000000000E+00 0. -1.
          3    1    5    5  503    0 -0.11644595300E+02 -0.19744005843E+03  0.56399956416E+02  0.20566751896E+03  0.00000000000E+00 0. -1.
         -4    1    5    5    0  503 -0.30602795804E+02 -0.20122014871E+02  0.49964132836E+00  0.36628898904E+02  0.00000000000E+00 0.  1.
         -3    1    6    6    0  502  0.30493171069E+02  0.16316449536E+03 -0.22251135375E+03  0.27760365375E+03  0.00000000000E+00 0.  1.
<mgrwt>
<rscale>  0 0.16262958E+04</rscale>
<asrwt>0</asrwt>
<pdfrwt beam="1">  1        1 0.15411624E+00 0.16262958E+04</pdfrwt>
<pdfrwt beam="2">  1       -1 0.10154627E+00 0.16262958E+04</pdfrwt>
<totfact> 0.13290107E+01</totfact>
</mgrwt>
</event>
<event>
12    1  0.1097093E-007  0.3275413E+04  0.7818608E-02  0.8169180E-01
          2   -1    0    0  501    0  0.00000000000E+00  0.00000000000E+00  0.19878494232E+04  0.19878494232E+04  0.00000000000E+00 0. -1.
         -2   -1    0    0    0  501 -0.00000000000E+00 -0.00000000000E+00 -0.13492385134E+04  0.13492385134E+04  0.00000000000E+00 0.  1.
         23    2    1    2    0    0  0.24754188650E+03 -0.28830983702E+03 -0.11948716629E+04  0.12567997366E+04  0.86184334769E+02 0.  0.
        254    2    1    2    0    0 -0.24754188650E+03  0.28830983702E+03  0.18334825727E+04  0.20802881999E+04  0.90638904602E+03 0.  0.
        -24    2    4    4    0    0  0.33007589679E+03  0.31271188244E+02  0.73621507526E+03  0.81129266924E+03  0.79089653404E+02 0.  0.
         24    2    4    4    0    0 -0.57761778329E+03  0.25703864878E+03  0.10972674974E+04  0.12689955307E+04  0.81501689970E+02 0.  0.
         11    1    3    3    0    0  0.18052505919E+03 -0.20502985791E+03 -0.72091078624E+03  0.77093378532E+03  0.00000000000E+00 0.  1.
        -11    1    3    3    0    0  0.67016827314E+02 -0.83279979110E+02 -0.47396087664E+03  0.48586595131E+03  0.00000000000E+00 0. -1.
          2    1    6    6  502    0 -0.16366787146E+03  0.82392386042E+02  0.24979960116E+03  0.30979915779E+03  0.00000000000E+00 0. -1.
          1    1    5    5  503    0  0.13315000776E+03 -0.12006474663E+02  0.36731692735E+03  0.39088976083E+03  0.00000000000E+00 0. -1.
         -2    1    5    5    0  503  0.19692588902E+03  0.43277662907E+02  0.36889814791E+03  0.42040290842E+03  0.00000000000E+00 0.  1.
         -1    1    6    6    0  502 -0.41394991183E+03  0.17464626274E+03  0.84746789625E+03  0.95919637289E+03  0.00000000000E+00 0.  1.
<mgrwt>
<rscale>  0 0.32754133E+04</rscale>
<asrwt>0</asrwt>
<pdfrwt beam="1">  1        2 0.30582299E+00 0.32754133E+04</pdfrwt>
<pdfrwt beam="2">  1       -2 0.20757515E+00 0.32754133E+04</pdfrwt>
<totfact> 0.67420975E-01</totfact>
</mgrwt>
</event>
<event>
12    1  0.1097093E-007  0.1581880E+04  0.7818608E-02  0.8831758E-01
         -2   -1    0    0    0  501 -0.00000000000E+00  0.00000000000E+00  0.35506557145E+03  0.35506557145E+03  0.00000000000E+00 0.  1.
          2   -1    0    0  501    0  0.00000000000E+00 -0.00000000000E+00 -0.17618888785E+04  0.17618888785E+04  0.00000000000E+00 0. -1.
         23    2    1    2    0    0 -0.10287654457E+03  0.36314952541E+03 -0.97354609424E+03  0.10481072933E+04  0.90971090633E+02 0.  0.
        254    2    1    2    0    0  0.10287654457E+03 -0.36314952541E+03 -0.43327721284E+03  0.10688471567E+04  0.90124577116E+03 0.  0.
        -24    2    4    4    0    0 -0.28442754011E+03 -0.39638811154E+03 -0.18302557296E+02  0.49461558406E+03  0.79290805561E+02 0.  0.
         24    2    4    4    0    0  0.38730408468E+03  0.33238586125E+02 -0.41497465554E+03  0.57423157266E+03  0.80179028923E+02 0.  0.
         13    1    3    3    0    0 -0.28789189903E+02  0.22443336086E+03 -0.49211890674E+03  0.54164579689E+03  0.00000000000E+00 0.  1.
        -13    1    3    3    0    0 -0.74087354669E+02  0.13871616455E+03 -0.48142718750E+03  0.50646149636E+03  0.00000000000E+00 0. -1.
          2    1    6    6  502    0  0.29702767237E+03  0.36643694609E+02 -0.26813214084E+03  0.40182464268E+03  0.00000000000E+00 0. -1.
          3    1    5    5  503    0 -0.26800009496E+03 -0.38794287554E+03 -0.44602116274E+01  0.47153326401E+03  0.00000000000E+00 0. -1.
         -4    1    5    5    0  503 -0.16427445147E+02 -0.84452360022E+01 -0.13842345668E+02  0.23082320047E+02  0.00000000000E+00 0.  1.
         -1    1    6    6    0  502  0.90276412309E+02 -0.34051084843E+01 -0.14684251470E+03  0.17240692998E+03  0.00000000000E+00 0.  1.
<mgrwt>
<rscale>  0 0.15818800E+04</rscale>
<asrwt>0</asrwt>
<pdfrwt beam="1">  1        2 0.27105983E+00 0.15818800E+04</pdfrwt>
<pdfrwt beam="2">  1       -2 0.54625472E-01 0.15818800E+04</pdfrwt>
<totfact> 0.27431946E+01</totfact>
</mgrwt>
</event>
<event>
12    1  0.1097093E-007  0.1284456E+04  0.7818608E-02  0.9041983E-01
          3   -1    0    0  501    0  0.00000000000E+00  0.00000000000E+00  0.36759333775E+03  0.36759333775E+03  0.00000000000E+00 0. -1.
         -3   -1    0    0    0  501 -0.00000000000E+00 -0.00000000000E+00 -0.11220466596E+04  0.11220466596E+04  0.00000000000E+00 0.  1.
         23    2    1    2    0    0 -0.27709831607E+03  0.33258615902E+02 -0.17304359466E+02  0.29375642144E+03  0.90021008544E+02 0.  0.
        254    2    1    2    0    0  0.27709831607E+03 -0.33258615902E+02 -0.73714896237E+03  0.11958835759E+04  0.89936606678E+03 0.  0.
        -24    2    4    4    0    0  0.31503735406E+03  0.12186024606E+03 -0.89441033637E+03  0.95920540128E+03  0.77502890431E+02 0.  0.
         24    2    4    4    0    0 -0.37939037990E+02 -0.15511886196E+03  0.15726137400E+03  0.23667817461E+03  0.76053840448E+02 0.  0.
         13    1    3    3    0    0  0.99083760601E+00 -0.10364375428E+02 -0.60497472917E+01  0.12041656011E+02  0.00000000000E+00 0.  1.
        -13    1    3    3    0    0 -0.27808915368E+03  0.43622991330E+02 -0.11254612174E+02  0.28171476543E+03  0.00000000000E+00 0. -1.
          2    1    6    6  502    0 -0.39856436182E+02 -0.12112692281E+03  0.15747781744E+03  0.20263151265E+03  0.00000000000E+00 0. -1.
          3    1    5    5  503    0  0.31201978205E+03  0.10872376290E+03 -0.87705135913E+03  0.93722798057E+03  0.00000000000E+00 0. -1.
         -4    1    5    5    0  503  0.30175720151E+01  0.13136483155E+02 -0.17358977242E+02  0.21977420718E+02  0.00000000000E+00 0.  1.
         -1    1    6    6    0  502  0.19173981917E+01 -0.33991939149E+02 -0.21644343901E+00  0.34046661961E+02  0.00000000000E+00 0.  1.
<mgrwt>
<rscale>  0 0.12844561E+04</rscale>
<asrwt>0</asrwt>
<pdfrwt beam="1">  1        3 0.56552821E-01 0.12844561E+04</pdfrwt>
<pdfrwt beam="2">  1       -3 0.17262256E+00 0.12844561E+04</pdfrwt>
<totfact> 0.17546456E+00</totfact>
</mgrwt>
</event>
<event>
12    1  0.1097093E-007  0.1269027E+04  0.7818608E-02  0.9054494E-01
         -2   -1    0    0    0  501 -0.00000000000E+00  0.00000000000E+00  0.48704703377E+03  0.48704703377E+03  0.00000000000E+00 0. -1.
          2   -1    0    0  501    0  0.00000000000E+00 -0.00000000000E+00 -0.82662979255E+03  0.82662979255E+03  0.00000000000E+00 0.  1.
         23    2    1    2    0    0 -0.36350565475E+02  0.72989058246E+01  0.22457805198E+03  0.24497099693E+03  0.90558546076E+02 0.  0.
        254    2    1    2    0    0  0.36350565475E+02 -0.72989058246E+01 -0.56416081076E+03  0.10687058294E+04  0.90690688152E+03 0.  0.
        -24    2    4    4    0    0 -0.23555881005E+03  0.35164873159E+03 -0.16477313062E+03  0.46049184970E+03  0.75880008217E+02 0.  0.
         24    2    4    4    0    0  0.27190937553E+03 -0.35894763741E+03 -0.39938768014E+03  0.60821397970E+03  0.87381984146E+02 0.  0.
         13    1    3    3    0    0 -0.86804237782E+01  0.26539958356E+02  0.20309102889E+03  0.20500167112E+03  0.00000000000E+00 0. -1.
        -13    1    3    3    0    0 -0.27670141697E+02 -0.19241052532E+02  0.21487023088E+02  0.39969325804E+02  0.00000000000E+00 0.  1.
          4    1    6    6  502    0  0.17191154469E+03 -0.15700244343E+03 -0.18811966583E+03  0.29931982078E+03  0.00000000000E+00 0. -1.
          1    1    5    5  503    0 -0.22824705345E+03  0.31806737454E+03 -0.13238340684E+03  0.41326618367E+03  0.00000000000E+00 0. -1.
         -2    1    5    5    0  503 -0.73117566046E+01  0.33581357041E+02 -0.32389723788E+02  0.47225666035E+02  0.00000000000E+00 0.  1.
         -3    1    6    6    0  502  0.99997830837E+02 -0.20194519398E+03 -0.21126801431E+03  0.30889415892E+03  0.00000000000E+00 0.  1.
<mgrwt>
<rscale>  0 0.12690273E+04</rscale>
<asrwt>0</asrwt>
<pdfrwt beam="1">  1        2 0.12717381E+00 0.12690273E+04</pdfrwt>
<pdfrwt beam="2">  1       -2 0.74930314E-01 0.12690273E+04</pdfrwt>
<totfact> 0.51832334E+01</totfact>
</mgrwt>
</event>
<event>
12    1  0.1097093E-007  0.1665859E+04  0.7818608E-02  0.8781080E-01
         -2   -1    0    0    0  501 -0.00000000000E+00  0.00000000000E+00  0.21049115376E+03  0.21049115376E+03  0.00000000000E+00 0.  1.
          2   -1    0    0  501    0  0.00000000000E+00 -0.00000000000E+00 -0.32959637110E+04  0.32959637110E+04  0.00000000000E+00 0. -1.
         23    2    1    2    0    0  0.20069789571E+03  0.16563932175E+03 -0.21720936770E+04  0.21894620826E+04  0.89650651408E+02 0.  0.
        254    2    1    2    0    0 -0.20069789571E+03 -0.16563932175E+03 -0.91337888023E+03  0.13169927821E+04  0.91241053210E+03 0.  0.
        -24    2    4    4    0    0 -0.43867426891E+03  0.20434856827E+03 -0.57117661315E+03  0.75321436488E+03  0.83040378766E+02 0.  0.
         24    2    4    4    0    0  0.23797637320E+03 -0.36998789002E+03 -0.34220226708E+03  0.56377841725E+03  0.84970107662E+02 0.  0.
         13    1    3    3    0    0  0.17191855674E+03  0.92060913210E+02 -0.16348077010E+04  0.16463983179E+04  0.00000000000E+00 0. -1.
        -13    1    3    3    0    0  0.28779338965E+02  0.73578408544E+02 -0.53728597602E+03  0.54306376475E+03  0.00000000000E+00 0.  1.
          4    1    6    6  502    0  0.20587062245E+03 -0.30740864004E+03 -0.32232396062E+03  0.49068882273E+03  0.00000000000E+00 0. -1.
          1    1    5    5  503    0 -0.42220462692E+03  0.17484703508E+03 -0.53762412761E+03  0.70559757316E+03  0.00000000000E+00 0. -1.
         -2    1    5    5    0  503 -0.16469641985E+02  0.29501533190E+02 -0.33552485544E+02  0.47616791722E+02  0.00000000000E+00 0.  1.
         -3    1    6    6    0  502  0.32105750744E+02 -0.62579249980E+02 -0.19878306457E+02  0.73089594516E+02  0.00000000000E+00 0.  1.
<mgrwt>
<rscale>  0 0.16658586E+04</rscale>
<asrwt>0</asrwt>
<pdfrwt beam="1">  1        2 0.50707132E+00 0.16658586E+04</pdfrwt>
<pdfrwt beam="2">  1       -2 0.32383256E-01 0.16658586E+04</pdfrwt>
<totfact> 0.95753103E+00</totfact>
</mgrwt>
</event>
<event>
12    1  0.1097093E-007  0.1173454E+04  0.7818608E-02  0.9136414E-01
         -1   -1    0    0    0  501 -0.00000000000E+00  0.00000000000E+00  0.86812594367E+03  0.86812594367E+03  0.00000000000E+00 0.  1.
          1   -1    0    0  501    0  0.00000000000E+00 -0.00000000000E+00 -0.39654248641E+03  0.39654248641E+03  0.00000000000E+00 0. -1.
         23    2    1    2    0    0  0.17699705710E+03  0.81125831579E+02 -0.21875301351E+02  0.21507888667E+03  0.88718881361E+02 0.  0.
        254    2    1    2    0    0 -0.17699705710E+03 -0.81125831579E+02  0.49345875862E+03  0.10495895434E+04  0.90566401298E+03 0.  0.
        -24    2    4    4    0    0  0.40729641124E+02  0.25497912212E+03 -0.13286937809E+03  0.30184110564E+03  0.82343943518E+02 0.  0.
         24    2    4    4    0    0 -0.21772669822E+03 -0.33610495370E+03  0.62632813670E+03  0.74774843777E+03  0.80432184740E+02 0.  0.
         13    1    3    3    0    0  0.15790852370E+03  0.70043747354E+02 -0.49519760538E+02  0.17970374254E+03  0.00000000000E+00 0. -1.
        -13    1    3    3    0    0  0.19088533400E+02  0.11082084225E+02  0.27644459187E+02  0.35375144125E+02  0.00000000000E+00 0.  1.
          2    1    6    6  502    0  0.12262679654E+01 -0.31613323232E+02  0.69926985191E+02  0.76750825381E+02  0.00000000000E+00 0. -1.
          3    1    5    5  503    0  0.27805130097E+01  0.28712800703E+02  0.11183685387E+02  0.30939149885E+02  0.00000000000E+00 0. -1.
         -4    1    5    5    0  503  0.37949128114E+02  0.22626632142E+03 -0.14405306348E+03  0.27090195575E+03  0.00000000000E+00 0.  1.
         -1    1    6    6    0  502 -0.21895296619E+03 -0.30449163047E+03  0.55640115151E+03  0.67099761239E+03  0.00000000000E+00 0.  1.
<mgrwt>
<rscale>  0 0.11734544E+04</rscale>
<asrwt>0</asrwt>
<pdfrwt beam="1">  1        1 0.61006536E-01 0.11734544E+04</pdfrwt>
<pdfrwt beam="2">  1       -1 0.13355784E+00 0.11734544E+04</pdfrwt>
<totfact> 0.28503137E+01</totfact>
</mgrwt>
</event>
<event>
12    1  0.1097093E-007  0.1536008E+04  0.7818608E-02  0.8860855E-01
          4   -1    0    0  501    0  0.00000000000E+00  0.00000000000E+00  0.14976214820E+04  0.14976214820E+04  0.00000000000E+00 0. -1.
         -4   -1    0    0    0  501 -0.00000000000E+00 -0.00000000000E+00 -0.39384462078E+03  0.39384462078E+03  0.00000000000E+00 0.  1.
         23    2    1    2    0    0 -0.61119091957E+02 -0.43246364701E+03  0.68868685366E+03  0.82077967487E+03  0.92894256510E+02 0.  0.
        254    2    1    2    0    0  0.61119091957E+02  0.43246364701E+03  0.41509000754E+03  0.10706864279E+04  0.88504766150E+03 0.  0.
        -24    2    4    4    0    0 -0.35399794870E+03  0.15934417018E+03  0.40587373349E+03  0.56732885883E+03  0.80146330372E+02 0.  0.
         24    2    4    4    0    0  0.41511704066E+03  0.27311947683E+03  0.92162740515E+01  0.50335756906E+03  0.79796594855E+02 0.  0.
         11    1    3    3    0    0 -0.81166995494E+02 -0.35505987226E+03  0.52994409011E+03  0.64303680508E+03  0.00000000000E+00 0. -1.
        -11    1    3    3    0    0  0.20047903537E+02 -0.77403774747E+02  0.15874276355E+03  0.17774286979E+03  0.00000000000E+00 0.  1.
          2    1    6    6  502    0  0.16990296095E+03  0.15907863878E+03  0.89261514183E+01  0.23292210207E+03  0.00000000000E+00 0. -1.
          3    1    5    5  503    0 -0.31717252055E+03  0.13210663850E+03  0.38773877860E+03  0.51806556743E+03  0.00000000000E+00 0. -1.
         -4    1    5    5    0  503 -0.36825428153E+02  0.27237531684E+02  0.18134954887E+02  0.49263291401E+02  0.00000000000E+00 0.  1.
         -1    1    6    6    0  502  0.24521407971E+03  0.11404083805E+03  0.29012263319E+00  0.27043546698E+03  0.00000000000E+00 0.  1.
<mgrwt>
<rscale>  0 0.15360080E+04</rscale>
<asrwt>0</asrwt>
<pdfrwt beam="1">  1        4 0.23040330E+00 0.15360080E+04</pdfrwt>
<pdfrwt beam="2">  1       -4 0.60591481E-01 0.15360080E+04</pdfrwt>
<totfact> 0.41499983E-01</totfact>
</mgrwt>
</event>
<event>
12    1  0.1097093E-007  0.1577196E+04  0.7818608E-02  0.8834681E-01
         -1   -1    0    0    0  501 -0.00000000000E+00  0.00000000000E+00  0.40519747838E+03  0.40519747838E+03  0.00000000000E+00 0.  1.
          1   -1    0    0  501    0  0.00000000000E+00 -0.00000000000E+00 -0.15347744401E+04  0.15347744401E+04  0.00000000000E+00 0. -1.
         23    2    1    2    0    0 -0.21832949792E+03 -0.47984091027E+03 -0.35644256876E+03  0.64308964046E+03  0.92724926589E+02 0.  0.
        254    2    1    2    0    0  0.21832949792E+03  0.47984091027E+03 -0.77313439297E+03  0.12968822780E+04  0.89791524359E+03 0.  0.
        -24    2    4    4    0    0  0.18034717080E+03 -0.11241718817E+01 -0.78294143693E+03  0.80742619321E+03  0.80083694012E+02 0.  0.
         24    2    4    4    0    0  0.37982327124E+02  0.48096508215E+03  0.98070439535E+01  0.48945608483E+03  0.81859718099E+02 0.  0.
         13    1    3    3    0    0 -0.27225911814E+00 -0.89339859633E+01  0.54071109372E+01  0.10446390712E+02  0.00000000000E+00 0.  1.
        -13    1    3    3    0    0 -0.21805723880E+03 -0.47090692431E+03 -0.36184967969E+03  0.63264324975E+03  0.00000000000E+00 0. -1.
          4    1    6    6  502    0  0.15517192579E+02  0.17538036294E+03 -0.35808251693E+02  0.17966993588E+03  0.00000000000E+00 0. -1.
          1    1    5    5  503    0  0.10894315408E+03 -0.14574838310E+02 -0.30941439205E+03  0.32835697455E+03  0.00000000000E+00 0. -1.
         -2    1    5    5    0  503  0.71404016721E+02  0.13450666428E+02 -0.47352704488E+03  0.47906921866E+03  0.00000000000E+00 0.  1.
         -3    1    6    6    0  502  0.22465134545E+02  0.30558471921E+03  0.45615295647E+02  0.30978614895E+03  0.00000000000E+00 0.  1.
<mgrwt>
<rscale>  0 0.15771959E+04</rscale>
<asrwt>0</asrwt>
<pdfrwt beam="1">  1        1 0.23611914E+00 0.15771959E+04</pdfrwt>
<pdfrwt beam="2">  1       -1 0.62338075E-01 0.15771959E+04</pdfrwt>
<totfact> 0.15527616E+01</totfact>
</mgrwt>
</event>
<event>
12    1  0.1097093E-007  0.1452864E+04  0.7818608E-02  0.8916417E-01
         -1   -1    0    0    0  501 -0.00000000000E+00  0.00000000000E+00  0.28086150291E+03  0.28086150291E+03  0.00000000000E+00 0.  1.
          1   -1    0    0  501    0  0.00000000000E+00 -0.00000000000E+00 -0.18788751944E+04  0.18788751944E+04  0.00000000000E+00 0. -1.
         23    2    1    2    0    0  0.35240329571E+03  0.24316998843E+03 -0.32671458351E+03  0.54621334588E+03  0.91032269207E+02 0.  0.
        254    2    1    2    0    0 -0.35240329571E+03 -0.24316998843E+03 -0.12712991080E+04  0.16135233514E+04  0.89662503733E+03 0.  0.
        -24    2    4    4    0    0  0.26763700173E+03 -0.99056056660E+02 -0.67946921933E+03  0.74072312347E+03  0.74502742071E+02 0.  0.
         24    2    4    4    0    0 -0.62004029744E+03 -0.14411393177E+03 -0.59182988866E+03  0.87280022797E+03  0.79365137503E+02 0.  0.
         11    1    3    3    0    0  0.34111667855E+03  0.22516564357E+03 -0.32920269530E+03  0.52481860678E+03  0.00000000000E+00 0.  1.
        -11    1    3    3    0    0  0.11286617161E+02  0.18004344863E+02  0.24881117903E+01  0.21394739101E+02  0.00000000000E+00 0. -1.
          2    1    6    6  502    0 -0.49438451789E+03 -0.81470644987E+02 -0.45828731774E+03  0.67902929475E+03  0.00000000000E+00 0. -1.
          1    1    5    5  503    0  0.22995634279E+03 -0.54331402089E+02 -0.53423701963E+03  0.58415838091E+03  0.00000000000E+00 0. -1.
         -2    1    5    5    0  503  0.37680658933E+02 -0.44724654571E+02 -0.14523219970E+03  0.15656474256E+03  0.00000000000E+00 0.  1.
         -1    1    6    6    0  502 -0.12565577955E+03 -0.62643286783E+02 -0.13354257093E+03  0.19377093322E+03  0.00000000000E+00 0.  1.
<mgrwt>
<rscale>  0 0.14528644E+04</rscale>
<asrwt>0</asrwt>
<pdfrwt beam="1">  1        1 0.28905773E+00 0.14528644E+04</pdfrwt>
<pdfrwt beam="2">  1       -1 0.43209461E-01 0.14528644E+04</pdfrwt>
<totfact> 0.18478937E+01</totfact>
</mgrwt>
</event>
<event>
12    1  0.1097093E-007  0.1551323E+04  0.7818608E-02  0.8851023E-01
          1   -1    0    0  501    0  0.00000000000E+00  0.00000000000E+00  0.10099478461E+04  0.10099478461E+04  0.00000000000E+00 0. -1.
         -1   -1    0    0    0  501 -0.00000000000E+00 -0.00000000000E+00 -0.59572474055E+03  0.59572474055E+03  0.00000000000E+00 0.  1.
         23    2    1    2    0    0  0.33761477686E+03 -0.37816418879E+03  0.25067237980E+03  0.57327953015E+03  0.93919574445E+02 0.  0.
        254    2    1    2    0    0 -0.33761477686E+03  0.37816418879E+03  0.16355072580E+03  0.10323930565E+04  0.88436117738E+03 0.  0.
        -24    2    4    4    0    0  0.17687058857E+03  0.42567583471E+03 -0.43322403751E+02  0.47033933320E+03  0.82819902961E+02 0.  0.
         24    2    4    4    0    0 -0.51448536543E+03 -0.47511645919E+02  0.20687312955E+03  0.56205372335E+03  0.78456028837E+02 0.  0.
         11    1    3    3    0    0  0.25924921993E+03 -0.30427160564E+03  0.15344607984E+03  0.42817877978E+03  0.00000000000E+00 0.  1.
        -11    1    3    3    0    0  0.78365556921E+02 -0.73892583158E+02  0.97226299952E+02  0.14510075038E+03  0.00000000000E+00 0. -1.
          2    1    6    6  502    0 -0.34111211601E+03 -0.45041549598E+02  0.99749337493E+02  0.35824034838E+03  0.00000000000E+00 0. -1.
          1    1    5    5  503    0  0.14272318153E+02  0.52193685676E+01 -0.10241938091E+02  0.18325887962E+02  0.00000000000E+00 0. -1.
         -2    1    5    5    0  503  0.16259827042E+03  0.42045646615E+03 -0.33080465660E+02  0.45201344524E+03  0.00000000000E+00 0.  1.
         -1    1    6    6    0  502 -0.17337324942E+03 -0.24700963212E+01  0.10712379206E+03  0.20381337497E+03  0.00000000000E+00 0.  1.
<mgrwt>
<rscale>  0 0.15513232E+04</rscale>
<asrwt>0</asrwt>
<pdfrwt beam="1">  1        1 0.15537659E+00 0.15513232E+04</pdfrwt>
<pdfrwt beam="2">  1       -1 0.91649960E-01 0.15513232E+04</pdfrwt>
<totfact> 0.16616392E+01</totfact>
</mgrwt>
</event>
<event>
12    1  0.1097093E-007  0.1852525E+04  0.7818608E-02  0.8678856E-01
         -2   -1    0    0    0  501 -0.00000000000E+00  0.00000000000E+00  0.29012975659E+03  0.29012975659E+03  0.00000000000E+00 0.  1.
          2   -1    0    0  501    0  0.00000000000E+00 -0.00000000000E+00 -0.29571661608E+04  0.29571661608E+04  0.00000000000E+00 0. -1.
         23    2    1    2    0    0  0.68604291956E+03 -0.11402316075E+03 -0.82205541979E+03  0.10806814819E+04  0.91875913414E+02 0.  0.
        254    2    1    2    0    0 -0.68604291956E+03  0.11402316075E+03 -0.18449809844E+04  0.21666144355E+04  0.89811308336E+03 0.  0.
        -24    2    4    4    0    0 -0.26535705293E+03 -0.34726735245E+03 -0.11276867377E+04  0.12120163205E+04  0.79354918171E+02 0.  0.
         24    2    4    4    0    0 -0.42068586663E+03  0.46129051320E+03 -0.71729424668E+03  0.95459811500E+03  0.83552312255E+02 0.  0.
         13    1    3    3    0    0  0.43805213924E+03 -0.10323591875E+03 -0.57825765854E+03  0.73275456415E+03  0.00000000000E+00 0.  1.
        -13    1    3    3    0    0  0.24799078032E+03 -0.10787241999E+02 -0.24379776124E+03  0.34792691776E+03  0.00000000000E+00 0. -1.
          2    1    6    6  502    0 -0.41552808926E+03  0.43086080895E+03 -0.67405429900E+03  0.90147314306E+03  0.00000000000E+00 0. -1.
          1    1    5    5  503    0 -0.25549008225E+03 -0.32645831497E+03 -0.11026356818E+04  0.11779879712E+04  0.00000000000E+00 0. -1.
         -2    1    5    5    0  503 -0.98669706798E+01 -0.20809037481E+02 -0.25051055977E+02  0.34028349311E+02  0.00000000000E+00 0.  1.
         -1    1    6    6    0  502 -0.51577773702E+01  0.30429704251E+02 -0.43239947678E+02  0.53124971938E+02  0.00000000000E+00 0.  1.
<mgrwt>
<rscale>  0 0.18525247E+04</rscale>
<asrwt>0</asrwt>
<pdfrwt beam="1">  1        2 0.45494861E+00 0.18525247E+04</pdfrwt>
<pdfrwt beam="2">  1       -2 0.44635350E-01 0.18525247E+04</pdfrwt>
<totfact> 0.83130003E+00</totfact>
</mgrwt>
</event>
<event>
12    1  0.1097093E-007  0.1652750E+04  0.7818608E-02  0.8788781E-01
         -1   -1    0    0    0  501 -0.00000000000E+00  0.00000000000E+00  0.19556827868E+04  0.19556827868E+04  0.00000000000E+00 0.  1.
          1   -1    0    0  501    0  0.00000000000E+00 -0.00000000000E+00 -0.34918519424E+03  0.34918519424E+03  0.00000000000E+00 0. -1.
         23    2    1    2    0    0  0.21556587414E+02  0.50634079612E+03  0.17700536603E+03  0.54463309838E+03  0.91916396611E+02 0.  0.
        254    2    1    2    0    0 -0.21556587414E+02 -0.50634079612E+03  0.14294922266E+04  0.17602348827E+04  0.89338296840E+03 0.  0.
        -24    2    4    4    0    0  0.42786973532E+03 -0.26191405586E+03  0.66428351807E+03  0.83632124966E+03  0.80555305170E+02 0.  0.
         24    2    4    4    0    0 -0.44942632274E+03 -0.24442674026E+03  0.76520870849E+03  0.92391363305E+03  0.79646612335E+02 0.  0.
         11    1    3    3    0    0  0.42614683240E+02  0.12434259341E+03  0.30288407951E+02  0.13488691345E+03  0.00000000000E+00 0.  1.
        -11    1    3    3    0    0 -0.21058095826E+02  0.38199820271E+03  0.14671695808E+03  0.40974618493E+03  0.00000000000E+00 0. -1.
          4    1    6    6  502    0 -0.27650114938E+02  0.41141992154E+01  0.35239446046E+02  0.44980818678E+02  0.00000000000E+00 0. -1.
          3    1    5    5  503    0  0.25977462157E+03 -0.17385412058E+03  0.35066034501E+03  0.46975609290E+03  0.00000000000E+00 0. -1.
         -4    1    5    5    0  503  0.16809511376E+03 -0.88059935272E+02  0.31362317307E+03  0.36656515677E+03  0.00000000000E+00 0.  1.
         -3    1    6    6    0  502 -0.42177620780E+03 -0.24854093948E+03  0.72996926244E+03  0.87893281437E+03  0.00000000000E+00 0.  1.
<mgrwt>
<rscale>  0 0.16527498E+04</rscale>
<asrwt>0</asrwt>
<pdfrwt beam="1">  1        1 0.53720800E-01 0.16527498E+04</pdfrwt>
<pdfrwt beam="2">  1       -1 0.30087427E+00 0.16527498E+04</pdfrwt>
<totfact> 0.22411594E+00</totfact>
</mgrwt>
</event>
<event>
12    1  0.1097093E-007  0.1710159E+04  0.7818608E-02  0.8755591E-01
          1   -1    0    0  501    0  0.00000000000E+00  0.00000000000E+00  0.23797731359E+04  0.23797731359E+04  0.00000000000E+00 0. -1.
         -1   -1    0    0    0  501 -0.00000000000E+00 -0.00000000000E+00 -0.30723977187E+03  0.30723977187E+03  0.00000000000E+00 0.  1.
         23    2    1    2    0    0  0.59141645523E+03 -0.11588676525E+03  0.64071390589E+03  0.88384844850E+03  0.86432660678E+02 0.  0.
        254    2    1    2    0    0 -0.59141645523E+03  0.11588676525E+03  0.14318194581E+04  0.18031644592E+04  0.91547361544E+03 0.  0.
        -24    2    4    4    0    0 -0.31532731828E+03  0.48419562225E+03  0.10451403899E+04  0.11968517510E+04  0.79113595609E+02 0.  0.
         24    2    4    4    0    0 -0.27608913696E+03 -0.36830885699E+03  0.38667906816E+03  0.60631270820E+03  0.78852854682E+02 0.  0.
         13    1    3    3    0    0  0.42332620645E+02 -0.20290009371E+02  0.83170821245E+02  0.95504558832E+02  0.00000000000E+00 0. -1.
        -13    1    3    3    0    0  0.54908383459E+03 -0.95596755881E+02  0.55754308464E+03  0.78834388967E+03  0.00000000000E+00 0.  1.
          4    1    6    6  502    0 -0.11120690578E+03 -0.21008928327E+03  0.21468252993E+03  0.32030153215E+03  0.00000000000E+00 0. -1.
          3    1    5    5  503    0 -0.30683527687E+03  0.42959929221E+03  0.94990845887E+03  0.10867518204E+04  0.00000000000E+00 0. -1.
         -4    1    5    5    0  503 -0.84920414035E+01  0.54596330034E+02  0.95231931061E+02  0.11009993058E+03  0.00000000000E+00 0.  1.
         -3    1    6    6    0  502 -0.16488223117E+03 -0.15821957372E+03  0.17199653823E+03  0.28601117605E+03  0.00000000000E+00 0.  1.
<mgrwt>
<rscale>  0 0.17101590E+04</rscale>
<asrwt>0</asrwt>
<pdfrwt beam="1">  1        1 0.36611893E+00 0.17101590E+04</pdfrwt>
<pdfrwt beam="2">  1       -1 0.47267659E-01 0.17101590E+04</pdfrwt>
<totfact> 0.69726959E+00</totfact>
</mgrwt>
</event>
<event>
12    1  0.1097093E-007  0.1232710E+04  0.7818608E-02  0.9084698E-01
         -1   -1    0    0    0  501 -0.00000000000E+00  0.00000000000E+00  0.32921997272E+03  0.32921997272E+03  0.00000000000E+00 0.  1.
          1   -1    0    0  501    0  0.00000000000E+00 -0.00000000000E+00 -0.11539201913E+04  0.11539201913E+04  0.00000000000E+00 0. -1.
         23    2    1    2    0    0  0.17643248462E+03  0.93439501536E+02 -0.42667053125E+03  0.47969685307E+03  0.90564709082E+02 0.  0.
        254    2    1    2    0    0 -0.17643248462E+03 -0.93439501536E+02 -0.39802968732E+03  0.10034433109E+04  0.89922827147E+03 0.  0.
        -24    2    4    4    0    0  0.10689088629E+03  0.34358383032E+03 -0.28216749985E+03  0.46431149391E+03  0.80567706776E+02 0.  0.
         24    2    4    4    0    0 -0.28332337090E+03 -0.43702333185E+03 -0.11586218746E+03  0.53913181703E+03  0.77314581852E+02 0.  0.
         13    1    3    3    0    0  0.14295376026E+03  0.71457753443E+02 -0.23704922960E+03  0.28589215686E+03  0.00000000000E+00 0. -1.
        -13    1    3    3    0    0  0.33478724360E+02  0.21981748093E+02 -0.18962130165E+03  0.19380469621E+03  0.00000000000E+00 0.  1.
          2    1    6    6  502    0 -0.19083310316E+03 -0.25273011590E+03 -0.39025655148E+02  0.31908115974E+03  0.00000000000E+00 0. -1.
          3    1    5    5  503    0  0.96332122192E+02  0.32976208211E+03 -0.28539134716E+03  0.44662190900E+03  0.00000000000E+00 0. -1.
         -4    1    5    5    0  503  0.10558764095E+02  0.13821748203E+02  0.32238473106E+01  0.17689584905E+02  0.00000000000E+00 0.  1.
         -1    1    6    6    0  502 -0.92490267745E+02 -0.18429321596E+03 -0.76836532315E+02  0.22005065729E+03  0.00000000000E+00 0.  1.
<mgrwt>
<rscale>  0 0.12327101E+04</rscale>
<asrwt>0</asrwt>
<pdfrwt beam="1">  1        1 0.17752618E+00 0.12327101E+04</pdfrwt>
<pdfrwt beam="2">  1       -1 0.50649226E-01 0.12327101E+04</pdfrwt>
<totfact> 0.44669193E+01</totfact>
</mgrwt>
</event>
<event>
12    1  0.1097093E-007  0.1639212E+04  0.7818608E-02  0.8796814E-01
         -1   -1    0    0    0  501 -0.00000000000E+00  0.00000000000E+00  0.98368280532E+03  0.98368280532E+03  0.00000000000E+00 0.  1.
          1   -1    0    0  501    0  0.00000000000E+00 -0.00000000000E+00 -0.68289712178E+03  0.68289712178E+03  0.00000000000E+00 0. -1.
         23    2    1    2    0    0 -0.36795811426E+03 -0.18547505663E+03  0.53557398698E+03  0.68182278347E+03  0.90822035043E+02 0.  0.
        254    2    1    2    0    0  0.36795811426E+03  0.18547505663E+03 -0.23478830343E+03  0.98475714363E+03  0.86303355324E+03 0.  0.
        -24    2    4    4    0    0  0.23085908337E+03  0.11569740945E+03 -0.55724294887E+03  0.61918992162E+03  0.78706086471E+02 0.  0.
         24    2    4    4    0    0  0.13709903089E+03  0.69777647181E+02  0.32245464543E+03  0.36556722201E+03  0.77442437516E+02 0.  0.
         11    1    3    3    0    0 -0.25354603413E+03 -0.84344692784E+02  0.30785184543E+03  0.40764246266E+03  0.00000000000E+00 0.  1.
        -11    1    3    3    0    0 -0.11441208013E+03 -0.10113036385E+03  0.22772214155E+03  0.27418032081E+03  0.00000000000E+00 0. -1.
          2    1    6    6  502    0  0.13956018685E+03  0.67591805575E+02  0.32583314087E+03  0.36085029254E+03  0.00000000000E+00 0. -1.
          3    1    5    5  503    0  0.19224980544E+03  0.90770428679E+02 -0.51338113534E+03  0.55566127141E+03  0.00000000000E+00 0. -1.
         -4    1    5    5    0  503  0.38609277928E+02  0.24926980769E+02 -0.43861813521E+02  0.63528650212E+02  0.00000000000E+00 0.  1.
         -1    1    6    6    0  502 -0.24611559568E+01  0.21858416059E+01 -0.33784954412E+01  0.47169294691E+01  0.00000000000E+00 0.  1.
<mgrwt>
<rscale>  0 0.16392122E+04</rscale>
<asrwt>0</asrwt>
<pdfrwt beam="1">  1        1 0.10506110E+00 0.16392122E+04</pdfrwt>
<pdfrwt beam="2">  1       -1 0.15133582E+00 0.16392122E+04</pdfrwt>
<totfact> 0.92158951E+00</totfact>
</mgrwt>
</event>
<event>
12    1  0.1097093E-007  0.1679051E+04  0.7818608E-02  0.8773403E-01
         -2   -1    0    0    0  501 -0.00000000000E+00  0.00000000000E+00  0.50702372010E+03  0.50702372010E+03  0.00000000000E+00 0.  1.
          2   -1    0    0  501    0  0.00000000000E+00 -0.00000000000E+00 -0.13900788817E+04  0.13900788817E+04  0.00000000000E+00 0. -1.
         23    2    1    2    0    0 -0.30704507957E+03  0.50621934759E+03 -0.30536207079E+03  0.67270157751E+03  0.93523843751E+02 0.  0.
        254    2    1    2    0    0  0.30704507957E+03 -0.50621934759E+03 -0.57769309077E+03  0.12244010243E+04  0.90271471257E+03 0.  0.
        -24    2    4    4    0    0 -0.27661497632E+03 -0.11239090686E+03  0.26801846715E+01  0.30831082936E+03  0.76816814804E+02 0.  0.
         24    2    4    4    0    0  0.58366005590E+03 -0.39382844073E+03 -0.58037327544E+03  0.91609019490E+03  0.81413787295E+02 0.  0.
         11    1    3    3    0    0 -0.46214974648E+02  0.52820550722E+02 -0.69975168157E+02  0.99107813106E+02  0.00000000000E+00 0. -1.
        -11    1    3    3    0    0 -0.26083010493E+03  0.45339879687E+03 -0.23538690263E+03  0.57359376441E+03  0.00000000000E+00 0.  1.
          4    1    6    6  502    0  0.45046374060E+03 -0.27771158435E+03 -0.46981713305E+03  0.70765065123E+03  0.00000000000E+00 0. -1.
          1    1    5    5  503    0 -0.26950495377E+03 -0.10808104800E+03 -0.12894732233E+02  0.29065565049E+03  0.00000000000E+00 0. -1.
         -2    1    5    5    0  503 -0.71100225515E+01 -0.43098588640E+01  0.15574916905E+02  0.17655178863E+02  0.00000000000E+00 0.  1.
         -3    1    6    6    0  502  0.13319631530E+03 -0.11611685637E+03 -0.11055614239E+03  0.20843954366E+03  0.00000000000E+00 0.  1.
<mgrwt>
<rscale>  0 0.16790509E+04</rscale>
<asrwt>0</asrwt>
<pdfrwt beam="1">  1        2 0.21385829E+00 0.16790509E+04</pdfrwt>
<pdfrwt beam="2">  1       -2 0.78003650E-01 0.16790509E+04</pdfrwt>
<totfact> 0.20444125E+01</totfact>
</mgrwt>
</event>
<event>
12    1  0.1912284E-007  0.1463289E+04  0.7818608E-02  0.8909239E-01
         -4   -1    0    0    0  501 -0.00000000000E+00  0.00000000000E+00  0.12574443711E+04  0.12574443711E+04  0.00000000000E+00 0. -1.
          4   -1    0    0  501    0  0.00000000000E+00 -0.00000000000E+00 -0.42570760055E+03  0.42570760055E+03  0.00000000000E+00 0.  1.
         23    2    1    2    0    0 -0.29746474763E+02  0.21684648349E+03 -0.19215451825E+03  0.30519764049E+03  0.91186570901E+02 0.  0.
        254    2    1    2    0    0  0.29746474763E+02 -0.21684648349E+03  0.10238912888E+04  0.13779543311E+04  0.89582225765E+03 0.  0.
        -24    2    4    4    0    0 -0.13132963929E+03  0.91462975811E+02  0.10046700043E+04  0.10207896388E+04  0.83885154902E+02 0.  0.
         24    2    4    4    0    0  0.16107611405E+03 -0.30830945930E+03  0.19221284528E+02  0.35716469230E+03  0.78720533772E+02 0.  0.
         11    1    3    3    0    0  0.97907550370E+01 -0.48061868393E+01 -0.34932507441E+01  0.11452559403E+02  0.00000000000E+00 0. -1.
        -11    1    3    3    0    0 -0.39537229800E+02  0.22165267033E+03 -0.18866126750E+03  0.29374508108E+03  0.00000000000E+00 0.  1.
          4    1    6    6  502    0 -0.86500665899E+01 -0.18315207139E+02  0.49457734781E+01  0.20850207190E+02  0.00000000000E+00 0. -1.
          1    1    5    5  503    0  0.20947785380E+00 -0.91825570821E+01  0.16943363931E+02  0.19272799922E+02  0.00000000000E+00 0. -1.
         -2    1    5    5    0  503 -0.13153911714E+03  0.10064553289E+03  0.98772664033E+03  0.10015168389E+04  0.00000000000E+00 0.  1.
         -3    1    6    6    0  502  0.16972618064E+03 -0.28999425216E+03  0.14275511050E+02  0.33631448511E+03  0.00000000000E+00 0.  1.
<mgrwt>
<rscale>  0 0.14632889E+04</rscale>
<asrwt>0</asrwt>
<pdfrwt beam="1">  1        4 0.65493478E-01 0.14632889E+04</pdfrwt>
<pdfrwt beam="2">  1       -4 0.19345298E+00 0.14632889E+04</pdfrwt>
<totfact> 0.61103627E-01</totfact>
</mgrwt>
</event>
<event>
12    1  0.1097093E-007  0.2868464E+04  0.7818608E-02  0.8282323E-01
          2   -1    0    0  501    0  0.00000000000E+00  0.00000000000E+00  0.24910289982E+04  0.24910289982E+04  0.00000000000E+00 0. -1.
         -2   -1    0    0    0  501 -0.00000000000E+00 -0.00000000000E+00 -0.82577190259E+03  0.82577190259E+03  0.00000000000E+00 0.  1.
         23    2    1    2    0    0 -0.38043737338E+03  0.13650884165E+03 -0.66563790819E+03  0.78396908503E+03  0.90368371446E+02 0.  0.
        254    2    1    2    0    0  0.38043737338E+03 -0.13650884165E+03  0.23308950038E+04  0.25328318158E+04  0.90487470361E+03 0.  0.
        -24    2    4    4    0    0  0.50895710672E+03  0.21920762394E+03  0.99183614604E+03  0.11395436892E+04  0.87929291071E+02 0.  0.
         24    2    4    4    0    0 -0.12851973335E+03 -0.35571646559E+03  0.13390588578E+04  0.13932881265E+04  0.71565726174E+02 0.  0.
         13    1    3    3    0    0 -0.37271533601E+02  0.27932982517E+02 -0.13472219355E+03  0.14254644213E+03  0.00000000000E+00 0. -1.
        -13    1    3    3    0    0 -0.34316583978E+03  0.10857585913E+03 -0.53091571464E+03  0.64142264290E+03  0.00000000000E+00 0.  1.
          2    1    6    6  502    0 -0.13533160212E+03 -0.32874349769E+03  0.12704479907E+04  0.13192516920E+04  0.00000000000E+00 0. -1.
          1    1    5    5  503    0  0.50896985837E+03  0.21038102648E+03  0.98446776093E+03  0.11280457727E+04  0.00000000000E+00 0. -1.
         -4    1    5    5    0  503 -0.12751645238E-01  0.88265974633E+01  0.73683851070E+01  0.11497916527E+02  0.00000000000E+00 0.  1.
         -1    1    6    6    0  502  0.68118687708E+01 -0.26972967899E+02  0.68610867041E+02  0.74036434474E+02  0.00000000000E+00 0.  1.
<mgrwt>
<rscale>  0 0.28684642E+04</rscale>
<asrwt>0</asrwt>
<pdfrwt beam="1">  1        2 0.38323523E+00 0.28684642E+04</pdfrwt>
<pdfrwt beam="2">  1       -2 0.12704183E+00 0.28684642E+04</pdfrwt>
<totfact> 0.14029783E+00</totfact>
</mgrwt>
</event>
<event>
12    1  0.1097093E-007  0.1971739E+04  0.7818608E-02  0.8619949E-01
          2   -1    0    0  501    0  0.00000000000E+00  0.00000000000E+00  0.13676846183E+04  0.13676846183E+04  0.00000000000E+00 0. -1.
         -2   -1    0    0    0  501 -0.00000000000E+00 -0.00000000000E+00 -0.71064565806E+03  0.71064565806E+03  0.00000000000E+00 0.  1.
         23    2    1    2    0    0  0.68936688241E+03  0.25489236882E+03 -0.62308528516E+01  0.74166681971E+03  0.99166676258E+02 0.  0.
        254    2    1    2    0    0 -0.68936688241E+03 -0.25489236882E+03  0.66326981313E+03  0.13366634567E+04  0.89807880120E+03 0.  0.
        -24    2    4    4    0    0  0.11541836714E+03 -0.23639517936E+03 -0.22948986258E+02  0.27573668791E+03  0.79372443495E+02 0.  0.
         24    2    4    4    0    0 -0.80478524955E+03 -0.18497189454E+02  0.68621879938E+03  0.10609267688E+04  0.81534803340E+02 0.  0.
         11    1    3    3    0    0  0.19237424954E+03  0.80951710066E+02 -0.45631097239E+02  0.21364275856E+03  0.00000000000E+00 0. -1.
        -11    1    3    3    0    0  0.49699263287E+03  0.17394065875E+03  0.39400244387E+02  0.52802406115E+03  0.00000000000E+00 0.  1.
          4    1    6    6  502    0 -0.69562004266E+03  0.54342124288E+01  0.56626716767E+03  0.89698120360E+03  0.00000000000E+00 0. -1.
          1    1    5    5  503    0  0.28767594234E+02 -0.43635696076E+02  0.26631153571E+02  0.58658902058E+02  0.00000000000E+00 0. -1.
         -2    1    5    5    0  503  0.86650772907E+02 -0.19275948329E+03 -0.49580139829E+02  0.21707778585E+03  0.00000000000E+00 0.  1.
         -3    1    6    6    0  502 -0.10916520689E+03 -0.23931401882E+02  0.11995163171E+03  0.16394556518E+03  0.00000000000E+00 0.  1.
<mgrwt>
<rscale>  0 0.19717395E+04</rscale>
<asrwt>0</asrwt>
<pdfrwt beam="1">  1        2 0.21041302E+00 0.19717395E+04</pdfrwt>
<pdfrwt beam="2">  1       -2 0.10933010E+00 0.19717395E+04</pdfrwt>
<totfact> 0.93792625E+00</totfact>
</mgrwt>
</event>
<event>
12    1  0.1097093E-007  0.1297456E+04  0.7818608E-02  0.9031585E-01
          2   -1    0    0  501    0  0.00000000000E+00  0.00000000000E+00  0.24817759658E+04  0.24817759658E+04  0.00000000000E+00 0. -1.
         -2   -1    0    0    0  501 -0.00000000000E+00 -0.00000000000E+00 -0.16957547509E+03  0.16957547509E+03  0.00000000000E+00 0.  1.
         23    2    1    2    0    0  0.12314506053E+03 -0.22256486149E+03  0.10165179730E+04  0.10519437910E+04  0.92612777374E+02 0.  0.
        254    2    1    2    0    0 -0.12314506053E+03  0.22256486149E+03  0.12956825178E+04  0.15994076499E+04  0.90255848579E+03 0.  0.
        -24    2    4    4    0    0 -0.47211227898E+03  0.36250215482E+02  0.96254084559E+03  0.10756791621E+04  0.79979361229E+02 0.  0.
         24    2    4    4    0    0  0.34896721844E+03  0.18631464600E+03  0.33314167219E+03  0.52372848785E+03  0.82564449815E+02 0.  0.
         13    1    3    3    0    0  0.11584231078E+03 -0.19338056518E+03  0.73418248922E+03  0.76801003342E+03  0.00000000000E+00 0. -1.
        -13    1    3    3    0    0  0.73027497577E+01 -0.29184296305E+02  0.28233548375E+03  0.28393375757E+03  0.00000000000E+00 0.  1.
          4    1    6    6  502    0  0.23924902304E+03  0.15544517177E+03  0.19981704646E+03  0.34832477446E+03  0.00000000000E+00 0. -1.
          3    1    5    5  503    0 -0.30113519137E+03 -0.15476185546E+02  0.59722163668E+03  0.66902585833E+03  0.00000000000E+00 0. -1.
         -4    1    5    5    0  503 -0.17097708761E+03  0.51726401028E+02  0.36531920891E+03  0.40665330375E+03  0.00000000000E+00 0.  1.
         -1    1    6    6    0  502  0.10971819541E+03  0.30869474234E+02  0.13332462574E+03  0.17540371339E+03  0.00000000000E+00 0.  1.
<mgrwt>
<rscale>  0 0.12974565E+04</rscale>
<asrwt>0</asrwt>
<pdfrwt beam="1">  1        2 0.38181166E+00 0.12974565E+04</pdfrwt>
<pdfrwt beam="2">  1       -2 0.26088537E-01 0.12974565E+04</pdfrwt>
<totfact> 0.46632088E+01</totfact>
</mgrwt>
</event>
<event>
12    1  0.1097093E-007  0.2192279E+04  0.7818608E-02  0.8521649E-01
          2   -1    0    0  501    0  0.00000000000E+00  0.00000000000E+00  0.17166514547E+04  0.17166514547E+04  0.00000000000E+00 0. -1.
         -2   -1    0    0    0  501 -0.00000000000E+00 -0.00000000000E+00 -0.69992154745E+03  0.69992154745E+03  0.00000000000E+00 0.  1.
         23    2    1    2    0    0 -0.62379293391E+03  0.64889715761E+03  0.56600176464E+03  0.10671657400E+04  0.91101994836E+02 0.  0.
        254    2    1    2    0    0  0.62379293391E+03 -0.64889715761E+03  0.45072814257E+03  0.13494072621E+04  0.89864284064E+03 0.  0.
        -24    2    4    4    0    0  0.58440008758E+03 -0.57535400106E+03 -0.59163259349E+02  0.82648960171E+03  0.83839618220E+02 0.  0.
         24    2    4    4    0    0  0.39392846329E+02 -0.73543156549E+02  0.50989140192E+03  0.52291766042E+03  0.80580677646E+02 0.  0.
         13    1    3    3    0    0 -0.44509236528E+02  0.26800728887E+02  0.53506210835E+02  0.74580599375E+02  0.00000000000E+00 0.  1.
        -13    1    3    3    0    0 -0.57928369739E+03  0.62209642872E+03  0.51249555380E+03  0.99258514061E+03  0.00000000000E+00 0. -1.
          2    1    6    6  502    0  0.41564746961E+02 -0.81969765449E+02  0.32292219696E+03  0.33574605869E+03  0.00000000000E+00 0. -1.
          1    1    5    5  503    0  0.56334652651E+03 -0.57071563809E+03 -0.51362266494E+02  0.80356314681E+03  0.00000000000E+00 0. -1.
         -2    1    5    5    0  503  0.21053561073E+02 -0.46383629659E+01 -0.78009928552E+01  0.22926454903E+02  0.00000000000E+00 0.  1.
         -1    1    6    6    0  502 -0.21719006330E+01  0.84266089001E+01  0.18696920496E+03  0.18717160173E+03  0.00000000000E+00 0.  1.
<mgrwt>
<rscale>  0 0.21922786E+04</rscale>
<asrwt>0</asrwt>
<pdfrwt beam="1">  1        2 0.26410022E+00 0.21922786E+04</pdfrwt>
<pdfrwt beam="2">  1       -2 0.10768024E+00 0.21922786E+04</pdfrwt>
<totfact> 0.60744200E+00</totfact>
</mgrwt>
</event>
<event>
12    1  0.1097093E-007  0.2309743E+04  0.7818608E-02  0.8474089E-01
          2   -1    0    0  501    0  0.00000000000E+00  0.00000000000E+00  0.22048531435E+04  0.22048531435E+04  0.00000000000E+00 0. -1.
         -2   -1    0    0    0  501 -0.00000000000E+00 -0.00000000000E+00 -0.60490585460E+03  0.60490585460E+03  0.00000000000E+00 0.  1.
         23    2    1    2    0    0  0.54874256484E+03  0.69179487868E+03  0.12118581434E+04  0.15022972160E+04  0.92726527745E+02 0.  0.
        254    2    1    2    0    0 -0.54874256484E+03 -0.69179487868E+03  0.38808914553E+03  0.13074617821E+04  0.88269166195E+03 0.  0.
        -24    2    4    4    0    0  0.23035464896E+03 -0.10196790226E+03  0.43681781872E+02  0.26839861882E+03  0.81663964688E+02 0.  0.
         24    2    4    4    0    0 -0.77909721380E+03 -0.58982697642E+03  0.34440736366E+03  0.10390631633E+04  0.78405959203E+02 0.  0.
         11    1    3    3    0    0  0.53164003619E+03  0.64484244525E+03  0.11165676932E+04  0.13946993657E+04  0.00000000000E+00 0. -1.
        -11    1    3    3    0    0  0.17102528655E+02  0.46952433424E+02  0.95290450169E+02  0.10759785028E+03  0.00000000000E+00 0.  1.
          2    1    6    6  502    0 -0.66081629535E+03 -0.51160974353E+03  0.32148289793E+03  0.89541831539E+03  0.00000000000E+00 0. -1.
          3    1    5    5  503    0  0.15721068011E+03 -0.48535305288E+02 -0.68507556549E+01  0.16467485131E+03  0.00000000000E+00 0. -1.
         -4    1    5    5    0  503  0.73143968848E+02 -0.53432596969E+02  0.50532537527E+02  0.10372376751E+03  0.00000000000E+00 0.  1.
         -1    1    6    6    0  502 -0.11828091845E+03 -0.78217232887E+02  0.22924465725E+02  0.14364484787E+03  0.00000000000E+00 0.  1.
<mgrwt>
<rscale>  0 0.23097433E+04</rscale>
<asrwt>0</asrwt>
<pdfrwt beam="1">  1        2 0.33920817E+00 0.23097433E+04</pdfrwt>
<pdfrwt beam="2">  1       -2 0.93062440E-01 0.23097433E+04</pdfrwt>
<totfact> 0.45452736E+00</totfact>
</mgrwt>
</event>
<event>
12    1  0.1097093E-007  0.2296382E+04  0.7818608E-02  0.8479349E-01
         -3   -1    0    0    0  501 -0.00000000000E+00  0.00000000000E+00  0.23284927266E+04  0.23284927266E+04  0.00000000000E+00 0.  1.
          3   -1    0    0  501    0  0.00000000000E+00 -0.00000000000E+00 -0.56617838550E+03  0.56617838550E+03  0.00000000000E+00 0. -1.
         23    2    1    2    0    0  0.60831554626E+03  0.22769105873E+03 -0.16453424698E+03  0.67645812941E+03  0.92914263546E+02 0.  0.
        254    2    1    2    0    0 -0.60831554626E+03 -0.22769105873E+03  0.19268485880E+04  0.22182129826E+04  0.88647184563E+03 0.  0.
        -24    2    4    4    0    0  0.22057631335E+03 -0.52205233332E+02  0.32514224105E+03  0.40463077426E+03  0.81420452983E+02 0.  0.
         24    2    4    4    0    0 -0.82889185961E+03 -0.17548582540E+03  0.16017063470E+04  0.18135822084E+04  0.75896078621E+02 0.  0.
         11    1    3    3    0    0  0.43040529265E+03  0.18842695595E+03 -0.84144201754E+02  0.47731926460E+03  0.00000000000E+00 0. -1.
        -11    1    3    3    0    0  0.17791025361E+03  0.39264102779E+02 -0.80390045227E+02  0.19913886482E+03  0.00000000000E+00 0.  1.
          2    1    6    6  502    0 -0.79801263937E+03 -0.16522176292E+03  0.15654324265E+04  0.17648515760E+04  0.00000000000E+00 0. -1.
          3    1    5    5  503    0  0.14911444076E+03 -0.28447556525E+02  0.14739457826E+03  0.21158814148E+03  0.00000000000E+00 0. -1.
         -2    1    5    5    0  503  0.71461872585E+02 -0.23757676807E+02  0.17774766279E+03  0.19304263277E+03  0.00000000000E+00 0.  1.
         -1    1    6    6    0  502 -0.30879220244E+02 -0.10264062474E+02  0.36273920529E+02  0.48730632377E+02  0.00000000000E+00 0.  1.
<mgrwt>
<rscale>  0 0.22963817E+04</rscale>
<asrwt>0</asrwt>
<pdfrwt beam="1">  1        3 0.87104369E-01 0.22963817E+04</pdfrwt>
<pdfrwt beam="2">  1       -3 0.35822964E+00 0.22963817E+04</pdfrwt>
<totfact> 0.51260656E-02</totfact>
</mgrwt>
</event>
<event>
12    1  0.1097093E-007  0.2179185E+04  0.7818608E-02  0.8527142E-01
          2   -1    0    0  501    0  0.00000000000E+00  0.00000000000E+00  0.14579389421E+04  0.14579389421E+04  0.00000000000E+00 0. -1.
         -2   -1    0    0    0  501 -0.00000000000E+00 -0.00000000000E+00 -0.81430815318E+03  0.81430815318E+03  0.00000000000E+00 0.  1.
         23    2    1    2    0    0  0.23209815633E+03 -0.24058015554E+03 -0.60620761868E+03  0.69834070374E+03  0.91889586726E+02 0.  0.
        254    2    1    2    0    0 -0.23209815633E+03  0.24058015554E+03  0.12498384076E+04  0.15739063915E+04  0.89629064414E+03 0.  0.
        -24    2    4    4    0    0  0.14313218220E+03  0.47542329036E+03  0.71633701021E+03  0.87600007151E+03  0.87882230758E+02 0.  0.
         24    2    4    4    0    0 -0.37523033853E+03 -0.23484313482E+03  0.53350139740E+03  0.69790632003E+03  0.80624968745E+02 0.  0.
         13    1    3    3    0    0  0.21989295005E+02  0.43067058321E+01 -0.58617200566E+02  0.62753908342E+02  0.00000000000E+00 0. -1.
        -13    1    3    3    0    0  0.21010886132E+03 -0.24488686137E+03 -0.54759041811E+03  0.63558679540E+03  0.00000000000E+00 0.  1.
          4    1    6    6  502    0 -0.17758403665E+03 -0.65756511035E+02  0.20907743838E+03  0.28208754679E+03  0.00000000000E+00 0. -1.
          3    1    5    5  503    0  0.99930058641E+02  0.21533902738E+03  0.29062489390E+03  0.37525956655E+03  0.00000000000E+00 0. -1.
         -4    1    5    5    0  503  0.43202123558E+02  0.26008426298E+03  0.42571211631E+03  0.50074050496E+03  0.00000000000E+00 0.  1.
         -3    1    6    6    0  502 -0.19764630188E+03 -0.16908662379E+03  0.32442395902E+03  0.41581877324E+03  0.00000000000E+00 0.  1.
<mgrwt>
<rscale>  0 0.21791848E+04</rscale>
<asrwt>0</asrwt>
<pdfrwt beam="1">  1        2 0.22429830E+00 0.21791848E+04</pdfrwt>
<pdfrwt beam="2">  1       -2 0.12527818E+00 0.21791848E+04</pdfrwt>
<totfact> 0.58554407E+00</totfact>
</mgrwt>
</event>
<event>
12    1  0.1097093E-007  0.2559792E+04  0.7818608E-02  0.8381989E-01
          2   -1    0    0  501    0  0.00000000000E+00  0.00000000000E+00  0.19394191334E+04  0.19394191334E+04  0.00000000000E+00 0. -1.
         -2   -1    0    0    0  501 -0.00000000000E+00 -0.00000000000E+00 -0.84465177660E+03  0.84465177660E+03  0.00000000000E+00 0.  1.
         23    2    1    2    0    0 -0.92958666293E+02 -0.81332866986E+03  0.13072535844E+04  0.15451410405E+04  0.91673673468E+02 0.  0.
        254    2    1    2    0    0  0.92958666293E+02  0.81332866986E+03 -0.21248622755E+03  0.12389298695E+04  0.90534633472E+03 0.  0.
        -24    2    4    4    0    0 -0.84879671947E+01  0.40940256762E+03 -0.55519105648E+03  0.69454505321E+03  0.80456284885E+02 0.  0.
         24    2    4    4    0    0  0.10144663349E+03  0.40392610224E+03  0.34270482894E+03  0.54438481629E+03  0.73895283447E+02 0.  0.
         13    1    3    3    0    0 -0.10283070663E+03 -0.61899740956E+03  0.10383622066E+04  0.12132304065E+04  0.00000000000E+00 0. -1.
        -13    1    3    3    0    0  0.98720403340E+01 -0.19433126030E+03  0.26889137778E+03  0.33191063399E+03  0.00000000000E+00 0.  1.
          2    1    6    6  502    0  0.22481007260E+02  0.10017570467E+03  0.12817263796E+03  0.16422177875E+03  0.00000000000E+00 0. -1.
          3    1    5    5  503    0 -0.28479189037E+02  0.24484236644E+03 -0.27776252105E+03  0.37136352367E+03  0.00000000000E+00 0. -1.
         -4    1    5    5    0  503  0.19991221843E+02  0.16456020118E+03 -0.27742853543E+03  0.32318152953E+03  0.00000000000E+00 0.  1.
         -1    1    6    6    0  502  0.78965626228E+02  0.30375039757E+03  0.21453219098E+03  0.38016303755E+03  0.00000000000E+00 0.  1.
<mgrwt>
<rscale>  0 0.25597920E+04</rscale>
<asrwt>0</asrwt>
<pdfrwt beam="1">  1        2 0.29837217E+00 0.25597920E+04</pdfrwt>
<pdfrwt beam="2">  1       -2 0.12994643E+00 0.25597920E+04</pdfrwt>
<totfact> 0.27860015E+00</totfact>
</mgrwt>
</event>
<event>
12    1  0.1097093E-007  0.1409383E+04  0.7818608E-02  0.8947055E-01
         -2   -1    0    0    0  501 -0.00000000000E+00  0.00000000000E+00  0.62047835695E+03  0.62047835695E+03  0.00000000000E+00 0. -1.
          2   -1    0    0  501    0  0.00000000000E+00 -0.00000000000E+00 -0.80033404293E+03  0.80033404293E+03  0.00000000000E+00 0.  1.
         23    2    1    2    0    0  0.10101683731E+02  0.23287678069E+03 -0.39120581752E+03  0.46498469996E+03  0.93995428249E+02 0.  0.
        254    2    1    2    0    0 -0.10101683731E+02 -0.23287678069E+03  0.21135013154E+03  0.95582769992E+03  0.90255419496E+03 0.  0.
        -24    2    4    4    0    0 -0.31705203095E+03  0.20500956988E+03  0.13773604929E+03  0.40956225359E+03  0.78861310040E+02 0.  0.
         24    2    4    4    0    0  0.30695034722E+03 -0.43788635057E+03  0.73614082250E+02  0.54626544634E+03  0.83808908162E+02 0.  0.
         11    1    3    3    0    0 -0.26311380792E+01  0.10920803780E+02  0.36764641392E+01  0.11819612149E+02  0.00000000000E+00 0. -1.
        -11    1    3    3    0    0  0.12732821811E+02  0.22195597691E+03 -0.39488228166E+03  0.45316508781E+03  0.00000000000E+00 0.  1.
          2    1    6    6  502    0  0.90950767313E+01 -0.70355463909E+00 -0.65370551342E+01  0.11222677920E+02  0.00000000000E+00 0. -1.
          1    1    5    5  503    0 -0.22183883012E+02 -0.60198813169E+01  0.10653170494E+02  0.25334831322E+02  0.00000000000E+00 0. -1.
         -2    1    5    5    0  503 -0.29486814794E+03  0.21102945119E+03  0.12708287879E+03  0.38422742227E+03  0.00000000000E+00 0.  1.
         -1    1    6    6    0  502  0.29785527049E+03 -0.43718279593E+03  0.80151137384E+02  0.53504276842E+03  0.00000000000E+00 0.  1.
<mgrwt>
<rscale>  0 0.14093828E+04</rscale>
<asrwt>0</asrwt>
<pdfrwt beam="1">  1        2 0.12312831E+00 0.14093828E+04</pdfrwt>
<pdfrwt beam="2">  1       -2 0.95458209E-01 0.14093828E+04</pdfrwt>
<totfact> 0.30867713E+01</totfact>
</mgrwt>
</event>
<event>
12    1  0.1097093E-007  0.1478375E+04  0.7818608E-02  0.8898962E-01
         -1   -1    0    0    0  501 -0.00000000000E+00  0.00000000000E+00  0.57855619839E+03  0.57855619839E+03  0.00000000000E+00 0.  1.
          1   -1    0    0  501    0  0.00000000000E+00 -0.00000000000E+00 -0.94441669562E+03  0.94441669562E+03  0.00000000000E+00 0. -1.
         23    2    1    2    0    0 -0.45343727317E+03 -0.52008403909E+02 -0.18916515763E+03  0.50252137325E+03  0.91837023766E+02 0.  0.
        254    2    1    2    0    0  0.45343727317E+03  0.52008403909E+02 -0.17669533960E+03  0.10204515208E+04  0.89542717650E+03 0.  0.
        -24    2    4    4    0    0  0.31815007236E+03  0.43863235614E+03  0.41698558208E+02  0.54925013935E+03  0.79492977174E+02 0.  0.
         24    2    4    4    0    0  0.13528720082E+03 -0.38662395223E+03 -0.21839389781E+03  0.47120138142E+03  0.80957643893E+02 0.  0.
         11    1    3    3    0    0 -0.44558039261E+02 -0.23402317860E+02  0.17514329701E+01  0.50360250808E+02  0.00000000000E+00 0.  1.
        -11    1    3    3    0    0 -0.40887923391E+03 -0.28606086049E+02 -0.19091659060E+03  0.45216112244E+03  0.00000000000E+00 0. -1.
          2    1    6    6  502    0  0.17063144280E+01 -0.11201750133E+03 -0.53419156385E+02  0.12411461792E+03  0.00000000000E+00 0. -1.
          3    1    5    5  503    0  0.62715756630E+02  0.43655730473E+02  0.16657476846E+02  0.78208442432E+02  0.00000000000E+00 0. -1.
         -4    1    5    5    0  503  0.25543431573E+03  0.39497662567E+03  0.25041081362E+02  0.47104169692E+03  0.00000000000E+00 0.  1.
         -1    1    6    6    0  502  0.13358088639E+03 -0.27460645091E+03 -0.16497474142E+03  0.34708676350E+03  0.00000000000E+00 0.  1.
<mgrwt>
<rscale>  0 0.14783750E+04</rscale>
<asrwt>0</asrwt>
<pdfrwt beam="1">  1        1 0.14529488E+00 0.14783750E+04</pdfrwt>
<pdfrwt beam="2">  1       -1 0.89008647E-01 0.14783750E+04</pdfrwt>
<totfact> 0.20093319E+01</totfact>
</mgrwt>
</event>
<event>
12    1  0.1097093E-007  0.2002409E+04  0.7818608E-02  0.8605495E-01
          1   -1    0    0  501    0  0.00000000000E+00  0.00000000000E+00  0.12615871496E+04  0.12615871496E+04  0.00000000000E+00 0. -1.
         -1   -1    0    0    0  501 -0.00000000000E+00 -0.00000000000E+00 -0.79456296759E+03  0.79456296759E+03  0.00000000000E+00 0.  1.
         23    2    1    2    0    0  0.16404086719E+03  0.48965640579E+02 -0.60945921003E+03  0.63990692454E+03  0.93452144495E+02 0.  0.
        254    2    1    2    0    0 -0.16404086719E+03 -0.48965640579E+02  0.10764833920E+04  0.14162431926E+04  0.90422411344E+03 0.  0.
        -24    2    4    4    0    0 -0.42053060864E+03  0.10962044419E+03  0.10028335735E+04  0.10958930937E+04  0.80273669403E+02 0.  0.
         24    2    4    4    0    0  0.25648974145E+03 -0.15858608477E+03  0.73649818488E+02  0.32035009895E+03  0.79141369595E+02 0.  0.
         13    1    3    3    0    0  0.42376563896E+02  0.56128769905E+02 -0.27778723737E+03  0.28655184736E+03  0.00000000000E+00 0. -1.
        -13    1    3    3    0    0  0.12166430330E+03 -0.71631293267E+01 -0.33167197266E+03  0.35335507718E+03  0.00000000000E+00 0.  1.
          4    1    6    6  502    0  0.84028626074E+02 -0.11428750776E+02  0.14307889433E+02  0.86000825835E+02  0.00000000000E+00 0. -1.
          3    1    5    5  503    0 -0.22677922950E+03  0.29926141881E+02  0.45248986162E+03  0.50702215708E+03  0.00000000000E+00 0. -1.
         -2    1    5    5    0  503 -0.19375137914E+03  0.79694302312E+02  0.55034371192E+03  0.58887093661E+03  0.00000000000E+00 0.  1.
         -3    1    6    6    0  502  0.17246111537E+03 -0.14715733400E+03  0.59341929054E+02  0.23434927311E+03  0.00000000000E+00 0.  1.
<mgrwt>
<rscale>  0 0.20024090E+04</rscale>
<asrwt>0</asrwt>
<pdfrwt beam="1">  1        1 0.19409033E+00 0.20024090E+04</pdfrwt>
<pdfrwt beam="2">  1       -1 0.12224046E+00 0.20024090E+04</pdfrwt>
<totfact> 0.52884809E+00</totfact>
</mgrwt>
</event>
<event>
12    1  0.1097093E-007  0.2071594E+04  0.7818608E-02  0.8573860E-01
          2   -1    0    0  501    0  0.00000000000E+00  0.00000000000E+00  0.26331850518E+04  0.26331850518E+04  0.00000000000E+00 0. -1.
         -2   -1    0    0    0  501 -0.00000000000E+00 -0.00000000000E+00 -0.40744418477E+03  0.40744418477E+03  0.00000000000E+00 0.  1.
         23    2    1    2    0    0  0.19429059333E+03  0.26084863553E+03 -0.23235035413E+03  0.41015434966E+03  0.91918758507E+02 0.  0.
        254    2    1    2    0    0 -0.19429059333E+03 -0.26084863553E+03  0.24580912212E+04  0.26304748869E+04  0.87829085944E+03 0.  0.
        -24    2    4    4    0    0  0.79327685422E+02  0.28103499723E+03  0.57391658410E+03  0.64930342343E+03  0.83313497267E+02 0.  0.
         24    2    4    4    0    0 -0.27361827875E+03 -0.54188363276E+03  0.18841746371E+04  0.19811714635E+04  0.80134080399E+02 0.  0.
         11    1    3    3    0    0  0.20088968692E+02 -0.15181526741E+01 -0.28873306731E+02  0.35207091504E+02  0.00000000000E+00 0. -1.
        -11    1    3    3    0    0  0.17420162464E+03  0.26236678821E+03 -0.20347704740E+03  0.37494725816E+03  0.00000000000E+00 0.  1.
          2    1    6    6  502    0 -0.77898429635E+02 -0.23878575243E+03  0.74083859318E+03  0.78225866697E+03  0.00000000000E+00 0. -1.
          1    1    5    5  503    0 -0.16186640710E+02  0.70534520781E+02  0.14549955980E+03  0.16250307032E+03  0.00000000000E+00 0. -1.
         -2    1    5    5    0  503  0.95514326132E+02  0.21050047645E+03  0.42841702430E+03  0.48680035311E+03  0.00000000000E+00 0.  1.
         -1    1    6    6    0  502 -0.19571984912E+03 -0.30309788033E+03  0.11433360439E+04  0.11989127965E+04  0.00000000000E+00 0.  1.
<mgrwt>
<rscale>  0 0.20715945E+04</rscale>
<asrwt>0</asrwt>
<pdfrwt beam="1">  1        2 0.40510538E+00 0.20715945E+04</pdfrwt>
<pdfrwt beam="2">  1       -2 0.62683722E-01 0.20715945E+04</pdfrwt>
<totfact> 0.63457233E+00</totfact>
</mgrwt>
</event>
<event>
12    1  0.1097093E-007  0.1226874E+04  0.7818608E-02  0.9089653E-01
          1   -1    0    0  501    0  0.00000000000E+00  0.00000000000E+00  0.87580071329E+03  0.87580071329E+03  0.00000000000E+00 0. -1.
         -1   -1    0    0    0  501 -0.00000000000E+00 -0.00000000000E+00 -0.42966993130E+03  0.42966993130E+03  0.00000000000E+00 0.  1.
         23    2    1    2    0    0  0.12763379927E+03 -0.22470640950E+03  0.21258192587E+03  0.34621053367E+03  0.88810479277E+02 0.  0.
        254    2    1    2    0    0 -0.12763379927E+03  0.22470640950E+03  0.23354885613E+03  0.95926011092E+03  0.89378494898E+03 0.  0.
        -24    2    4    4    0    0 -0.26544224740E+03  0.51947572756E+03  0.96040657975E+02  0.59701389169E+03  0.82988918913E+02 0.  0.
         24    2    4    4    0    0  0.13780844813E+03 -0.29476931806E+03  0.13750819816E+03  0.36224621923E+03  0.80210345604E+02 0.  0.
         13    1    3    3    0    0  0.22875167839E+02 -0.82936914067E+02  0.11838701924E+03  0.14634647705E+03  0.00000000000E+00 0.  1.
        -13    1    3    3    0    0  0.10475863143E+03 -0.14176949544E+03  0.94194906625E+02  0.19986405662E+03  0.00000000000E+00 0. -1.
          4    1    6    6  502    0  0.36622274612E+02 -0.89510055739E+02  0.81925595131E+02  0.12674795546E+03  0.00000000000E+00 0. -1.
          1    1    5    5  503    0 -0.68304313345E+02  0.13681423437E+03 -0.11430726986E+02  0.15334365154E+03  0.00000000000E+00 0. -1.
         -4    1    5    5    0  503 -0.19713793405E+03  0.38266149319E+03  0.10747138496E+03  0.44367024015E+03  0.00000000000E+00 0.  1.
         -3    1    6    6    0  502  0.10118617352E+03 -0.20525926232E+03  0.55582603026E+02  0.23549826377E+03  0.00000000000E+00 0.  1.
<mgrwt>
<rscale>  0 0.12268745E+04</rscale>
<asrwt>0</asrwt>
<pdfrwt beam="1">  1        1 0.13473857E+00 0.12268745E+04</pdfrwt>
<pdfrwt beam="2">  1       -1 0.66103066E-01 0.12268745E+04</pdfrwt>
<totfact> 0.43663614E+01</totfact>
</mgrwt>
</event>
<event>
12    1  0.1097093E-007  0.2992285E+04  0.7818608E-02  0.8245937E-01
          2   -1    0    0  501    0  0.00000000000E+00  0.00000000000E+00  0.25021517552E+04  0.25021517552E+04  0.00000000000E+00 0. -1.
         -2   -1    0    0    0  501 -0.00000000000E+00 -0.00000000000E+00 -0.89460699714E+03  0.89460699714E+03  0.00000000000E+00 0.  1.
         23    2    1    2    0    0  0.28217100914E+03 -0.37913647123E+03  0.21818874852E+04  0.22343177136E+04  0.90430663459E+02 0.  0.
        254    2    1    2    0    0 -0.28217100914E+03  0.37913647123E+03 -0.57434272709E+03  0.11624410388E+04  0.89332785602E+03 0.  0.
        -24    2    4    4    0    0 -0.51222619998E+03  0.49450079926E+03 -0.51943308871E+03  0.88489758645E+03  0.79537943436E+02 0.  0.
         24    2    4    4    0    0  0.23005519084E+03 -0.11536432803E+03 -0.54909638385E+02  0.27754345236E+03  0.88209866513E+02 0.  0.
         13    1    3    3    0    0  0.17965017148E+03 -0.30118795824E+03  0.15089398108E+04  0.15491571008E+04  0.00000000000E+00 0. -1.
        -13    1    3    3    0    0  0.10252083766E+03 -0.77948512991E+02  0.67294767439E+03  0.68516061277E+03  0.00000000000E+00 0.  1.
          2    1    6    6  502    0  0.21296664224E+02  0.12067315040E+02  0.65925514718E+01  0.25350142687E+02  0.00000000000E+00 0. -1.
          3    1    5    5  503    0 -0.21227646499E+03  0.19197229194E+03 -0.25610645290E+03  0.38406402289E+03  0.00000000000E+00 0. -1.
         -4    1    5    5    0  503 -0.29994973498E+03  0.30252850733E+03 -0.26332663581E+03  0.50083356356E+03  0.00000000000E+00 0.  1.
         -1    1    6    6    0  502  0.20875852661E+03 -0.12743164307E+03 -0.61502189857E+02  0.25219330968E+03  0.00000000000E+00 0.  1.
<mgrwt>
<rscale>  0 0.29922851E+04</rscale>
<asrwt>0</asrwt>
<pdfrwt beam="1">  1        2 0.38494642E+00 0.29922851E+04</pdfrwt>
<pdfrwt beam="2">  1       -2 0.13763185E+00 0.29922851E+04</pdfrwt>
<totfact> 0.11159583E+00</totfact>
</mgrwt>
</event>
<event>
12    1  0.1097093E-007  0.3923810E+04  0.7818608E-02  0.8020095E-01
          2   -1    0    0  501    0  0.00000000000E+00  0.00000000000E+00  0.23526960187E+04  0.23526960187E+04  0.00000000000E+00 0. -1.
         -2   -1    0    0    0  501 -0.00000000000E+00 -0.00000000000E+00 -0.16360260331E+04  0.16360260331E+04  0.00000000000E+00 0.  1.
         23    2    1    2    0    0 -0.11108777429E+04 -0.13149575789E+04 -0.39695998340E+03  0.17690048267E+04  0.92941133708E+02 0.  0.
        254    2    1    2    0    0  0.11108777429E+04  0.13149575789E+04  0.11136299690E+04  0.22197172251E+04  0.85077027318E+03 0.  0.
        -24    2    4    4    0    0  0.75588048957E+03  0.27061903116E+03  0.37913833043E+03  0.89206261967E+03  0.86254676786E+02 0.  0.
         24    2    4    4    0    0  0.35499725329E+03  0.10443385478E+04  0.73449163856E+03  0.13276546055E+04  0.80763432710E+02 0.  0.
         11    1    3    3    0    0 -0.65233329038E+03 -0.78531209992E+03 -0.18927008579E+03  0.10383048596E+04  0.00000000000E+00 0.  1.
        -11    1    3    3    0    0 -0.45854445248E+03 -0.52964547902E+03 -0.20768989761E+03  0.73069996710E+03  0.00000000000E+00 0. -1.
          2    1    6    6  502    0  0.24186671618E+03  0.80992378302E+03  0.54578538512E+03  0.10061598925E+04  0.00000000000E+00 0. -1.
          1    1    5    5  503    0  0.74247021810E+03  0.25269158255E+03  0.37484612245E+03  0.86926674627E+03  0.00000000000E+00 0. -1.
         -2    1    5    5    0  503  0.13410271474E+02  0.17927448608E+02  0.42922079746E+01  0.22795873396E+02  0.00000000000E+00 0.  1.
         -1    1    6    6    0  502  0.11313053711E+03  0.23441476477E+03  0.18870625344E+03  0.32149471295E+03  0.00000000000E+00 0.  1.
<mgrwt>
<rscale>  0 0.39238104E+04</rscale>
<asrwt>0</asrwt>
<pdfrwt beam="1">  1        2 0.36195324E+00 0.39238104E+04</pdfrwt>
<pdfrwt beam="2">  1       -2 0.25169631E+00 0.39238104E+04</pdfrwt>
<totfact> 0.21070290E-01</totfact>
</mgrwt>
</event>
<event>
12    1  0.1097093E-007  0.2369751E+04  0.7818608E-02  0.8450916E-01
         -2   -1    0    0    0  501 -0.00000000000E+00  0.00000000000E+00  0.11609765704E+04  0.11609765704E+04  0.00000000000E+00 0.  1.
          2   -1    0    0  501    0  0.00000000000E+00 -0.00000000000E+00 -0.12092660338E+04  0.12092660338E+04  0.00000000000E+00 0. -1.
         23    2    1    2    0    0 -0.14867936326E+03 -0.24760350712E+03 -0.96153165114E+03  0.10075046523E+04  0.84317604788E+02 0.  0.
        254    2    1    2    0    0  0.14867936326E+03  0.24760350712E+03  0.91324218769E+03  0.13627379519E+04  0.96934533696E+03 0.  0.
        -24    2    4    4    0    0 -0.26141441049E+03  0.61181365000E+02 -0.61274226489E+02  0.28624979482E+03  0.78126568893E+02 0.  0.
         24    2    4    4    0    0  0.41009377376E+03  0.18642214212E+03  0.97451641418E+03  0.10764881570E+04  0.78831417684E+02 0.  0.
         11    1    3    3    0    0 -0.13515528045E+03 -0.24289909395E+03 -0.94759241648E+03  0.98752129468E+03  0.00000000000E+00 0. -1.
        -11    1    3    3    0    0 -0.13524082809E+02 -0.47044131689E+01 -0.13939234658E+02  0.19983357624E+02  0.00000000000E+00 0.  1.
          2    1    6    6  502    0  0.23073845705E+03  0.13587113383E+03  0.51076996015E+03  0.57670369582E+03  0.00000000000E+00 0. -1.
          1    1    5    5  503    0 -0.25611917606E+03  0.48040620861E+02 -0.69725806425E+02  0.26975289003E+03  0.00000000000E+00 0. -1.
         -2    1    5    5    0  503 -0.52952344309E+01  0.13140744139E+02  0.84515799356E+01  0.16496904789E+02  0.00000000000E+00 0.  1.
         -1    1    6    6    0  502  0.17935531670E+03  0.50551008290E+02  0.46374645402E+03  0.49978446123E+03  0.00000000000E+00 0.  1.
<mgrwt>
<rscale>  0 0.23697506E+04</rscale>
<asrwt>0</asrwt>
<pdfrwt beam="1">  1        2 0.18604093E+00 0.23697506E+04</pdfrwt>
<pdfrwt beam="2">  1       -2 0.17861178E+00 0.23697506E+04</pdfrwt>
<totfact> 0.31253372E+00</totfact>
</mgrwt>
</event>
<event>
12    1  0.1097093E-007  0.1610738E+04  0.7818608E-02  0.8813978E-01
          2   -1    0    0  501    0  0.00000000000E+00  0.00000000000E+00  0.23594138434E+04  0.23594138434E+04  0.00000000000E+00 0. -1.
         -2   -1    0    0    0  501 -0.00000000000E+00 -0.00000000000E+00 -0.27490703742E+03  0.27490703742E+03  0.00000000000E+00 0.  1.
         23    2    1    2    0    0  0.43293759142E+03 -0.32021390474E+03  0.78968195852E+03  0.95997211527E+03  0.89313849080E+02 0.  0.
        254    2    1    2    0    0 -0.43293759142E+03  0.32021390474E+03  0.12948248474E+04  0.16743487655E+04  0.91482266053E+03 0.  0.
        -24    2    4    4    0    0 -0.28715592015E+03  0.55509418432E+03  0.12257874555E+04  0.13783950224E+04  0.82643062081E+02 0.  0.
         24    2    4    4    0    0 -0.14578167127E+03 -0.23488027958E+03  0.69037391923E+02  0.29595374313E+03  0.80008844373E+02 0.  0.
         11    1    3    3    0    0  0.10195346558E+03 -0.68559125713E+02  0.12019282880E+03  0.17187547515E+03  0.00000000000E+00 0. -1.
        -11    1    3    3    0    0  0.33098412584E+03 -0.25165477903E+03  0.66948912972E+03  0.78809664012E+03  0.00000000000E+00 0.  1.
          2    1    6    6  502    0  0.98557120698E+01 -0.84741362475E+01  0.42734268218E+01  0.13682405576E+02  0.00000000000E+00 0. -1.
          1    1    5    5  503    0 -0.44084776813E+02  0.79273906298E+02  0.12139310721E+03  0.15153912447E+03  0.00000000000E+00 0. -1.
         -2    1    5    5    0  503 -0.24307114334E+03  0.47582027802E+03  0.11043943483E+04  0.12268558979E+04  0.00000000000E+00 0.  1.
         -1    1    6    6    0  502 -0.15563738334E+03 -0.22640614333E+03  0.64763965101E+02  0.28227133756E+03  0.00000000000E+00 0.  1.
<mgrwt>
<rscale>  0 0.16107383E+04</rscale>
<asrwt>0</asrwt>
<pdfrwt beam="1">  1        2 0.36298673E+00 0.16107383E+04</pdfrwt>
<pdfrwt beam="2">  1       -2 0.42293392E-01 0.16107383E+04</pdfrwt>
<totfact> 0.21322483E+01</totfact>
</mgrwt>
</event>
<event>
12    1  0.1097093E-007  0.2268683E+04  0.7818608E-02  0.8490372E-01
          2   -1    0    0  501    0  0.00000000000E+00  0.00000000000E+00  0.11800293781E+04  0.11800293781E+04  0.00000000000E+00 0. -1.
         -2   -1    0    0    0  501 -0.00000000000E+00 -0.00000000000E+00 -0.10904222927E+04  0.10904222927E+04  0.00000000000E+00 0.  1.
         23    2    1    2    0    0 -0.94161830212E+03  0.15529296254E+03  0.38958874933E+02  0.95941005165E+03  0.90492663628E+02 0.  0.
        254    2    1    2    0    0  0.94161830212E+03 -0.15529296254E+03  0.50648210477E+02  0.13110416191E+04  0.89749872132E+03 0.  0.
        -24    2    4    4    0    0  0.49614889871E+03 -0.19489801548E+03  0.45318527532E+03  0.70432794426E+03  0.80944383192E+02 0.  0.
         24    2    4    4    0    0  0.44546940341E+03  0.39605052935E+02 -0.40253706484E+03  0.60671367487E+03  0.77806459334E+02 0.  0.
         13    1    3    3    0    0 -0.81031145781E+03  0.12740145600E+03  0.64377895481E+02  0.82278812769E+03  0.00000000000E+00 0.  1.
        -13    1    3    3    0    0 -0.13130684431E+03  0.27891506542E+02 -0.25419020549E+02  0.13662192396E+03  0.00000000000E+00 0. -1.
          2    1    6    6  502    0  0.17834349186E+03 -0.19388881243E+02 -0.14004616853E+03  0.22758571819E+03  0.00000000000E+00 0. -1.
          3    1    5    5  503    0  0.17226533583E+01 -0.10058270799E+02  0.31644707471E+01  0.10684110687E+02  0.00000000000E+00 0. -1.
         -4    1    5    5    0  503  0.49442624535E+03 -0.18483974468E+03  0.45002080457E+03  0.69364383357E+03  0.00000000000E+00 0.  1.
         -3    1    6    6    0  502  0.26712591155E+03  0.58993934178E+02 -0.26249089631E+03  0.37912795668E+03  0.00000000000E+00 0.  1.
<mgrwt>
<rscale>  0 0.22686827E+04</rscale>
<asrwt>0</asrwt>
<pdfrwt beam="1">  1        2 0.18154298E+00 0.22686827E+04</pdfrwt>
<pdfrwt beam="2">  1       -2 0.16775728E+00 0.22686827E+04</pdfrwt>
<totfact> 0.39139177E+00</totfact>
</mgrwt>
</event>
<event>
12    1  0.1097093E-007  0.2438186E+04  0.7818608E-02  0.8425344E-01
         -2   -1    0    0    0  501 -0.00000000000E+00  0.00000000000E+00  0.61250558232E+03  0.61250558232E+03  0.00000000000E+00 0. -1.
          2   -1    0    0  501    0  0.00000000000E+00 -0.00000000000E+00 -0.24264064780E+04  0.24264064780E+04  0.00000000000E+00 0.  1.
         23    2    1    2    0    0  0.40799566912E+03 -0.92162547430E+03 -0.42367947915E+03  0.10973330695E+04  0.93710103872E+02 0.  0.
        254    2    1    2    0    0 -0.40799566912E+03  0.92162547430E+03 -0.13902214166E+04  0.19415789908E+04  0.90617846453E+03 0.  0.
        -24    2    4    4    0    0 -0.57283225403E+03  0.23553699290E+03 -0.47920404630E+03  0.78643790207E+03  0.72343552209E+02 0.  0.
         24    2    4    4    0    0  0.16483658491E+03  0.68608848140E+03 -0.91101737027E+03  0.11551410887E+04  0.80683219578E+02 0.  0.
         13    1    3    3    0    0  0.36364596440E+02 -0.16828374387E+03 -0.76378865474E+02  0.18834949805E+03  0.00000000000E+00 0. -1.
        -13    1    3    3    0    0  0.37163107268E+03 -0.75334173044E+03 -0.34730061367E+03  0.90898357150E+03  0.00000000000E+00 0.  1.
          4    1    6    6  502    0  0.60735516967E+02  0.13217520877E+03 -0.16133433913E+03  0.21722766356E+03  0.00000000000E+00 0. -1.
          1    1    5    5  503    0 -0.27986187128E+03  0.10278980363E+03 -0.27390346673E+03  0.40485987676E+03  0.00000000000E+00 0. -1.
         -2    1    5    5    0  503 -0.29297038275E+03  0.13274718927E+03 -0.20530057957E+03  0.38157802531E+03  0.00000000000E+00 0.  1.
         -1    1    6    6    0  502  0.10410106795E+03  0.55391327263E+03 -0.74968303114E+03  0.93791342518E+03  0.00000000000E+00 0.  1.
<mgrwt>
<rscale>  0 0.24381858E+04</rscale>
<asrwt>0</asrwt>
<pdfrwt beam="1">  1        2 0.37329330E+00 0.24381858E+04</pdfrwt>
<pdfrwt beam="2">  1       -2 0.94231628E-01 0.24381858E+04</pdfrwt>
<totfact> 0.32683805E+00</totfact>
</mgrwt>
</event>
<event>
12    1  0.1097093E-007  0.1522440E+04  0.7818608E-02  0.8869666E-01
          2   -1    0    0  501    0  0.00000000000E+00  0.00000000000E+00  0.76151521685E+03  0.76151521685E+03  0.00000000000E+00 0. -1.
         -2   -1    0    0    0  501 -0.00000000000E+00 -0.00000000000E+00 -0.76092510538E+03  0.76092510538E+03  0.00000000000E+00 0.  1.
         23    2    1    2    0    0  0.13710988974E+03 -0.51614076432E+02  0.46330898977E+03  0.49430967566E+03  0.90684622145E+02 0.  0.
        254    2    1    2    0    0 -0.13710988974E+03  0.51614076432E+02 -0.46271887830E+03  0.10281306466E+04  0.90635574216E+03 0.  0.
        -24    2    4    4    0    0  0.33621457440E+03  0.15597225901E+03 -0.42415105277E+02  0.38168414865E+03  0.80722751133E+02 0.  0.
         24    2    4    4    0    0 -0.47332446415E+03 -0.10435818257E+03 -0.42030377302E+03  0.64644649793E+03  0.79442648731E+02 0.  0.
         13    1    3    3    0    0  0.24560533206E+02 -0.54686219977E+01  0.22832848694E+03  0.22971073890E+03  0.00000000000E+00 0. -1.
        -13    1    3    3    0    0  0.11254935654E+03 -0.46145454435E+02  0.23498050283E+03  0.26459893676E+03  0.00000000000E+00 0.  1.
          4    1    6    6  502    0 -0.47364779194E+03 -0.10311416754E+03 -0.40662480526E+03  0.63270727403E+03  0.00000000000E+00 0. -1.
          1    1    5    5  503    0  0.32715376632E+03  0.16160691344E+03 -0.50400968939E+02  0.36835667357E+03  0.00000000000E+00 0. -1.
         -2    1    5    5    0  503  0.90608080802E+01 -0.56346544289E+01  0.79858636618E+01  0.13327475081E+02  0.00000000000E+00 0.  1.
         -3    1    6    6    0  502  0.32332779679E+00 -0.12440150363E+01 -0.13678967759E+02  0.13739223895E+02  0.00000000000E+00 0.  1.
<mgrwt>
<rscale>  0 0.15224402E+04</rscale>
<asrwt>0</asrwt>
<pdfrwt beam="1">  1        2 0.11715619E+00 0.15224402E+04</pdfrwt>
<pdfrwt beam="2">  1       -2 0.11706540E+00 0.15224402E+04</pdfrwt>
<totfact> 0.20016599E+01</totfact>
</mgrwt>
</event>
<event>
12    1  0.1097093E-007  0.2519241E+04  0.7818608E-02  0.8396163E-01
          2   -1    0    0  501    0  0.00000000000E+00  0.00000000000E+00  0.16514985983E+04  0.16514985983E+04  0.00000000000E+00 0.  1.
         -2   -1    0    0    0  501 -0.00000000000E+00 -0.00000000000E+00 -0.96072966799E+03  0.96072966799E+03  0.00000000000E+00 0. -1.
         23    2    1    2    0    0 -0.31621103111E+03  0.27059619791E+03 -0.74947162291E+03  0.86220160534E+03  0.92044425035E+02 0.  0.
        254    2    1    2    0    0  0.31621103111E+03 -0.27059619791E+03  0.14402405532E+04  0.17500266609E+04  0.90282265390E+03 0.  0.
        -24    2    4    4    0    0  0.45664223124E+03 -0.43154311846E+03  0.13727630919E+04  0.15119222641E+04  0.81724144107E+02 0.  0.
         24    2    4    4    0    0 -0.14043120013E+03  0.16094692054E+03  0.67477461288E+02  0.23810439684E+03  0.80719655669E+02 0.  0.
         13    1    3    3    0    0 -0.24963154304E+03  0.15958580595E+03 -0.50172870617E+03  0.58267935551E+03  0.00000000000E+00 0. -1.
        -13    1    3    3    0    0 -0.66579488077E+02  0.11101039196E+03 -0.24774291673E+03  0.27952224983E+03  0.00000000000E+00 0.  1.
          2    1    6    6  502    0 -0.10201036965E+03  0.82667833463E+02  0.73898353850E+02  0.15066868589E+03  0.00000000000E+00 0. -1.
          1    1    5    5  503    0  0.37079449371E+02 -0.41482547394E+02  0.18569683056E+03  0.19385303760E+03  0.00000000000E+00 0. -1.
         -2    1    5    5    0  503  0.41956278187E+03 -0.39006057106E+03  0.11870662613E+04  0.13180692265E+04  0.00000000000E+00 0.  1.
         -1    1    6    6    0  502 -0.38420830482E+02  0.78279087079E+02 -0.64208925616E+01  0.87435710955E+02  0.00000000000E+00 0.  1.
<mgrwt>
<rscale>  0 0.25192409E+04</rscale>
<asrwt>0</asrwt>
<pdfrwt beam="1">  1        2 0.25407671E+00 0.25192409E+04</pdfrwt>
<pdfrwt beam="2">  1       -2 0.14780456E+00 0.25192409E+04</pdfrwt>
<totfact> 0.28958633E+00</totfact>
</mgrwt>
</event>
<event>
12    1  0.1097093E-007  0.1320151E+04  0.7818608E-02  0.9013736E-01
          4   -1    0    0  501    0  0.00000000000E+00  0.00000000000E+00  0.20113563692E+03  0.20113563692E+03  0.00000000000E+00 0. -1.
         -4   -1    0    0    0  501 -0.00000000000E+00 -0.00000000000E+00 -0.21661976208E+04  0.21661976208E+04  0.00000000000E+00 0.  1.
         23    2    1    2    0    0 -0.17395169780E+03 -0.26650221744E+03 -0.26422525458E+03  0.42368854711E+03  0.91729900950E+02 0.  0.
        254    2    1    2    0    0  0.17395169780E+03  0.26650221744E+03 -0.17008367293E+04  0.19436447106E+04  0.88522683885E+03 0.  0.
        -24    2    4    4    0    0 -0.32759812886E+02  0.44458714663E+03 -0.15637382867E+04  0.16279867252E+04  0.79576454001E+02 0.  0.
         24    2    4    4    0    0  0.20671151069E+03 -0.17808492920E+03 -0.13709844259E+03  0.31565798533E+03  0.80000563035E+02 0.  0.
         11    1    3    3    0    0 -0.18482886084E+03 -0.25613733793E+03 -0.24810219709E+03  0.40165002661E+03  0.00000000000E+00 0. -1.
        -11    1    3    3    0    0  0.10877163033E+02 -0.10364879508E+02 -0.16123057487E+02  0.22038520495E+02  0.00000000000E+00 0.  1.
          2    1    6    6  502    0  0.24908083140E+02 -0.65186192818E+02 -0.42237370303E+02  0.81569895121E+02  0.00000000000E+00 0. -1.
          1    1    5    5  503    0  0.22001934112E+02  0.89445241502E+02 -0.27046819253E+03  0.28572290686E+03  0.00000000000E+00 0. -1.
         -2    1    5    5    0  503 -0.54761746998E+02  0.35514190513E+03 -0.12932700941E+04  0.13422638184E+04  0.00000000000E+00 0.  1.
         -1    1    6    6    0  502  0.18180342755E+03 -0.11289873638E+03 -0.94861072291E+02  0.23408809021E+03  0.00000000000E+00 0.  1.
<mgrwt>
<rscale>  0 0.13201508E+04</rscale>
<asrwt>0</asrwt>
<pdfrwt beam="1">  1        4 0.30943945E-01 0.13201508E+04</pdfrwt>
<pdfrwt beam="2">  1       -4 0.33326117E+00 0.13201508E+04</pdfrwt>
<totfact> 0.38250248E-01</totfact>
</mgrwt>
</event>
<event>
12    1  0.1097093E-007  0.2169282E+04  0.7818608E-02  0.8531323E-01
          1   -1    0    0  501    0  0.00000000000E+00  0.00000000000E+00  0.18824457077E+04  0.18824457077E+04  0.00000000000E+00 0. -1.
         -1   -1    0    0    0  501 -0.00000000000E+00 -0.00000000000E+00 -0.62495622508E+03  0.62495622508E+03  0.00000000000E+00 0.  1.
         23    2    1    2    0    0 -0.60632741423E+03 -0.59197932571E+03  0.20557705517E+03  0.87596875578E+03  0.83587559921E+02 0.  0.
        254    2    1    2    0    0  0.60632741423E+03  0.59197932571E+03  0.10519124275E+04  0.16314331770E+04  0.91486720386E+03 0.  0.
        -24    2    4    4    0    0 -0.81596848817E+02  0.78927215471E+02  0.67839315736E+03  0.69206712897E+03  0.76498914813E+02 0.  0.
         24    2    4    4    0    0  0.68792426305E+03  0.51305211024E+03  0.37351927012E+03  0.93936604805E+03  0.80185207996E+02 0.  0.
         11    1    3    3    0    0 -0.17266880776E+03 -0.15876840688E+03  0.19492220119E+02  0.23537602011E+03  0.00000000000E+00 0. -1.
        -11    1    3    3    0    0 -0.43365860647E+03 -0.43321091883E+03  0.18608483505E+03  0.64059273567E+03  0.00000000000E+00 0.  1.
          4    1    6    6  502    0  0.37235054530E+03  0.31326867246E+03  0.24139091842E+03  0.54318667623E+03  0.00000000000E+00 0. -1.
          1    1    5    5  503    0 -0.33787038059E+02  0.12687483162E+02  0.40825572301E+03  0.40984786389E+03  0.00000000000E+00 0. -1.
         -4    1    5    5    0  503 -0.47809810759E+02  0.66239732309E+02  0.27013743435E+03  0.28221926508E+03  0.00000000000E+00 0.  1.
         -3    1    6    6    0  502  0.31557371774E+03  0.19978343777E+03  0.13212835169E+03  0.39617937183E+03  0.00000000000E+00 0.  1.
<mgrwt>
<rscale>  0 0.21692821E+04</rscale>
<asrwt>0</asrwt>
<pdfrwt beam="1">  1        1 0.28960703E+00 0.21692821E+04</pdfrwt>
<pdfrwt beam="2">  1       -1 0.96147112E-01 0.21692821E+04</pdfrwt>
<totfact> 0.34112313E+00</totfact>
</mgrwt>
</event>
<event>
12    1  0.1097093E-007  0.2004532E+04  0.7818608E-02  0.8604505E-01
         -2   -1    0    0    0  501 -0.00000000000E+00  0.00000000000E+00  0.22688947038E+03  0.22688947038E+03  0.00000000000E+00 0.  1.
          2   -1    0    0  501    0  0.00000000000E+00 -0.00000000000E+00 -0.44274275328E+04  0.44274275328E+04  0.00000000000E+00 0. -1.
         23    2    1    2    0    0 -0.60825361163E+03 -0.46937981680E+03 -0.11922676148E+04  0.14212538943E+04  0.90391915078E+02 0.  0.
        254    2    1    2    0    0  0.60825361163E+03  0.46937981680E+03 -0.30082704476E+04  0.32330631089E+04  0.90150768800E+03 0.  0.
        -24    2    4    4    0    0  0.74150274630E+03  0.42507046328E+03 -0.29305967426E+04  0.30537065951E+04  0.78838312941E+02 0.  0.
         24    2    4    4    0    0 -0.13324913467E+03  0.44309353513E+02 -0.77673704994E+02  0.17935651378E+03  0.80105579626E+02 0.  0.
         13    1    3    3    0    0 -0.89055886454E+02 -0.41742349084E+02 -0.19418430699E+03  0.21767158680E+03  0.00000000000E+00 0.  1.
        -13    1    3    3    0    0 -0.51919772517E+03 -0.42763746771E+03 -0.99808330784E+03  0.12035823075E+04  0.00000000000E+00 0. -1.
          2    1    6    6  502    0 -0.59229873835E+02  0.46459149238E+02 -0.73468484106E+02  0.10518673233E+03  0.00000000000E+00 0. -1.
          1    1    5    5  503    0  0.65975299596E+03  0.35173799341E+03 -0.25985152854E+04  0.27039370038E+04  0.00000000000E+00 0. -1.
         -2    1    5    5    0  503  0.81749750336E+02  0.73332469871E+02 -0.33208145717E+03  0.34976959132E+03  0.00000000000E+00 0.  1.
         -1    1    6    6    0  502 -0.74019260836E+02 -0.21497957251E+01 -0.42052208881E+01  0.74169781442E+02  0.00000000000E+00 0.  1.
<mgrwt>
<rscale>  0 0.20045316E+04</rscale>
<asrwt>0</asrwt>
<pdfrwt beam="1">  1        2 0.68114267E+00 0.20045316E+04</pdfrwt>
<pdfrwt beam="2">  1       -2 0.34906074E-01 0.20045316E+04</pdfrwt>
<totfact> 0.10502512E+00</totfact>
</mgrwt>
</event>
<event>
12    1  0.1097093E-007  0.1709276E+04  0.7818608E-02  0.8756092E-01
         -2   -1    0    0    0  501 -0.00000000000E+00  0.00000000000E+00  0.17792062711E+03  0.17792062711E+03  0.00000000000E+00 0.  1.
          2   -1    0    0  501    0  0.00000000000E+00 -0.00000000000E+00 -0.41052340902E+04  0.41052340902E+04  0.00000000000E+00 0. -1.
         23    2    1    2    0    0  0.20612179090E+03  0.27172430518E+03 -0.14626469434E+03  0.38187757222E+03  0.90093443982E+02 0.  0.
        254    2    1    2    0    0 -0.20612179090E+03 -0.27172430518E+03 -0.37810487688E+04  0.39012771451E+04  0.89850613819E+03 0.  0.
        -24    2    4    4    0    0 -0.37472143445E+03  0.19032739875E+03 -0.12326126430E+04  0.13046636475E+04  0.78566106899E+02 0.  0.
         24    2    4    4    0    0  0.16859964356E+03 -0.46205170393E+03 -0.25484361257E+04  0.25966134976E+04  0.77183885168E+02 0.  0.
         13    1    3    3    0    0  0.60038713870E+02  0.49177890226E+02 -0.71117517605E+02  0.10526544239E+03  0.00000000000E+00 0. -1.
        -13    1    3    3    0    0  0.14608307703E+03  0.22254641495E+03 -0.75147176736E+02  0.27661212984E+03  0.00000000000E+00 0.  1.
          4    1    6    6  502    0  0.98893121717E+02 -0.19750958829E+03 -0.98936149088E+03  0.10137189189E+04  0.00000000000E+00 0. -1.
          3    1    5    5  503    0 -0.13477731471E+03  0.90999179417E+02 -0.37881548611E+03  0.41224622222E+03  0.00000000000E+00 0. -1.
         -4    1    5    5    0  503 -0.23994411975E+03  0.99328219331E+02 -0.85379715693E+03  0.89241742527E+03  0.00000000000E+00 0.  1.
         -3    1    6    6    0  502  0.69706521840E+02 -0.26454211563E+03 -0.15590746349E+04  0.15828945787E+04  0.00000000000E+00 0.  1.
<mgrwt>
<rscale>  0 0.17092757E+04</rscale>
<asrwt>0</asrwt>
<pdfrwt beam="1">  1        2 0.63157448E+00 0.17092757E+04</pdfrwt>
<pdfrwt beam="2">  1       -2 0.27372404E-01 0.17092757E+04</pdfrwt>
<totfact> 0.32992255E+00</totfact>
</mgrwt>
</event>
<event>
12    1  0.1097093E-007  0.1654120E+04  0.7818608E-02  0.8787973E-01
         -1   -1    0    0    0  501 -0.00000000000E+00  0.00000000000E+00  0.37349588162E+03  0.37349588162E+03  0.00000000000E+00 0.  1.
          1   -1    0    0  501    0  0.00000000000E+00 -0.00000000000E+00 -0.18314206397E+04  0.18314206397E+04  0.00000000000E+00 0. -1.
         23    2    1    2    0    0  0.21623963800E+02 -0.58387456004E+03 -0.58630062474E+03  0.83341186385E+03  0.97210156731E+02 0.  0.
        254    2    1    2    0    0 -0.21623963800E+02  0.58387456004E+03 -0.87162413329E+03  0.13715046574E+04  0.88313039690E+03 0.  0.
        -24    2    4    4    0    0 -0.13414802924E+03  0.37789495430E+03 -0.10082145544E+04  0.10879258153E+04  0.79282416586E+02 0.  0.
         24    2    4    4    0    0  0.11252406544E+03  0.20597960574E+03  0.13659042112E+03  0.28357884215E+03  0.81674679617E+02 0.  0.
         13    1    3    3    0    0  0.34536296121E+02 -0.51843820753E+03 -0.55321555676E+03  0.75895874922E+03  0.00000000000E+00 0.  1.
        -13    1    3    3    0    0 -0.12912332321E+02 -0.65436352504E+02 -0.33085067980E+02  0.74453114631E+02  0.00000000000E+00 0. -1.
          4    1    6    6  502    0  0.44049375446E+02  0.15710396926E+03  0.76579076645E+02  0.18023972818E+03  0.00000000000E+00 0. -1.
          3    1    5    5  503    0 -0.53017291010E+01  0.11769685915E+03 -0.31819008216E+03  0.33930161711E+03  0.00000000000E+00 0. -1.
         -4    1    5    5    0  503 -0.12884630014E+03  0.26019809515E+03 -0.69002447225E+03  0.74862419817E+03  0.00000000000E+00 0.  1.
         -3    1    6    6    0  502  0.68474689991E+02  0.48875636480E+02  0.60011344472E+02  0.10333911397E+03  0.00000000000E+00 0.  1.
<mgrwt>
<rscale>  0 0.16541198E+04</rscale>
<asrwt>0</asrwt>
<pdfrwt beam="1">  1        1 0.28175702E+00 0.16541198E+04</pdfrwt>
<pdfrwt beam="2">  1       -1 0.57460905E-01 0.16541198E+04</pdfrwt>
<totfact> 0.11365679E+01</totfact>
</mgrwt>
</event>
<event>
12    1  0.1097093E-007  0.1237469E+04  0.7818608E-02  0.9080677E-01
         -1   -1    0    0    0  501 -0.00000000000E+00  0.00000000000E+00  0.20139492709E+03  0.20139492709E+03  0.00000000000E+00 0.  1.
          1   -1    0    0  501    0  0.00000000000E+00 -0.00000000000E+00 -0.19009050148E+04  0.19009050148E+04  0.00000000000E+00 0. -1.
         23    2    1    2    0    0 -0.23113638734E+03  0.88906055391E+02 -0.21380197682E+03  0.34761246383E+03  0.11745136644E+03 0.  0.
        254    2    1    2    0    0  0.23113638734E+03 -0.88906055391E+02 -0.14857081109E+04  0.17546874781E+04  0.90015067555E+03 0.  0.
        -24    2    4    4    0    0  0.27560169678E+03 -0.36393018175E+03 -0.13625813202E+04  0.14392485552E+04  0.80044220141E+02 0.  0.
         24    2    4    4    0    0 -0.44465309444E+02  0.27502412636E+03 -0.12312679069E+03  0.31543892282E+03  0.82012643029E+02 0.  0.
         13    1    3    3    0    0 -0.26278108603E+02 -0.29788331791E+01 -0.84452622433E+02  0.88496654596E+02  0.00000000000E+00 0. -1.
        -13    1    3    3    0    0 -0.20485827874E+03  0.91884888570E+02 -0.12934935439E+03  0.25911580924E+03  0.00000000000E+00 0.  1.
          4    1    6    6  502    0 -0.52632390401E+02  0.27614571051E+03 -0.11459887149E+03  0.30357787024E+03  0.00000000000E+00 0. -1.
          1    1    5    5  503    0  0.14427690010E+03 -0.23623570932E+03 -0.73152654858E+03  0.78214718918E+03  0.00000000000E+00 0. -1.
         -2    1    5    5    0  503  0.13132479668E+03 -0.12769447243E+03 -0.63105477161E+03  0.65710136607E+03  0.00000000000E+00 0.  1.
         -3    1    6    6    0  502  0.81670809563E+01 -0.11215841467E+01 -0.85279192032E+01  0.11861052579E+02  0.00000000000E+00 0.  1.
<mgrwt>
<rscale>  0 0.12374694E+04</rscale>
<asrwt>0</asrwt>
<pdfrwt beam="1">  1        1 0.29244692E+00 0.12374694E+04</pdfrwt>
<pdfrwt beam="2">  1       -1 0.30983836E-01 0.12374694E+04</pdfrwt>
<totfact> 0.33141387E+01</totfact>
</mgrwt>
</event>
<event>
12    1  0.1097093E-007  0.1041920E+04  0.7818608E-02  0.9263726E-01
         -2   -1    0    0    0  501 -0.00000000000E+00  0.00000000000E+00  0.14616062750E+03  0.14616062750E+03  0.00000000000E+00 0.  1.
          2   -1    0    0  501    0  0.00000000000E+00 -0.00000000000E+00 -0.18568554668E+04  0.18568554668E+04  0.00000000000E+00 0. -1.
         23    2    1    2    0    0 -0.34246324303E+02 -0.57430926490E+02 -0.14747953416E+03  0.18653680780E+03  0.92599382415E+02 0.  0.
        254    2    1    2    0    0  0.34246324303E+02  0.57430926490E+02 -0.15632153052E+04  0.18164792865E+04  0.92275879080E+03 0.  0.
        -24    2    4    4    0    0  0.22335893412E+03  0.30508651908E+03 -0.14089010131E+04  0.14608556475E+04  0.78295341717E+02 0.  0.
         24    2    4    4    0    0 -0.18911260982E+03 -0.24765559259E+03 -0.15431429206E+03  0.35562363902E+03  0.74554679015E+02 0.  0.
         13    1    3    3    0    0 -0.38799511737E+02 -0.70152530374E+02 -0.15236556096E+03  0.17216864928E+03  0.00000000000E+00 0. -1.
        -13    1    3    3    0    0  0.45531874340E+01  0.12721603884E+02  0.48860268069E+01  0.14368158516E+02  0.00000000000E+00 0.  1.
          2    1    6    6  502    0 -0.19174889842E+03 -0.24655267726E+03 -0.14221655682E+03  0.34319296575E+03  0.00000000000E+00 0. -1.
          3    1    5    5  503    0  0.22461630971E+03  0.30456576441E+03 -0.13527167362E+04  0.14046548899E+04  0.00000000000E+00 0. -1.
         -4    1    5    5    0  503 -0.12573755946E+01  0.52075466299E+00 -0.56184276927E+02  0.56200757580E+02  0.00000000000E+00 0.  1.
         -3    1    6    6    0  502  0.26362886042E+01 -0.11029153276E+01 -0.12097735242E+02  0.12430673265E+02  0.00000000000E+00 0.  1.
<mgrwt>
<rscale>  0 0.10419197E+04</rscale>
<asrwt>0</asrwt>
<pdfrwt beam="1">  1        2 0.28567008E+00 0.10419197E+04</pdfrwt>
<pdfrwt beam="2">  1       -2 0.22486250E-01 0.10419197E+04</pdfrwt>
<totfact> 0.13899397E+02</totfact>
</mgrwt>
</event>
<event>
12    1  0.1097093E-007  0.1384447E+04  0.7818608E-02  0.8965154E-01
         -2   -1    0    0    0  501 -0.00000000000E+00  0.00000000000E+00  0.39510415830E+03  0.39510415830E+03  0.00000000000E+00 0.  1.
          2   -1    0    0  501    0  0.00000000000E+00 -0.00000000000E+00 -0.12127775279E+04  0.12127775279E+04  0.00000000000E+00 0. -1.
         23    2    1    2    0    0  0.30552758000E+03 -0.19287423482E+03 -0.24618280958E+03  0.44658446936E+03  0.91017250764E+02 0.  0.
        254    2    1    2    0    0 -0.30552758000E+03  0.19287423482E+03 -0.57149055999E+03  0.11612972168E+04  0.94417275592E+03 0.  0.
        -24    2    4    4    0    0 -0.24215160378E+03 -0.92761278383E+02  0.19662045355E+03  0.33555859291E+03  0.81840775519E+02 0.  0.
         24    2    4    4    0    0 -0.63375976218E+02  0.28563551321E+03 -0.76811101354E+03  0.82573862391E+03  0.79029014456E+02 0.  0.
         11    1    3    3    0    0  0.22459803714E+02 -0.22502556857E+02  0.41627125045E+01  0.32064560240E+02  0.00000000000E+00 0. -1.
        -11    1    3    3    0    0  0.28306777629E+03 -0.17037167797E+03 -0.25034552209E+03  0.41451990912E+03  0.00000000000E+00 0.  1.
          4    1    6    6  502    0 -0.52694069608E+02  0.28654297693E+03 -0.72585338432E+03  0.78214236436E+03  0.00000000000E+00 0. -1.
          3    1    5    5  503    0 -0.17831331840E+03 -0.32469658135E+02  0.15454634601E+03  0.23819003187E+03  0.00000000000E+00 0. -1.
         -4    1    5    5    0  503 -0.63838285383E+02 -0.60291620248E+02  0.42074107543E+02  0.97368561036E+02  0.00000000000E+00 0.  1.
         -3    1    6    6    0  502 -0.10681906610E+02 -0.90746372263E+00 -0.42257629214E+02  0.43596259541E+02  0.00000000000E+00 0.  1.
<mgrwt>
<rscale>  0 0.13844471E+04</rscale>
<asrwt>0</asrwt>
<pdfrwt beam="1">  1        2 0.18658116E+00 0.13844471E+04</pdfrwt>
<pdfrwt beam="2">  1       -2 0.60785254E-01 0.13844471E+04</pdfrwt>
<totfact> 0.45689168E+01</totfact>
</mgrwt>
</event>
<event>
12    1  0.1097093E-007  0.2286417E+04  0.7818608E-02  0.8483296E-01
          2   -1    0    0  501    0  0.00000000000E+00  0.00000000000E+00  0.12610178505E+04  0.12610178505E+04  0.00000000000E+00 0.  1.
         -2   -1    0    0    0  501 -0.00000000000E+00 -0.00000000000E+00 -0.10364054936E+04  0.10364054936E+04  0.00000000000E+00 0. -1.
         23    2    1    2    0    0  0.92354197371E+03  0.29683275789E+03  0.78109165803E+02  0.97789920800E+03  0.95636582288E+02 0.  0.
        254    2    1    2    0    0 -0.92354197371E+03 -0.29683275789E+03  0.14650319106E+03  0.13195241361E+04  0.88240653745E+03 0.  0.
        -24    2    4    4    0    0 -0.87114107821E+03 -0.53939793700E+03  0.21386443508E+03  0.10497339093E+04  0.79789543033E+02 0.  0.
         24    2    4    4    0    0 -0.52400895500E+02  0.24256517912E+03 -0.67361244020E+02  0.26979022677E+03  0.81642570346E+02 0.  0.
         11    1    3    3    0    0  0.79093479811E+01 -0.94142614110E+00  0.98208796903E+01  0.12644909907E+02  0.00000000000E+00 0. -1.
        -11    1    3    3    0    0  0.91563262573E+03  0.29777418403E+03  0.68288286113E+02  0.96525429809E+03  0.00000000000E+00 0.  1.
          4    1    6    6  502    0 -0.12930931212E+02  0.19414712394E+03 -0.29653017414E+02  0.19682382010E+03  0.00000000000E+00 0. -1.
          3    1    5    5  503    0 -0.66655492471E+03 -0.41385120192E+03  0.12887527908E+03  0.79509566880E+03  0.00000000000E+00 0. -1.
         -4    1    5    5    0  503 -0.20458615350E+03 -0.12554673508E+03  0.84989155992E+02  0.25463824051E+03  0.00000000000E+00 0.  1.
         -3    1    6    6    0  502 -0.39469964288E+02  0.48418055175E+02 -0.37708226606E+02  0.72966406665E+02  0.00000000000E+00 0.  1.
<mgrwt>
<rscale>  0 0.22864171E+04</rscale>
<asrwt>0</asrwt>
<pdfrwt beam="1">  1        2 0.19400275E+00 0.22864171E+04</pdfrwt>
<pdfrwt beam="2">  1       -2 0.15944700E+00 0.22864171E+04</pdfrwt>
<totfact> 0.40218453E+00</totfact>
</mgrwt>
</event>
<event>
12    1  0.1097093E-007  0.1798822E+04  0.7818608E-02  0.8706926E-01
          2   -1    0    0  501    0  0.00000000000E+00  0.00000000000E+00  0.14526256565E+04  0.14526256565E+04  0.00000000000E+00 0. -1.
         -2   -1    0    0    0  501 -0.00000000000E+00 -0.00000000000E+00 -0.55688137136E+03  0.55688137136E+03  0.00000000000E+00 0.  1.
         23    2    1    2    0    0  0.22581571246E+02 -0.27804958666E+03  0.10137666643E+04  0.10559759404E+04  0.97677207589E+02 0.  0.
        254    2    1    2    0    0 -0.22581571246E+02  0.27804958666E+03 -0.11802237922E+03  0.95353108748E+03  0.90414089212E+03 0.  0.
        -24    2    4    4    0    0 -0.37589638114E+03 -0.15693742506E+02  0.15323287850E+03  0.41344485255E+03  0.76889193900E+02 0.  0.
         24    2    4    4    0    0  0.35331480989E+03  0.29374332917E+03 -0.27125525772E+03  0.54008623493E+03  0.83649435171E+02 0.  0.
         11    1    3    3    0    0  0.41359185324E+01 -0.26178827577E+03  0.82330982333E+03  0.86393823410E+03  0.00000000000E+00 0. -1.
        -11    1    3    3    0    0  0.18445652714E+02 -0.16261310895E+02  0.19045684102E+03  0.19203770626E+03  0.00000000000E+00 0.  1.
          2    1    6    6  502    0  0.31382260607E+03  0.22081845874E+03 -0.21470061188E+03  0.43970646179E+03  0.00000000000E+00 0. -1.
          1    1    5    5  503    0 -0.16183379353E+03  0.41168407847E+01  0.26931117771E+02  0.16411096920E+03  0.00000000000E+00 0. -1.
         -2    1    5    5    0  503 -0.21406258761E+03 -0.19810583291E+02  0.12630176073E+03  0.24933388335E+03  0.00000000000E+00 0.  1.
         -1    1    6    6    0  502  0.39492203822E+02  0.72924870430E+02 -0.56554645837E+02  0.10037977314E+03  0.00000000000E+00 0.  1.
<mgrwt>
<rscale>  0 0.17988220E+04</rscale>
<asrwt>0</asrwt>
<pdfrwt beam="1">  1        2 0.22348087E+00 0.17988220E+04</pdfrwt>
<pdfrwt beam="2">  1       -2 0.85674058E-01 0.17988220E+04</pdfrwt>
<totfact> 0.15088255E+01</totfact>
</mgrwt>
</event>
<event>
12    1  0.1097093E-007  0.1847674E+04  0.7818608E-02  0.8681350E-01
         -2   -1    0    0    0  501 -0.00000000000E+00  0.00000000000E+00  0.42620842345E+03  0.42620842345E+03  0.00000000000E+00 0.  1.
          2   -1    0    0  501    0  0.00000000000E+00 -0.00000000000E+00 -0.20024819748E+04  0.20024819748E+04  0.00000000000E+00 0. -1.
         23    2    1    2    0    0  0.55619618795E+03  0.11176744882E+02 -0.11925818065E+04  0.13198368310E+04  0.10118683803E+03 0.  0.
        254    2    1    2    0    0 -0.55619618795E+03 -0.11176744882E+02 -0.38369174486E+03  0.11088535672E+04  0.87912329022E+03 0.  0.
        -24    2    4    4    0    0 -0.67785476401E+02 -0.23852468958E+03 -0.48936607433E+03  0.55407403764E+03  0.77652985335E+02 0.  0.
         24    2    4    4    0    0 -0.48841071155E+03  0.22734794469E+03  0.10567432948E+03  0.55477952960E+03  0.79882109656E+02 0.  0.
         11    1    3    3    0    0  0.61064009808E+02 -0.19938030232E+02 -0.20198100125E+03  0.21194967141E+03  0.00000000000E+00 0.  1.
        -11    1    3    3    0    0  0.49513217814E+03  0.31114775115E+02 -0.99060080525E+03  0.11078871596E+04  0.00000000000E+00 0. -1.
          4    1    6    6  502    0 -0.43483460881E+03  0.22753020320E+03  0.10053201265E+03  0.50095690030E+03  0.00000000000E+00 0. -1.
          1    1    5    5  503    0 -0.52352774047E+02 -0.17752093624E+03 -0.28150440942E+03  0.33689646521E+03  0.00000000000E+00 0. -1.
         -2    1    5    5    0  503 -0.15432702354E+02 -0.61003753341E+02 -0.20786166492E+03  0.21717757243E+03  0.00000000000E+00 0.  1.
         -3    1    6    6    0  502 -0.53576102740E+02 -0.18225850979E+00  0.51423168269E+01  0.53822629305E+02  0.00000000000E+00 0.  1.
<mgrwt>
<rscale>  0 0.18476739E+04</rscale>
<asrwt>0</asrwt>
<pdfrwt beam="1">  1        2 0.30807414E+00 0.18476739E+04</pdfrwt>
<pdfrwt beam="2">  1       -2 0.65570528E-01 0.18476739E+04</pdfrwt>
<totfact> 0.13418761E+01</totfact>
</mgrwt>
</event>
<event>
12    1  0.1097093E-007  0.1751839E+04  0.7818608E-02  0.8732339E-01
          1   -1    0    0  501    0  0.00000000000E+00  0.00000000000E+00  0.58728204093E+03  0.58728204093E+03  0.00000000000E+00 0.  1.
         -1   -1    0    0    0  501 -0.00000000000E+00 -0.00000000000E+00 -0.13064158581E+04  0.13064158581E+04  0.00000000000E+00 0. -1.
         23    2    1    2    0    0 -0.13964228194E+03 -0.40854763537E+03  0.24966624140E+03  0.50616041925E+03  0.86336554557E+02 0.  0.
        254    2    1    2    0    0  0.13964228194E+03  0.40854763537E+03 -0.96880005853E+03  0.13875374798E+04  0.89458122439E+03 0.  0.
        -24    2    4    4    0    0  0.20125077817E+02 -0.27332658595E+03 -0.18760479608E+03  0.34092878727E+03  0.76970365296E+02 0.  0.
         24    2    4    4    0    0  0.11951720413E+03  0.68187422132E+03 -0.78119526246E+03  0.10466086925E+04  0.76726144927E+02 0.  0.
         11    1    3    3    0    0 -0.13057449404E+03 -0.38419128756E+03  0.20532712396E+03  0.45476573284E+03  0.00000000000E+00 0.  1.
        -11    1    3    3    0    0 -0.90677878981E+01 -0.24356347807E+02  0.44339117445E+02  0.51394686414E+02  0.00000000000E+00 0. -1.
          2    1    6    6  502    0  0.10867510429E+03  0.62920159180E+03 -0.68530667746E+03  0.93666971959E+03  0.00000000000E+00 0. -1.
          1    1    5    5  503    0  0.38210690088E+02 -0.25163099810E+03 -0.15590243207E+03  0.29846906769E+03  0.00000000000E+00 0. -1.
         -2    1    5    5    0  503 -0.18085612271E+02 -0.21695587854E+02 -0.31702364005E+02  0.42459719583E+02  0.00000000000E+00 0.  1.
         -1    1    6    6    0  502  0.10842099831E+02  0.52672629517E+02 -0.95888584993E+02  0.10993897289E+03  0.00000000000E+00 0.  1.
<mgrwt>
<rscale>  0 0.17518385E+04</rscale>
<asrwt>0</asrwt>
<pdfrwt beam="1">  1        1 0.90351084E-01 0.17518385E+04</pdfrwt>
<pdfrwt beam="2">  1       -1 0.20098705E+00 0.17518385E+04</pdfrwt>
<totfact> 0.49579661E+00</totfact>
</mgrwt>
</event>
<event>
12    1  0.1097093E-007  0.2243607E+04  0.7818608E-02  0.8500494E-01
         -2   -1    0    0    0  501 -0.00000000000E+00  0.00000000000E+00  0.98662858404E+03  0.98662858404E+03  0.00000000000E+00 0.  1.
          2   -1    0    0  501    0  0.00000000000E+00 -0.00000000000E+00 -0.12754977943E+04  0.12754977943E+04  0.00000000000E+00 0. -1.
         23    2    1    2    0    0 -0.79047169025E+03 -0.47826285612E+03  0.58234273050E+02  0.93006542274E+03  0.89719604304E+02 0.  0.
        254    2    1    2    0    0  0.79047169025E+03  0.47826285612E+03 -0.34710348329E+03  0.13320609556E+04  0.89460869023E+03 0.  0.
        -24    2    4    4    0    0 -0.18428538941E+03  0.16030211870E+03 -0.86406025471E+02  0.27125949915E+03  0.80360690824E+02 0.  0.
         24    2    4    4    0    0  0.97475707965E+03  0.31796073742E+03 -0.26069745782E+03  0.10608014564E+04  0.78013912731E+02 0.  0.
         11    1    3    3    0    0 -0.54021262223E+03 -0.37065070596E+03  0.57363031281E+02  0.65764894921E+03  0.00000000000E+00 0. -1.
        -11    1    3    3    0    0 -0.25025906802E+03 -0.10761215016E+03  0.87124176945E+00  0.27241647353E+03  0.00000000000E+00 0.  1.
          4    1    6    6  502    0  0.57923012598E+03  0.20862722559E+03 -0.12193671585E+03  0.62761566326E+03  0.00000000000E+00 0. -1.
          1    1    5    5  503    0 -0.17066460675E+03  0.14267626815E+03 -0.10133745320E+03  0.24444264135E+03  0.00000000000E+00 0. -1.
         -2    1    5    5    0  503 -0.13620782657E+02  0.17625850554E+02  0.14931427729E+02  0.26816857794E+02  0.00000000000E+00 0.  1.
         -3    1    6    6    0  502  0.39552695368E+03  0.10933351182E+03 -0.13876074197E+03  0.43318579317E+03  0.00000000000E+00 0.  1.
<mgrwt>
<rscale>  0 0.22436065E+04</rscale>
<asrwt>0</asrwt>
<pdfrwt beam="1">  1        2 0.19623043E+00 0.22436065E+04</pdfrwt>
<pdfrwt beam="2">  1       -2 0.15178901E+00 0.22436065E+04</pdfrwt>
<totfact> 0.45186012E+00</totfact>
</mgrwt>
</event>
<event>
12    1  0.1097093E-007  0.1508557E+04  0.7818608E-02  0.8878783E-01
         -1   -1    0    0    0  501 -0.00000000000E+00  0.00000000000E+00  0.41670065189E+03  0.41670065189E+03  0.00000000000E+00 0.  1.
          1   -1    0    0  501    0  0.00000000000E+00 -0.00000000000E+00 -0.13653345185E+04  0.13653345185E+04  0.00000000000E+00 0. -1.
         23    2    1    2    0    0 -0.76281915680E+02  0.31900739478E+03 -0.69936144807E+03  0.77785705063E+03  0.91490478117E+02 0.  0.
        254    2    1    2    0    0  0.76281915680E+02 -0.31900739478E+03 -0.24927241858E+03  0.10041781198E+04  0.91577961816E+03 0.  0.
        -24    2    4    4    0    0  0.40627570543E+03 -0.19375780766E+03  0.13571626897E+03  0.47605922552E+03  0.74909570087E+02 0.  0.
         24    2    4    4    0    0 -0.32999378975E+03 -0.12524958713E+03 -0.38498868755E+03  0.52811889428E+03  0.78165955527E+02 0.  0.
         13    1    3    3    0    0 -0.74843892408E+02  0.30418960625E+03 -0.69501074884E+03  0.76234694581E+03  0.00000000000E+00 0. -1.
        -13    1    3    3    0    0 -0.14380232727E+01  0.14817788527E+02 -0.43506992298E+01  0.15510104821E+02  0.00000000000E+00 0.  1.
          2    1    6    6  502    0 -0.27655869816E+03 -0.10909723073E+03 -0.36018528504E+03  0.46703357357E+03  0.00000000000E+00 0. -1.
          1    1    5    5  503    0  0.33144100674E+03 -0.17318042064E+03  0.13747548587E+03  0.39842704258E+03  0.00000000000E+00 0. -1.
         -2    1    5    5    0  503  0.74834698688E+02 -0.20577387017E+02 -0.17592169028E+01  0.77632182942E+02  0.00000000000E+00 0.  1.
         -1    1    6    6    0  502 -0.53435091584E+02 -0.16152356392E+02 -0.24803402511E+02  0.61085320706E+02  0.00000000000E+00 0.  1.
<mgrwt>
<rscale>  0 0.15085566E+04</rscale>
<asrwt>0</asrwt>
<pdfrwt beam="1">  1        1 0.21005147E+00 0.15085566E+04</pdfrwt>
<pdfrwt beam="2">  1       -1 0.64107792E-01 0.15085566E+04</pdfrwt>
<totfact> 0.19386154E+01</totfact>
</mgrwt>
</event>
<event>
12    1  0.1097093E-007  0.1408509E+04  0.7818608E-02  0.8947682E-01
          2   -1    0    0  501    0  0.00000000000E+00  0.00000000000E+00  0.29908421091E+03  0.29908421091E+03  0.00000000000E+00 0. -1.
         -2   -1    0    0    0  501 -0.00000000000E+00 -0.00000000000E+00 -0.16583112435E+04  0.16583112435E+04  0.00000000000E+00 0.  1.
         23    2    1    2    0    0  0.13478015174E+03 -0.36914450843E+02  0.12283228606E+03  0.20707923668E+03  0.90915751007E+02 0.  0.
        254    2    1    2    0    0 -0.13478015174E+03  0.36914450843E+02 -0.14820593186E+04  0.17503162177E+04  0.92064035975E+03 0.  0.
        -24    2    4    4    0    0  0.25352513656E+03  0.28696018601E+03 -0.35114194845E+03  0.52607275328E+03  0.82648233834E+02 0.  0.
         24    2    4    4    0    0 -0.38830528830E+03 -0.25004573517E+03 -0.11309173702E+04  0.12242434644E+04  0.80585950438E+02 0.  0.
         11    1    3    3    0    0  0.94739720512E+02 -0.33385222893E+02  0.13197773712E+03  0.16585629576E+03  0.00000000000E+00 0. -1.
        -11    1    3    3    0    0  0.40040431231E+02 -0.35292279501E+01 -0.91454510531E+01  0.41222940920E+02  0.00000000000E+00 0.  1.
          2    1    6    6  502    0 -0.36911812000E+03 -0.22624764684E+03 -0.10924413951E+04  0.11751018619E+04  0.00000000000E+00 0. -1.
          3    1    5    5  503    0  0.23869510675E+03  0.22624504915E+03 -0.30299489570E+03  0.44717790987E+03  0.00000000000E+00 0. -1.
         -4    1    5    5    0  503  0.14830029805E+02  0.60715136861E+02 -0.48147052752E+02  0.78894843411E+02  0.00000000000E+00 0.  1.
         -1    1    6    6    0  502 -0.19187168297E+02 -0.23798088332E+02 -0.38475975054E+02  0.49141602455E+02  0.00000000000E+00 0.  1.
<mgrwt>
<rscale>  0 0.14085094E+04</rscale>
<asrwt>0</asrwt>
<pdfrwt beam="1">  1        2 0.46012955E-01 0.14085094E+04</pdfrwt>
<pdfrwt beam="2">  1       -2 0.25512481E+00 0.14085094E+04</pdfrwt>
<totfact> 0.64134548E+00</totfact>
</mgrwt>
</event>
<event>
12    1  0.1097093E-007  0.1932997E+04  0.7818608E-02  0.8638604E-01
          2   -1    0    0  501    0  0.00000000000E+00  0.00000000000E+00  0.19343120987E+04  0.19343120987E+04  0.00000000000E+00 0. -1.
         -2   -1    0    0    0  501 -0.00000000000E+00 -0.00000000000E+00 -0.48292065861E+03  0.48292065861E+03  0.00000000000E+00 0.  1.
         23    2    1    2    0    0  0.53913955643E+03  0.15198215354E+03  0.12073007525E+04  0.13339934095E+04  0.90516701972E+02 0.  0.
        254    2    1    2    0    0 -0.53913955643E+03 -0.15198215354E+03  0.24409068756E+03  0.10832393478E+04  0.89445915752E+03 0.  0.
        -24    2    4    4    0    0  0.16811380841E+03  0.88924308744E+02 -0.12956571269E+03  0.24394991443E+03  0.80959876370E+02 0.  0.
         24    2    4    4    0    0 -0.70725336484E+03 -0.24090646228E+03  0.37365640025E+03  0.83928943333E+03  0.80897477133E+02 0.  0.
         13    1    3    3    0    0  0.18149692994E+03  0.79121682761E+02  0.34782833611E+03  0.40023234209E+03  0.00000000000E+00 0. -1.
        -13    1    3    3    0    0  0.35764262649E+03  0.72860470777E+02  0.85947241639E+03  0.93376106742E+03  0.00000000000E+00 0.  1.
          2    1    6    6  502    0 -0.45886544642E+03 -0.11538224841E+03  0.22971694620E+03  0.52596619335E+03  0.00000000000E+00 0. -1.
          3    1    5    5  503    0  0.26967766417E+02  0.12834556404E+02  0.98700212140E+01  0.31454786319E+02  0.00000000000E+00 0. -1.
         -4    1    5    5    0  503  0.14114604199E+03  0.76089752340E+02 -0.13943573390E+03  0.21249512811E+03  0.00000000000E+00 0.  1.
         -1    1    6    6    0  502 -0.24838791841E+03 -0.12552421387E+03  0.14393945405E+03  0.31332323998E+03  0.00000000000E+00 0.  1.
<mgrwt>
<rscale>  0 0.19329969E+04</rscale>
<asrwt>0</asrwt>
<pdfrwt beam="1">  1        2 0.29758647E+00 0.19329969E+04</pdfrwt>
<pdfrwt beam="2">  1       -2 0.74295487E-01 0.19329969E+04</pdfrwt>
<totfact> 0.11068099E+01</totfact>
</mgrwt>
</event>
<event>
12    1  0.1097093E-007  0.1077191E+04  0.7818608E-02  0.9227713E-01
         -2   -1    0    0    0  501 -0.00000000000E+00  0.00000000000E+00  0.14120264858E+03  0.14120264858E+03  0.00000000000E+00 0.  1.
          2   -1    0    0  501    0  0.00000000000E+00 -0.00000000000E+00 -0.20543872262E+04  0.20543872262E+04  0.00000000000E+00 0. -1.
         23    2    1    2    0    0  0.67152124329E+02  0.41154779310E+02 -0.37081395043E+03  0.38963274357E+03  0.90042019995E+02 0.  0.
        254    2    1    2    0    0 -0.67152124329E+02 -0.41154779310E+02 -0.15423706272E+04  0.18059571312E+04  0.93614682847E+03 0.  0.
        -24    2    4    4    0    0 -0.36413810771E+03 -0.83533826384E+02 -0.20464190407E+03  0.43288490824E+03  0.77049161213E+02 0.  0.
         24    2    4    4    0    0  0.29698598338E+03  0.42379047073E+02 -0.13377287231E+04  0.13730722229E+04  0.76239982145E+02 0.  0.
         13    1    3    3    0    0  0.26332020351E+02 -0.28048392410E+02 -0.14215052785E+03  0.14726459242E+03  0.00000000000E+00 0. -1.
        -13    1    3    3    0    0  0.40820103978E+02  0.69203171720E+02 -0.22866342258E+03  0.24236815115E+03  0.00000000000E+00 0.  1.
          4    1    6    6  502    0  0.16904012082E+03  0.53188441410E+02 -0.88053151627E+03  0.89818668655E+03  0.00000000000E+00 0. -1.
          3    1    5    5  503    0 -0.21141654932E+03 -0.79083579589E+02 -0.95368004868E+02  0.24504331503E+03  0.00000000000E+00 0. -1.
         -4    1    5    5    0  503 -0.15272155838E+03 -0.44502467941E+01 -0.10927389921E+03  0.18784159321E+03  0.00000000000E+00 0.  1.
         -3    1    6    6    0  502  0.12794586255E+03 -0.10809394337E+02 -0.45719720682E+03  0.47488553639E+03  0.00000000000E+00 0.  1.
<mgrwt>
<rscale>  0 0.10771906E+04</rscale>
<asrwt>0</asrwt>
<pdfrwt beam="1">  1        2 0.31605955E+00 0.10771906E+04</pdfrwt>
<pdfrwt beam="2">  1       -2 0.21723486E-01 0.10771906E+04</pdfrwt>
<totfact> 0.11474227E+02</totfact>
</mgrwt>
</event>
<event>
12    1  0.1097093E-007  0.1778133E+04  0.7818608E-02  0.8718015E-01
         -1   -1    0    0    0  501 -0.00000000000E+00  0.00000000000E+00  0.19713721703E+04  0.19713721703E+04  0.00000000000E+00 0.  1.
          1   -1    0    0  501    0  0.00000000000E+00 -0.00000000000E+00 -0.40095893000E+03  0.40095893000E+03  0.00000000000E+00 0. -1.
         23    2    1    2    0    0  0.45635448521E+03 -0.70067216119E+02 -0.36958448491E+02  0.47249095708E+03  0.93343166091E+02 0.  0.
        254    2    1    2    0    0 -0.45635448521E+03  0.70067216119E+02  0.16073716888E+04  0.18998401432E+04  0.90143218986E+03 0.  0.
        -24    2    4    4    0    0 -0.51239777204E+03  0.24494789491E+03  0.46015374986E+03  0.73526251862E+03  0.79489305978E+02 0.  0.
         24    2    4    4    0    0  0.56043286824E+02 -0.17488067879E+03  0.11472179390E+04  0.11645776246E+04  0.80049625236E+02 0.  0.
         11    1    3    3    0    0  0.45958901666E+02 -0.10595479998E+01 -0.32519411935E+02  0.56310349288E+02  0.00000000000E+00 0.  1.
        -11    1    3    3    0    0  0.41039558355E+03 -0.69007668119E+02 -0.44390365559E+01  0.41618060779E+03  0.00000000000E+00 0. -1.
          4    1    6    6  502    0  0.50619569717E+02 -0.16710964951E+03  0.11381355931E+04  0.11514515205E+04  0.00000000000E+00 0. -1.
          3    1    5    5  503    0 -0.50324221409E+03  0.23089560952E+03  0.43112339560E+03  0.70173562740E+03  0.00000000000E+00 0. -1.
         -4    1    5    5    0  503 -0.91555579514E+01  0.14052285389E+02  0.29030354259E+02  0.33526891214E+02  0.00000000000E+00 0.  1.
         -3    1    6    6    0  502  0.54237171061E+01 -0.77710292713E+01  0.90823458797E+01  0.13126104139E+02  0.00000000000E+00 0.  1.
<mgrwt>
<rscale>  0 0.17781330E+04</rscale>
<asrwt>0</asrwt>
<pdfrwt beam="1">  1        1 0.61685990E-01 0.17781330E+04</pdfrwt>
<pdfrwt beam="2">  1       -1 0.30328802E+00 0.17781330E+04</pdfrwt>
<totfact> 0.17800003E+00</totfact>
</mgrwt>
</event>
<event>
12    1  0.1097093E-007  0.4148393E+04  0.7818608E-02  0.7975262E-01
         -2   -1    0    0    0  501 -0.00000000000E+00  0.00000000000E+00  0.15821322002E+04  0.15821322002E+04  0.00000000000E+00 0.  1.
          2   -1    0    0  501    0  0.00000000000E+00 -0.00000000000E+00 -0.27192994054E+04  0.27192994054E+04  0.00000000000E+00 0. -1.
         23    2    1    2    0    0 -0.29220161181E+03 -0.81656425315E+03 -0.23922319115E+04  0.25463223473E+04  0.93941559588E+02 0.  0.
        254    2    1    2    0    0  0.29220161181E+03  0.81656425315E+03  0.12550647064E+04  0.17551092583E+04  0.86779152441E+03 0.  0.
        -24    2    4    4    0    0 -0.20472354715E+03  0.58197289263E+03  0.90682078785E+03  0.10997466291E+04  0.80712628527E+02 0.  0.
         24    2    4    4    0    0  0.49692515895E+03  0.23459136052E+03  0.34824391852E+03  0.65536262919E+03  0.79111496723E+02 0.  0.
         13    1    3    3    0    0 -0.12935722122E+03 -0.41548347257E+03 -0.13256264422E+04  0.13952223016E+04  0.00000000000E+00 0.  1.
        -13    1    3    3    0    0 -0.16284439058E+03 -0.40108078058E+03 -0.10666054694E+04  0.11511000458E+04  0.00000000000E+00 0. -1.
          2    1    6    6  502    0  0.99513635945E+02  0.48431241062E+02  0.10987325658E+03  0.15595089407E+03  0.00000000000E+00 0. -1.
          1    1    5    5  503    0 -0.11169729892E+03  0.26616384890E+03  0.35955769207E+03  0.46108699284E+03  0.00000000000E+00 0. -1.
         -2    1    5    5    0  503 -0.93026248228E+02  0.31580904373E+03  0.54726309578E+03  0.63865963624E+03  0.00000000000E+00 0.  1.
         -1    1    6    6    0  502  0.39741152301E+03  0.18616011946E+03  0.23837066194E+03  0.49941173512E+03  0.00000000000E+00 0.  1.
<mgrwt>
<rscale>  0 0.41483930E+04</rscale>
<asrwt>0</asrwt>
<pdfrwt beam="1">  1        2 0.41835375E+00 0.41483930E+04</pdfrwt>
<pdfrwt beam="2">  1       -2 0.24340496E+00 0.41483930E+04</pdfrwt>
<totfact> 0.14222748E-01</totfact>
</mgrwt>
</event>
<event>
12    1  0.1097093E-007  0.1355595E+04  0.7818608E-02  0.8986604E-01
          1   -1    0    0  501    0  0.00000000000E+00  0.00000000000E+00  0.18476344711E+04  0.18476344711E+04  0.00000000000E+00 0. -1.
         -1   -1    0    0    0  501 -0.00000000000E+00 -0.00000000000E+00 -0.24864731563E+03  0.24864731563E+03  0.00000000000E+00 0.  1.
         23    2    1    2    0    0  0.29970432226E+03 -0.13746735019E+03  0.70143665638E+03  0.78056397280E+03  0.92448794275E+02 0.  0.
        254    2    1    2    0    0 -0.29970432226E+03  0.13746735019E+03  0.89755049905E+03  0.13157178139E+04  0.90376795378E+03 0.  0.
        -24    2    4    4    0    0 -0.66514510161E+02 -0.17740162026E+03 -0.10927906260E+03  0.23237837441E+03  0.78500193857E+02 0.  0.
         24    2    4    4    0    0 -0.23318981210E+03  0.31486897045E+03  0.10068295617E+04  0.10833394395E+04  0.79991361409E+02 0.  0.
         13    1    3    3    0    0  0.93264707263E+02 -0.55913210638E+02  0.33433653160E+03  0.35157575159E+03  0.00000000000E+00 0.  1.
        -13    1    3    3    0    0  0.20643961500E+03 -0.81554139552E+02  0.36710012478E+03  0.42898822121E+03  0.00000000000E+00 0. -1.
          2    1    6    6  502    0 -0.23339076893E+03  0.31458832304E+03  0.10083601423E+04  0.10817704195E+04  0.00000000000E+00 0. -1.
          1    1    5    5  503    0 -0.97644325563E+01 -0.12696413275E+03 -0.83154238641E+02  0.15208505039E+03  0.00000000000E+00 0. -1.
         -2    1    5    5    0  503 -0.56750077605E+02 -0.50437487511E+02 -0.26124823957E+02  0.80293324015E+02  0.00000000000E+00 0.  1.
         -1    1    6    6    0  502  0.20095682629E+00  0.28064741934E+00 -0.15305806219E+01  0.15690199681E+01  0.00000000000E+00 0.  1.
<mgrwt>
<rscale>  0 0.13555949E+04</rscale>
<asrwt>0</asrwt>
<pdfrwt beam="1">  1        1 0.28425145E+00 0.13555949E+04</pdfrwt>
<pdfrwt beam="2">  1       -1 0.38253434E-01 0.13555949E+04</pdfrwt>
<totfact> 0.24461950E+01</totfact>
</mgrwt>
</event>
<event>
12    1  0.1097093E-007  0.1705242E+04  0.7818608E-02  0.8758380E-01
         -2   -1    0    0    0  501 -0.00000000000E+00  0.00000000000E+00  0.81964887027E+03  0.81964887027E+03  0.00000000000E+00 0.  1.
          2   -1    0    0  501    0  0.00000000000E+00 -0.00000000000E+00 -0.88691929226E+03  0.88691929226E+03  0.00000000000E+00 0. -1.
         23    2    1    2    0    0  0.18590513191E+03  0.27760656120E+03 -0.54493755933E+03  0.64578689664E+03  0.91965490323E+02 0.  0.
        254    2    1    2    0    0 -0.18590513191E+03 -0.27760656120E+03  0.47766713734E+03  0.10607812659E+04  0.88626456494E+03 0.  0.
        -24    2    4    4    0    0 -0.27208595284E+03 -0.56640795554E+03  0.35120123783E+03  0.72426504878E+03  0.79804846983E+02 0.  0.
         24    2    4    4    0    0  0.86180820931E+02  0.28880139434E+03  0.12646589951E+03  0.33651621711E+03  0.80100944871E+02 0.  0.
         11    1    3    3    0    0  0.77305507731E+02  0.15521611561E+03 -0.35501717290E+03  0.39510173010E+03  0.00000000000E+00 0. -1.
        -11    1    3    3    0    0  0.10859962418E+03  0.12239044558E+03 -0.18992038643E+03  0.25068516654E+03  0.00000000000E+00 0.  1.
          4    1    6    6  502    0  0.34642684144E+02  0.64826265431E+02 -0.13950376975E+01  0.73515347953E+02  0.00000000000E+00 0. -1.
          1    1    5    5  503    0 -0.27064552567E+02 -0.10350262974E+03  0.35480998003E+02  0.11271284571E+03  0.00000000000E+00 0. -1.
         -2    1    5    5    0  503 -0.24502140027E+03 -0.46290532580E+03  0.31572023983E+03  0.61155220307E+03  0.00000000000E+00 0.  1.
         -1    1    6    6    0  502  0.51538136787E+02  0.22397512891E+03  0.12786093721E+03  0.26300086915E+03  0.00000000000E+00 0.  1.
<mgrwt>
<rscale>  0 0.17052418E+04</rscale>
<asrwt>0</asrwt>
<pdfrwt beam="1">  1        2 0.13644912E+00 0.17052418E+04</pdfrwt>
<pdfrwt beam="2">  1       -2 0.12609983E+00 0.17052418E+04</pdfrwt>
<totfact> 0.13351117E+01</totfact>
</mgrwt>
</event>
<event>
12    1  0.1097093E-007  0.3003473E+04  0.7818608E-02  0.8242740E-01
          1   -1    0    0  501    0  0.00000000000E+00  0.00000000000E+00  0.99621698275E+03  0.99621698275E+03  0.00000000000E+00 0. -1.
         -1   -1    0    0    0  501 -0.00000000000E+00 -0.00000000000E+00 -0.22637765639E+04  0.22637765639E+04  0.00000000000E+00 0.  1.
         23    2    1    2    0    0  0.11351564159E+03  0.80975209164E+03 -0.17637209358E+04  0.19462508106E+04  0.92716922277E+02 0.  0.
        254    2    1    2    0    0 -0.11351564159E+03 -0.80975209164E+03  0.49616135466E+03  0.13137427360E+04  0.90064401170E+03 0.  0.
        -24    2    4    4    0    0 -0.18893989422E+03 -0.67912108946E+03  0.73420063392E+03  0.10209098993E+04  0.79389632731E+02 0.  0.
         24    2    4    4    0    0  0.75424252625E+02 -0.13063100218E+03 -0.23803927927E+03  0.29283283676E+03  0.79593311271E+02 0.  0.
         13    1    3    3    0    0  0.91906814670E+01  0.95973240403E+02 -0.28693534541E+03  0.30269989089E+03  0.00000000000E+00 0. -1.
        -13    1    3    3    0    0  0.10432496012E+03  0.71377885123E+03 -0.14767855904E+04  0.16435509197E+04  0.00000000000E+00 0.  1.
          4    1    6    6  502    0  0.42509376561E+02 -0.12724705940E+03 -0.21128988224E+03  0.25028438936E+03  0.00000000000E+00 0. -1.
          3    1    5    5  503    0 -0.72868612199E+02 -0.19813087071E+03  0.17480406124E+03  0.27408417757E+03  0.00000000000E+00 0. -1.
         -4    1    5    5    0  503 -0.11607128202E+03 -0.48099021875E+03  0.55939657269E+03  0.74682572169E+03  0.00000000000E+00 0.  1.
         -3    1    6    6    0  502  0.32914876064E+02 -0.33839427829E+01 -0.26749397023E+02  0.42548447400E+02  0.00000000000E+00 0.  1.
<mgrwt>
<rscale>  0 0.30034731E+04</rscale>
<asrwt>0</asrwt>
<pdfrwt beam="1">  1        1 0.15326415E+00 0.30034731E+04</pdfrwt>
<pdfrwt beam="2">  1       -1 0.34827332E+00 0.30034731E+04</pdfrwt>
<totfact> 0.20671584E-01</totfact>
</mgrwt>
</event>
<event>
12    1  0.1097093E-007  0.2331963E+04  0.7818608E-02  0.8465424E-01
          3   -1    0    0  501    0  0.00000000000E+00  0.00000000000E+00  0.15360331847E+04  0.15360331847E+04  0.00000000000E+00 0. -1.
         -3   -1    0    0    0  501 -0.00000000000E+00 -0.00000000000E+00 -0.88508072143E+03  0.88508072143E+03  0.00000000000E+00 0.  1.
         23    2    1    2    0    0 -0.50640923692E+03 -0.17973827003E+03  0.11433813555E+04  0.12666553012E+04  0.91315754369E+02 0.  0.
        254    2    1    2    0    0  0.50640923692E+03  0.17973827003E+03 -0.49242889221E+03  0.11544586050E+04  0.89528336057E+03 0.  0.
        -24    2    4    4    0    0  0.60933871722E+03  0.29952369333E+03 -0.62953563303E+03  0.92931846808E+03  0.79432906763E+02 0.  0.
         24    2    4    4    0    0 -0.10292948030E+03 -0.11978542330E+03  0.13710674082E+03  0.22514013688E+03  0.83347449290E+02 0.  0.
         13    1    3    3    0    0 -0.43437139259E+03 -0.18342025444E+03  0.10206010248E+04  0.11242543966E+04  0.00000000000E+00 0. -1.
        -13    1    3    3    0    0 -0.72037844328E+02  0.36819844102E+01  0.12278033069E+03  0.14240090459E+03  0.00000000000E+00 0.  1.
          2    1    6    6  502    0 -0.18517936805E+02  0.38583064651E+00  0.52466015109E+02  0.55639424783E+02  0.00000000000E+00 0. -1.
          3    1    5    5  503    0  0.21534428108E+03  0.89013521639E+02 -0.26391772687E+03  0.35206410351E+03  0.00000000000E+00 0. -1.
         -4    1    5    5    0  503  0.39399443614E+03  0.21051017169E+03 -0.36561790617E+03  0.57725436456E+03  0.00000000000E+00 0.  1.
         -1    1    6    6    0  502 -0.84411543496E+02 -0.12017125395E+03  0.84640725716E+02  0.16950071209E+03  0.00000000000E+00 0.  1.
<mgrwt>
<rscale>  0 0.23319634E+04</rscale>
<asrwt>0</asrwt>
<pdfrwt beam="1">  1        3 0.23631280E+00 0.23319634E+04</pdfrwt>
<pdfrwt beam="2">  1       -3 0.13616626E+00 0.23319634E+04</pdfrwt>
<totfact> 0.86449228E-02</totfact>
</mgrwt>
</event>
<event>
12    1  0.1097093E-007  0.1344409E+04  0.7818608E-02  0.8995071E-01
          2   -1    0    0  501    0  0.00000000000E+00  0.00000000000E+00  0.20180662653E+04  0.20180662653E+04  0.00000000000E+00 0. -1.
         -2   -1    0    0    0  501 -0.00000000000E+00 -0.00000000000E+00 -0.22390687605E+03  0.22390687605E+03  0.00000000000E+00 0.  1.
         23    2    1    2    0    0 -0.33183498253E+03  0.12499419608E+03  0.53337457480E+03  0.64843938903E+03  0.10122845212E+03 0.  0.
        254    2    1    2    0    0  0.33183498253E+03 -0.12499419608E+03  0.12607848144E+04  0.15935337523E+04  0.90776289123E+03 0.  0.
        -24    2    4    4    0    0 -0.27660100497E+03 -0.38809851971E+02  0.69960724934E+03  0.75749723928E+03  0.79608062531E+02 0.  0.
         24    2    4    4    0    0  0.60843598750E+03 -0.86184344110E+02  0.56117756506E+03  0.83603651299E+03  0.80091819007E+02 0.  0.
         11    1    3    3    0    0 -0.33860415031E+02 -0.79496760670E+01  0.19918267124E+02  0.40080698856E+02  0.00000000000E+00 0. -1.
        -11    1    3    3    0    0 -0.29797456750E+03  0.13294387215E+03  0.51345630768E+03  0.60835869018E+03  0.00000000000E+00 0.  1.
          4    1    6    6  502    0  0.31314583389E+03 -0.30016528213E+02  0.23637892194E+03  0.39349243955E+03  0.00000000000E+00 0. -1.
          3    1    5    5  503    0 -0.55051456420E+02 -0.22307286186E+02  0.82819309595E+02  0.10191818244E+03  0.00000000000E+00 0. -1.
         -4    1    5    5    0  503 -0.22154954855E+03 -0.16502565785E+02  0.61678793975E+03  0.65557905683E+03  0.00000000000E+00 0.  1.
         -3    1    6    6    0  502  0.29529015362E+03 -0.56167815897E+02  0.32479864312E+03  0.44254407344E+03  0.00000000000E+00 0.  1.
<mgrwt>
<rscale>  0 0.13444090E+04</rscale>
<asrwt>0</asrwt>
<pdfrwt beam="1">  1        2 0.31047172E+00 0.13444090E+04</pdfrwt>
<pdfrwt beam="2">  1       -2 0.34447213E-01 0.13444090E+04</pdfrwt>
<totfact> 0.50422971E+01</totfact>
</mgrwt>
</event>
<event>
12    1  0.1097093E-007  0.2392375E+04  0.7818608E-02  0.8442364E-01
          1   -1    0    0  501    0  0.00000000000E+00  0.00000000000E+00  0.14720621770E+04  0.14720621770E+04  0.00000000000E+00 0. -1.
         -1   -1    0    0    0  501 -0.00000000000E+00 -0.00000000000E+00 -0.97201354198E+03  0.97201354198E+03  0.00000000000E+00 0.  1.
         23    2    1    2    0    0  0.81034912375E+03  0.28596027540E+03  0.78337980926E+03  0.11660844515E+04  0.87350105485E+02 0.  0.
        254    2    1    2    0    0 -0.81034912375E+03 -0.28596027540E+03 -0.28333117424E+03  0.12779912675E+04  0.90252210172E+03 0.  0.
        -24    2    4    4    0    0 -0.55795175078E+03  0.27305799869E+03 -0.11005697603E+03  0.63580665827E+03  0.79162755641E+02 0.  0.
         24    2    4    4    0    0 -0.25239737297E+03 -0.55901827409E+03 -0.17327419821E+03  0.64218460925E+03  0.78557367224E+02 0.  0.
         13    1    3    3    0    0  0.72362727308E+03  0.22552787545E+03  0.69308779191E+03  0.10270686152E+04  0.00000000000E+00 0. -1.
        -13    1    3    3    0    0  0.86721850663E+02  0.60432399947E+02  0.90292017348E+02  0.13901583630E+03  0.00000000000E+00 0.  1.
          4    1    6    6  502    0 -0.20023726957E+03 -0.47336028146E+03 -0.17167300952E+03  0.54188240642E+03  0.00000000000E+00 0. -1.
          1    1    5    5  503    0 -0.23083274721E+03  0.15306933681E+03 -0.32747616873E+02  0.27890210732E+03  0.00000000000E+00 0. -1.
         -2    1    5    5    0  503 -0.32711900357E+03  0.11998866188E+03 -0.77309359158E+02  0.35690455095E+03  0.00000000000E+00 0.  1.
         -3    1    6    6    0  502 -0.52160103397E+02 -0.85657992626E+02 -0.16011886943E+01  0.10030220283E+03  0.00000000000E+00 0.  1.
<mgrwt>
<rscale>  0 0.23923749E+04</rscale>
<asrwt>0</asrwt>
<pdfrwt beam="1">  1        1 0.22647111E+00 0.23923749E+04</pdfrwt>
<pdfrwt beam="2">  1       -1 0.14954054E+00 0.23923749E+04</pdfrwt>
<totfact> 0.21581203E+00</totfact>
</mgrwt>
</event>
<event>
12    1  0.1097093E-007  0.1817560E+04  0.7818608E-02  0.8697017E-01
         -2   -1    0    0    0  501 -0.00000000000E+00  0.00000000000E+00  0.98912024639E+03  0.98912024639E+03  0.00000000000E+00 0.  1.
          2   -1    0    0  501    0  0.00000000000E+00 -0.00000000000E+00 -0.83496524820E+03  0.83496524820E+03  0.00000000000E+00 0. -1.
         23    2    1    2    0    0  0.31781123154E+03  0.19497802255E+03  0.63123988726E+03  0.73874621050E+03  0.90894224731E+02 0.  0.
        254    2    1    2    0    0 -0.31781123154E+03 -0.19497802255E+03 -0.47708488907E+03  0.10853392841E+04  0.90073911986E+03 0.  0.
        -24    2    4    4    0    0  0.14126021742E+03  0.26860195478E+03 -0.11094291002E+03  0.33294414362E+03  0.80262160155E+02 0.  0.
         24    2    4    4    0    0 -0.45907144896E+03 -0.46357997732E+03 -0.36614197905E+03  0.75239514047E+03  0.79909373432E+02 0.  0.
         13    1    3    3    0    0  0.13236085292E+03  0.36341719176E+02  0.26855712864E+03  0.30160080783E+03  0.00000000000E+00 0.  1.
        -13    1    3    3    0    0  0.18545037861E+03  0.15863630337E+03  0.36268275862E+03  0.43714540267E+03  0.00000000000E+00 0. -1.
          4    1    6    6  502    0 -0.24792832600E+03 -0.30133809262E+03 -0.23573517767E+03  0.45589930345E+03  0.00000000000E+00 0. -1.
          1    1    5    5  503    0  0.21722798139E+02  0.11801703504E+03 -0.59376839610E+02  0.13388618151E+03  0.00000000000E+00 0. -1.
         -2    1    5    5    0  503  0.11953741928E+03  0.15058491974E+03 -0.51566070413E+02  0.19905796211E+03  0.00000000000E+00 0.  1.
         -3    1    6    6    0  502 -0.21114312296E+03 -0.16224188470E+03 -0.13040680139E+03  0.29649583702E+03  0.00000000000E+00 0.  1.
<mgrwt>
<rscale>  0 0.18175599E+04</rscale>
<asrwt>0</asrwt>
<pdfrwt beam="1">  1        2 0.12845619E+00 0.18175599E+04</pdfrwt>
<pdfrwt beam="2">  1       -2 0.15217235E+00 0.18175599E+04</pdfrwt>
<totfact> 0.88380045E+00</totfact>
</mgrwt>
</event>
<event>
12    1  0.1097093E-007  0.1422624E+04  0.7818608E-02  0.8937603E-01
         -2   -1    0    0    0  501 -0.00000000000E+00  0.00000000000E+00  0.57968936683E+03  0.57968936683E+03  0.00000000000E+00 0.  1.
          2   -1    0    0  501    0  0.00000000000E+00 -0.00000000000E+00 -0.87282043888E+03  0.87282043888E+03  0.00000000000E+00 0. -1.
         23    2    1    2    0    0 -0.86933941019E+02  0.41063788411E+03 -0.84535470500E+02  0.43774404783E+03  0.91063843940E+02 0.  0.
        254    2    1    2    0    0  0.86933941019E+02 -0.41063788411E+03 -0.20859560154E+03  0.10147657579E+04  0.90003135302E+03 0.  0.
        -24    2    4    4    0    0  0.43960224208E+03 -0.41416435485E+03 -0.25860240048E+02  0.60988562947E+03  0.80681379213E+02 0.  0.
         24    2    4    4    0    0 -0.35266830106E+03  0.35264707432E+01 -0.18273536150E+03  0.40488012841E+03  0.78411347821E+02 0.  0.
         13    1    3    3    0    0 -0.49384679598E+02  0.31287490507E+03 -0.99376243298E+02  0.33197167128E+03  0.00000000000E+00 0. -1.
        -13    1    3    3    0    0 -0.37549261421E+02  0.97762979034E+02  0.14840772798E+02  0.10577237655E+03  0.00000000000E+00 0.  1.
          2    1    6    6  502    0 -0.30548688410E+03 -0.13477273846E+02 -0.13050095422E+03  0.33246709961E+03  0.00000000000E+00 0. -1.
          3    1    5    5  503    0  0.32625970775E+03 -0.34009716735E+03  0.36878480485E+01  0.47130147503E+03  0.00000000000E+00 0. -1.
         -4    1    5    5    0  503  0.11334253433E+03 -0.74067187496E+02 -0.29548088097E+02  0.13858415444E+03  0.00000000000E+00 0.  1.
         -1    1    6    6    0  502 -0.47181416960E+02  0.17003744589E+02 -0.52234407275E+02  0.72413028799E+02  0.00000000000E+00 0.  1.
<mgrwt>
<rscale>  0 0.14226240E+04</rscale>
<asrwt>0</asrwt>
<pdfrwt beam="1">  1        2 0.13428007E+00 0.14226240E+04</pdfrwt>
<pdfrwt beam="2">  1       -2 0.89182979E-01 0.14226240E+04</pdfrwt>
<totfact> 0.32104271E+01</totfact>
</mgrwt>
</event>
<event>
12    1  0.1097093E-007  0.1809172E+04  0.7818608E-02  0.8701437E-01
         -2   -1    0    0    0  501 -0.00000000000E+00  0.00000000000E+00  0.21205752988E+03  0.21205752988E+03  0.00000000000E+00 0.  1.
          2   -1    0    0  501    0  0.00000000000E+00 -0.00000000000E+00 -0.38587458200E+04  0.38587458200E+04  0.00000000000E+00 0. -1.
         23    2    1    2    0    0  0.74621353988E+02  0.40557268419E+03 -0.23289486801E+04  0.23669441909E+04  0.91462011139E+02 0.  0.
        254    2    1    2    0    0 -0.74621353988E+02 -0.40557268419E+03 -0.13177396100E+04  0.17038591590E+04  0.99831898976E+03 0.  0.
        -24    2    4    4    0    0  0.25541937097E+03  0.22726768313E+03 -0.54289640259E+03  0.64747766651E+03  0.87184688030E+02 0.  0.
         24    2    4    4    0    0 -0.33004072496E+03 -0.63284036732E+03 -0.77484320740E+03  0.10563814925E+04  0.78396753525E+02 0.  0.
         11    1    3    3    0    0 -0.14583196120E+02  0.16317206690E+03 -0.86181839926E+03  0.87725067473E+03  0.00000000000E+00 0.  1.
        -11    1    3    3    0    0  0.89204550108E+02  0.24240061730E+03 -0.14671302809E+04  0.14896935162E+04  0.00000000000E+00 0. -1.
          4    1    6    6  502    0 -0.28016097180E+03 -0.53209919280E+03 -0.69175717383E+03  0.91659571712E+03  0.00000000000E+00 0. -1.
          3    1    5    5  503    0  0.25804209943E+03  0.23209863891E+03 -0.53086613625E+03  0.63425102119E+03  0.00000000000E+00 0. -1.
         -4    1    5    5    0  503 -0.26227284591E+01 -0.48309557819E+01 -0.12030266336E+02  0.13226645321E+02  0.00000000000E+00 0.  1.
         -3    1    6    6    0  502 -0.49879753154E+02 -0.10074117452E+03 -0.83086033566E+02  0.13978577536E+03  0.00000000000E+00 0.  1.
<mgrwt>
<rscale>  0 0.18091723E+04</rscale>
<asrwt>0</asrwt>
<pdfrwt beam="1">  1        2 0.59365317E+00 0.18091723E+04</pdfrwt>
<pdfrwt beam="2">  1       -2 0.32624237E-01 0.18091723E+04</pdfrwt>
<totfact> 0.37032539E+00</totfact>
</mgrwt>
</event>
<event>
12    1  0.1097093E-007  0.1454638E+04  0.7818608E-02  0.8915192E-01
         -2   -1    0    0    0  501 -0.00000000000E+00  0.00000000000E+00  0.24863200913E+03  0.24863200913E+03  0.00000000000E+00 0.  1.
          2   -1    0    0  501    0  0.00000000000E+00 -0.00000000000E+00 -0.21276128249E+04  0.21276128249E+04  0.00000000000E+00 0. -1.
         23    2    1    2    0    0  0.37876647283E+03 -0.13152197891E+03 -0.31772245848E+03  0.52048928346E+03  0.95913824318E+02 0.  0.
        254    2    1    2    0    0 -0.37876647283E+03  0.13152197891E+03 -0.15612583573E+04  0.18557555506E+04  0.91953190993E+03 0.  0.
        -24    2    4    4    0    0  0.29557021983E+03 -0.23167251430E+02 -0.49654995207E+03  0.58370149765E+03  0.79038642884E+02 0.  0.
         24    2    4    4    0    0 -0.67433669267E+03  0.15468923034E+03 -0.10647084053E+04  0.12720540529E+04  0.76542748421E+02 0.  0.
         13    1    3    3    0    0  0.45623719573E+02 -0.15575697557E+02 -0.85542238400E+02  0.98191652866E+02  0.00000000000E+00 0. -1.
        -13    1    3    3    0    0  0.33314275326E+03 -0.11594628135E+03 -0.23218022008E+03  0.42229763060E+03  0.00000000000E+00 0.  1.
          4    1    6    6  502    0 -0.43320700788E+03  0.10378377066E+03 -0.75021238360E+03  0.87250100472E+03  0.00000000000E+00 0. -1.
          1    1    5    5  503    0  0.19935563117E+03 -0.70930148687E+01 -0.25909894096E+03  0.32699425033E+03  0.00000000000E+00 0. -1.
         -2    1    5    5    0  503  0.96214588661E+02 -0.16074236562E+02 -0.23745101110E+03  0.25670724732E+03  0.00000000000E+00 0.  1.
         -3    1    6    6    0  502 -0.24112968479E+03  0.50905459676E+02 -0.31449602165E+03  0.39955304822E+03  0.00000000000E+00 0.  1.
<mgrwt>
<rscale>  0 0.14546376E+04</rscale>
<asrwt>0</asrwt>
<pdfrwt beam="1">  1        2 0.32732504E+00 0.14546376E+04</pdfrwt>
<pdfrwt beam="2">  1       -2 0.38251079E-01 0.14546376E+04</pdfrwt>
<totfact> 0.35511614E+01</totfact>
</mgrwt>
</event>
<event>
12    1  0.1097093E-007  0.1477349E+04  0.7818608E-02  0.8899657E-01
          2   -1    0    0  501    0  0.00000000000E+00  0.00000000000E+00  0.23854944500E+04  0.23854944500E+04  0.00000000000E+00 0. -1.
         -2   -1    0    0    0  501 -0.00000000000E+00 -0.00000000000E+00 -0.22873241700E+03  0.22873241700E+03  0.00000000000E+00 0.  1.
         23    2    1    2    0    0  0.31385837146E+03  0.27414200112E+03  0.99771389587E+03  0.10851503803E+04  0.91964208938E+02 0.  0.
        254    2    1    2    0    0 -0.31385837146E+03 -0.27414200112E+03  0.11590481372E+04  0.15290764867E+04  0.90610231427E+03 0.  0.
        -24    2    4    4    0    0  0.22657058678E+02 -0.44176197298E+03  0.19272424364E+03  0.48916176392E+03  0.80433911485E+02 0.  0.
         24    2    4    4    0    0 -0.33651543014E+03  0.16761997186E+03  0.96632389352E+03  0.10399147228E+04  0.79383082949E+02 0.  0.
         13    1    3    3    0    0  0.22481716076E+03  0.23948985645E+03  0.82072968502E+03  0.88402226385E+03  0.00000000000E+00 0. -1.
        -13    1    3    3    0    0  0.89041210695E+02  0.34652144669E+02  0.17698421086E+03  0.20112811644E+03  0.00000000000E+00 0.  1.
          4    1    6    6  502    0 -0.21119087014E+03  0.61360546789E+02  0.55633284680E+03  0.59822482125E+03  0.00000000000E+00 0. -1.
          3    1    5    5  503    0  0.36685189916E+02 -0.85313903932E+02  0.38865826831E+02  0.10067183250E+03  0.00000000000E+00 0. -1.
         -4    1    5    5    0  503 -0.14028131238E+02 -0.35644806905E+03  0.15385841681E+03  0.38848993142E+03  0.00000000000E+00 0.  1.
         -3    1    6    6    0  502 -0.12532456000E+03  0.10625942507E+03  0.40999104671E+03  0.44168990156E+03  0.00000000000E+00 0.  1.
<mgrwt>
<rscale>  0 0.14773489E+04</rscale>
<asrwt>0</asrwt>
<pdfrwt beam="1">  1        2 0.36699913E+00 0.14773489E+04</pdfrwt>
<pdfrwt beam="2">  1       -2 0.35189604E-01 0.14773489E+04</pdfrwt>
<totfact> 0.29801152E+01</totfact>
</mgrwt>
</event>
<event>
12    1  0.1097093E-007  0.3167416E+04  0.7818608E-02  0.8197476E-01
         -2   -1    0    0    0  501 -0.00000000000E+00  0.00000000000E+00  0.92832581089E+03  0.92832581089E+03  0.00000000000E+00 0.  1.
          2   -1    0    0  501    0  0.00000000000E+00 -0.00000000000E+00 -0.27017793758E+04  0.27017793758E+04  0.00000000000E+00 0. -1.
         23    2    1    2    0    0  0.36221340481E+03 -0.13143537736E+04 -0.25864292983E+03  0.13906683046E+04  0.91311420231E+02 0.  0.
        254    2    1    2    0    0 -0.36221340481E+03  0.13143537736E+04 -0.15148106351E+04  0.22394368821E+04  0.92827899674E+03 0.  0.
        -24    2    4    4    0    0 -0.39964135255E+03  0.70641966936E+03 -0.28294621566E+03  0.86341381970E+03  0.81749025436E+02 0.  0.
         24    2    4    4    0    0  0.37427947737E+02  0.60793410425E+03 -0.12318644194E+04  0.13760230624E+04  0.70461294162E+02 0.  0.
         11    1    3    3    0    0  0.11072566593E+03 -0.43140397145E+03 -0.41826640454E+02  0.44734665253E+03  0.00000000000E+00 0. -1.
        -11    1    3    3    0    0  0.25148773887E+03 -0.88294980217E+03 -0.21681628937E+03  0.94332165208E+03  0.00000000000E+00 0.  1.
          2    1    6    6  502    0  0.38027124926E+02  0.20658313692E+03 -0.47354866564E+03  0.51804535846E+03  0.00000000000E+00 0. -1.
          1    1    5    5  503    0 -0.77024493964E+02  0.19292467942E+03 -0.95833186250E+02  0.22877216655E+03  0.00000000000E+00 0. -1.
         -2    1    5    5    0  503 -0.32261685858E+03  0.51349498994E+03 -0.18711302941E+03  0.63464165315E+03  0.00000000000E+00 0.  1.
         -1    1    6    6    0  502 -0.59917718813E+00  0.40135096733E+03 -0.75831575376E+03  0.85797770390E+03  0.00000000000E+00 0.  1.
<mgrwt>
<rscale>  0 0.31674163E+04</rscale>
<asrwt>0</asrwt>
<pdfrwt beam="1">  1        2 0.41565836E+00 0.31674163E+04</pdfrwt>
<pdfrwt beam="2">  1       -2 0.14281936E+00 0.31674163E+04</pdfrwt>
<totfact> 0.76230833E-01</totfact>
</mgrwt>
</event>
<event>
12    1  0.1097093E-007  0.1459928E+04  0.7818608E-02  0.8911546E-01
         -1   -1    0    0    0  501 -0.00000000000E+00  0.00000000000E+00  0.47886044392E+03  0.47886044392E+03  0.00000000000E+00 0.  1.
          1   -1    0    0  501    0  0.00000000000E+00 -0.00000000000E+00 -0.11127407817E+04  0.11127407817E+04  0.00000000000E+00 0. -1.
         23    2    1    2    0    0 -0.17737277044E+03  0.55297110730E+02 -0.62225627499E+03  0.65562744155E+03  0.90142111101E+02 0.  0.
        254    2    1    2    0    0  0.17737277044E+03 -0.55297110730E+02 -0.11624062809E+02  0.93597378411E+03  0.91727473286E+03 0.  0.
        -24    2    4    4    0    0 -0.15420226468E+02 -0.37129298774E+03 -0.27944511312E+03  0.47202883526E+03  0.81396461469E+02 0.  0.
         24    2    4    4    0    0  0.19279299690E+03  0.31599587701E+03  0.26782105031E+03  0.46394494884E+03  0.80587012747E+02 0.  0.
         13    1    3    3    0    0 -0.42296399897E+02 -0.93555551264E+01 -0.26087556344E+03  0.26444767243E+03  0.00000000000E+00 0.  1.
        -13    1    3    3    0    0 -0.13507637054E+03  0.64652665856E+02 -0.36138071156E+03  0.39117976912E+03  0.00000000000E+00 0. -1.
          4    1    6    6  502    0 -0.25409411561E+01  0.40381547480E+02  0.36771940849E+02  0.54674504046E+02  0.00000000000E+00 0. -1.
          1    1    5    5  503    0 -0.14576269048E+02 -0.19438407793E+02 -0.28324158350E+01  0.24461028113E+02  0.00000000000E+00 0. -1.
         -2    1    5    5    0  503 -0.84395742047E+00 -0.35185457995E+03 -0.27661269729E+03  0.44756780715E+03  0.00000000000E+00 0.  1.
         -3    1    6    6    0  502  0.19533393806E+03  0.27561432953E+03  0.23104910946E+03  0.40927044480E+03  0.00000000000E+00 0.  1.
<mgrwt>
<rscale>  0 0.14599281E+04</rscale>
<asrwt>0</asrwt>
<pdfrwt beam="1">  1        1 0.17119089E+00 0.14599281E+04</pdfrwt>
<pdfrwt beam="2">  1       -1 0.73670839E-01 0.14599281E+04</pdfrwt>
<totfact> 0.22340641E+01</totfact>
</mgrwt>
</event>
<event>
12    1  0.1097093E-007  0.1129743E+04  0.7818608E-02  0.9176678E-01
         -4   -1    0    0    0  501 -0.00000000000E+00  0.00000000000E+00  0.46343236381E+03  0.46343236381E+03  0.00000000000E+00 0.  1.
          4   -1    0    0  501    0  0.00000000000E+00 -0.00000000000E+00 -0.68851397531E+03  0.68851397531E+03  0.00000000000E+00 0. -1.
         23    2    1    2    0    0 -0.71503933011E+02 -0.13432970663E+03 -0.15833909010E+03  0.23734348602E+03  0.90018777953E+02 0.  0.
        254    2    1    2    0    0  0.71503933011E+02  0.13432970663E+03 -0.66742521399E+02  0.91460285311E+03  0.89938119406E+03 0.  0.
        -24    2    4    4    0    0 -0.31043800965E+03  0.31133366058E+03  0.93759330110E+02  0.45662246252E+03  0.80080305003E+02 0.  0.
         24    2    4    4    0    0  0.38194194266E+03 -0.17700395396E+03 -0.16050185151E+03  0.45798039058E+03  0.82311278348E+02 0.  0.
         11    1    3    3    0    0 -0.62450704334E+02 -0.27855916846E+02 -0.77481644148E+02  0.10334141355E+03  0.00000000000E+00 0.  1.
        -11    1    3    3    0    0 -0.90532286773E+01 -0.10647378978E+03 -0.80857445948E+02  0.13400207247E+03  0.00000000000E+00 0. -1.
          4    1    6    6  502    0  0.31460616364E+03 -0.17740461546E+03 -0.12779113046E+03  0.38311879203E+03  0.00000000000E+00 0. -1.
          1    1    5    5  503    0 -0.16616295762E+03  0.15516960424E+03  0.83588947277E+01  0.22750297951E+03  0.00000000000E+00 0. -1.
         -2    1    5    5    0  503 -0.14427505203E+03  0.15616405634E+03  0.85400435382E+02  0.22911948301E+03  0.00000000000E+00 0.  1.
         -3    1    6    6    0  502  0.67335779022E+02  0.40066150139E+00 -0.32710721050E+02  0.74861598552E+02  0.00000000000E+00 0.  1.
<mgrwt>
<rscale>  0 0.11297427E+04</rscale>
<asrwt>0</asrwt>
<pdfrwt beam="1">  1        4 0.10592523E+00 0.11297427E+04</pdfrwt>
<pdfrwt beam="2">  1       -4 0.71297287E-01 0.11297427E+04</pdfrwt>
<totfact> 0.25509558E+00</totfact>
</mgrwt>
</event>
<event>
12    1  0.1097093E-007  0.1554998E+04  0.7818608E-02  0.8848682E-01
         -1   -1    0    0    0  501 -0.00000000000E+00  0.00000000000E+00  0.38979313904E+03  0.38979313904E+03  0.00000000000E+00 0.  1.
          1   -1    0    0  501    0  0.00000000000E+00 -0.00000000000E+00 -0.15508338444E+04  0.15508338444E+04  0.00000000000E+00 0. -1.
         23    2    1    2    0    0  0.48893140014E+03 -0.12322669780E+03 -0.46483486656E+03  0.69152607800E+03  0.88871425587E+02 0.  0.
        254    2    1    2    0    0 -0.48893140014E+03  0.12322669780E+03 -0.69620583877E+03  0.12491009054E+04  0.90626252757E+03 0.  0.
        -24    2    4    4    0    0  0.23612038198E+03 -0.87488642822E+02 -0.27273942853E+03  0.37968429776E+03  0.79788925832E+02 0.  0.
         24    2    4    4    0    0 -0.72505178212E+03  0.21071534062E+03 -0.42346641025E+03  0.86941660765E+03  0.80376585712E+02 0.  0.
         11    1    3    3    0    0  0.31651992068E+03 -0.92468890426E+02 -0.24689270402E+03  0.41193611541E+03  0.00000000000E+00 0.  1.
        -11    1    3    3    0    0  0.17241147946E+03 -0.30757807375E+02 -0.21794216255E+03  0.27958996259E+03  0.00000000000E+00 0. -1.
          4    1    6    6  502    0 -0.17453661993E+03  0.75272608423E+02 -0.13637198787E+03  0.23393656480E+03  0.00000000000E+00 0. -1.
          1    1    5    5  503    0  0.61402121029E+02 -0.16345898465E+02 -0.24966708634E+02  0.68269652142E+02  0.00000000000E+00 0. -1.
         -2    1    5    5    0  503  0.17471826095E+03 -0.71142744357E+02 -0.24777271989E+03  0.31141464562E+03  0.00000000000E+00 0.  1.
         -3    1    6    6    0  502 -0.55051516218E+03  0.13544273220E+03 -0.28709442238E+03  0.63548004285E+03  0.00000000000E+00 0.  1.
<mgrwt>
<rscale>  0 0.15549976E+04</rscale>
<asrwt>0</asrwt>
<pdfrwt beam="1">  1        1 0.23858982E+00 0.15549976E+04</pdfrwt>
<pdfrwt beam="2">  1       -1 0.59968175E-01 0.15549976E+04</pdfrwt>
<totfact> 0.16379866E+01</totfact>
</mgrwt>
</event>
<event>
12    1  0.1097093E-007  0.2221373E+04  0.7818608E-02  0.8509585E-01
         -3   -1    0    0    0  501 -0.00000000000E+00  0.00000000000E+00  0.89102816336E+03  0.89102816336E+03  0.00000000000E+00 0.  1.
          3   -1    0    0  501    0  0.00000000000E+00 -0.00000000000E+00 -0.13844950317E+04  0.13844950317E+04  0.00000000000E+00 0. -1.
         23    2    1    2    0    0  0.83984863580E+03  0.14334083645E+03 -0.58517432964E+03  0.10360804718E+04  0.71703706220E+02 0.  0.
        254    2    1    2    0    0 -0.83984863580E+03 -0.14334083645E+03  0.91707461326E+02  0.12394427233E+04  0.89549744797E+03 0.  0.
        -24    2    4    4    0    0  0.16822037385E+03 -0.12481939412E+03  0.16644016073E+02  0.22525924692E+03  0.81158670058E+02 0.  0.
         24    2    4    4    0    0 -0.10080690096E+04 -0.18521442329E+02  0.75063445253E+02  0.10141834763E+04  0.79921403946E+02 0.  0.
         11    1    3    3    0    0  0.41684629044E+03  0.10258631210E+03 -0.31590258709E+03  0.53299083089E+03  0.00000000000E+00 0.  1.
        -11    1    3    3    0    0  0.42300234536E+03  0.40754524358E+02 -0.26927174255E+03  0.50308964089E+03  0.00000000000E+00 0. -1.
          2    1    6    6  502    0 -0.17018944901E+03 -0.58614060384E+01 -0.17140687923E+02  0.17115083353E+03  0.00000000000E+00 0. -1.
          3    1    5    5  503    0  0.54757533978E+02 -0.74717698520E+02 -0.22255204791E+02  0.95270226933E+02  0.00000000000E+00 0. -1.
         -4    1    5    5    0  503  0.11346283987E+03 -0.50101695605E+02  0.38899220865E+02  0.12998901999E+03  0.00000000000E+00 0.  1.
         -1    1    6    6    0  502 -0.83787956063E+03 -0.12660036291E+02  0.92204133175E+02  0.84303264280E+03  0.00000000000E+00 0.  1.
<mgrwt>
<rscale>  0 0.22213726E+04</rscale>
<asrwt>0</asrwt>
<pdfrwt beam="1">  1        3 0.21299923E+00 0.22213726E+04</pdfrwt>
<pdfrwt beam="2">  1       -3 0.13708126E+00 0.22213726E+04</pdfrwt>
<totfact> 0.11834426E-01</totfact>
</mgrwt>
</event>
<event>
12    1  0.1097093E-007  0.2321213E+04  0.7818608E-02  0.8469604E-01
         -2   -1    0    0    0  501 -0.00000000000E+00  0.00000000000E+00  0.59303496992E+03  0.59303496992E+03  0.00000000000E+00 0.  1.
          2   -1    0    0  501    0  0.00000000000E+00 -0.00000000000E+00 -0.22713793415E+04  0.22713793415E+04  0.00000000000E+00 0. -1.
         23    2    1    2    0    0 -0.70652731547E+03 -0.43167785807E+03 -0.58457013490E+02  0.83407948345E+03  0.82126375918E+02 0.  0.
        254    2    1    2    0    0  0.70652731547E+03  0.43167785807E+03 -0.16198873581E+04  0.20303348280E+04  0.90149755415E+03 0.  0.
        -24    2    4    4    0    0 -0.15005602529E+03  0.14177812750E+02 -0.63377561139E+03  0.65629317193E+03  0.79569974357E+02 0.  0.
         24    2    4    4    0    0  0.85658334076E+03  0.41750004532E+03 -0.98611174669E+03  0.13740416560E+04  0.86791635969E+02 0.  0.
         11    1    3    3    0    0 -0.25338881457E+03 -0.17121224110E+03 -0.58825903688E+02  0.31141613605E+03  0.00000000000E+00 0.  1.
        -11    1    3    3    0    0 -0.45313850090E+03 -0.26046561698E+03  0.36889019831E+00  0.52266334739E+03  0.00000000000E+00 0. -1.
          4    1    6    6  502    0  0.63677663360E+03  0.32249722673E+03 -0.78834665905E+03  0.10634751512E+04  0.00000000000E+00 0. -1.
          3    1    5    5  503    0 -0.99543637660E+02  0.15506701390E+00 -0.53779013295E+03  0.54692521147E+03  0.00000000000E+00 0. -1.
         -4    1    5    5    0  503 -0.50512387631E+02  0.14022745736E+02 -0.95985478446E+02  0.10936796046E+03  0.00000000000E+00 0.  1.
         -3    1    6    6    0  502  0.21980670716E+03  0.95002818589E+02 -0.19776508764E+03  0.31056650486E+03  0.00000000000E+00 0.  1.
<mgrwt>
<rscale>  0 0.23212129E+04</rscale>
<asrwt>0</asrwt>
<pdfrwt beam="1">  1        2 0.34944297E+00 0.23212129E+04</pdfrwt>
<pdfrwt beam="2">  1       -2 0.91236150E-01 0.23212129E+04</pdfrwt>
<totfact> 0.43608949E+00</totfact>
</mgrwt>
</event>
<event>
12    1  0.1097093E-007  0.1705506E+04  0.7818608E-02  0.8758230E-01
         -1   -1    0    0    0  501 -0.00000000000E+00  0.00000000000E+00  0.53043617201E+03  0.53043617201E+03  0.00000000000E+00 0.  1.
          1   -1    0    0  501    0  0.00000000000E+00 -0.00000000000E+00 -0.13709240826E+04  0.13709240826E+04  0.00000000000E+00 0. -1.
         23    2    1    2    0    0  0.56835688396E+03 -0.15510878938E+03 -0.11357471933E+03  0.60704322486E+03  0.92271208340E+02 0.  0.
        254    2    1    2    0    0 -0.56835688396E+03  0.15510878938E+03 -0.72691319125E+03  0.12943170298E+04  0.89429609292E+03 0.  0.
        -24    2    4    4    0    0 -0.30720151670E+03  0.39004379552E+03 -0.22880997398E+02  0.50352153897E+03  0.80644069092E+02 0.  0.
         24    2    4    4    0    0 -0.26115536726E+03 -0.23493500615E+03 -0.70403219386E+03  0.79079549078E+03  0.79369989850E+02 0.  0.
         11    1    3    3    0    0  0.44985958735E+03 -0.84080030356E+02 -0.76487558651E+02  0.46399724834E+03  0.00000000000E+00 0.  1.
        -11    1    3    3    0    0  0.11849729661E+03 -0.71028759020E+02 -0.37087160675E+02  0.14304597652E+03  0.00000000000E+00 0. -1.
          4    1    6    6  502    0 -0.25991142557E+03 -0.23639466112E+03 -0.66840717975E+03  0.75511889322E+03  0.00000000000E+00 0. -1.
          1    1    5    5  503    0 -0.27197067426E+03  0.30339473655E+03 -0.97137469269E+00  0.40745227622E+03  0.00000000000E+00 0. -1.
         -2    1    5    5    0  503 -0.35230842437E+02  0.86649058970E+02 -0.21909622705E+02  0.96069262755E+02  0.00000000000E+00 0.  1.
         -3    1    6    6    0  502 -0.12439416859E+01  0.14596549760E+01 -0.35625014107E+02  0.35676597563E+02  0.00000000000E+00 0.  1.
<mgrwt>
<rscale>  0 0.17055061E+04</rscale>
<asrwt>0</asrwt>
<pdfrwt beam="1">  1        1 0.21091139E+00 0.17055061E+04</pdfrwt>
<pdfrwt beam="2">  1       -1 0.81605567E-01 0.17055061E+04</pdfrwt>
<totfact> 0.11452882E+01</totfact>
</mgrwt>
</event>
<event>
12    1  0.1097093E-007  0.1578339E+04  0.7818608E-02  0.8833967E-01
         -1   -1    0    0    0  501 -0.00000000000E+00  0.00000000000E+00  0.46476174045E+03  0.46476174045E+03  0.00000000000E+00 0.  1.
          1   -1    0    0  501    0  0.00000000000E+00 -0.00000000000E+00 -0.13400164917E+04  0.13400164917E+04  0.00000000000E+00 0. -1.
         23    2    1    2    0    0  0.26678465839E+03  0.37643102769E+03 -0.30576315338E+02  0.47166718146E+03  0.93062594204E+02 0.  0.
        254    2    1    2    0    0 -0.26678465839E+03 -0.37643102769E+03 -0.84467843592E+03  0.13331110507E+04  0.92240394666E+03 0.  0.
        -24    2    4    4    0    0  0.19671722633E+03 -0.13674004509E+03 -0.75762756886E+03  0.79841369522E+03  0.77906280505E+02 0.  0.
         24    2    4    4    0    0 -0.46350188472E+03 -0.23969098260E+03 -0.87050867052E+02  0.53469735547E+03  0.77702279359E+02 0.  0.
         11    1    3    3    0    0  0.55434561523E+02  0.44449587073E+02 -0.32450748348E+02  0.78114067046E+02  0.00000000000E+00 0.  1.
        -11    1    3    3    0    0  0.21135009687E+03  0.33198144062E+03  0.18744330098E+01  0.39355311441E+03  0.00000000000E+00 0. -1.
          4    1    6    6  502    0 -0.28569925055E+03 -0.10977630167E+03 -0.69041331653E+02  0.31375404961E+03  0.00000000000E+00 0. -1.
          3    1    5    5  503    0  0.14738782720E+03 -0.13813097543E+03 -0.58638257277E+03  0.62019985459E+03  0.00000000000E+00 0. -1.
         -4    1    5    5    0  503  0.49329399127E+02  0.13909303364E+01 -0.17124499609E+03  0.17821384063E+03  0.00000000000E+00 0.  1.
         -3    1    6    6    0  502 -0.17780263417E+03 -0.12991468093E+03 -0.18009535398E+02  0.22094330586E+03  0.00000000000E+00 0.  1.
<mgrwt>
<rscale>  0 0.15783389E+04</rscale>
<asrwt>0</asrwt>
<pdfrwt beam="1">  1        1 0.20615639E+00 0.15783389E+04</pdfrwt>
<pdfrwt beam="2">  1       -1 0.71501805E-01 0.15783389E+04</pdfrwt>
<totfact> 0.16079224E+01</totfact>
</mgrwt>
</event>
<event>
12    1  0.1097093E-007  0.1712385E+04  0.7818608E-02  0.8754332E-01
          2   -1    0    0  501    0  0.00000000000E+00  0.00000000000E+00  0.77835622927E+03  0.77835622927E+03  0.00000000000E+00 0.  1.
         -2   -1    0    0    0  501 -0.00000000000E+00 -0.00000000000E+00 -0.94181199635E+03  0.94181199635E+03  0.00000000000E+00 0. -1.
         23    2    1    2    0    0  0.43198182461E+03  0.33005579861E+03  0.22856343216E+03  0.59684974340E+03  0.91887141028E+02 0.  0.
        254    2    1    2    0    0 -0.43198182461E+03 -0.33005579861E+03 -0.39201919923E+03  0.11233184822E+04  0.90145450963E+03 0.  0.
        -24    2    4    4    0    0 -0.61487908800E+03 -0.81795153657E+02 -0.95154017491E+01  0.62547199603E+03  0.79736659836E+02 0.  0.
         24    2    4    4    0    0  0.18289726339E+03 -0.24826064496E+03 -0.38250379748E+03  0.49784648619E+03  0.80356779029E+02 0.  0.
         11    1    3    3    0    0  0.45670268051E+02  0.21218862236E+02  0.50138159767E+02  0.71062286505E+02  0.00000000000E+00 0. -1.
        -11    1    3    3    0    0  0.38631155656E+03  0.30883693638E+03  0.17842527239E+03  0.52578745689E+03  0.00000000000E+00 0.  1.
          4    1    6    6  502    0  0.17602503930E+03 -0.19092609442E+03 -0.29512704138E+03  0.39311265376E+03  0.00000000000E+00 0. -1.
          1    1    5    5  503    0 -0.22651714445E+03 -0.56357630074E+02 -0.32118078452E+02  0.23562209183E+03  0.00000000000E+00 0. -1.
         -2    1    5    5    0  503 -0.38836194355E+03 -0.25437523584E+02  0.22602676703E+02  0.38984990419E+03  0.00000000000E+00 0.  1.
         -3    1    6    6    0  502  0.68722240875E+01 -0.57334550537E+02 -0.87376756101E+02  0.10473383243E+03  0.00000000000E+00 0.  1.
<mgrwt>
<rscale>  0 0.17123846E+04</rscale>
<asrwt>0</asrwt>
<pdfrwt beam="1">  1        2 0.11974711E+00 0.17123846E+04</pdfrwt>
<pdfrwt beam="2">  1       -2 0.14489415E+00 0.17123846E+04</pdfrwt>
<totfact> 0.11144465E+01</totfact>
</mgrwt>
</event>
<event>
12    1  0.1097093E-007  0.2632676E+04  0.7818608E-02  0.8357186E-01
          2   -1    0    0  501    0  0.00000000000E+00  0.00000000000E+00  0.21492458744E+04  0.21492458744E+04  0.00000000000E+00 0.  1.
         -2   -1    0    0    0  501 -0.00000000000E+00 -0.00000000000E+00 -0.80621105540E+03  0.80621105540E+03  0.00000000000E+00 0. -1.
         23    2    1    2    0    0 -0.12586655699E+03 -0.95696569656E+03 -0.13198984050E+03  0.97849461837E+03  0.91676963474E+02 0.  0.
        254    2    1    2    0    0  0.12586655699E+03  0.95696569656E+03  0.14750246595E+04  0.19769623114E+04  0.89501759767E+03 0.  0.
        -24    2    4    4    0    0  0.33490429816E+03  0.93175926280E+03  0.83184516180E+03  0.12956244457E+04  0.79624860804E+02 0.  0.
         24    2    4    4    0    0 -0.20903774117E+03  0.25206433755E+02  0.64317949769E+03  0.68133786568E+03  0.78798981136E+02 0.  0.
         13    1    3    3    0    0 -0.39432707104E+02 -0.89868484577E+02 -0.11561752155E+02  0.98817797094E+02  0.00000000000E+00 0.  1.
        -13    1    3    3    0    0 -0.86433849882E+02 -0.86709721198E+03 -0.12042808835E+03  0.87967682128E+03  0.00000000000E+00 0. -1.
          2    1    6    6  502    0 -0.54618002967E+02 -0.12285481525E+01  0.28807728820E+03  0.29321179982E+03  0.00000000000E+00 0. -1.
          1    1    5    5  503    0  0.20445195032E+03  0.67407800964E+03  0.58185279673E+03  0.91363802467E+03  0.00000000000E+00 0. -1.
         -2    1    5    5    0  503  0.13045234784E+03  0.25768125316E+03  0.24999236508E+03  0.38198642108E+03  0.00000000000E+00 0.  1.
         -1    1    6    6    0  502 -0.15441973821E+03  0.26434981908E+02  0.35510220949E+03  0.38812606586E+03  0.00000000000E+00 0.  1.
<mgrwt>
<rscale>  0 0.26326760E+04</rscale>
<asrwt>0</asrwt>
<pdfrwt beam="1">  1        2 0.33065321E+00 0.26326760E+04</pdfrwt>
<pdfrwt beam="2">  1       -2 0.12403247E+00 0.26326760E+04</pdfrwt>
<totfact> 0.23782850E+00</totfact>
</mgrwt>
</event>
<event>
12    1  0.1097093E-007  0.2659220E+04  0.7818608E-02  0.8348359E-01
          2   -1    0    0  501    0  0.00000000000E+00  0.00000000000E+00  0.24682854830E+04  0.24682854830E+04  0.00000000000E+00 0. -1.
         -2   -1    0    0    0  501 -0.00000000000E+00 -0.00000000000E+00 -0.71623105410E+03  0.71623105410E+03  0.00000000000E+00 0.  1.
         23    2    1    2    0    0  0.98197501410E+03 -0.45411524887E+03  0.13226141431E+04  0.17129111380E+04  0.11941862288E+03 0.  0.
        254    2    1    2    0    0 -0.98197501410E+03  0.45411524887E+03  0.42944028578E+03  0.14716053991E+04  0.90039319418E+03 0.  0.
        -24    2    4    4    0    0 -0.20800679074E+03 -0.20508592902E+03  0.32861288576E+03  0.44683951621E+03  0.79699819818E+02 0.  0.
         24    2    4    4    0    0 -0.77396822336E+03  0.65920117790E+03  0.10082740002E+03  0.10247658829E+04  0.80037156931E+02 0.  0.
         13    1    3    3    0    0  0.51698987975E+03 -0.30448681925E+03  0.73190051678E+03  0.94639797407E+03  0.00000000000E+00 0. -1.
        -13    1    3    3    0    0  0.46498513435E+03 -0.14962842963E+03  0.59071362636E+03  0.76651316393E+03  0.00000000000E+00 0.  1.
          2    1    6    6  502    0 -0.22640343333E+03  0.21398544513E+03 -0.23915974383E+01  0.31153491793E+03  0.00000000000E+00 0. -1.
          1    1    5    5  503    0 -0.53630246440E+02 -0.11796662035E+02  0.50119685053E+02  0.74346132369E+02  0.00000000000E+00 0. -1.
         -2    1    5    5    0  503 -0.15437654430E+03 -0.19328926699E+03  0.27849320071E+03  0.37249338384E+03  0.00000000000E+00 0.  1.
         -1    1    6    6    0  502 -0.54756479003E+03  0.44521573276E+03  0.10321899746E+03  0.71323096499E+03  0.00000000000E+00 0.  1.
<mgrwt>
<rscale>  0 0.26592200E+04</rscale>
<asrwt>0</asrwt>
<pdfrwt beam="1">  1        2 0.37973622E+00 0.26592200E+04</pdfrwt>
<pdfrwt beam="2">  1       -2 0.11018939E+00 0.26592200E+04</pdfrwt>
<totfact> 0.20909975E+00</totfact>
</mgrwt>
</event>
<event>
12    1  0.1097093E-007  0.3586507E+04  0.7818608E-02  0.8093590E-01
          2   -1    0    0  501    0  0.00000000000E+00  0.00000000000E+00  0.38062532038E+04  0.38062532038E+04  0.00000000000E+00 0. -1.
         -2   -1    0    0    0  501 -0.00000000000E+00 -0.00000000000E+00 -0.84486169494E+03  0.84486169494E+03  0.00000000000E+00 0.  1.
         23    2    1    2    0    0  0.10340919858E+03 -0.11675226458E+04 -0.17127550388E+03  0.11879145804E+04  0.89460389102E+02 0.  0.
        254    2    1    2    0    0 -0.10340919858E+03  0.11675226458E+04  0.31326670128E+04  0.34632003184E+04  0.89797062390E+03 0.  0.
        -24    2    4    4    0    0  0.86983226729E+02  0.47801021735E+03  0.23457768664E+04  0.23968482437E+04  0.78438172284E+02 0.  0.
         24    2    4    4    0    0 -0.19039242531E+03  0.68951242848E+03  0.78689014638E+03  0.10663520747E+04  0.78955557187E+02 0.  0.
         11    1    3    3    0    0 -0.11503857404E+02 -0.88723530341E+02 -0.27061605559E+02  0.93469428514E+02  0.00000000000E+00 0. -1.
        -11    1    3    3    0    0  0.11491305598E+03 -0.10787991155E+04 -0.14421389833E+03  0.10944451519E+04  0.00000000000E+00 0.  1.
          2    1    6    6  502    0 -0.17223968878E+03  0.65024127052E+03  0.76204899314E+03  0.10164639139E+04  0.00000000000E+00 0. -1.
          3    1    5    5  503    0  0.81059180012E+02  0.40446166182E+03  0.21042712569E+04  0.21443221187E+04  0.00000000000E+00 0. -1.
         -4    1    5    5    0  503  0.59240467165E+01  0.73548555532E+02  0.24150560955E+03  0.25252612497E+03  0.00000000000E+00 0.  1.
         -1    1    6    6    0  502 -0.18152736530E+02  0.39271157957E+02  0.24841153233E+02  0.49888160768E+02  0.00000000000E+00 0.  1.
<mgrwt>
<rscale>  0 0.35865067E+04</rscale>
<asrwt>0</asrwt>
<pdfrwt beam="1">  1        2 0.58557741E+00 0.35865067E+04</pdfrwt>
<pdfrwt beam="2">  1       -2 0.12997872E+00 0.35865067E+04</pdfrwt>
<totfact> 0.17179693E-01</totfact>
</mgrwt>
</event>
<event>
12    1  0.1097093E-007  0.1430839E+04  0.7818608E-02  0.8931793E-01
         -2   -1    0    0    0  501 -0.00000000000E+00  0.00000000000E+00  0.23001273392E+03  0.23001273392E+03  0.00000000000E+00 0.  1.
          2   -1    0    0  501    0  0.00000000000E+00 -0.00000000000E+00 -0.22252024558E+04  0.22252024558E+04  0.00000000000E+00 0. -1.
         23    2    1    2    0    0  0.19609256667E+03  0.76192597622E+02 -0.12304748046E+04  0.12515972405E+04  0.90386951986E+02 0.  0.
        254    2    1    2    0    0 -0.19609256667E+03 -0.76192597622E+02 -0.76471491730E+03  0.12036179492E+04  0.90534504821E+03 0.  0.
        -24    2    4    4    0    0 -0.31638019664E+03 -0.16904264066E+03  0.50346987544E+02  0.37073943773E+03  0.79000432577E+02 0.  0.
         24    2    4    4    0    0  0.12028762997E+03  0.92850043041E+02 -0.81506190485E+03  0.83287851149E+03  0.79186247253E+02 0.  0.
         11    1    3    3    0    0  0.24941017679E+02 -0.92868721935E+01 -0.32745541972E+03  0.32853516138E+03  0.00000000000E+00 0. -1.
        -11    1    3    3    0    0  0.17115154899E+03  0.85479469816E+02 -0.90301938484E+03  0.92306207910E+03  0.00000000000E+00 0.  1.
          2    1    6    6  502    0  0.34528651002E+02  0.73241752940E+02 -0.46058442433E+03  0.46764793814E+03  0.00000000000E+00 0. -1.
          3    1    5    5  503    0 -0.21681860106E+03 -0.13079931466E+03  0.69039253555E+02  0.26245987315E+03  0.00000000000E+00 0. -1.
         -4    1    5    5    0  503 -0.99561595580E+02 -0.38243326003E+02 -0.18692266010E+02  0.10827956459E+03  0.00000000000E+00 0.  1.
         -1    1    6    6    0  502  0.85758978972E+02  0.19608290102E+02 -0.35447748052E+03  0.36523057335E+03  0.00000000000E+00 0.  1.
<mgrwt>
<rscale>  0 0.14308388E+04</rscale>
<asrwt>0</asrwt>
<pdfrwt beam="1">  1        2 0.34233884E+00 0.14308388E+04</pdfrwt>
<pdfrwt beam="2">  1       -2 0.35386574E-01 0.14308388E+04</pdfrwt>
<totfact> 0.36461994E+01</totfact>
</mgrwt>
</event>
<event>
12    1  0.1097093E-007  0.2332995E+04  0.7818608E-02  0.8465024E-01
          1   -1    0    0  501    0  0.00000000000E+00  0.00000000000E+00  0.60938852002E+03  0.60938852002E+03  0.00000000000E+00 0. -1.
         -1   -1    0    0    0  501 -0.00000000000E+00 -0.00000000000E+00 -0.22329212893E+04  0.22329212893E+04  0.00000000000E+00 0.  1.
         23    2    1    2    0    0  0.86612514619E+03  0.59774038077E+02 -0.12692443151E+04  0.15406922418E+04  0.94898619067E+02 0.  0.
        254    2    1    2    0    0 -0.86612514619E+03 -0.59774038077E+02 -0.35428845413E+03  0.13016175675E+04  0.90274153490E+03 0.  0.
        -24    2    4    4    0    0  0.12708263060E+03  0.15186691120E+03  0.25801276433E+02  0.21441711266E+03  0.78073290036E+02 0.  0.
         24    2    4    4    0    0 -0.99320777679E+03 -0.21164094928E+03 -0.38008973057E+03  0.10872004549E+04  0.79265670139E+02 0.  0.
         11    1    3    3    0    0  0.11332681034E+03 -0.21060730877E+02 -0.14420134760E+03  0.18460917902E+03  0.00000000000E+00 0.  1.
        -11    1    3    3    0    0  0.75279833585E+03  0.80834768953E+02 -0.11250429675E+04  0.13560830627E+04  0.00000000000E+00 0. -1.
          2    1    6    6  502    0 -0.92088262863E+03 -0.21596236511E+03 -0.35944781951E+03  0.10118632782E+04  0.00000000000E+00 0. -1.
          1    1    5    5  503    0  0.98428476469E+02  0.13953437555E+03  0.46504914425E+02  0.17697659169E+03  0.00000000000E+00 0. -1.
         -2    1    5    5    0  503  0.28654154129E+02  0.12332535656E+02 -0.20703637992E+02  0.37440520972E+02  0.00000000000E+00 0.  1.
         -1    1    6    6    0  502 -0.72325148159E+02  0.43214158331E+01 -0.20641911059E+02  0.75337176634E+02  0.00000000000E+00 0.  1.
<mgrwt>
<rscale>  0 0.23329952E+04</rscale>
<asrwt>0</asrwt>
<pdfrwt beam="1">  1        1 0.93752080E-01 0.23329952E+04</pdfrwt>
<pdfrwt beam="2">  1       -1 0.34352635E+00 0.23329952E+04</pdfrwt>
<totfact> 0.51787207E-01</totfact>
</mgrwt>
</event>
<event>
12    1  0.1097093E-007  0.2745361E+04  0.7818608E-02  0.8320435E-01
          2   -1    0    0  501    0  0.00000000000E+00  0.00000000000E+00  0.16513000725E+04  0.16513000725E+04  0.00000000000E+00 0. -1.
         -2   -1    0    0    0  501 -0.00000000000E+00 -0.00000000000E+00 -0.11410713172E+04  0.11410713172E+04  0.00000000000E+00 0.  1.
         23    2    1    2    0    0 -0.79852400699E+03 -0.33393917973E+03  0.10957650712E+04  0.13994265009E+04  0.92398456108E+02 0.  0.
        254    2    1    2    0    0  0.79852400699E+03  0.33393917973E+03 -0.58553631589E+03  0.13929448889E+04  0.92102482087E+03 0.  0.
        -24    2    4    4    0    0  0.11460098349E+03 -0.15616017497E+03  0.16133440525E+03  0.26512003229E+03  0.82100277330E+02 0.  0.
         24    2    4    4    0    0  0.68392302351E+03  0.49009935470E+03 -0.74687072114E+03  0.11278248566E+04  0.78898374126E+02 0.  0.
         11    1    3    3    0    0 -0.81406217156E+02 -0.58733103142E+02  0.15866608999E+03  0.18775376883E+03  0.00000000000E+00 0.  1.
        -11    1    3    3    0    0 -0.71711778984E+03 -0.27520607659E+03  0.93709898119E+03  0.12116727321E+04  0.00000000000E+00 0. -1.
          4    1    6    6  502    0  0.45258777914E+03  0.27745393544E+03 -0.47084476286E+03  0.70958521322E+03  0.00000000000E+00 0. -1.
          1    1    5    5  503    0  0.10507897581E+03 -0.16368206615E+03  0.16175462981E+03  0.25297820104E+03  0.00000000000E+00 0. -1.
         -2    1    5    5    0  503  0.95220076815E+01  0.75218911836E+01 -0.42022455880E+00  0.12141831243E+02  0.00000000000E+00 0.  1.
         -3    1    6    6    0  502  0.23133524437E+03  0.21264541926E+03 -0.27602595829E+03  0.41823964335E+03  0.00000000000E+00 0.  1.
<mgrwt>
<rscale>  0 0.27453606E+04</rscale>
<asrwt>0</asrwt>
<pdfrwt beam="1">  1        2 0.25404617E+00 0.27453606E+04</pdfrwt>
<pdfrwt beam="2">  1       -2 0.17554943E+00 0.27453606E+04</pdfrwt>
<totfact> 0.17772129E+00</totfact>
</mgrwt>
</event>
<event>
12    1  0.1097093E-007  0.1551650E+04  0.7818608E-02  0.8850814E-01
         -1   -1    0    0    0  501 -0.00000000000E+00  0.00000000000E+00  0.10043035007E+04  0.10043035007E+04  0.00000000000E+00 0.  1.
          1   -1    0    0  501    0  0.00000000000E+00 -0.00000000000E+00 -0.59932558427E+03  0.59932558427E+03  0.00000000000E+00 0. -1.
         23    2    1    2    0    0  0.82429316632E+02 -0.13916891299E+03  0.63439536057E+03  0.66110060281E+03  0.91836566474E+02 0.  0.
        254    2    1    2    0    0 -0.82429316632E+02  0.13916891299E+03 -0.22941744413E+03  0.94252848217E+03  0.89975829946E+03 0.  0.
        -24    2    4    4    0    0 -0.26869544816E+03  0.43914284320E+03 -0.13448274399E+02  0.52125220924E+03  0.80494279056E+02 0.  0.
         24    2    4    4    0    0  0.18626613153E+03 -0.29997393021E+03 -0.21596916974E+03  0.42127627292E+03  0.78432042511E+02 0.  0.
         13    1    3    3    0    0  0.12266655934E+02  0.13048677156E+02  0.48445238310E+02  0.51649587977E+02  0.00000000000E+00 0. -1.
        -13    1    3    3    0    0  0.70162660698E+02 -0.15221759014E+03  0.58595012226E+03  0.60945101483E+03  0.00000000000E+00 0.  1.
          2    1    6    6  502    0  0.14852414652E+03 -0.19147126348E+03 -0.17656653455E+03  0.29982729689E+03  0.00000000000E+00 0. -1.
          1    1    5    5  503    0 -0.26354830869E+03  0.38582284957E+03 -0.69886843865E+01  0.46729629142E+03  0.00000000000E+00 0. -1.
         -2    1    5    5    0  503 -0.51471394746E+01  0.53319993629E+02 -0.64595900126E+01  0.53955917827E+02  0.00000000000E+00 0.  1.
         -1    1    6    6    0  502  0.37741985010E+02 -0.10850266673E+03 -0.39402635182E+02  0.12144897603E+03  0.00000000000E+00 0.  1.
<mgrwt>
<rscale>  0 0.15516505E+04</rscale>
<asrwt>0</asrwt>
<pdfrwt beam="1">  1        1 0.92203936E-01 0.15516505E+04</pdfrwt>
<pdfrwt beam="2">  1       -1 0.15450823E+00 0.15516505E+04</pdfrwt>
<totfact> 0.10638354E+01</totfact>
</mgrwt>
</event>
<event>
12    1  0.1097093E-007  0.1625826E+04  0.7818608E-02  0.8804837E-01
          1   -1    0    0  501    0  0.00000000000E+00  0.00000000000E+00  0.12439099328E+04  0.12439099328E+04  0.00000000000E+00 0. -1.
         -1   -1    0    0    0  501 -0.00000000000E+00 -0.00000000000E+00 -0.53125048354E+03  0.53125048354E+03  0.00000000000E+00 0.  1.
         23    2    1    2    0    0  0.40719963912E+03 -0.38635984588E+03  0.19880227816E+03  0.60255026063E+03  0.91972790463E+02 0.  0.
        254    2    1    2    0    0 -0.40719963912E+03  0.38635984588E+03  0.51385717108E+03  0.11726101557E+04  0.89212101666E+03 0.  0.
        -24    2    4    4    0    0 -0.39860011529E+03  0.57994197967E+03  0.10805037386E+03  0.71587375328E+03  0.74736842632E+02 0.  0.
         24    2    4    4    0    0 -0.85995238315E+01 -0.19358213380E+03  0.40580679723E+03  0.45673640242E+03  0.79881100911E+02 0.  0.
         13    1    3    3    0    0  0.37165905310E+03 -0.38099350391E+03  0.19290542830E+03  0.56612631632E+03  0.00000000000E+00 0.  1.
        -13    1    3    3    0    0  0.35540586018E+02 -0.53663419690E+01  0.58968498617E+01  0.36423944308E+02  0.00000000000E+00 0. -1.
          2    1    6    6  502    0  0.29198139607E+02 -0.70906663588E+02  0.19978347551E+03  0.21399468074E+03  0.00000000000E+00 0. -1.
          3    1    5    5  503    0 -0.85189629869E+02  0.16455599255E+03  0.47404843772E+01  0.18536024362E+03  0.00000000000E+00 0. -1.
         -4    1    5    5    0  503 -0.31341048542E+03  0.41538598712E+03  0.10330988948E+03  0.53051350966E+03  0.00000000000E+00 0.  1.
         -1    1    6    6    0  502 -0.37797663439E+02 -0.12267547021E+03  0.20602332172E+03  0.24274172168E+03  0.00000000000E+00 0.  1.
<mgrwt>
<rscale>  0 0.16258263E+04</rscale>
<asrwt>0</asrwt>
<pdfrwt beam="1">  1        1 0.19137076E+00 0.16258263E+04</pdfrwt>
<pdfrwt beam="2">  1       -1 0.81730844E-01 0.16258263E+04</pdfrwt>
<totfact> 0.14164327E+01</totfact>
</mgrwt>
</event>
<event>
12    1  0.1097093E-007  0.1902079E+04  0.7818608E-02  0.8653822E-01
         -1   -1    0    0    0  501 -0.00000000000E+00  0.00000000000E+00  0.21323995304E+04  0.21323995304E+04  0.00000000000E+00 0. -1.
          1   -1    0    0  501    0  0.00000000000E+00 -0.00000000000E+00 -0.42415863434E+03  0.42415863434E+03  0.00000000000E+00 0.  1.
         23    2    1    2    0    0  0.26573496310E+03  0.39039555373E+03  0.14180875117E+04  0.14975186845E+04  0.92554096316E+02 0.  0.
        254    2    1    2    0    0 -0.26573496310E+03 -0.39039555373E+03  0.29015338435E+03  0.10590394802E+04  0.90241446971E+03 0.  0.
        -24    2    4    4    0    0  0.32158287345E+03 -0.21794559719E+03  0.69340725602E+02  0.40348076244E+03  0.84099712256E+02 0.  0.
         24    2    4    4    0    0 -0.58731783655E+03 -0.17244995655E+03  0.22081265874E+03  0.65555871774E+03  0.79484422958E+02 0.  0.
         13    1    3    3    0    0  0.21878469799E+03  0.29951070205E+03  0.98516154159E+03  0.10526712059E+04  0.00000000000E+00 0. -1.
        -13    1    3    3    0    0  0.46950265116E+02  0.90884851678E+02  0.43292597008E+03  0.44484747861E+03  0.00000000000E+00 0.  1.
          2    1    6    6  502    0 -0.43902235151E+03 -0.96421546421E+02  0.17841792379E+03  0.48360179411E+03  0.00000000000E+00 0. -1.
          3    1    5    5  503    0  0.19556980690E+03 -0.17937924964E+03  0.38701904544E+02  0.26818333652E+03  0.00000000000E+00 0. -1.
         -4    1    5    5    0  503  0.12601306655E+03 -0.38566347549E+02  0.30638821058E+02  0.13529742592E+03  0.00000000000E+00 0.  1.
         -1    1    6    6    0  502 -0.14829548504E+03 -0.76028410126E+02  0.42394734953E+02  0.17195692363E+03  0.00000000000E+00 0.  1.
<mgrwt>
<rscale>  0 0.19020785E+04</rscale>
<asrwt>0</asrwt>
<pdfrwt beam="1">  1        1 0.65255176E-01 0.19020785E+04</pdfrwt>
<pdfrwt beam="2">  1       -1 0.32806146E+00 0.19020785E+04</pdfrwt>
<totfact> 0.11263360E+00</totfact>
</mgrwt>
</event>
<event>
12    1  0.1097093E-007  0.3103168E+04  0.7818608E-02  0.8214869E-01
          2   -1    0    0  501    0  0.00000000000E+00  0.00000000000E+00  0.14068088553E+04  0.14068088553E+04  0.00000000000E+00 0. -1.
         -2   -1    0    0    0  501 -0.00000000000E+00 -0.00000000000E+00 -0.17112584480E+04  0.17112584480E+04  0.00000000000E+00 0.  1.
         23    2    1    2    0    0 -0.78844195073E+03 -0.15753491020E+03 -0.13186732898E+04  0.15472110078E+04  0.92220929277E+02 0.  0.
        254    2    1    2    0    0  0.78844195073E+03  0.15753491020E+03  0.10142236971E+04  0.15708562956E+04  0.89021448883E+03 0.  0.
        -24    2    4    4    0    0  0.47906301021E+03  0.52293635712E+03  0.58514059454E+03  0.92298623062E+03  0.80933708520E+02 0.  0.
         24    2    4    4    0    0  0.30937894051E+03 -0.36540144692E+03  0.42908310253E+03  0.64787006499E+03  0.79936011815E+02 0.  0.
         13    1    3    3    0    0 -0.62105109936E+03 -0.11390550993E+03 -0.96047773182E+03  0.11494330805E+04  0.00000000000E+00 0.  1.
        -13    1    3    3    0    0 -0.16739085137E+03 -0.43629400270E+02 -0.35819555795E+03  0.39777792728E+03  0.00000000000E+00 0. -1.
          2    1    6    6  502    0  0.15970599706E+03 -0.13001543191E+03  0.19729491959E+03  0.28519344895E+03  0.00000000000E+00 0. -1.
          1    1    5    5  503    0  0.42563950836E+02  0.85558185310E+02  0.69192083460E+02  0.11798066536E+03  0.00000000000E+00 0. -1.
         -2    1    5    5    0  503  0.43649905938E+03  0.43737817181E+03  0.51594851108E+03  0.80500556526E+03  0.00000000000E+00 0.  1.
         -1    1    6    6    0  502  0.14967294345E+03 -0.23538601501E+03  0.23178818294E+03  0.36267661603E+03  0.00000000000E+00 0.  1.
<mgrwt>
<rscale>  0 0.31031684E+04</rscale>
<asrwt>0</asrwt>
<pdfrwt beam="1">  1        2 0.21643213E+00 0.31031684E+04</pdfrwt>
<pdfrwt beam="2">  1       -2 0.26327053E+00 0.31031684E+04</pdfrwt>
<totfact> 0.64857861E-01</totfact>
</mgrwt>
</event>
<event>
12    1  0.1097093E-007  0.2465556E+04  0.7818608E-02  0.8415360E-01
          1   -1    0    0  501    0  0.00000000000E+00  0.00000000000E+00  0.37726935099E+04  0.37726935099E+04  0.00000000000E+00 0. -1.
         -1   -1    0    0    0  501 -0.00000000000E+00 -0.00000000000E+00 -0.40282658695E+03  0.40282658695E+03  0.00000000000E+00 0.  1.
         23    2    1    2    0    0 -0.97155777536E+03  0.39326914594E+03  0.11345644932E+04  0.15472969667E+04  0.91138258081E+02 0.  0.
        254    2    1    2    0    0  0.97155777536E+03 -0.39326914594E+03  0.22353024298E+04  0.26282231301E+04  0.90132942766E+03 0.  0.
        -24    2    4    4    0    0  0.33081623669E+03  0.34579572576E+02  0.98684952969E+02  0.35552249560E+03  0.77604095499E+02 0.  0.
         24    2    4    4    0    0  0.64074153866E+03 -0.42784871851E+03  0.21366174768E+04  0.22727006345E+04  0.80185326907E+02 0.  0.
         11    1    3    3    0    0 -0.83015486928E+03  0.34668821108E+03  0.10153426479E+04  0.13565657062E+04  0.00000000000E+00 0.  1.
        -11    1    3    3    0    0 -0.14140290607E+03  0.46580934861E+02  0.11922184525E+03  0.19073126048E+03  0.00000000000E+00 0. -1.
          2    1    6    6  502    0  0.73622533495E+02 -0.20712037215E+02  0.21424097940E+03  0.22748288546E+03  0.00000000000E+00 0. -1.
          3    1    5    5  503    0  0.19410294264E+03 -0.20322302049E+00  0.90643733048E+02  0.21422483512E+03  0.00000000000E+00 0. -1.
         -4    1    5    5    0  503  0.13671329406E+03  0.34782795596E+02  0.80412199208E+01  0.14129766049E+03  0.00000000000E+00 0.  1.
         -1    1    6    6    0  502  0.56711900517E+03 -0.40713668130E+03  0.19223764974E+04  0.20452177491E+04  0.00000000000E+00 0.  1.
<mgrwt>
<rscale>  0 0.24655557E+04</rscale>
<asrwt>0</asrwt>
<pdfrwt beam="1">  1        1 0.58041436E+00 0.24655557E+04</pdfrwt>
<pdfrwt beam="2">  1       -1 0.61973323E-01 0.24655557E+04</pdfrwt>
<totfact> 0.35420073E-01</totfact>
</mgrwt>
</event>
<event>
12    1  0.1097093E-007  0.3511511E+04  0.7818608E-02  0.8111067E-01
          1   -1    0    0  501    0  0.00000000000E+00  0.00000000000E+00  0.23253373438E+04  0.23253373438E+04  0.00000000000E+00 0. -1.
         -1   -1    0    0    0  501 -0.00000000000E+00 -0.00000000000E+00 -0.13256901604E+04  0.13256901604E+04  0.00000000000E+00 0.  1.
         23    2    1    2    0    0  0.11821485061E+04 -0.10622001821E+04  0.57469629834E+02  0.15931615985E+04  0.95481952837E+02 0.  0.
        254    2    1    2    0    0 -0.11821485061E+04  0.10622001821E+04  0.94217755357E+03  0.20578659056E+04  0.90629422691E+03 0.  0.
        -24    2    4    4    0    0 -0.76714966565E+03  0.13113572690E+03  0.24435308634E+03  0.81967021756E+03  0.80222480437E+02 0.  0.
         24    2    4    4    0    0 -0.41499884042E+03  0.93106445522E+03  0.69782446723E+03  0.12381956881E+04  0.84050684287E+02 0.  0.
         13    1    3    3    0    0  0.20231636422E+03 -0.14341933386E+03  0.28575044140E+02  0.24963483271E+03  0.00000000000E+00 0.  1.
        -13    1    3    3    0    0  0.97983214185E+03 -0.91878084827E+03  0.28894585694E+02  0.13435267658E+04  0.00000000000E+00 0. -1.
          4    1    6    6  502    0 -0.82528367804E+02  0.26214323678E+03  0.16362477360E+03  0.31984851823E+03  0.00000000000E+00 0. -1.
          3    1    5    5  503    0 -0.11755801007E+03  0.38913648589E+02  0.15499391225E+02  0.12479739143E+03  0.00000000000E+00 0. -1.
         -4    1    5    5    0  503 -0.64959165558E+03  0.92222078311E+02  0.22885369511E+03  0.69487282613E+03  0.00000000000E+00 0.  1.
         -3    1    6    6    0  502 -0.33247047262E+03  0.66892121844E+03  0.53419969363E+03  0.91834716982E+03  0.00000000000E+00 0.  1.
<mgrwt>
<rscale>  0 0.35115107E+04</rscale>
<asrwt>0</asrwt>
<pdfrwt beam="1">  1        1 0.35774421E+00 0.35115107E+04</pdfrwt>
<pdfrwt beam="2">  1       -1 0.20395233E+00 0.35115107E+04</pdfrwt>
<totfact> 0.20603311E-01</totfact>
</mgrwt>
</event>
<event>
12    1  0.1097093E-007  0.1760976E+04  0.7818608E-02  0.8727332E-01
         -2   -1    0    0    0  501 -0.00000000000E+00  0.00000000000E+00  0.47082653324E+03  0.47082653324E+03  0.00000000000E+00 0.  1.
          2   -1    0    0  501    0  0.00000000000E+00 -0.00000000000E+00 -0.16465909239E+04  0.16465909239E+04  0.00000000000E+00 0. -1.
         23    2    1    2    0    0 -0.20320671207E+02 -0.37671660872E+03 -0.10666320995E+04  0.11349229374E+04  0.89541639748E+02 0.  0.
        254    2    1    2    0    0  0.20320671207E+02  0.37671660872E+03 -0.10913229112E+03  0.98249451968E+03  0.90058719248E+03 0.  0.
        -24    2    4    4    0    0 -0.26805619102E+03  0.52825268308E+03  0.70823354231E+02  0.60208826443E+03  0.81174576889E+02 0.  0.
         24    2    4    4    0    0  0.28837686222E+03 -0.15153607436E+03 -0.17995564535E+03  0.38040625525E+03  0.78743179006E+02 0.  0.
         13    1    3    3    0    0  0.37122118401E+00 -0.70400122786E+01 -0.14124663151E+01  0.71898984097E+01  0.00000000000E+00 0.  1.
        -13    1    3    3    0    0 -0.20691892391E+02 -0.36967659645E+03 -0.10652196332E+04  0.11277330390E+04  0.00000000000E+00 0. -1.
          2    1    6    6  502    0  0.70266185802E+02 -0.70522832833E+02 -0.31536926066E+02  0.10442884910E+03  0.00000000000E+00 0. -1.
          3    1    5    5  503    0 -0.15723934831E+03  0.28930433686E+03 -0.24714582515E+00  0.32927385724E+03  0.00000000000E+00 0. -1.
         -4    1    5    5    0  503 -0.11081684270E+03  0.23894834623E+03  0.71070500056E+02  0.27281440719E+03  0.00000000000E+00 0.  1.
         -3    1    6    6    0  502  0.21811067642E+03 -0.81013241525E+02 -0.14841871929E+03  0.27597740615E+03  0.00000000000E+00 0.  1.
<mgrwt>
<rscale>  0 0.17609755E+04</rscale>
<asrwt>0</asrwt>
<pdfrwt beam="1">  1        2 0.25332168E+00 0.17609755E+04</pdfrwt>
<pdfrwt beam="2">  1       -2 0.72434852E-01 0.17609755E+04</pdfrwt>
<totfact> 0.17150785E+01</totfact>
</mgrwt>
</event>
<event>
12    1  0.1097093E-007  0.1896675E+04  0.7818608E-02  0.8656513E-01
         -2   -1    0    0    0  501 -0.00000000000E+00  0.00000000000E+00  0.49972301261E+03  0.49972301261E+03  0.00000000000E+00 0.  1.
          2   -1    0    0  501    0  0.00000000000E+00 -0.00000000000E+00 -0.17996844591E+04  0.17996844591E+04  0.00000000000E+00 0. -1.
         23    2    1    2    0    0 -0.53071048094E+03 -0.48699530803E+03 -0.71205335619E+03  0.10168990515E+04  0.90805584920E+02 0.  0.
        254    2    1    2    0    0  0.53071048094E+03  0.48699530803E+03 -0.58790809032E+03  0.12825084202E+04  0.88338772953E+03 0.  0.
        -24    2    4    4    0    0 -0.56587674267E+02  0.49156777488E+03 -0.91842302118E+02  0.50965884131E+03  0.80474119396E+02 0.  0.
         24    2    4    4    0    0  0.58729815520E+03 -0.45724668496E+01 -0.49606578820E+03  0.77284957892E+03  0.79216001246E+02 0.  0.
         11    1    3    3    0    0 -0.52283501120E+03 -0.49075748272E+03 -0.70078612535E+03  0.10026467719E+04  0.00000000000E+00 0. -1.
        -11    1    3    3    0    0 -0.78754697318E+01  0.37621746897E+01 -0.11267230845E+02  0.14252279565E+02  0.00000000000E+00 0.  1.
          4    1    6    6  502    0  0.46825590232E+03  0.22511680935E+02 -0.36862514944E+03  0.59636806306E+03  0.00000000000E+00 0. -1.
          1    1    5    5  503    0 -0.27973518821E+02  0.44941876334E+03 -0.79697398100E+02  0.45728701913E+03  0.00000000000E+00 0. -1.
         -2    1    5    5    0  503 -0.28614155446E+02  0.42149011536E+02 -0.12144904018E+02  0.52371822185E+02  0.00000000000E+00 0.  1.
         -3    1    6    6    0  502  0.11904225289E+03 -0.27084147785E+02 -0.12744063876E+03  0.17648151586E+03  0.00000000000E+00 0.  1.
<mgrwt>
<rscale>  0 0.18966747E+04</rscale>
<asrwt>0</asrwt>
<pdfrwt beam="1">  1        2 0.27687454E+00 0.18966747E+04</pdfrwt>
<pdfrwt beam="2">  1       -2 0.76880462E-01 0.18966747E+04</pdfrwt>
<totfact> 0.12219587E+01</totfact>
</mgrwt>
</event>
<event>
12    1  0.1097093E-007  0.1291981E+04  0.7818608E-02  0.9035949E-01
          2   -1    0    0  501    0  0.00000000000E+00  0.00000000000E+00  0.18116120007E+04  0.18116120007E+04  0.00000000000E+00 0. -1.
         -2   -1    0    0    0  501 -0.00000000000E+00 -0.00000000000E+00 -0.23034926587E+03  0.23034926587E+03  0.00000000000E+00 0.  1.
         23    2    1    2    0    0  0.21745525236E+03 -0.62483864164E+02  0.45398823758E+02  0.24833336342E+03  0.91746313993E+02 0.  0.
        254    2    1    2    0    0 -0.21745525236E+03  0.62483864164E+02  0.15358639111E+04  0.17936279032E+04  0.89834964326E+03 0.  0.
        -24    2    4    4    0    0 -0.40428075831E+03 -0.20284045188E+03  0.13163363489E+04  0.13937301426E+04  0.71799349799E+02 0.  0.
         24    2    4    4    0    0  0.18682550596E+03  0.26532431604E+03  0.21952756223E+03  0.39989776055E+03  0.80156758635E+02 0.  0.
         11    1    3    3    0    0  0.19041089016E+02 -0.24406524789E+02  0.33994680670E+02  0.45976948976E+02  0.00000000000E+00 0. -1.
        -11    1    3    3    0    0  0.19841416334E+03 -0.38077339375E+02  0.11404143088E+02  0.20235641445E+03  0.00000000000E+00 0.  1.
          2    1    6    6  502    0  0.44940389867E+02  0.57431870769E+02  0.12481139209E+02  0.73985385431E+02  0.00000000000E+00 0. -1.
          3    1    5    5  503    0 -0.90041054225E+02 -0.78991399821E+02  0.37181269032E+03  0.39062988797E+03  0.00000000000E+00 0. -1.
         -4    1    5    5    0  503 -0.31423970409E+03 -0.12384905206E+03  0.94452365855E+03  0.10031002546E+04  0.00000000000E+00 0.  1.
         -1    1    6    6    0  502  0.14188511609E+03  0.20789244527E+03  0.20704642303E+03  0.32591237512E+03  0.00000000000E+00 0.  1.
<mgrwt>
<rscale>  0 0.12919806E+04</rscale>
<asrwt>0</asrwt>
<pdfrwt beam="1">  1        2 0.27870953E+00 0.12919806E+04</pdfrwt>
<pdfrwt beam="2">  1       -2 0.35438350E-01 0.12919806E+04</pdfrwt>
<totfact> 0.62375169E+01</totfact>
</mgrwt>
</event>
<event>
12    1  0.1097093E-007  0.1348226E+04  0.7818608E-02  0.8992172E-01
          1   -1    0    0  501    0  0.00000000000E+00  0.00000000000E+00  0.12256201614E+04  0.12256201614E+04  0.00000000000E+00 0. -1.
         -1   -1    0    0    0  501 -0.00000000000E+00 -0.00000000000E+00 -0.37077434088E+03  0.37077434088E+03  0.00000000000E+00 0.  1.
         23    2    1    2    0    0 -0.32520072998E+03 -0.15715364368E+03  0.13575158092E+03  0.39629779690E+03  0.90391756303E+02 0.  0.
        254    2    1    2    0    0  0.32520072998E+03  0.15715364368E+03  0.71909423958E+03  0.12000967054E+04  0.89032735234E+03 0.  0.
        -24    2    4    4    0    0  0.46579880556E+03  0.15662215014E+03  0.37836120823E+02  0.49946769295E+03  0.80854060461E+02 0.  0.
         24    2    4    4    0    0 -0.14059807558E+03  0.53149353737E+00  0.68125811876E+03  0.70062901240E+03  0.83667719642E+02 0.  0.
         11    1    3    3    0    0 -0.14106278085E+03 -0.29300346816E+02  0.81987234566E+02  0.16576828737E+03  0.00000000000E+00 0. -1.
        -11    1    3    3    0    0 -0.18413794912E+03 -0.12785329686E+03  0.53764346355E+02  0.23052950953E+03  0.00000000000E+00 0.  1.
          4    1    6    6  502    0 -0.37956035318E+02 -0.26917036062E+02  0.34121923083E+03  0.34437733801E+03  0.00000000000E+00 0. -1.
          3    1    5    5  503    0  0.69410842475E+01 -0.52362500511E+01 -0.65405997307E+01  0.10880092369E+02  0.00000000000E+00 0. -1.
         -4    1    5    5    0  503  0.45885772131E+03  0.16185840019E+03  0.44376720553E+02  0.48858760058E+03  0.00000000000E+00 0.  1.
         -3    1    6    6    0  502 -0.10264204026E+03  0.27448529599E+02  0.34003888793E+03  0.35625167439E+03  0.00000000000E+00 0.  1.
<mgrwt>
<rscale>  0 0.13482263E+04</rscale>
<asrwt>0</asrwt>
<pdfrwt beam="1">  1        1 0.18855695E+00 0.13482263E+04</pdfrwt>
<pdfrwt beam="2">  1       -1 0.57042207E-01 0.13482263E+04</pdfrwt>
<totfact> 0.31176066E+01</totfact>
</mgrwt>
</event>
<event>
12    1  0.1097093E-007  0.1392554E+04  0.7818608E-02  0.8959226E-01
         -2   -1    0    0    0  501 -0.00000000000E+00  0.00000000000E+00  0.39433150784E+03  0.39433150784E+03  0.00000000000E+00 0.  1.
          2   -1    0    0  501    0  0.00000000000E+00 -0.00000000000E+00 -0.12294274707E+04  0.12294274707E+04  0.00000000000E+00 0. -1.
         23    2    1    2    0    0 -0.14169710043E+03  0.30768361192E+03 -0.49255978431E+03  0.60467376866E+03  0.90928279833E+02 0.  0.
        254    2    1    2    0    0  0.14169710043E+03 -0.30768361192E+03 -0.34253617858E+03  0.10190852099E+04  0.89802915215E+03 0.  0.
        -24    2    4    4    0    0 -0.18344757830E+03  0.22972012240E+03 -0.14053639027E+02  0.30559536461E+03  0.82259792637E+02 0.  0.
         24    2    4    4    0    0  0.32514467873E+03 -0.53740373432E+03 -0.32848253956E+03  0.71348984530E+03  0.81517757525E+02 0.  0.
         13    1    3    3    0    0 -0.97203390500E+02  0.24787344100E+03 -0.43692261644E+03  0.51165526933E+03  0.00000000000E+00 0.  1.
        -13    1    3    3    0    0 -0.44493709934E+02  0.59810170922E+02 -0.55637167871E+02  0.93018499333E+02  0.00000000000E+00 0. -1.
          4    1    6    6  502    0  0.20188018517E+03 -0.26887107664E+03 -0.20069352927E+03  0.39156756468E+03  0.00000000000E+00 0. -1.
          1    1    5    5  503    0 -0.18205802822E+03  0.20127656714E+03 -0.29840973352E+02  0.27303455058E+03  0.00000000000E+00 0. -1.
         -2    1    5    5    0  503 -0.13895500705E+01  0.28443555260E+02  0.15787334325E+02  0.32560814030E+02  0.00000000000E+00 0.  1.
         -3    1    6    6    0  502  0.12326449356E+03 -0.26853265768E+03 -0.12778901029E+03  0.32192228062E+03  0.00000000000E+00 0.  1.
<mgrwt>
<rscale>  0 0.13925545E+04</rscale>
<asrwt>0</asrwt>
<pdfrwt beam="1">  1        2 0.18914268E+00 0.13925545E+04</pdfrwt>
<pdfrwt beam="2">  1       -2 0.60666388E-01 0.13925545E+04</pdfrwt>
<totfact> 0.44817933E+01</totfact>
</mgrwt>
</event>
<event>
12    1  0.1097093E-007  0.1455470E+04  0.7818608E-02  0.8914617E-01
         -2   -1    0    0    0  501 -0.00000000000E+00  0.00000000000E+00  0.18659466388E+03  0.18659466388E+03  0.00000000000E+00 0. -1.
          2   -1    0    0  501    0  0.00000000000E+00 -0.00000000000E+00 -0.28382290965E+04  0.28382290965E+04  0.00000000000E+00 0.  1.
         23    2    1    2    0    0 -0.15604111778E+03 -0.39348010360E+03 -0.12452571155E+04  0.13184585677E+04  0.92153614652E+02 0.  0.
        254    2    1    2    0    0  0.15604111778E+03  0.39348010360E+03 -0.14063773171E+04  0.17063651927E+04  0.86868267524E+03 0.  0.
        -24    2    4    4    0    0  0.12053992009E+02  0.36774424857E+03 -0.14776983152E+04  0.15250187207E+04  0.81906390094E+02 0.  0.
         24    2    4    4    0    0  0.14398712577E+03  0.25735855032E+02  0.71320998013E+02  0.18134647200E+03  0.80032690360E+02 0.  0.
         13    1    3    3    0    0 -0.72951441042E+02 -0.78999118944E+02 -0.28537693011E+03  0.30496354829E+03  0.00000000000E+00 0. -1.
        -13    1    3    3    0    0 -0.83089676741E+02 -0.31448098466E+03 -0.95988018535E+03  0.10134950194E+04  0.00000000000E+00 0.  1.
          2    1    6    6  502    0  0.89311011114E+02 -0.22044059856E+01  0.79265279908E+02  0.11943324793E+03  0.00000000000E+00 0. -1.
          1    1    5    5  503    0 -0.90008193801E+01  0.34776448903E+03 -0.13577457841E+04  0.14016043553E+04  0.00000000000E+00 0. -1.
         -2    1    5    5    0  503  0.21054811389E+02  0.19979759543E+02 -0.11995253107E+03  0.12341436538E+03  0.00000000000E+00 0.  1.
         -1    1    6    6    0  502  0.54676114661E+02  0.27940261017E+02 -0.79442818949E+01  0.61913224071E+02  0.00000000000E+00 0.  1.
<mgrwt>
<rscale>  0 0.14554702E+04</rscale>
<asrwt>0</asrwt>
<pdfrwt beam="1">  1        2 0.43665059E+00 0.14554702E+04</pdfrwt>
<pdfrwt beam="2">  1       -2 0.28706874E-01 0.14554702E+04</pdfrwt>
<totfact> 0.23800890E+01</totfact>
</mgrwt>
</event>
<event>
12    1  0.1097093E-007  0.2687023E+04  0.7818608E-02  0.8339228E-01
          1   -1    0    0  501    0  0.00000000000E+00  0.00000000000E+00  0.24331963235E+04  0.24331963235E+04  0.00000000000E+00 0. -1.
         -1   -1    0    0    0  501 -0.00000000000E+00 -0.00000000000E+00 -0.74183224151E+03  0.74183224151E+03  0.00000000000E+00 0.  1.
         23    2    1    2    0    0  0.84802976274E+03 -0.21039853363E+03 -0.19275992999E+03  0.89933503309E+03  0.90692280172E+02 0.  0.
        254    2    1    2    0    0 -0.84802976274E+03  0.21039853363E+03  0.18841240120E+04  0.22756935319E+04  0.93028798617E+03 0.  0.
        -24    2    4    4    0    0 -0.10368613800E+04  0.20874359341E+03  0.14607907281E+04  0.18052953679E+04  0.80786169300E+02 0.  0.
         24    2    4    4    0    0  0.18883161727E+03  0.16549402188E+01  0.42333328389E+03  0.47039816395E+03  0.80020277985E+02 0.  0.
         13    1    3    3    0    0  0.64749017537E+03 -0.17989052963E+03 -0.11339552376E+03  0.68151498491E+03  0.00000000000E+00 0.  1.
        -13    1    3    3    0    0  0.20053958738E+03 -0.30508003999E+02 -0.79364406234E+02  0.21782004818E+03  0.00000000000E+00 0. -1.
          2    1    6    6  502    0  0.15161903729E+03  0.21213030033E+02  0.38158387020E+03  0.41115030720E+03  0.00000000000E+00 0. -1.
          3    1    5    5  503    0 -0.98368419837E+03  0.19983266932E+03  0.14130067728E+04  0.17332500794E+04  0.00000000000E+00 0. -1.
         -4    1    5    5    0  503 -0.53177181648E+02  0.89109240910E+01  0.47783955242E+02  0.72045288498E+02  0.00000000000E+00 0.  1.
         -1    1    6    6    0  502  0.37212579983E+02 -0.19558089814E+02  0.41749413688E+02  0.59247856750E+02  0.00000000000E+00 0.  1.
<mgrwt>
<rscale>  0 0.26870232E+04</rscale>
<asrwt>0</asrwt>
<pdfrwt beam="1">  1        1 0.37433789E+00 0.26870232E+04</pdfrwt>
<pdfrwt beam="2">  1       -1 0.11412804E+00 0.26870232E+04</pdfrwt>
<totfact> 0.92052583E-01</totfact>
</mgrwt>
</event>
<event>
12    1  0.1097093E-007  0.2012374E+04  0.7818608E-02  0.8600857E-01
          2   -1    0    0  501    0  0.00000000000E+00  0.00000000000E+00  0.17645142097E+04  0.17645142097E+04  0.00000000000E+00 0. -1.
         -2   -1    0    0    0  501 -0.00000000000E+00 -0.00000000000E+00 -0.57376283915E+03  0.57376283915E+03  0.00000000000E+00 0.  1.
         23    2    1    2    0    0  0.25618353531E+02 -0.74851020038E+03  0.80334517456E+03  0.11021419064E+04  0.91812266923E+02 0.  0.
        254    2    1    2    0    0 -0.25618353531E+02  0.74851020038E+03  0.38740619595E+03  0.12361351424E+04  0.90389308516E+03 0.  0.
        -24    2    4    4    0    0  0.36061985577E+03  0.16153760884E+03  0.33996105192E+03  0.52740767836E+03  0.80276166652E+02 0.  0.
         24    2    4    4    0    0 -0.38623820930E+03  0.58697259154E+03  0.47445144037E+02  0.70872746400E+03  0.79541177974E+02 0.  0.
         13    1    3    3    0    0  0.53192400817E+02 -0.37896153059E+03  0.37574044789E+03  0.53630416496E+03  0.00000000000E+00 0. -1.
        -13    1    3    3    0    0 -0.27574047286E+02 -0.36954866979E+03  0.42760472667E+03  0.56583774149E+03  0.00000000000E+00 0.  1.
          4    1    6    6  502    0 -0.13062329908E+02  0.69337607927E+01  0.10284655858E+02  0.18013207585E+02  0.00000000000E+00 0. -1.
          1    1    5    5  503    0  0.29167437900E+02 -0.87933895633E+01  0.22694401492E+02  0.37988142791E+02  0.00000000000E+00 0. -1.
         -2    1    5    5    0  503  0.33145241787E+03  0.17033099840E+03  0.31726665043E+03  0.48941953557E+03  0.00000000000E+00 0.  1.
         -3    1    6    6    0  502 -0.37317587939E+03  0.58003883074E+03  0.37160488179E+02  0.69071425641E+03  0.00000000000E+00 0.  1.
<mgrwt>
<rscale>  0 0.20123744E+04</rscale>
<asrwt>0</asrwt>
<pdfrwt beam="1">  1        2 0.27146372E+00 0.20123744E+04</pdfrwt>
<pdfrwt beam="2">  1       -2 0.88271207E-01 0.20123744E+04</pdfrwt>
<totfact> 0.92610634E+00</totfact>
</mgrwt>
</event>
<event>
12    1  0.1097093E-007  0.2067080E+04  0.7818608E-02  0.8575885E-01
         -2   -1    0    0    0  501 -0.00000000000E+00  0.00000000000E+00  0.10393902602E+04  0.10393902602E+04  0.00000000000E+00 0. -1.
          2   -1    0    0  501    0  0.00000000000E+00 -0.00000000000E+00 -0.10277229884E+04  0.10277229884E+04  0.00000000000E+00 0.  1.
         23    2    1    2    0    0 -0.36716907897E+03  0.14595009467E+03 -0.69258763674E+03  0.80274396877E+03  0.92766815979E+02 0.  0.
        254    2    1    2    0    0  0.36716907897E+03 -0.14595009467E+03  0.70425490846E+03  0.12643692798E+04  0.97290294327E+03 0.  0.
        -24    2    4    4    0    0  0.50708824954E+03 -0.17795279472E+03  0.87385664904E+03  0.10290344762E+04  0.80503541402E+02 0.  0.
         24    2    4    4    0    0 -0.13991917057E+03  0.32002700058E+02 -0.16960174058E+03  0.23533480364E+03  0.77563988372E+02 0.  0.
         13    1    3    3    0    0 -0.14328977228E+03  0.22548022859E+02 -0.31457320369E+03  0.34640535887E+03  0.00000000000E+00 0. -1.
        -13    1    3    3    0    0 -0.22387930669E+03  0.12340207181E+03 -0.37801443305E+03  0.45633860990E+03  0.00000000000E+00 0.  1.
          4    1    6    6  502    0 -0.13436020764E+03  0.39537045161E+02 -0.17529618291E+03  0.22437601271E+03  0.00000000000E+00 0. -1.
          1    1    5    5  503    0  0.49336881849E+03 -0.16127004859E+03  0.85568168801E+03  0.10008056609E+04  0.00000000000E+00 0. -1.
         -2    1    5    5    0  503  0.13719431045E+02 -0.16682746137E+02  0.18174961033E+02  0.28228815339E+02  0.00000000000E+00 0.  1.
         -3    1    6    6    0  502 -0.55589629246E+01 -0.75343451034E+01  0.56944423356E+01  0.10958790921E+02  0.00000000000E+00 0.  1.
<mgrwt>
<rscale>  0 0.20670803E+04</rscale>
<asrwt>0</asrwt>
<pdfrwt beam="1">  1        2 0.15811123E+00 0.20670803E+04</pdfrwt>
<pdfrwt beam="2">  1       -2 0.15990619E+00 0.20670803E+04</pdfrwt>
<totfact> 0.56364877E+00</totfact>
</mgrwt>
</event>
<event>
12    1  0.1097093E-007  0.2677040E+04  0.7818608E-02  0.8342493E-01
         -1   -1    0    0    0  501 -0.00000000000E+00  0.00000000000E+00  0.10480225532E+04  0.10480225532E+04  0.00000000000E+00 0.  1.
          1   -1    0    0  501    0  0.00000000000E+00 -0.00000000000E+00 -0.17095390930E+04  0.17095390930E+04  0.00000000000E+00 0. -1.
         23    2    1    2    0    0 -0.97393049731E+03 -0.47420555711E+03 -0.78790526956E+03  0.13427224630E+04  0.93259717564E+02 0.  0.
        254    2    1    2    0    0  0.97393049731E+03  0.47420555711E+03  0.12638872981E+03  0.14148391832E+04  0.90132362621E+03 0.  0.
        -24    2    4    4    0    0  0.14515804422E+03  0.20174691494E+03 -0.33517061044E+03  0.42467313515E+03  0.78963650649E+02 0.  0.
         24    2    4    4    0    0  0.82877245309E+03  0.27245864217E+03  0.46155934026E+03  0.99016604800E+03  0.79336544786E+02 0.  0.
         11    1    3    3    0    0 -0.35993662207E+03 -0.15558436062E+03 -0.33659069559E+03  0.51677283359E+03  0.00000000000E+00 0.  1.
        -11    1    3    3    0    0 -0.61399387524E+03 -0.31862119649E+03 -0.45131457397E+03  0.82594962943E+03  0.00000000000E+00 0. -1.
          2    1    6    6  502    0  0.10697952122E+03  0.61859266555E+02  0.53208505838E+02  0.13454490668E+03  0.00000000000E+00 0. -1.
          3    1    5    5  503    0  0.48111585713E+02  0.20738387868E+02 -0.44354768804E+02  0.68645108543E+02  0.00000000000E+00 0. -1.
         -4    1    5    5    0  503  0.97046458505E+02  0.18100852707E+03 -0.29081584164E+03  0.35602802661E+03  0.00000000000E+00 0.  1.
         -1    1    6    6    0  502  0.72179293188E+03  0.21059937561E+03  0.40835083442E+03  0.85562114133E+03  0.00000000000E+00 0.  1.
<mgrwt>
<rscale>  0 0.26770398E+04</rscale>
<asrwt>0</asrwt>
<pdfrwt beam="1">  1        1 0.26300601E+00 0.26770398E+04</pdfrwt>
<pdfrwt beam="2">  1       -1 0.16123424E+00 0.26770398E+04</pdfrwt>
<totfact> 0.11748712E+00</totfact>
</mgrwt>
</event>
<event>
12    1  0.1097093E-007  0.2099767E+04  0.7818608E-02  0.8561346E-01
          1   -1    0    0  501    0  0.00000000000E+00  0.00000000000E+00  0.34967203088E+04  0.34967203088E+04  0.00000000000E+00 0. -1.
         -1   -1    0    0    0  501 -0.00000000000E+00 -0.00000000000E+00 -0.31522562526E+03  0.31522562526E+03  0.00000000000E+00 0.  1.
         23    2    1    2    0    0 -0.45629569441E+03 -0.17410049957E+03  0.25978239192E+02  0.49722072606E+03  0.89648406685E+02 0.  0.
        254    2    1    2    0    0  0.45629569441E+03  0.17410049957E+03  0.31555164444E+04  0.33147252080E+04  0.88972042199E+03 0.  0.
        -24    2    4    4    0    0 -0.18719129403E+03  0.26116990295E+03  0.14677744815E+04  0.15045479649E+04  0.77796859063E+02 0.  0.
         24    2    4    4    0    0  0.64348698844E+03 -0.87069403383E+02  0.16877419629E+04  0.18101772432E+04  0.81315023788E+02 0.  0.
         13    1    3    3    0    0 -0.74534302828E+02 -0.11091354377E+02 -0.24074032639E+02  0.79107139296E+02  0.00000000000E+00 0. -1.
        -13    1    3    3    0    0 -0.38176139158E+03 -0.16300914519E+03  0.50052271831E+02  0.41811358676E+03  0.00000000000E+00 0.  1.
          2    1    6    6  502    0  0.19476605371E+03 -0.45960507090E+01  0.42447456125E+03  0.46704774115E+03  0.00000000000E+00 0. -1.
          3    1    5    5  503    0 -0.67379632234E+02  0.12416316913E+03  0.80187393768E+03  0.81422252446E+03  0.00000000000E+00 0. -1.
         -4    1    5    5    0  503 -0.11981166180E+03  0.13700673382E+03  0.66590054381E+03  0.69032544040E+03  0.00000000000E+00 0.  1.
         -1    1    6    6    0  502  0.44872093474E+03 -0.82473352674E+02  0.12632674016E+04  0.13431295020E+04  0.00000000000E+00 0.  1.
<mgrwt>
<rscale>  0 0.20997675E+04</rscale>
<asrwt>0</asrwt>
<pdfrwt beam="1">  1        1 0.53795694E+00 0.20997675E+04</pdfrwt>
<pdfrwt beam="2">  1       -1 0.48496253E-01 0.20997675E+04</pdfrwt>
<totfact> 0.98695805E-01</totfact>
</mgrwt>
</event>
<event>
12    1  0.1097093E-007  0.2287459E+04  0.7818608E-02  0.8482882E-01
         -1   -1    0    0    0  501 -0.00000000000E+00  0.00000000000E+00  0.70662601193E+03  0.70662601193E+03  0.00000000000E+00 0.  1.
          1   -1    0    0  501    0  0.00000000000E+00 -0.00000000000E+00 -0.18512157452E+04  0.18512157452E+04  0.00000000000E+00 0. -1.
         23    2    1    2    0    0 -0.77991922736E+03  0.33131413408E+03 -0.10220922599E+04  0.13304660501E+04  0.86164180393E+02 0.  0.
        254    2    1    2    0    0  0.77991922736E+03 -0.33131413408E+03 -0.12249747336E+03  0.12273757070E+04  0.87943302111E+03 0.  0.
        -24    2    4    4    0    0  0.83160754177E+03 -0.52674490386E+03 -0.22069155528E+02  0.98779212925E+03  0.78834926911E+02 0.  0.
         24    2    4    4    0    0 -0.51688314408E+02  0.19543076978E+03 -0.10042831783E+03  0.23958357780E+03  0.80309252916E+02 0.  0.
         11    1    3    3    0    0 -0.18102821030E+03  0.11625000455E+03 -0.27291016729E+03  0.34751292910E+03  0.00000000000E+00 0.  1.
        -11    1    3    3    0    0 -0.59889101706E+03  0.21506412953E+03 -0.74918209261E+03  0.98295312096E+03  0.00000000000E+00 0. -1.
          2    1    6    6  502    0  0.11894998205E+02  0.11958079941E+02 -0.27303448210E+02  0.32093066888E+02  0.00000000000E+00 0. -1.
          3    1    5    5  503    0  0.13149268953E+03 -0.93147962713E+02 -0.31680338774E+02  0.16422702038E+03  0.00000000000E+00 0. -1.
         -4    1    5    5    0  503  0.70011485224E+03 -0.43359694115E+03  0.96111832460E+01  0.82356510887E+03  0.00000000000E+00 0.  1.
         -1    1    6    6    0  502 -0.63583312612E+02  0.18347268984E+03 -0.73124869625E+02  0.20749051091E+03  0.00000000000E+00 0.  1.
<mgrwt>
<rscale>  0 0.22874590E+04</rscale>
<asrwt>0</asrwt>
<pdfrwt beam="1">  1        1 0.28480242E+00 0.22874590E+04</pdfrwt>
<pdfrwt beam="2">  1       -1 0.10871170E+00 0.22874590E+04</pdfrwt>
<totfact> 0.26696596E+00</totfact>
</mgrwt>
</event>
<event>
12    1  0.1097093E-007  0.1939544E+04  0.7818608E-02  0.8635420E-01
         -1   -1    0    0    0  501 -0.00000000000E+00  0.00000000000E+00  0.51982553767E+03  0.51982553767E+03  0.00000000000E+00 0.  1.
          1   -1    0    0  501    0  0.00000000000E+00 -0.00000000000E+00 -0.18091788481E+04  0.18091788481E+04  0.00000000000E+00 0. -1.
         23    2    1    2    0    0  0.71994752556E+02  0.74553167956E+03 -0.60917356311E+03  0.97106521250E+03  0.10428080983E+03 0.  0.
        254    2    1    2    0    0 -0.71994752556E+02 -0.74553167956E+03 -0.68017974735E+03  0.13579391733E+04  0.90573372471E+03 0.  0.
        -24    2    4    4    0    0  0.35362102896E+03 -0.61070883144E+03 -0.32768998396E+03  0.78320748157E+03  0.89555148844E+02 0.  0.
         24    2    4    4    0    0 -0.42561578151E+03 -0.13482284812E+03 -0.35248976338E+03  0.57473169174E+03  0.82106579205E+02 0.  0.
         11    1    3    3    0    0  0.11175854145E+01  0.17378959290E+02 -0.41679205226E+02  0.45171156410E+02  0.00000000000E+00 0. -1.
        -11    1    3    3    0    0  0.70877167142E+02  0.72815272027E+03 -0.56749435789E+03  0.92589405609E+03  0.00000000000E+00 0.  1.
          2    1    6    6  502    0 -0.67494198524E+02  0.11636670055E+01 -0.79765168110E+02  0.10449546880E+03  0.00000000000E+00 0. -1.
          3    1    5    5  503    0  0.42576340206E+02 -0.99806862703E+02 -0.84463749241E+02  0.13750737989E+03  0.00000000000E+00 0. -1.
         -4    1    5    5    0  503  0.31104468875E+03 -0.51090196873E+03 -0.24322623472E+03  0.64570010168E+03  0.00000000000E+00 0.  1.
         -1    1    6    6    0  502 -0.35812158299E+03 -0.13598651513E+03 -0.27272459527E+03  0.47023622294E+03  0.00000000000E+00 0.  1.
<mgrwt>
<rscale>  0 0.19395436E+04</rscale>
<asrwt>0</asrwt>
<pdfrwt beam="1">  1        1 0.27833520E+00 0.19395436E+04</pdfrwt>
<pdfrwt beam="2">  1       -1 0.79973160E-01 0.19395436E+04</pdfrwt>
<totfact> 0.58449622E+00</totfact>
</mgrwt>
</event>
<event>
12    1  0.1097093E-007  0.1877636E+04  0.7818608E-02  0.8666069E-01
         -2   -1    0    0    0  501 -0.00000000000E+00  0.00000000000E+00  0.58614334217E+03  0.58614334217E+03  0.00000000000E+00 0.  1.
          2   -1    0    0  501    0  0.00000000000E+00 -0.00000000000E+00 -0.15036918640E+04  0.15036918640E+04  0.00000000000E+00 0. -1.
         23    2    1    2    0    0 -0.23132556086E+03 -0.42015636448E+03 -0.10501826414E+04  0.11581722660E+04  0.91850593810E+02 0.  0.
        254    2    1    2    0    0  0.23132556086E+03  0.42015636448E+03  0.13263411960E+03  0.93166294020E+03  0.78763007734E+03 0.  0.
        -24    2    4    4    0    0  0.12168387764E+03  0.56100367946E+02  0.42097881457E+03  0.44824176043E+03  0.75784537469E+02 0.  0.
         24    2    4    4    0    0  0.10964168322E+03  0.36405599653E+03 -0.28834469497E+03  0.48342117977E+03  0.77429365345E+02 0.  0.
         11    1    3    3    0    0 -0.46793881738E+02 -0.16900732062E+03 -0.41987347080E+03  0.45502403593E+03  0.00000000000E+00 0.  1.
        -11    1    3    3    0    0 -0.18453167912E+03 -0.25114904386E+03 -0.63030917062E+03  0.70314823003E+03  0.00000000000E+00 0. -1.
          4    1    6    6  502    0  0.82507151799E+02  0.14885094679E+03 -0.11038527261E+03  0.20285202210E+03  0.00000000000E+00 0. -1.
          1    1    5    5  503    0 -0.69600602659E+01 -0.76325825106E+01  0.25659326942E+02  0.27660437701E+02  0.00000000000E+00 0. -1.
         -2    1    5    5    0  503  0.12864393791E+03  0.63732950457E+02  0.39531948762E+03  0.42058132273E+03  0.00000000000E+00 0.  1.
         -3    1    6    6    0  502  0.27134531419E+02  0.21520504974E+03 -0.17795942235E+03  0.28056915767E+03  0.00000000000E+00 0.  1.
<mgrwt>
<rscale>  0 0.18776357E+04</rscale>
<asrwt>0</asrwt>
<pdfrwt beam="1">  1        2 0.23133721E+00 0.18776357E+04</pdfrwt>
<pdfrwt beam="2">  1       -2 0.90175898E-01 0.18776357E+04</pdfrwt>
<totfact> 0.12470369E+01</totfact>
</mgrwt>
</event>
<event>
12    1  0.1097093E-007  0.1334205E+04  0.7818608E-02  0.9002872E-01
         -2   -1    0    0    0  501 -0.00000000000E+00  0.00000000000E+00  0.63778608012E+03  0.63778608012E+03  0.00000000000E+00 0.  1.
          2   -1    0    0  501    0  0.00000000000E+00 -0.00000000000E+00 -0.69776621812E+03  0.69776621812E+03  0.00000000000E+00 0. -1.
         23    2    1    2    0    0 -0.31414035218E+03 -0.11203973141E+03  0.13115819286E+03  0.36985606089E+03  0.91400065309E+02 0.  0.
        254    2    1    2    0    0  0.31414035218E+03  0.11203973141E+03 -0.19113833086E+03  0.96569623735E+03  0.88588842357E+03 0.  0.
        -24    2    4    4    0    0  0.54927479728E+03  0.10809875688E+03  0.10945630383E+03  0.57586975147E+03  0.79102111571E+02 0.  0.
         24    2    4    4    0    0 -0.23513444509E+03  0.39409745331E+01 -0.30059463468E+03  0.38982648588E+03  0.79396575127E+02 0.  0.
         13    1    3    3    0    0 -0.15690648088E+03 -0.31749242416E+02  0.10483117508E+03  0.19135629962E+03  0.00000000000E+00 0. -1.
        -13    1    3    3    0    0 -0.15723387131E+03 -0.80290488992E+02  0.26327017781E+02  0.17849976127E+03  0.00000000000E+00 0.  1.
          4    1    6    6  502    0 -0.19326016256E+03  0.34390751651E+01 -0.28656816061E+03  0.34566259321E+03  0.00000000000E+00 0. -1.
          1    1    5    5  503    0  0.31115696641E+03  0.96836930674E+02  0.81001300118E+02  0.33579347747E+03  0.00000000000E+00 0. -1.
         -2    1    5    5    0  503  0.23811783086E+03  0.11261826201E+02  0.28455003707E+02  0.24007627400E+03  0.00000000000E+00 0.  1.
         -3    1    6    6    0  502 -0.41874282527E+02  0.50189936793E+00 -0.14026474073E+02  0.44163892662E+02  0.00000000000E+00 0.  1.
<mgrwt>
<rscale>  0 0.13342048E+04</rscale>
<asrwt>0</asrwt>
<pdfrwt beam="1">  1        2 0.10734865E+00 0.13342048E+04</pdfrwt>
<pdfrwt beam="2">  1       -2 0.98120936E-01 0.13342048E+04</pdfrwt>
<totfact> 0.34762008E+01</totfact>
</mgrwt>
</event>
<event>
12    1  0.1097093E-007  0.1160507E+04  0.7818608E-02  0.9148145E-01
         -2   -1    0    0    0  501 -0.00000000000E+00  0.00000000000E+00  0.19593667336E+03  0.19593667336E+03  0.00000000000E+00 0.  1.
          2   -1    0    0  501    0  0.00000000000E+00 -0.00000000000E+00 -0.17183810180E+04  0.17183810180E+04  0.00000000000E+00 0. -1.
         23    2    1    2    0    0 -0.72920839169E+02  0.90587563688E+02 -0.61977423349E+03  0.63646633999E+03  0.86288736018E+02 0.  0.
        254    2    1    2    0    0  0.72920839169E+02 -0.90587563688E+02 -0.90267011117E+03  0.12778513514E+04  0.89697669489E+03 0.  0.
        -24    2    4    4    0    0  0.41415905711E+03  0.16531016533E+03 -0.58370792433E+03  0.73896208288E+03  0.80590592862E+02 0.  0.
         24    2    4    4    0    0 -0.34123821794E+03 -0.25589772902E+03 -0.31896218684E+03  0.53888926852E+03  0.82082872685E+02 0.  0.
         11    1    3    3    0    0  0.16643512055E+02  0.80000209571E+01 -0.40381855640E+02  0.44403840980E+02  0.00000000000E+00 0.  1.
        -11    1    3    3    0    0 -0.89564351224E+02  0.82587542731E+02 -0.57939237785E+03  0.59206249901E+03  0.00000000000E+00 0. -1.
          4    1    6    6  502    0 -0.72168609185E+02 -0.51202803276E+02 -0.27911815879E+02  0.92785261118E+02  0.00000000000E+00 0. -1.
          3    1    5    5  503    0  0.81302840277E+02  0.21397617962E+02 -0.66007114366E+02  0.10688755324E+03  0.00000000000E+00 0. -1.
         -4    1    5    5    0  503  0.33285621683E+03  0.14391254737E+03 -0.51770080997E+03  0.63207452964E+03  0.00000000000E+00 0.  1.
         -3    1    6    6    0  502 -0.26906960875E+03 -0.20469492575E+03 -0.29105037096E+03  0.44610400740E+03  0.00000000000E+00 0.  1.
<mgrwt>
<rscale>  0 0.11605065E+04</rscale>
<asrwt>0</asrwt>
<pdfrwt beam="1">  1        2 0.26436630E+00 0.11605065E+04</pdfrwt>
<pdfrwt beam="2">  1       -2 0.30144105E-01 0.11605065E+04</pdfrwt>
<totfact> 0.96294135E+01</totfact>
</mgrwt>
</event>
<event>
12    1  0.1097093E-007  0.2129945E+04  0.7818608E-02  0.8548166E-01
          1   -1    0    0  501    0  0.00000000000E+00  0.00000000000E+00  0.97922662092E+03  0.97922662092E+03  0.00000000000E+00 0. -1.
         -1   -1    0    0    0  501 -0.00000000000E+00 -0.00000000000E+00 -0.11582269005E+04  0.11582269005E+04  0.00000000000E+00 0.  1.
         23    2    1    2    0    0 -0.48706465391E+03  0.70355455635E+03 -0.14080782764E+03  0.87194654244E+03  0.90790625667E+02 0.  0.
        254    2    1    2    0    0  0.48706465391E+03 -0.70355455635E+03 -0.38192451972E+02  0.12655069790E+04  0.93157300288E+03 0.  0.
        -24    2    4    4    0    0  0.28761411220E+03 -0.43215331239E+03  0.43291319249E+03  0.68061093656E+03  0.79618162405E+02 0.  0.
         24    2    4    4    0    0  0.19945054171E+03 -0.27140124396E+03 -0.47110564446E+03  0.58489604245E+03  0.81998161071E+02 0.  0.
         11    1    3    3    0    0 -0.59023277166E+02  0.41609921403E+02 -0.12481034516E+02  0.73286485993E+02  0.00000000000E+00 0. -1.
        -11    1    3    3    0    0 -0.42804137674E+03  0.66194463495E+03 -0.12832679312E+03  0.79866005645E+03  0.00000000000E+00 0.  1.
          4    1    6    6  502    0  0.41105249363E+02 -0.45703382611E+02 -0.40574971955E+02  0.73653031549E+02  0.00000000000E+00 0. -1.
          3    1    5    5  503    0  0.66360497236E+02 -0.15205032729E+03  0.16793141184E+03  0.23605926524E+03  0.00000000000E+00 0. -1.
         -4    1    5    5    0  503  0.22125361496E+03 -0.28010298510E+03  0.26498178065E+03  0.44455167132E+03  0.00000000000E+00 0.  1.
         -3    1    6    6    0  502  0.15834529235E+03 -0.22569786135E+03 -0.43053067251E+03  0.51124301090E+03  0.00000000000E+00 0.  1.
<mgrwt>
<rscale>  0 0.21299452E+04</rscale>
<asrwt>0</asrwt>
<pdfrwt beam="1">  1        1 0.15065025E+00 0.21299452E+04</pdfrwt>
<pdfrwt beam="2">  1       -1 0.17818875E+00 0.21299452E+04</pdfrwt>
<totfact> 0.30907341E+00</totfact>
</mgrwt>
</event>
<event>
12    1  0.1097093E-007  0.2122440E+04  0.7818608E-02  0.8551422E-01
         -2   -1    0    0    0  501 -0.00000000000E+00  0.00000000000E+00  0.75851670918E+03  0.75851670918E+03  0.00000000000E+00 0.  1.
          2   -1    0    0  501    0  0.00000000000E+00 -0.00000000000E+00 -0.14847238233E+04  0.14847238233E+04  0.00000000000E+00 0. -1.
         23    2    1    2    0    0  0.28367467526E+03 -0.12578663869E+03  0.55977942817E+03  0.64654340496E+03  0.91497357539E+02 0.  0.
        254    2    1    2    0    0 -0.28367467526E+03  0.12578663869E+03 -0.12859865423E+04  0.15966971275E+04  0.89408429704E+03 0.  0.
        -24    2    4    4    0    0 -0.12758886203E+03 -0.34529863863E+03 -0.27083774907E+03  0.46393345539E+03  0.79819152797E+02 0.  0.
         24    2    4    4    0    0 -0.15608581323E+03  0.47108527731E+03 -0.10151487933E+04  0.11327636722E+04  0.79638840581E+02 0.  0.
         11    1    3    3    0    0  0.70810689404E+02 -0.44627145404E+02  0.81717352744E+02  0.11697632915E+03  0.00000000000E+00 0. -1.
        -11    1    3    3    0    0  0.21286398585E+03 -0.81159493283E+02  0.47806207543E+03  0.52956707581E+03  0.00000000000E+00 0.  1.
          2    1    6    6  502    0 -0.12025630243E+03  0.42518989029E+03 -0.92969174577E+03  0.10293564802E+04  0.00000000000E+00 0. -1.
          1    1    5    5  503    0 -0.58270385738E+02 -0.20132192630E+03 -0.19799444237E+03  0.28831884273E+03  0.00000000000E+00 0. -1.
         -2    1    5    5    0  503 -0.69318476290E+02 -0.14397671233E+03 -0.72843306702E+02  0.17561461266E+03  0.00000000000E+00 0.  1.
         -1    1    6    6    0  502 -0.35829510804E+02  0.45895387023E+02 -0.85457047483E+02  0.10340719201E+03  0.00000000000E+00 0.  1.
<mgrwt>
<rscale>  0 0.21224399E+04</rscale>
<asrwt>0</asrwt>
<pdfrwt beam="1">  1        2 0.22841905E+00 0.21224399E+04</pdfrwt>
<pdfrwt beam="2">  1       -2 0.11669488E+00 0.21224399E+04</pdfrwt>
<totfact> 0.67775390E+00</totfact>
</mgrwt>
</event>
<event>
12    1  0.1097093E-007  0.2030479E+04  0.7818608E-02  0.8592502E-01
         -2   -1    0    0    0  501 -0.00000000000E+00  0.00000000000E+00  0.12059888088E+04  0.12059888088E+04  0.00000000000E+00 0.  1.
          2   -1    0    0  501    0  0.00000000000E+00 -0.00000000000E+00 -0.85466076587E+03  0.85466076587E+03  0.00000000000E+00 0. -1.
         23    2    1    2    0    0  0.61704575180E+03  0.71651362317E+01  0.66098098861E+03  0.90916029850E+03  0.94232595612E+02 0.  0.
        254    2    1    2    0    0 -0.61704575180E+03 -0.71651362317E+01 -0.30965294568E+03  0.11514892762E+04  0.92154533656E+03 0.  0.
        -24    2    4    4    0    0  0.18137577308E+03  0.18938480647E+03 -0.14158843920E+03  0.30839752137E+03  0.79359744776E+02 0.  0.
         24    2    4    4    0    0 -0.79842152488E+03 -0.19654994270E+03 -0.16806450649E+03  0.84309175479E+03  0.80307018945E+02 0.  0.
         13    1    3    3    0    0  0.26955939592E+03  0.24788744424E+02  0.35031227389E+03  0.44271372129E+03  0.00000000000E+00 0. -1.
        -13    1    3    3    0    0  0.34748635588E+03 -0.17623608192E+02  0.31066871472E+03  0.46644657722E+03  0.00000000000E+00 0.  1.
          2    1    6    6  502    0 -0.58519134457E+03 -0.14594264817E+03 -0.86668102201E+02  0.60931069764E+03  0.00000000000E+00 0. -1.
          3    1    5    5  503    0  0.69592955727E+02  0.72354515015E+02 -0.99124096021E+02  0.14108133024E+03  0.00000000000E+00 0. -1.
         -4    1    5    5    0  503  0.11178281735E+03  0.11703029145E+03 -0.42464343174E+02  0.16731619113E+03  0.00000000000E+00 0.  1.
         -1    1    6    6    0  502 -0.21323018031E+03 -0.50607294525E+02 -0.81396404285E+02  0.23378105715E+03  0.00000000000E+00 0.  1.
<mgrwt>
<rscale>  0 0.20304791E+04</rscale>
<asrwt>0</asrwt>
<pdfrwt beam="1">  1        2 0.13148627E+00 0.20304791E+04</pdfrwt>
<pdfrwt beam="2">  1       -2 0.18553674E+00 0.20304791E+04</pdfrwt>
<totfact> 0.48486235E+00</totfact>
</mgrwt>
</event>
<event>
12    1  0.1097093E-007  0.3817804E+04  0.7818608E-02  0.8042345E-01
          2   -1    0    0  501    0  0.00000000000E+00  0.00000000000E+00  0.27263333753E+04  0.27263333753E+04  0.00000000000E+00 0. -1.
         -2   -1    0    0    0  501 -0.00000000000E+00 -0.00000000000E+00 -0.13365592931E+04  0.13365592931E+04  0.00000000000E+00 0.  1.
         23    2    1    2    0    0 -0.13655565250E+04 -0.70762564269E+03 -0.33415967297E+03  0.15757443113E+04  0.76346409522E+02 0.  0.
        254    2    1    2    0    0  0.13655565250E+04  0.70762564269E+03  0.17239337552E+04  0.24871483571E+04  0.92113011288E+03 0.  0.
        -24    2    4    4    0    0 -0.10449999740E+03  0.18960246645E+03  0.24726381601E+03  0.33849668134E+03  0.81063332223E+02 0.  0.
         24    2    4    4    0    0  0.14700565224E+04  0.51802317624E+03  0.14766699392E+04  0.21486516758E+04  0.82071458588E+02 0.  0.
         11    1    3    3    0    0 -0.35547256676E+03 -0.19124812210E+03 -0.12166731532E+03  0.42159165734E+03  0.00000000000E+00 0. -1.
        -11    1    3    3    0    0 -0.10100839583E+04 -0.51637752059E+03 -0.21249235765E+03  0.11541526539E+04  0.00000000000E+00 0.  1.
          2    1    6    6  502    0  0.13932929052E+04  0.50952324273E+03  0.13998913691E+04  0.20397487345E+04  0.00000000000E+00 0. -1.
          3    1    5    5  503    0 -0.83365285976E+02  0.13179180516E+03  0.22347525153E+03  0.27250695195E+03  0.00000000000E+00 0. -1.
         -4    1    5    5    0  503 -0.21134711427E+02  0.57810661283E+02  0.23788564477E+02  0.65989729390E+02  0.00000000000E+00 0.  1.
         -1    1    6    6    0  502  0.76763617249E+02  0.84999335134E+01  0.76778570035E+02  0.10890294128E+03  0.00000000000E+00 0.  1.
<mgrwt>
<rscale>  0 0.38178037E+04</rscale>
<asrwt>0</asrwt>
<pdfrwt beam="1">  1        2 0.41943590E+00 0.38178037E+04</pdfrwt>
<pdfrwt beam="2">  1       -2 0.20562451E+00 0.38178037E+04</pdfrwt>
<totfact> 0.25053736E-01</totfact>
</mgrwt>
</event>
<event>
12    1  0.1097093E-007  0.1162084E+04  0.7818608E-02  0.9146707E-01
         -2   -1    0    0    0  501 -0.00000000000E+00  0.00000000000E+00  0.18001100987E+03  0.18001100987E+03  0.00000000000E+00 0.  1.
          2   -1    0    0  501    0  0.00000000000E+00 -0.00000000000E+00 -0.18754960475E+04  0.18754960475E+04  0.00000000000E+00 0. -1.
         23    2    1    2    0    0 -0.15902969888E+03  0.47450353181E+02 -0.58244792317E+03  0.61202613855E+03  0.88252081625E+02 0.  0.
        254    2    1    2    0    0  0.15902969888E+03 -0.47450353181E+02 -0.11130371145E+04  0.14434809188E+04  0.90401524528E+03 0.  0.
        -24    2    4    4    0    0  0.61068549394E+02  0.40216666196E+03 -0.72974147321E+03  0.83937389323E+03  0.80984709599E+02 0.  0.
         24    2    4    4    0    0  0.97961149488E+02 -0.44961701514E+03 -0.38329564126E+03  0.60410702560E+03  0.79233216913E+02 0.  0.
         11    1    3    3    0    0 -0.16881370028E+03  0.38783628176E+02 -0.51573514527E+03  0.54404501218E+03  0.00000000000E+00 0. -1.
        -11    1    3    3    0    0  0.97840013991E+01  0.86667250043E+01 -0.66712777905E+02  0.67981126363E+02  0.00000000000E+00 0.  1.
          2    1    6    6  502    0  0.41860825474E+02 -0.34702439744E+03 -0.29873559258E+03  0.45980562785E+03  0.00000000000E+00 0. -1.
          1    1    5    5  503    0  0.32154326474E+02  0.24328912912E+03 -0.35761702485E+03  0.43372046011E+03  0.00000000000E+00 0. -1.
         -2    1    5    5    0  503  0.28914222920E+02  0.15887753285E+03 -0.37212444837E+03  0.40565343312E+03  0.00000000000E+00 0.  1.
         -1    1    6    6    0  502  0.56100324014E+02 -0.10259261770E+03 -0.84560048675E+02  0.14430139775E+03  0.00000000000E+00 0.  1.
<mgrwt>
<rscale>  0 0.11620842E+04</rscale>
<asrwt>0</asrwt>
<pdfrwt beam="1">  1        2 0.28853784E+00 0.11620842E+04</pdfrwt>
<pdfrwt beam="2">  1       -2 0.27694003E-01 0.11620842E+04</pdfrwt>
<totfact> 0.92261922E+01</totfact>
</mgrwt>
</event>
<event>
12    1  0.1097093E-007  0.1916374E+04  0.7818608E-02  0.8646748E-01
          1   -1    0    0  501    0  0.00000000000E+00  0.00000000000E+00  0.12336772452E+04  0.12336772452E+04  0.00000000000E+00 0. -1.
         -1   -1    0    0    0  501 -0.00000000000E+00 -0.00000000000E+00 -0.74421623683E+03  0.74421623683E+03  0.00000000000E+00 0.  1.
         23    2    1    2    0    0  0.21827469151E+02  0.69405356388E+02  0.95780244636E+03  0.96486810219E+03  0.91057050655E+02 0.  0.
        254    2    1    2    0    0 -0.21827469151E+02 -0.69405356388E+02 -0.46834143804E+03  0.10130253798E+04  0.89531177565E+03 0.  0.
        -24    2    4    4    0    0  0.25099028733E+03 -0.11109594304E+03  0.15590728942E+03  0.32600866367E+03  0.81462463743E+02 0.  0.
         24    2    4    4    0    0 -0.27281775648E+03  0.41690586652E+02 -0.62424872746E+03  0.68701671612E+03  0.78344503487E+02 0.  0.
         11    1    3    3    0    0 -0.32760847938E+02  0.35381078324E+02  0.29073249310E+03  0.29470404884E+03  0.00000000000E+00 0.  1.
        -11    1    3    3    0    0  0.54588317089E+02  0.34024278064E+02  0.66706995326E+03  0.67016405335E+03  0.00000000000E+00 0. -1.
          2    1    6    6  502    0 -0.22337730868E+03  0.62685356532E+02 -0.48103244194E+03  0.53405906617E+03  0.00000000000E+00 0. -1.
          1    1    5    5  503    0  0.22299695821E+03 -0.85186588080E+02  0.16040540866E+03  0.28760092713E+03  0.00000000000E+00 0. -1.
         -2    1    5    5    0  503  0.27993329123E+02 -0.25909354960E+02 -0.44981192313E+01  0.38407736544E+02  0.00000000000E+00 0.  1.
         -3    1    6    6    0  502 -0.49440447806E+02 -0.20994769881E+02 -0.14321628552E+03  0.15295764995E+03  0.00000000000E+00 0.  1.
<mgrwt>
<rscale>  0 0.19163743E+04</rscale>
<asrwt>0</asrwt>
<pdfrwt beam="1">  1        1 0.18979650E+00 0.19163743E+04</pdfrwt>
<pdfrwt beam="2">  1       -1 0.11449481E+00 0.19163743E+04</pdfrwt>
<totfact> 0.65455259E+00</totfact>
</mgrwt>
</event>
<event>
12    1  0.1097093E-007  0.2411151E+04  0.7818608E-02  0.8435341E-01
          2   -1    0    0  501    0  0.00000000000E+00  0.00000000000E+00  0.14660657121E+04  0.14660657121E+04  0.00000000000E+00 0. -1.
         -2   -1    0    0    0  501 -0.00000000000E+00 -0.00000000000E+00 -0.99136892094E+03  0.99136892094E+03  0.00000000000E+00 0.  1.
         23    2    1    2    0    0  0.86793150120E+03 -0.23659941884E+03 -0.31649116443E+03  0.95796356794E+03  0.90791875028E+02 0.  0.
        254    2    1    2    0    0 -0.86793150120E+03  0.23659941884E+03  0.79118795555E+03  0.14994710651E+04  0.90174870013E+03 0.  0.
        -24    2    4    4    0    0 -0.51619781426E+03  0.39057418140E+03  0.41616253317E+02  0.65364200617E+03  0.80669604360E+02 0.  0.
         24    2    4    4    0    0 -0.35173368694E+03 -0.15397476256E+03  0.74957170223E+03  0.84582905889E+03  0.78385241213E+02 0.  0.
         11    1    3    3    0    0  0.15311888237E+03 -0.70065684497E+02 -0.83217680589E+02  0.18782911022E+03  0.00000000000E+00 0. -1.
        -11    1    3    3    0    0  0.71481261882E+03 -0.16653373434E+03 -0.23327348384E+03  0.77013445772E+03  0.00000000000E+00 0.  1.
          4    1    6    6  502    0 -0.31765929771E+03 -0.12814833949E+03  0.70640647472E+03  0.78507294812E+03  0.00000000000E+00 0. -1.
          3    1    5    5  503    0 -0.45956334499E+03  0.32023037162E+03  0.18566652319E+02  0.56043793549E+03  0.00000000000E+00 0. -1.
         -4    1    5    5    0  503 -0.56634469271E+02  0.70343809784E+02  0.23049600997E+02  0.93204070676E+02  0.00000000000E+00 0.  1.
         -3    1    6    6    0  502 -0.34074389227E+02 -0.25826423076E+02  0.43165227508E+02  0.60756110770E+02  0.00000000000E+00 0.  1.
<mgrwt>
<rscale>  0 0.24111507E+04</rscale>
<asrwt>0</asrwt>
<pdfrwt beam="1">  1        2 0.22554857E+00 0.24111507E+04</pdfrwt>
<pdfrwt beam="2">  1       -2 0.15251830E+00 0.24111507E+04</pdfrwt>
<totfact> 0.34173447E+00</totfact>
</mgrwt>
</event>
<event>
12    1  0.1097093E-007  0.1343161E+04  0.7818608E-02  0.8996021E-01
          1   -1    0    0  501    0  0.00000000000E+00  0.00000000000E+00  0.13931712364E+04  0.13931712364E+04  0.00000000000E+00 0. -1.
         -1   -1    0    0    0  501 -0.00000000000E+00 -0.00000000000E+00 -0.32373653989E+03  0.32373653989E+03  0.00000000000E+00 0.  1.
         23    2    1    2    0    0  0.33165514768E+03 -0.30789419644E+02  0.11681274452E+03  0.36466348689E+03  0.91603035141E+02 0.  0.
        254    2    1    2    0    0 -0.33165514768E+03  0.30789419644E+02  0.95262195196E+03  0.13522442894E+04  0.90007383555E+03 0.  0.
        -24    2    4    4    0    0 -0.17579646271E+03 -0.36846493246E+03  0.15609170434E+03  0.44443089330E+03  0.80519537985E+02 0.  0.
         24    2    4    4    0    0 -0.15585868496E+03  0.39925435211E+03  0.79653024761E+03  0.90781339607E+03  0.77257746321E+02 0.  0.
         13    1    3    3    0    0  0.32096647688E+03 -0.89061781531E+01  0.10901016931E+03  0.33908998261E+03  0.00000000000E+00 0.  1.
        -13    1    3    3    0    0  0.10688670796E+02 -0.21883241491E+02  0.78025752018E+01  0.25573504283E+02  0.00000000000E+00 0. -1.
          2    1    6    6  502    0 -0.38770067189E+02  0.17722716302E+03  0.38824627544E+03  0.42854142835E+03  0.00000000000E+00 0. -1.
          3    1    5    5  503    0 -0.18147045754E+03 -0.36016943934E+03  0.14295334296E+03  0.42788924999E+03  0.00000000000E+00 0. -1.
         -4    1    5    5    0  503  0.56739948290E+01 -0.82954931240E+01  0.13138361386E+02  0.16541643310E+02  0.00000000000E+00 0.  1.
         -1    1    6    6    0  502 -0.11708861777E+03  0.22202718908E+03  0.40828397218E+03  0.47927196772E+03  0.00000000000E+00 0.  1.
<mgrwt>
<rscale>  0 0.13431611E+04</rscale>
<asrwt>0</asrwt>
<pdfrwt beam="1">  1        1 0.21433403E+00 0.13431611E+04</pdfrwt>
<pdfrwt beam="2">  1       -1 0.49805622E-01 0.13431611E+04</pdfrwt>
<totfact> 0.30759629E+01</totfact>
</mgrwt>
</event>
<event>
12    1  0.1097093E-007  0.1659250E+04  0.7818608E-02  0.8784953E-01
          1   -1    0    0  501    0  0.00000000000E+00  0.00000000000E+00  0.50332344308E+03  0.50332344308E+03  0.00000000000E+00 0. -1.
         -1   -1    0    0    0  501 -0.00000000000E+00 -0.00000000000E+00 -0.13674664635E+04  0.13674664635E+04  0.00000000000E+00 0.  1.
         23    2    1    2    0    0 -0.49574635377E+03 -0.10190581264E+03 -0.60108029881E+03  0.78889806845E+03  0.70095612234E+02 0.  0.
        254    2    1    2    0    0  0.49574635377E+03  0.10190581264E+03 -0.26306272163E+03  0.10818918381E+04  0.91931426182E+03 0.  0.
        -24    2    4    4    0    0 -0.97642168906E+02  0.32992126387E+03  0.68314925206E+02  0.35996372646E+03  0.80776988447E+02 0.  0.
         24    2    4    4    0    0  0.59338852268E+03 -0.22801545122E+03 -0.33137764683E+03  0.72192811167E+03  0.85252969224E+02 0.  0.
         11    1    3    3    0    0 -0.19702244813E+03 -0.25172456442E+02 -0.18895967844E+03  0.27414824038E+03  0.00000000000E+00 0.  1.
        -11    1    3    3    0    0 -0.29872390564E+03 -0.76733356202E+02 -0.41212062037E+03  0.51474982806E+03  0.00000000000E+00 0. -1.
          2    1    6    6  502    0  0.15529352119E+02 -0.59689275471E+00 -0.25065121569E+02  0.29491988360E+02  0.00000000000E+00 0. -1.
          1    1    5    5  503    0  0.17574839067E+01  0.88362858614E+02 -0.54188221500E+01  0.88546299559E+02  0.00000000000E+00 0. -1.
         -2    1    5    5    0  503 -0.99399652813E+02  0.24155840525E+03  0.73733747356E+02  0.27141742690E+03  0.00000000000E+00 0.  1.
         -3    1    6    6    0  502  0.57785917056E+03 -0.22741855847E+03 -0.30631252526E+03  0.69243612331E+03  0.00000000000E+00 0.  1.
<mgrwt>
<rscale>  0 0.16592503E+04</rscale>
<asrwt>0</asrwt>
<pdfrwt beam="1">  1        1 0.77434377E-01 0.16592503E+04</pdfrwt>
<pdfrwt beam="2">  1       -1 0.21037945E+00 0.16592503E+04</pdfrwt>
<totfact> 0.53583415E+00</totfact>
</mgrwt>
</event>
<event>
12    1  0.1097093E-007  0.2706955E+04  0.7818608E-02  0.8332752E-01
         -2   -1    0    0    0  501 -0.00000000000E+00  0.00000000000E+00  0.10567136403E+04  0.10567136403E+04  0.00000000000E+00 0.  1.
          2   -1    0    0  501    0  0.00000000000E+00 -0.00000000000E+00 -0.17335837773E+04  0.17335837773E+04  0.00000000000E+00 0. -1.
         23    2    1    2    0    0 -0.53560850331E+03 -0.12175316005E+03  0.80715561750E+03  0.98008532919E+03  0.85829836472E+02 0.  0.
        254    2    1    2    0    0  0.53560850331E+03  0.12175316005E+03 -0.14840257546E+04  0.18102120884E+04  0.87911038211E+03 0.  0.
        -24    2    4    4    0    0 -0.10894519923E+03  0.31796472544E+03 -0.37327210439E+03  0.50876874907E+03  0.80888522378E+02 0.  0.
         24    2    4    4    0    0  0.64455370253E+03 -0.19621156539E+03 -0.11107536502E+04  0.13014433393E+04  0.77670072939E+02 0.  0.
         11    1    3    3    0    0 -0.12387101906E+03 -0.63837803335E+02  0.22590420321E+03  0.26542796297E+03  0.00000000000E+00 0. -1.
        -11    1    3    3    0    0 -0.41173748424E+03 -0.57915356720E+02  0.58125141429E+03  0.71465736622E+03  0.00000000000E+00 0.  1.
          2    1    6    6  502    0  0.45022942925E+03 -0.13093285956E+03 -0.70236308999E+03  0.84449029767E+03  0.00000000000E+00 0. -1.
          1    1    5    5  503    0 -0.67000886751E+02  0.26183972995E+03 -0.25665287378E+03  0.37271954688E+03  0.00000000000E+00 0. -1.
         -2    1    5    5    0  503 -0.41944312478E+02  0.56124995493E+02 -0.11661923062E+03  0.13604920220E+03  0.00000000000E+00 0.  1.
         -1    1    6    6    0  502  0.19432427328E+03 -0.65278705833E+02 -0.40839056021E+03  0.45695304167E+03  0.00000000000E+00 0.  1.
<mgrwt>
<rscale>  0 0.27069552E+04</rscale>
<asrwt>0</asrwt>
<pdfrwt beam="1">  1        2 0.26670519E+00 0.27069552E+04</pdfrwt>
<pdfrwt beam="2">  1       -2 0.16257133E+00 0.27069552E+04</pdfrwt>
<totfact> 0.19865681E+00</totfact>
</mgrwt>
</event>
<event>
12    1  0.1097093E-007  0.1837571E+04  0.7818608E-02  0.8686571E-01
         -2   -1    0    0    0  501 -0.00000000000E+00  0.00000000000E+00  0.81455216091E+03  0.81455216091E+03  0.00000000000E+00 0.  1.
          2   -1    0    0  501    0  0.00000000000E+00 -0.00000000000E+00 -0.10363567112E+04  0.10363567112E+04  0.00000000000E+00 0. -1.
         23    2    1    2    0    0 -0.22737006327E+02  0.67481190143E+03 -0.24176616866E+03  0.72294990486E+03  0.91200936721E+02 0.  0.
        254    2    1    2    0    0  0.22737006327E+02 -0.67481190143E+03  0.19961618389E+02  0.11279589672E+04  0.90332989088E+03 0.  0.
        -24    2    4    4    0    0 -0.96118424113E+02 -0.86646579067E+03  0.86923374927E+02  0.87964878752E+03  0.78896124296E+02 0.  0.
         24    2    4    4    0    0  0.11885543044E+03  0.19165388923E+03 -0.66961756538E+02  0.24831017970E+03  0.79474787838E+02 0.  0.
         13    1    3    3    0    0 -0.23264686219E+01  0.10639392948E+03 -0.40724885055E+01  0.10649725747E+03  0.00000000000E+00 0. -1.
        -13    1    3    3    0    0 -0.20410537705E+02  0.56841797195E+03 -0.23769368016E+03  0.61645264739E+03  0.00000000000E+00 0.  1.
          2    1    6    6  502    0  0.52671966051E+02  0.32737149010E+02  0.39212108209E+01  0.62140428284E+02  0.00000000000E+00 0. -1.
          1    1    5    5  503    0 -0.10533397684E+02 -0.38882567486E+02 -0.11390246209E+02  0.41863399644E+02  0.00000000000E+00 0. -1.
         -2    1    5    5    0  503 -0.85585026429E+02 -0.82758322318E+03  0.98313621136E+02  0.83778538788E+03  0.00000000000E+00 0.  1.
         -1    1    6    6    0  502  0.66183464388E+02  0.15891674022E+03 -0.70882967359E+02  0.18616975142E+03  0.00000000000E+00 0.  1.
<mgrwt>
<rscale>  0 0.18375708E+04</rscale>
<asrwt>0</asrwt>
<pdfrwt beam="1">  1        2 0.15943949E+00 0.18375708E+04</pdfrwt>
<pdfrwt beam="2">  1       -2 0.12531572E+00 0.18375708E+04</pdfrwt>
<totfact> 0.10708662E+01</totfact>
</mgrwt>
</event>
<event>
12    1  0.1097093E-007  0.1842284E+04  0.7818608E-02  0.8684131E-01
          2   -1    0    0  501    0  0.00000000000E+00  0.00000000000E+00  0.14389614428E+04  0.14389614428E+04  0.00000000000E+00 0.  1.
         -2   -1    0    0    0  501 -0.00000000000E+00 -0.00000000000E+00 -0.58966342437E+03  0.58966342437E+03  0.00000000000E+00 0. -1.
         23    2    1    2    0    0 -0.45051400335E+03 -0.68616417524E+02 -0.24924079847E+03  0.52721170908E+03  0.90333441218E+02 0.  0.
        254    2    1    2    0    0  0.45051400335E+03  0.68616417524E+02  0.10985388169E+04  0.15014131581E+04  0.91639667125E+03 0.  0.
        -24    2    4    4    0    0  0.69144753846E+03  0.17706136158E+01  0.10052187977E+04  0.12226417241E+04  0.79278753566E+02 0.  0.
         24    2    4    4    0    0 -0.24093353511E+03  0.66845803909E+02  0.93320019182E+02  0.27877143397E+03  0.80545369656E+02 0.  0.
         11    1    3    3    0    0 -0.16859270851E+03 -0.57939714376E+02 -0.13141074824E+03  0.22147075793E+03  0.00000000000E+00 0.  1.
        -11    1    3    3    0    0 -0.28192129484E+03 -0.10676703149E+02 -0.11783005023E+03  0.30574095115E+03  0.00000000000E+00 0. -1.
          4    1    6    6  502    0 -0.18207171151E+03  0.18616975804E+02  0.86312675364E+02  0.20235260772E+03  0.00000000000E+00 0. -1.
          3    1    5    5  503    0  0.37901445886E+03  0.35515458464E+02  0.58399816259E+03  0.69711344968E+03  0.00000000000E+00 0. -1.
         -4    1    5    5    0  503  0.31243307960E+03 -0.33744844849E+02  0.42122063510E+03  0.52552827443E+03  0.00000000000E+00 0.  1.
         -1    1    6    6    0  502 -0.58861823600E+02  0.48228828104E+02  0.70073438174E+01  0.76418826249E+02  0.00000000000E+00 0.  1.
<mgrwt>
<rscale>  0 0.18422844E+04</rscale>
<asrwt>0</asrwt>
<pdfrwt beam="1">  1        2 0.22137868E+00 0.18422844E+04</pdfrwt>
<pdfrwt beam="2">  1       -2 0.90717450E-01 0.18422844E+04</pdfrwt>
<totfact> 0.13422097E+01</totfact>
</mgrwt>
</event>
<event>
12    1  0.1097093E-007  0.1307059E+04  0.7818608E-02  0.9023986E-01
         -4   -1    0    0    0  501 -0.00000000000E+00  0.00000000000E+00  0.26232060002E+04  0.26232060002E+04  0.00000000000E+00 0. -1.
          4   -1    0    0  501    0  0.00000000000E+00 -0.00000000000E+00 -0.16281645400E+03  0.16281645400E+03  0.00000000000E+00 0.  1.
         23    2    1    2    0    0 -0.29060003237E+03 -0.15927344962E+03  0.56995932350E+03  0.66650356261E+03  0.97759695005E+02 0.  0.
        254    2    1    2    0    0  0.29060003237E+03  0.15927344962E+03  0.18904302227E+04  0.21195188916E+04  0.89934281246E+03 0.  0.
        -24    2    4    4    0    0  0.20900713460E+03 -0.23250816214E+03  0.19849971688E+03  0.37894095124E+03  0.80312384810E+02 0.  0.
         24    2    4    4    0    0  0.81592897769E+02  0.39178161176E+03  0.16919305058E+04  0.17405779403E+04  0.82658923351E+02 0.  0.
         11    1    3    3    0    0 -0.21550381385E+03 -0.16218887336E+03  0.46185366320E+03  0.53484196791E+03  0.00000000000E+00 0. -1.
        -11    1    3    3    0    0 -0.75096218516E+02  0.29154237441E+01  0.10810566030E+03  0.13166159470E+03  0.00000000000E+00 0.  1.
          4    1    6    6  502    0  0.25500523831E+02  0.15252639931E+03  0.49156958355E+03  0.51532051645E+03  0.00000000000E+00 0. -1.
          1    1    5    5  503    0  0.63572105002E+02 -0.11978185476E+03  0.11073509345E+03  0.17507531575E+03  0.00000000000E+00 0. -1.
         -2    1    5    5    0  503  0.14543502960E+03 -0.11272630738E+03  0.87764623432E+02  0.20386563549E+03  0.00000000000E+00 0.  1.
         -3    1    6    6    0  502  0.56092373938E+02  0.23925521245E+03  0.12003609222E+04  0.12252574239E+04  0.00000000000E+00 0.  1.
<mgrwt>
<rscale>  0 0.13070594E+04</rscale>
<asrwt>0</asrwt>
<pdfrwt beam="1">  1        4 0.25048687E-01 0.13070594E+04</pdfrwt>
<pdfrwt beam="2">  1       -4 0.40357012E+00 0.13070594E+04</pdfrwt>
<totfact> 0.19600730E-01</totfact>
</mgrwt>
</event>
<event>
12    1  0.1097093E-007  0.2507801E+04  0.7818608E-02  0.8400212E-01
         -2   -1    0    0    0  501 -0.00000000000E+00  0.00000000000E+00  0.27356186385E+04  0.27356186385E+04  0.00000000000E+00 0. -1.
          2   -1    0    0  501    0  0.00000000000E+00 -0.00000000000E+00 -0.57473884774E+03  0.57473884774E+03  0.00000000000E+00 0.  1.
         23    2    1    2    0    0 -0.44536290019E+03  0.10006299598E+04  0.92168017129E+03  0.14341280227E+04  0.87295005638E+02 0.  0.
        254    2    1    2    0    0  0.44536290019E+03 -0.10006299598E+04  0.12391996194E+04  0.18762294635E+04  0.88600952235E+03 0.  0.
        -24    2    4    4    0    0  0.36079224640E+03 -0.27915589723E+03  0.10080046399E+04  0.11096990302E+04  0.85202838147E+02 0.  0.
         24    2    4    4    0    0  0.84570653793E+02 -0.72147406256E+03  0.23119497956E+03  0.76653043330E+03  0.80254396669E+02 0.  0.
         13    1    3    3    0    0 -0.44912417486E+03  0.98692519190E+03  0.91280163275E+03  0.14173710451E+04  0.00000000000E+00 0.  1.
        -13    1    3    3    0    0  0.37612746611E+01  0.13704767881E+02  0.88785385387E+01  0.16756977542E+02  0.00000000000E+00 0. -1.
          4    1    6    6  502    0  0.82808241732E+02 -0.52377438391E+03  0.13790602737E+03  0.54791868240E+03  0.00000000000E+00 0. -1.
          3    1    5    5  503    0  0.31180153280E+03 -0.21303222345E+03  0.87895805361E+03  0.95664527600E+03  0.00000000000E+00 0. -1.
         -4    1    5    5    0  503  0.48990713603E+02 -0.66123673780E+02  0.12904658628E+03  0.15305375423E+03  0.00000000000E+00 0.  1.
         -3    1    6    6    0  502  0.17624120609E+01 -0.19769967865E+03  0.93288952183E+02  0.21861175090E+03  0.00000000000E+00 0.  1.
<mgrwt>
<rscale>  0 0.25078009E+04</rscale>
<asrwt>0</asrwt>
<pdfrwt beam="1">  1        2 0.88421363E-01 0.25078009E+04</pdfrwt>
<pdfrwt beam="2">  1       -2 0.42086440E+00 0.25078009E+04</pdfrwt>
<totfact> 0.25193781E-01</totfact>
</mgrwt>
</event>
<event>
12    1  0.1097093E-007  0.3033114E+04  0.7818608E-02  0.8234338E-01
         -2   -1    0    0    0  501 -0.00000000000E+00  0.00000000000E+00  0.20314559832E+04  0.20314559832E+04  0.00000000000E+00 0.  1.
          2   -1    0    0  501    0  0.00000000000E+00 -0.00000000000E+00 -0.11321661466E+04  0.11321661466E+04  0.00000000000E+00 0. -1.
         23    2    1    2    0    0 -0.77705034543E+03 -0.10339625285E+04 -0.36000198371E+02  0.12960749621E+04  0.75023618902E+02 0.  0.
        254    2    1    2    0    0  0.77705034543E+03  0.10339625285E+04  0.93529003502E+03  0.18675471677E+04  0.96957682742E+03 0.  0.
        -24    2    4    4    0    0  0.59256950789E+03  0.54417305450E+03  0.18248730841E+02  0.80870846497E+03  0.80083894890E+02 0.  0.
         24    2    4    4    0    0  0.18448083754E+03  0.48978947400E+03  0.91704130418E+03  0.10588387027E+04  0.79042624887E+02 0.  0.
         11    1    3    3    0    0 -0.70566124355E+03 -0.89896183416E+03 -0.29566408910E+02  0.11432254119E+04  0.00000000000E+00 0. -1.
        -11    1    3    3    0    0 -0.71389101880E+02 -0.13500069434E+03 -0.64337894614E+01  0.15284955017E+03  0.00000000000E+00 0.  1.
          2    1    6    6  502    0  0.45299721212E+02  0.64785190297E+02  0.10066277607E+03  0.12799289085E+03  0.00000000000E+00 0. -1.
          1    1    5    5  503    0  0.45046906251E+01 -0.20301965755E+01  0.33608357091E+01  0.59757135496E+01  0.00000000000E+00 0. -1.
         -2    1    5    5    0  503  0.58806481726E+03  0.54620325107E+03  0.14887895132E+02  0.80273275142E+03  0.00000000000E+00 0.  1.
         -1    1    6    6    0  502  0.13918111633E+03  0.42500428371E+03  0.81637852811E+03  0.93084581187E+03  0.00000000000E+00 0.  1.
<mgrwt>
<rscale>  0 0.30331144E+04</rscale>
<asrwt>0</asrwt>
<pdfrwt beam="1">  1        2 0.17417941E+00 0.30331144E+04</pdfrwt>
<pdfrwt beam="2">  1       -2 0.31253169E+00 0.30331144E+04</pdfrwt>
<totfact> 0.47306717E-01</totfact>
</mgrwt>
</event>
<event>
12    1  0.1097093E-007  0.2889648E+04  0.7818608E-02  0.8275964E-01
          3   -1    0    0  501    0  0.00000000000E+00  0.00000000000E+00  0.24328678571E+04  0.24328678571E+04  0.00000000000E+00 0. -1.
         -3   -1    0    0    0  501 -0.00000000000E+00 -0.00000000000E+00 -0.85804772500E+03  0.85804772500E+03  0.00000000000E+00 0.  1.
         23    2    1    2    0    0 -0.35927955454E+03  0.35372812755E+03  0.20795081044E+04  0.21417622035E+04  0.92660636679E+02 0.  0.
        254    2    1    2    0    0  0.35927955454E+03 -0.35372812755E+03 -0.50468797228E+03  0.11491533786E+04  0.90090962458E+03 0.  0.
        -24    2    4    4    0    0  0.38251057809E+03 -0.53859613164E+03 -0.62539778532E+03  0.91338479164E+03  0.82153833478E+02 0.  0.
         24    2    4    4    0    0 -0.23231023557E+02  0.18486800409E+03  0.12070981303E+03  0.23576858696E+03  0.79373221195E+02 0.  0.
         13    1    3    3    0    0 -0.34689335895E+03  0.33067967996E+03  0.18620741851E+04  0.19227595596E+04  0.00000000000E+00 0. -1.
        -13    1    3    3    0    0 -0.12386195590E+02  0.23048447586E+02  0.21743391924E+03  0.21900264385E+03  0.00000000000E+00 0.  1.
          4    1    6    6  502    0 -0.50718285787E+02  0.14257767087E+03  0.81487311582E+02  0.17187471801E+03  0.00000000000E+00 0. -1.
          1    1    5    5  503    0  0.19427309067E+03 -0.20347882207E+03 -0.26490943945E+03  0.38642292362E+03  0.00000000000E+00 0. -1.
         -2    1    5    5    0  503  0.18823748742E+03 -0.33511730957E+03 -0.36048834587E+03  0.52696186803E+03  0.00000000000E+00 0.  1.
         -1    1    6    6    0  502  0.27487262229E+02  0.42290333222E+02  0.39222501451E+02  0.63893868947E+02  0.00000000000E+00 0.  1.
<mgrwt>
<rscale>  0 0.28896482E+04</rscale>
<asrwt>0</asrwt>
<pdfrwt beam="1">  1        3 0.37428736E+00 0.28896482E+04</pdfrwt>
<pdfrwt beam="2">  1       -3 0.13200734E+00 0.28896482E+04</pdfrwt>
<totfact> 0.15294391E-02</totfact>
</mgrwt>
</event>
<event>
12    1  0.1097093E-007  0.1233716E+04  0.7818608E-02  0.9083846E-01
         -1   -1    0    0    0  501 -0.00000000000E+00  0.00000000000E+00  0.50692943538E+03  0.50692943538E+03  0.00000000000E+00 0.  1.
          1   -1    0    0  501    0  0.00000000000E+00 -0.00000000000E+00 -0.75062470089E+03  0.75062470089E+03  0.00000000000E+00 0. -1.
         23    2    1    2    0    0  0.15445961436E+03 -0.21964937553E+03 -0.86042497087E+01  0.28735987088E+03  0.10197078818E+03 0.  0.
        254    2    1    2    0    0 -0.15445961436E+03  0.21964937553E+03 -0.23509101579E+03  0.97019426539E+03  0.90216711658E+03 0.  0.
        -24    2    4    4    0    0  0.28362218953E+03  0.49799916270E+02  0.17090601526E+03  0.34400997705E+03  0.78818907662E+02 0.  0.
         24    2    4    4    0    0 -0.43808180389E+03  0.16984945926E+03 -0.40599703106E+03  0.62618428833E+03  0.80676316328E+02 0.  0.
         11    1    3    3    0    0  0.91955618817E+01 -0.47428001609E+02  0.32650940859E+02  0.58310013153E+02  0.00000000000E+00 0. -1.
        -11    1    3    3    0    0  0.14526405248E+03 -0.17222137392E+03 -0.41255190568E+02  0.22904985773E+03  0.00000000000E+00 0.  1.
          4    1    6    6  502    0 -0.28550998433E+03  0.97567917372E+02 -0.21058172057E+03  0.36794036295E+03  0.00000000000E+00 0. -1.
          1    1    5    5  503    0  0.26120446476E+03  0.62332604525E+02  0.13697612758E+03  0.30145577706E+03  0.00000000000E+00 0. -1.
         -2    1    5    5    0  503  0.22417724772E+02 -0.12532688255E+02  0.33929887684E+02  0.42554199994E+02  0.00000000000E+00 0.  1.
         -3    1    6    6    0  502 -0.15257181956E+03  0.72281541887E+02 -0.19541531049E+03  0.25824392538E+03  0.00000000000E+00 0.  1.
<mgrwt>
<rscale>  0 0.12337159E+04</rscale>
<asrwt>0</asrwt>
<pdfrwt beam="1">  1        1 0.11548072E+00 0.12337159E+04</pdfrwt>
<pdfrwt beam="2">  1       -1 0.77989145E-01 0.12337159E+04</pdfrwt>
<totfact> 0.39784419E+01</totfact>
</mgrwt>
</event>
<event>
12    1  0.1097093E-007  0.3283560E+04  0.7818608E-02  0.8167091E-01
         -2   -1    0    0    0  501 -0.00000000000E+00  0.00000000000E+00  0.10973308138E+04  0.10973308138E+04  0.00000000000E+00 0.  1.
          2   -1    0    0  501    0  0.00000000000E+00 -0.00000000000E+00 -0.24563622290E+04  0.24563622290E+04  0.00000000000E+00 0. -1.
         23    2    1    2    0    0 -0.12138410560E+03 -0.11219716841E+04  0.46727104833E+03  0.12250049216E+04  0.93489380341E+02 0.  0.
        254    2    1    2    0    0  0.12138410560E+03  0.11219716841E+04 -0.18263024635E+04  0.23286881212E+04  0.90213808066E+03 0.  0.
        -24    2    4    4    0    0 -0.29885461127E+03  0.78986006802E+03 -0.14087736753E+04  0.16445571911E+04  0.82049258994E+02 0.  0.
         24    2    4    4    0    0  0.42023871687E+03  0.33211161612E+03 -0.41752878829E+03  0.68413093016E+03  0.82499308106E+02 0.  0.
         13    1    3    3    0    0 -0.11917113837E+03 -0.10641019179E+04  0.41974163186E+03  0.11500859487E+04  0.00000000000E+00 0.  1.
        -13    1    3    3    0    0 -0.22129672267E+01 -0.57869766213E+02  0.47529416475E+02  0.74918972870E+02  0.00000000000E+00 0. -1.
          4    1    6    6  502    0  0.16505072100E+03  0.16357798660E+03 -0.14087132170E+03  0.27174294375E+03  0.00000000000E+00 0. -1.
          3    1    5    5  503    0 -0.22480348855E+03  0.63944571018E+03 -0.11817717460E+04  0.13623552710E+04  0.00000000000E+00 0. -1.
         -4    1    5    5    0  503 -0.74051122719E+02  0.15041435783E+03 -0.22700192929E+03  0.28220192012E+03  0.00000000000E+00 0.  1.
         -3    1    6    6    0  502  0.25518799587E+03  0.16853362952E+03 -0.27665746659E+03  0.41238798641E+03  0.00000000000E+00 0.  1.
<mgrwt>
<rscale>  0 0.32835602E+04</rscale>
<asrwt>0</asrwt>
<pdfrwt beam="1">  1        2 0.37790188E+00 0.32835602E+04</pdfrwt>
<pdfrwt beam="2">  1       -2 0.16882012E+00 0.32835602E+04</pdfrwt>
<totfact> 0.67042964E-01</totfact>
</mgrwt>
</event>
