<event>
11    6  0.1705838E-008  0.2283768E+04  0.7818608E-02  0.8484349E-01
         -1   -1    0    0    0  501 -0.00000000000E+00  0.00000000000E+00  0.48001344178E+03  0.48001344178E+03  0.00000000000E+00 0.  1.
          2   -1    0    0  501    0  0.00000000000E+00 -0.00000000000E+00 -0.27163802734E+04  0.27163802734E+04  0.00000000000E+00 0. -1.
         24    2    1    2    0    0 -0.34489199615E+03 -0.74282078440E+03 -0.23828004827E+03  0.85707327591E+03  0.84047677732E+02 0.  0.
        254    2    1    2    0    0  0.34489199615E+03  0.74282078440E+03 -0.19980867833E+04  0.23393204392E+04  0.89963110052E+03 0.  0.
         23    2    4    4    0    0 -0.10433160312E+03  0.47393109855E+02 -0.10986992828E+04  0.11084414182E+04  0.91493569685E+02 0.  0.
          4    1    3    3  502    0 -0.30670049597E+01 -0.38844992951E+02  0.19978245860E+00  0.38966394622E+02  0.00000000000E+00 0. -1.
         -3    1    3    3    0  502 -0.34182499119E+03 -0.70397579145E+03 -0.23847983072E+03  0.81810688129E+03  0.00000000000E+00 0.  1.
         11    1    4    4    0    0  0.44610512524E+03  0.70229830205E+03 -0.88533034078E+03  0.12149248949E+04  0.00000000000E+00 0. -1.
        -11    1    4    4    0    0  0.31184740276E+01 -0.68706275004E+01 -0.14057159768E+02  0.15954126214E+02  0.00000000000E+00 0.  1.
          3    1    5    5  503    0 -0.53514923478E+02  0.17425558516E+02 -0.88383939522E+03  0.88562947877E+03  0.00000000000E+00 0. -1.
         -3    1    5    5    0  503 -0.50816679638E+02  0.29967551338E+02 -0.21485988754E+03  0.22281193940E+03  0.00000000000E+00 0.  1.
<mgrwt>
<rscale>  0 0.22837680E+04</rscale>
<asrwt>0</asrwt>
<pdfrwt beam="1">  1        2 0.41790465E+00 0.22837680E+04</pdfrwt>
<pdfrwt beam="2">  1       -1 0.73848222E-01 0.22837680E+04</pdfrwt>
<totfact> 0.49535948E+00</totfact>
</mgrwt>
</event>
<event>
12    6  0.1705838E-008  0.1007925E+04  0.7818608E-02  0.9299895E-01
          2   -1    0    0  501    0  0.00000000000E+00  0.00000000000E+00  0.66161801673E+03  0.66161801673E+03  0.00000000000E+00 0. -1.
         -1   -1    0    0    0  501 -0.00000000000E+00 -0.00000000000E+00 -0.38387424255E+03  0.38387424255E+03  0.00000000000E+00 0.  1.
         24    2    1    2    0    0 -0.43953135190E+02 -0.17631752921E+02  0.91667272152E+02  0.13026748776E+03  0.79523410252E+02 0.  0.
        254    2    1    2    0    0  0.43953135190E+02  0.17631752921E+02  0.18607650203E+03  0.91522477153E+03  0.89485706178E+03 0.  0.
         23    2    4    4    0    0 -0.33380201809E+03  0.75275965871E+02  0.33397754563E+03  0.49491962570E+03  0.12772696112E+03 0.  0.
         23    2    4    4    0    0  0.37775515328E+03 -0.57644212950E+02 -0.14790104360E+03  0.42030514583E+03  0.93594261532E+02 0.  0.
          4    1    3    3  502    0 -0.56451744947E+02  0.99799635355E+01  0.38459669213E+02  0.69032929358E+02  0.00000000000E+00 0. -1.
         -3    1    3    3    0  502  0.12498609757E+02 -0.27611716457E+02  0.53207602939E+02  0.61234558397E+02  0.00000000000E+00 0.  1.
         11    1    5    5    0    0 -0.34417890151E+03  0.80586411522E+02  0.32528499836E+03  0.48037861747E+03  0.00000000000E+00 0. -1.
        -11    1    5    5    0    0  0.10376883411E+02 -0.53104456513E+01  0.86925472714E+01  0.14541008232E+02  0.00000000000E+00 0.  1.
          2    1    6    6  503    0  0.35989500206E+03 -0.38668042581E+02 -0.11816364754E+03  0.38076538396E+03  0.00000000000E+00 0. -1.
         -2    1    6    6    0  503  0.17860151226E+02 -0.18976170369E+02 -0.29737396069E+02  0.39539761869E+02  0.00000000000E+00 0.  1.
<mgrwt>
<rscale>  0 0.10079248E+04</rscale>
<asrwt>0</asrwt>
<pdfrwt beam="1">  1        2 0.10178739E+00 0.10079248E+04</pdfrwt>
<pdfrwt beam="2">  1       -1 0.59057576E-01 0.10079248E+04</pdfrwt>
<totfact> 0.14571661E+02</totfact>
</mgrwt>
</event>
<event>
12    6  0.1705838E-008  0.1373938E+04  0.7818608E-02  0.8972903E-01
         -1   -1    0    0    0  501 -0.00000000000E+00  0.00000000000E+00  0.13719936718E+04  0.13719936718E+04  0.00000000000E+00 0.  1.
          2   -1    0    0  501    0  0.00000000000E+00 -0.00000000000E+00 -0.34397133627E+03  0.34397133627E+03  0.00000000000E+00 0. -1.
         24    2    1    2    0    0  0.22642529071E+03  0.10854191952E+03  0.64438985172E+03  0.69618584841E+03  0.79916793972E+02 0.  0.
        254    2    1    2    0    0 -0.22642529071E+03 -0.10854191952E+03  0.38363248378E+03  0.10197791596E+04  0.91089290878E+03 0.  0.
         23    2    4    4    0    0 -0.21388860430E+03 -0.30083150393E+03 -0.17455335788E+03  0.42223040866E+03  0.10752541304E+03 0.  0.
         23    2    4    4    0    0 -0.12536686405E+02  0.19228958441E+03  0.55818584166E+03  0.59754875097E+03  0.91436443407E+02 0.  0.
          2    1    3    3  502    0  0.27312004983E+02  0.16698824307E+02  0.17756321697E+03  0.18042586392E+03  0.00000000000E+00 0. -1.
         -1    1    3    3    0  502  0.19911328572E+03  0.91843095208E+02  0.46682663475E+03  0.51575998449E+03  0.00000000000E+00 0.  1.
         11    1    5    5    0    0 -0.11501679783E+03 -0.14061180276E+03 -0.14331246714E+03  0.23138497379E+03  0.00000000000E+00 0. -1.
        -11    1    5    5    0    0 -0.98871806470E+02 -0.16021970117E+03 -0.31240890736E+02  0.19084543487E+03  0.00000000000E+00 0.  1.
          4    1    6    6  503    0  0.22020614316E+02  0.15849314146E+03  0.36738066777E+03  0.40071628167E+03  0.00000000000E+00 0.  1.
         -4    1    6    6    0  503 -0.34557300721E+02  0.33796442952E+02  0.19080517389E+03  0.19683246931E+03  0.00000000000E+00 0. -1.
<mgrwt>
<rscale>  0 0.13739381E+04</rscale>
<asrwt>0</asrwt>
<pdfrwt beam="1">  1        2 0.52918668E-01 0.13739381E+04</pdfrwt>
<pdfrwt beam="2">  1       -1 0.21107595E+00 0.13739381E+04</pdfrwt>
<totfact> 0.13299176E+01</totfact>
</mgrwt>
</event>
<event>
11    6  0.1705838E-008  0.1337801E+04  0.7818608E-02  0.9000114E-01
         -1   -1    0    0    0  501 -0.00000000000E+00  0.00000000000E+00  0.96865668575E+03  0.96865668575E+03  0.00000000000E+00 0.  1.
          2   -1    0    0  501    0  0.00000000000E+00 -0.00000000000E+00 -0.46190537176E+03  0.46190537176E+03  0.00000000000E+00 0. -1.
         24    2    1    2    0    0 -0.24425599609E+03  0.15806305230E+03 -0.75675594862E+02  0.31289707510E+03  0.86792072331E+02 0.  0.
        254    2    1    2    0    0  0.24425599609E+03 -0.15806305230E+03  0.58242690885E+03  0.11176649824E+04  0.90846518295E+03 0.  0.
         23    2    4    4    0    0  0.46431760652E+03 -0.25596593301E+02  0.30639910871E+02  0.47643153266E+03  0.99005938517E+02 0.  0.
          4    1    3    3  502    0 -0.95369047851E+02  0.68679131231E+02  0.12407974860E+02  0.11817798524E+03  0.00000000000E+00 0. -1.
         -3    1    3    3    0  502 -0.14888694824E+03  0.89383921067E+02 -0.88083569721E+02  0.19471908986E+03  0.00000000000E+00 0.  1.
         11    1    4    4    0    0 -0.19275164768E+03 -0.48111169346E+02  0.21398510532E+03  0.29198888266E+03  0.00000000000E+00 0. -1.
        -11    1    4    4    0    0 -0.27309962755E+02 -0.84355289652E+02  0.33780189265E+03  0.34924456709E+03  0.00000000000E+00 0.  1.
          4    1    5    5  503    0  0.16266387250E+03  0.66543811191E-01  0.57431805984E+02  0.17250493380E+03  0.00000000000E+00 0. -1.
         -4    1    5    5    0  503  0.30165373402E+03 -0.25663137112E+02 -0.26791895112E+02  0.30392659886E+03  0.00000000000E+00 0.  1.
<mgrwt>
<rscale>  0 0.13378008E+04</rscale>
<asrwt>0</asrwt>
<pdfrwt beam="1">  1        2 0.71062365E-01 0.13378008E+04</pdfrwt>
<pdfrwt beam="2">  1       -1 0.14902411E+00 0.13378008E+04</pdfrwt>
<totfact> 0.26801947E+01</totfact>
</mgrwt>
</event>
<event>
12    6  0.1705838E-008  0.1925797E+04  0.7818608E-02  0.8642121E-01
         -1   -1    0    0    0  501 -0.00000000000E+00  0.00000000000E+00  0.40361054424E+03  0.40361054424E+03  0.00000000000E+00 0.  1.
          2   -1    0    0  501    0  0.00000000000E+00 -0.00000000000E+00 -0.22971985284E+04  0.22971985284E+04  0.00000000000E+00 0. -1.
         24    2    1    2    0    0  0.62522089555E+03 -0.20518344697E+03 -0.85513191220E+03  0.10819890911E+04  0.80301873001E+02 0.  0.
        254    2    1    2    0    0 -0.62522089555E+03  0.20518344697E+03 -0.10384560720E+04  0.16188199816E+04  0.10531788567E+04 0.  0.
         23    2    4    4    0    0 -0.26237555739E+03  0.92340776079E+02  0.18026041197E+03  0.33897442381E+03  0.71007688540E+02 0.  0.
         23    2    4    4    0    0 -0.36284533816E+03  0.11284267089E+03 -0.12187164839E+04  0.12798455578E+04  0.91348649165E+02 0.  0.
          2    1    3    3  502    0  0.35951502806E+03 -0.11302056212E+03 -0.55318467497E+03  0.66935639796E+03  0.00000000000E+00 0. -1.
         -1    1    3    3    0  502  0.26570586749E+03 -0.92162884848E+02 -0.30194723722E+03  0.41263269312E+03  0.00000000000E+00 0.  1.
         11    1    5    5    0    0 -0.24231475260E+03  0.62155224825E+02  0.14942906249E+03  0.29139107058E+03  0.00000000000E+00 0.  1.
        -11    1    5    5    0    0 -0.20060804790E+02  0.30185551254E+02  0.30831349486E+02  0.47583353229E+02  0.00000000000E+00 0. -1.
          1    1    6    6  503    0 -0.39877010313E+02  0.17834292639E+02 -0.26221259003E+03  0.26582641012E+03  0.00000000000E+00 0. -1.
         -1    1    6    6    0  503 -0.32296832785E+03  0.95008378249E+02 -0.95650389390E+03  0.10140191476E+04  0.00000000000E+00 0.  1.
<mgrwt>
<rscale>  0 0.19257970E+04</rscale>
<asrwt>0</asrwt>
<pdfrwt beam="1">  1        2 0.35341517E+00 0.19257970E+04</pdfrwt>
<pdfrwt beam="2">  1       -1 0.62093928E-01 0.19257970E+04</pdfrwt>
<totfact> 0.12740618E+01</totfact>
</mgrwt>
</event>
<event>
11    6  0.1705838E-008  0.2548033E+04  0.7818608E-02  0.8386071E-01
          2   -1    0    0  501    0  0.00000000000E+00  0.00000000000E+00  0.10884469014E+04  0.10884469014E+04  0.00000000000E+00 0. -1.
         -1   -1    0    0    0  501 -0.00000000000E+00 -0.00000000000E+00 -0.14912237291E+04  0.14912237291E+04  0.00000000000E+00 0.  1.
         24    2    1    2    0    0  0.58877808929E+03  0.65026406373E+03  0.51376886646E+03  0.10195536664E+04  0.77641737959E+02 0.  0.
        254    2    1    2    0    0 -0.58877808929E+03 -0.65026406373E+03 -0.91654569419E+03  0.15601169641E+04  0.90796802866E+03 0.  0.
         23    2    4    4    0    0 -0.79115713387E+03 -0.34338910592E+03 -0.60710661338E+03  0.10587266698E+04  0.92076234054E+02 0.  0.
          2    1    3    3  502    0  0.51947202352E+03  0.59916005121E+03  0.48067079582E+03  0.92730165757E+03  0.00000000000E+00 0. -1.
         -1    1    3    3    0  502  0.69306065769E+02  0.51104012524E+02  0.33098070639E+02  0.92252008805E+02  0.00000000000E+00 0.  1.
         11    1    4    4    0    0  0.13866713711E+03 -0.14974538333E+03 -0.24769250968E+03  0.32094210396E+03  0.00000000000E+00 0.  1.
        -11    1    4    4    0    0  0.63711907463E+02 -0.15712957449E+03 -0.61746571127E+02  0.18044819028E+03  0.00000000000E+00 0. -1.
          4    1    5    5  503    0 -0.14071002387E+03 -0.86407060500E+02 -0.15110473943E+03  0.22382612269E+03  0.00000000000E+00 0. -1.
         -4    1    5    5    0  503 -0.65044711000E+03 -0.25698204542E+03 -0.45600187395E+03  0.83490054714E+03  0.00000000000E+00 0.  1.
<mgrwt>
<rscale>  0 0.25480328E+04</rscale>
<asrwt>0</asrwt>
<pdfrwt beam="1">  1        2 0.16745337E+00 0.25480328E+04</pdfrwt>
<pdfrwt beam="2">  1       -1 0.22941903E+00 0.25480328E+04</pdfrwt>
<totfact> 0.21357950E+00</totfact>
</mgrwt>
</event>
<event>
12    6  0.1705838E-008  0.1711703E+04  0.7818608E-02  0.8754718E-01
          2   -1    0    0  501    0  0.00000000000E+00  0.00000000000E+00  0.11893183175E+04  0.11893183175E+04  0.00000000000E+00 0. -1.
         -1   -1    0    0    0  501 -0.00000000000E+00 -0.00000000000E+00 -0.61588350449E+03  0.61588350449E+03  0.00000000000E+00 0.  1.
         24    2    1    2    0    0  0.30839269626E+03 -0.25618269477E+03 -0.28558437980E+03  0.49957435246E+03  0.85325655227E+02 0.  0.
        254    2    1    2    0    0 -0.30839269626E+03  0.25618269477E+03  0.85901919278E+03  0.13056274695E+04  0.89778253901E+03 0.  0.
         23    2    4    4    0    0 -0.34831310353E+03  0.54834718500E+03  0.67200348935E+03  0.94318412712E+03  0.12649487959E+03 0.  0.
         23    2    4    4    0    0  0.39920407263E+02 -0.29216449023E+03  0.18701570343E+03  0.36244334239E+03  0.97142034389E+02 0.  0.
          4    1    3    3  502    0  0.53567353187E+02 -0.89961848825E+02 -0.88284837307E+02  0.13695549668E+03  0.00000000000E+00 0. -1.
         -3    1    3    3    0  502  0.25482534308E+03 -0.16622084595E+03 -0.19729954249E+03  0.36261885578E+03  0.00000000000E+00 0.  1.
         11    1    5    5    0    0 -0.32331629445E+03  0.50165446410E+03  0.65811855730E+03  0.88843157478E+03  0.00000000000E+00 0. -1.
        -11    1    5    5    0    0 -0.24996809080E+02  0.46692720904E+02  0.13884932052E+02  0.54752552340E+02  0.00000000000E+00 0.  1.
          4    1    6    6  503    0 -0.22194701388E+02 -0.48256312781E+02  0.83135422058E+01  0.53762361155E+02  0.00000000000E+00 0.  1.
         -4    1    6    6    0  503  0.62115108652E+02 -0.24390817744E+03  0.17870216123E+03  0.30868098123E+03  0.00000000000E+00 0. -1.
<mgrwt>
<rscale>  0 0.17117027E+04</rscale>
<asrwt>0</asrwt>
<pdfrwt beam="1">  1        2 0.18297205E+00 0.17117027E+04</pdfrwt>
<pdfrwt beam="2">  1       -1 0.94751309E-01 0.17117027E+04</pdfrwt>
<totfact> 0.22447244E+01</totfact>
</mgrwt>
</event>
<event>
12    6  0.1705838E-008  0.1749375E+04  0.7818608E-02  0.8733695E-01
         -1   -1    0    0    0  501 -0.00000000000E+00  0.00000000000E+00  0.62490091680E+03  0.62490091680E+03  0.00000000000E+00 0.  1.
          2   -1    0    0  501    0  0.00000000000E+00 -0.00000000000E+00 -0.12243187183E+04  0.12243187183E+04  0.00000000000E+00 0. -1.
         24    2    1    2    0    0 -0.20911976188E+03  0.57003668507E+03 -0.42308335290E+03  0.74458980545E+03  0.82106989650E+02 0.  0.
        254    2    1    2    0    0  0.20911976188E+03 -0.57003668507E+03 -0.17633444861E+03  0.11046298297E+04  0.90578161036E+03 0.  0.
         23    2    4    4    0    0 -0.20563281907E+03 -0.61385520112E+03 -0.51447367914E+02  0.66002190853E+03  0.11780926895E+03 0.  0.
         23    2    4    4    0    0  0.41475258095E+03  0.43818516047E+02 -0.12488708069E+03  0.44460792113E+03  0.90220035754E+02 0.  0.
          4    1    3    3  502    0 -0.14544021015E+03  0.37468124414E+03 -0.23240991778E+03  0.46427713633E+03  0.00000000000E+00 0. -1.
         -3    1    3    3    0  502 -0.63679551734E+02  0.19535544093E+03 -0.19067343512E+03  0.28031266912E+03  0.00000000000E+00 0.  1.
         11    1    5    5    0    0 -0.20208345436E+03 -0.50653679308E+03 -0.11580109783E+02  0.54548267086E+03  0.00000000000E+00 0. -1.
        -11    1    5    5    0    0 -0.35493647134E+01 -0.10731840804E+03 -0.39867258131E+02  0.11453923767E+03  0.00000000000E+00 0.  1.
          4    1    6    6  503    0  0.32100334572E+03 -0.33075283262E-01 -0.11353113904E+03  0.34048857336E+03  0.00000000000E+00 0. -1.
         -4    1    6    6    0  503  0.93749235225E+02  0.43851591331E+02 -0.11355941654E+02  0.10411934776E+03  0.00000000000E+00 0.  1.
<mgrwt>
<rscale>  0 0.17493746E+04</rscale>
<asrwt>0</asrwt>
<pdfrwt beam="1">  1        2 0.18835672E+00 0.17493746E+04</pdfrwt>
<pdfrwt beam="2">  1       -1 0.96138604E-01 0.17493746E+04</pdfrwt>
<totfact> 0.20639297E+01</totfact>
</mgrwt>
</event>
<event>
11    6  0.1705838E-008  0.1402933E+04  0.7818608E-02  0.8951698E-01
         -1   -1    0    0    0  501 -0.00000000000E+00  0.00000000000E+00  0.12575022078E+04  0.12575022078E+04  0.00000000000E+00 0.  1.
          2   -1    0    0  501    0  0.00000000000E+00 -0.00000000000E+00 -0.39129577908E+03  0.39129577908E+03  0.00000000000E+00 0. -1.
         24    2    1    2    0    0  0.11767478034E+03  0.70675731410E+02  0.62062976601E+03  0.64066432562E+03  0.80168938646E+02 0.  0.
        254    2    1    2    0    0 -0.11767478034E+03 -0.70675731410E+02  0.24557666272E+03  0.10081336613E+04  0.96808221178E+03 0.  0.
         23    2    4    4    0    0 -0.23401884982E+03 -0.45729844138E+03  0.88733138316E+02  0.52943196227E+03  0.92401007971E+02 0.  0.
          4    1    3    3  502    0 -0.17453759914E+01 -0.13013509397E+02  0.53089910737E+02  0.54689454068E+02  0.00000000000E+00 0. -1.
         -3    1    3    3    0  502  0.11942015633E+03  0.83689240806E+02  0.56753985528E+03  0.58597487155E+03  0.00000000000E+00 0.  1.
         11    1    4    4    0    0  0.75173621123E+02  0.36619677377E+02 -0.17636435622E+02  0.85458281901E+02  0.00000000000E+00 0. -1.
        -11    1    4    4    0    0  0.41170448358E+02  0.35000303259E+03  0.17447996003E+03  0.39324341710E+03  0.00000000000E+00 0.  1.
          1    1    5    5  503    0 -0.17848009909E+03 -0.40633786749E+03  0.56264487407E+02  0.44736037025E+03  0.00000000000E+00 0.  1.
         -1    1    5    5    0  503 -0.55538750735E+02 -0.50960573887E+02  0.32468650908E+02  0.82071592015E+02  0.00000000000E+00 0. -1.
<mgrwt>
<rscale>  0 0.14029331E+04</rscale>
<asrwt>0</asrwt>
<pdfrwt beam="1">  1        2 0.60199351E-01 0.14029331E+04</pdfrwt>
<pdfrwt beam="2">  1       -1 0.19346188E+00 0.14029331E+04</pdfrwt>
<totfact> 0.15166744E+01</totfact>
</mgrwt>
</event>
<event>
12    6  0.1705838E-008  0.1324972E+04  0.7818608E-02  0.9009993E-01
          2   -1    0    0  501    0  0.00000000000E+00  0.00000000000E+00  0.43532735441E+03  0.43532735441E+03  0.00000000000E+00 0. -1.
         -1   -1    0    0    0  501 -0.00000000000E+00 -0.00000000000E+00 -0.10081787285E+04  0.10081787285E+04  0.00000000000E+00 0.  1.
         24    2    1    2    0    0 -0.19732084446E+03 -0.54460884269E+01 -0.47043970141E+03  0.51639673929E+03  0.79918108996E+02 0.  0.
        254    2    1    2    0    0  0.19732084446E+03  0.54460884269E+01 -0.10241167271E+03  0.92710934365E+03  0.90004355941E+03 0.  0.
         23    2    4    4    0    0 -0.11310306595E+03  0.39149106814E+03  0.53438467546E+01  0.41199193925E+03  0.60425502473E+02 0.  0.
         23    2    4    4    0    0  0.31042391042E+03 -0.38604497971E+03 -0.10775551947E+03  0.51511740440E+03  0.91328844441E+02 0.  0.
          4    1    3    3  502    0 -0.11080043799E+03  0.66819462533E+01 -0.16618599499E+03  0.19984786813E+03  0.00000000000E+00 0. -1.
         -3    1    3    3    0  502 -0.86520406467E+02 -0.12128034680E+02 -0.30425370642E+03  0.31654887115E+03  0.00000000000E+00 0.  1.
         11    1    5    5    0    0 -0.10304916215E+03  0.37959700168E+03  0.15080588016E+02  0.39362474216E+03  0.00000000000E+00 0. -1.
        -11    1    5    5    0    0 -0.10053903800E+02  0.11894066453E+02 -0.97367412617E+01  0.18367197087E+02  0.00000000000E+00 0.  1.
          4    1    6    6  503    0  0.22640439916E+03 -0.31023180783E+03 -0.11722964942E+03  0.40155387839E+03  0.00000000000E+00 0. -1.
         -4    1    6    6    0  503  0.84019511258E+02 -0.75813171881E+02  0.94741299484E+01  0.11356352602E+03  0.00000000000E+00 0.  1.
<mgrwt>
<rscale>  0 0.13249721E+04</rscale>
<asrwt>0</asrwt>
<pdfrwt beam="1">  1        2 0.66973440E-01 0.13249721E+04</pdfrwt>
<pdfrwt beam="2">  1       -1 0.15510442E+00 0.13249721E+04</pdfrwt>
<totfact> 0.25758047E+01</totfact>
</mgrwt>
</event>
<event>
11    6  0.1705838E-008  0.1513827E+04  0.7818608E-02  0.8875310E-01
          2   -1    0    0  501    0  0.00000000000E+00  0.00000000000E+00  0.58871751236E+03  0.58871751236E+03  0.00000000000E+00 0. -1.
         -1   -1    0    0    0  501 -0.00000000000E+00 -0.00000000000E+00 -0.97316340529E+03  0.97316340529E+03  0.00000000000E+00 0.  1.
         24    2    1    2    0    0  0.45398918104E+03  0.15757934844E+03 -0.31165294318E+02  0.48820597584E+03  0.80227001219E+02 0.  0.
        254    2    1    2    0    0 -0.45398918104E+03 -0.15757934844E+03 -0.35328059861E+03  0.10736749418E+04  0.89276719908E+03 0.  0.
         23    2    4    4    0    0  0.20075917668E+03  0.89004972972E+02  0.45302257430E+02  0.24142954421E+03  0.89497475122E+02 0.  0.
          2    1    3    3  502    0  0.31853588526E+03  0.79115321908E+02 -0.43964972278E+02  0.33114538068E+03  0.00000000000E+00 0. -1.
         -1    1    3    3    0  502  0.13545329578E+03  0.78464026533E+02  0.12799677960E+02  0.15706059516E+03  0.00000000000E+00 0.  1.
         11    1    4    4    0    0 -0.51849541524E+03 -0.28071524284E+03 -0.33410390632E+03  0.67769016771E+03  0.00000000000E+00 0.  1.
        -11    1    4    4    0    0 -0.13625294248E+03  0.34130921429E+02 -0.64478949720E+02  0.15455522989E+03  0.00000000000E+00 0. -1.
          3    1    5    5  503    0  0.18264329935E+03  0.48786380355E+02  0.18822430103E+02  0.18998149800E+03  0.00000000000E+00 0. -1.
         -3    1    5    5    0  503  0.18115877325E+02  0.40218592618E+02  0.26479827327E+02  0.51448046209E+02  0.00000000000E+00 0.  1.
<mgrwt>
<rscale>  0 0.15138274E+04</rscale>
<asrwt>0</asrwt>
<pdfrwt beam="1">  1        2 0.90571926E-01 0.15138274E+04</pdfrwt>
<pdfrwt beam="2">  1       -1 0.14971745E+00 0.15138274E+04</pdfrwt>
<totfact> 0.19629822E+01</totfact>
</mgrwt>
</event>
<event>
11    6  0.1705838E-008  0.2187393E+04  0.7818608E-02  0.8523694E-01
          2   -1    0    0  501    0  0.00000000000E+00  0.00000000000E+00  0.31990315216E+04  0.31990315216E+04  0.00000000000E+00 0. -1.
         -1   -1    0    0    0  501 -0.00000000000E+00 -0.00000000000E+00 -0.37391703855E+03  0.37391703855E+03  0.00000000000E+00 0.  1.
         24    2    1    2    0    0 -0.37518907325E+03 -0.41048873480E+03  0.47889000856E+01  0.56190549521E+03  0.80293274284E+02 0.  0.
        254    2    1    2    0    0  0.37518907325E+03  0.41048873480E+03  0.28203255830E+04  0.30110430650E+04  0.89603353896E+03 0.  0.
         23    2    4    4    0    0  0.41855488475E+03  0.64300836169E+03  0.24439264358E+04  0.25632573220E+04  0.94147387994E+02 0.  0.
          4    1    3    3  502    0 -0.11929546980E+03 -0.18012243108E+03  0.22013645686E+02  0.21716376283E+03  0.00000000000E+00 0. -1.
         -3    1    3    3    0  502 -0.25589360346E+03 -0.23036630373E+03 -0.17224745600E+02  0.34474173238E+03  0.00000000000E+00 0.  1.
         11    1    4    4    0    0 -0.21793781287E+02 -0.17846563060E+03  0.24333533309E+03  0.30255087925E+03  0.00000000000E+00 0.  1.
        -11    1    4    4    0    0 -0.21572030206E+02 -0.54053996293E+02  0.13306381414E+03  0.14523486371E+03  0.00000000000E+00 0. -1.
          3    1    5    5  503    0  0.14386567107E+03  0.27214247842E+03  0.85832480574E+03  0.91185543373E+03  0.00000000000E+00 0. -1.
         -3    1    5    5    0  503  0.27468921367E+03  0.37086588327E+03  0.15856016300E+04  0.16514018883E+04  0.00000000000E+00 0.  1.
<mgrwt>
<rscale>  0 0.21873933E+04</rscale>
<asrwt>0</asrwt>
<pdfrwt beam="1">  1        2 0.49215868E+00 0.21873933E+04</pdfrwt>
<pdfrwt beam="2">  1       -1 0.57525700E-01 0.21873933E+04</pdfrwt>
<totfact> 0.41467947E+00</totfact>
</mgrwt>
</event>
<event>
11    6  0.2658578E-008  0.1986468E+04  0.7818608E-02  0.8612973E-01
         -1   -1    0    0    0  501 -0.00000000000E+00  0.00000000000E+00  0.79165040242E+03  0.79165040242E+03  0.00000000000E+00 0.  1.
          2   -1    0    0  501    0  0.00000000000E+00 -0.00000000000E+00 -0.12461486536E+04  0.12461486536E+04  0.00000000000E+00 0. -1.
         24    2    1    2    0    0  0.31771329635E+03 -0.27925642700E+03  0.50026943574E+03  0.66004527680E+03  0.80401295976E+02 0.  0.
        254    2    1    2    0    0 -0.31771329635E+03  0.27925642700E+03 -0.95476768697E+03  0.13777537793E+04  0.89872033997E+03 0.  0.
         23    2    4    4    0    0  0.23793460446E+03  0.32381550902E+03 -0.33112180560E+03  0.52871232135E+03  0.91791659324E+02 0.  0.
          2    1    3    3  502    0  0.31465587166E+02 -0.26064412735E+02  0.92862693253E+02  0.10145401217E+03  0.00000000000E+00 0. -1.
         -1    1    3    3    0  502  0.28624770918E+03 -0.25319201427E+03  0.40740674249E+03  0.55859126463E+03  0.00000000000E+00 0.  1.
         11    1    4    4    0    0 -0.32372003200E+03 -0.82419195580E+02 -0.43019983173E+03  0.54466455561E+03  0.00000000000E+00 0.  1.
        -11    1    4    4    0    0 -0.23192786881E+03  0.37860113564E+02 -0.19344604963E+03  0.30437690230E+03  0.00000000000E+00 0. -1.
          4    1    5    5  503    0  0.13963341434E+03  0.23666615534E+03 -0.18010385177E+03  0.32855099590E+03  0.00000000000E+00 0.  1.
         -4    1    5    5    0  503  0.98301190128E+02  0.87149353672E+02 -0.15101795384E+03  0.20016132545E+03  0.00000000000E+00 0. -1.
<mgrwt>
<rscale>  0 0.19864683E+04</rscale>
<asrwt>0</asrwt>
<pdfrwt beam="1">  1        2 0.19171518E+00 0.19864683E+04</pdfrwt>
<pdfrwt beam="2">  1       -1 0.12179237E+00 0.19864683E+04</pdfrwt>
<totfact> 0.11254448E+01</totfact>
</mgrwt>
</event>
<event>
12    6  0.1705838E-008  0.1290596E+04  0.7818608E-02  0.9037056E-01
          2   -1    0    0  501    0  0.00000000000E+00  0.00000000000E+00  0.51700988601E+03  0.51700988601E+03  0.00000000000E+00 0. -1.
         -1   -1    0    0    0  501 -0.00000000000E+00 -0.00000000000E+00 -0.80541879070E+03  0.80541879070E+03  0.00000000000E+00 0.  1.
         24    2    1    2    0    0  0.36271100837E+02 -0.32727054090E+03 -0.60103902928E+02  0.34487088900E+03  0.83077380981E+02 0.  0.
        254    2    1    2    0    0 -0.36271100837E+02  0.32727054090E+03 -0.22830500177E+03  0.97755778771E+03  0.89166947620E+03 0.  0.
         23    2    4    4    0    0 -0.29700482292E+03 -0.16735080808E+03  0.22467695816E+02  0.35779556974E+03  0.10627659464E+03 0.  0.
         23    2    4    4    0    0  0.26073372208E+03  0.49462134899E+03 -0.25077269758E+03  0.61976221797E+03  0.92660176289E+02 0.  0.
          4    1    3    3  502    0  0.18560067873E+02 -0.12624556301E+02  0.51781957860E+01  0.23036259524E+02  0.00000000000E+00 0. -1.
         -3    1    3    3    0  502  0.17711032964E+02 -0.31464598460E+03 -0.65282098714E+02  0.32183462947E+03  0.00000000000E+00 0.  1.
         11    1    5    5    0    0 -0.26682216325E+01 -0.33740274227E+02  0.18596198664E+01  0.33896662042E+02  0.00000000000E+00 0. -1.
        -11    1    5    5    0    0 -0.29433660128E+03 -0.13361053386E+03  0.20608075950E+02  0.32389890770E+03  0.00000000000E+00 0.  1.
          2    1    6    6  503    0  0.80927511426E+02  0.22135300327E+03 -0.14139180966E+03  0.27484187818E+03  0.00000000000E+00 0. -1.
         -2    1    6    6    0  503  0.17980621065E+03  0.27326834571E+03 -0.10938088792E+03  0.34492033979E+03  0.00000000000E+00 0.  1.
<mgrwt>
<rscale>  0 0.12905960E+04</rscale>
<asrwt>0</asrwt>
<pdfrwt beam="1">  1        2 0.79539983E-01 0.12905960E+04</pdfrwt>
<pdfrwt beam="2">  1       -1 0.12391058E+00 0.12905960E+04</pdfrwt>
<totfact> 0.37997586E+01</totfact>
</mgrwt>
</event>
<event>
11    6  0.1705838E-008  0.1600757E+04  0.7818608E-02  0.8820083E-01
          2   -1    0    0  501    0  0.00000000000E+00  0.00000000000E+00  0.79244867070E+03  0.79244867070E+03  0.00000000000E+00 0. -1.
         -1   -1    0    0    0  501 -0.00000000000E+00 -0.00000000000E+00 -0.80838721739E+03  0.80838721739E+03  0.00000000000E+00 0.  1.
         24    2    1    2    0    0 -0.10422887052E+03 -0.25054162289E+03 -0.47583384290E+03  0.55346832837E+03  0.79212260444E+02 0.  0.
        254    2    1    2    0    0  0.10422887052E+03  0.25054162289E+03  0.45989529622E+03  0.10473675597E+04  0.90102184182E+03 0.  0.
         23    2    4    4    0    0 -0.51622423512E+02 -0.27261609541E+02 -0.22431176545E+03  0.24902955919E+03  0.91059778554E+02 0.  0.
          2    1    3    3  502    0 -0.43647868189E+02 -0.13757869874E+03 -0.17760596686E+03  0.22886003191E+03  0.00000000000E+00 0. -1.
         -1    1    3    3    0  502 -0.60581002328E+02 -0.11296292415E+03 -0.29822787605E+03  0.32460829645E+03  0.00000000000E+00 0.  1.
         11    1    4    4    0    0 -0.56704469306E+02  0.28028495042E+02  0.22708448150E+03  0.23572941079E+03  0.00000000000E+00 0.  1.
        -11    1    4    4    0    0  0.21255576333E+03  0.24977473738E+03  0.45712258017E+03  0.56260858975E+03  0.00000000000E+00 0. -1.
          3    1    5    5  503    0 -0.76319463683E+02 -0.29039876416E+02 -0.18915719920E+03  0.20603014577E+03  0.00000000000E+00 0. -1.
         -3    1    5    5    0  503  0.24697040171E+02  0.17782668755E+01 -0.35154566247E+02  0.42999413418E+02  0.00000000000E+00 0.  1.
<mgrwt>
<rscale>  0 0.16007565E+04</rscale>
<asrwt>0</asrwt>
<pdfrwt beam="1">  1        2 0.12191518E+00 0.16007565E+04</pdfrwt>
<pdfrwt beam="2">  1       -1 0.12436726E+00 0.16007565E+04</pdfrwt>
<totfact> 0.21648253E+01</totfact>
</mgrwt>
</event>
<event>
11    6  0.1705838E-008  0.1220254E+04  0.7818608E-02  0.9095311E-01
          2   -1    0    0  501    0  0.00000000000E+00  0.00000000000E+00  0.25291115035E+04  0.25291115035E+04  0.00000000000E+00 0. -1.
         -1   -1    0    0    0  501 -0.00000000000E+00 -0.00000000000E+00 -0.14718805880E+03  0.14718805880E+03  0.00000000000E+00 0.  1.
         24    2    1    2    0    0  0.17383023276E+03  0.26486181426E+03  0.34856902649E+03  0.47772370608E+03  0.79692174286E+02 0.  0.
        254    2    1    2    0    0 -0.17383023276E+03 -0.26486181426E+03  0.20333544182E+04  0.21985758562E+04  0.77384551109E+03 0.  0.
         23    2    4    4    0    0 -0.17269165001E+03  0.20051796199E+03  0.12239532353E+04  0.12556050547E+04  0.91938415969E+02 0.  0.
          2    1    3    3  502    0  0.64465402138E+02  0.41754590507E+02  0.10190800806E+03  0.12761064222E+03  0.00000000000E+00 0. -1.
         -1    1    3    3    0  502  0.10936483062E+03  0.22310722375E+03  0.24666101843E+03  0.35011306385E+03  0.00000000000E+00 0.  1.
         11    1    4    4    0    0 -0.37989289869E+02 -0.21982791585E+03  0.27817505491E+03  0.35657938794E+03  0.00000000000E+00 0.  1.
        -11    1    4    4    0    0  0.36850707115E+02 -0.24555186040E+03  0.53122612802E+03  0.58639141352E+03  0.00000000000E+00 0. -1.
          2    1    5    5  503    0 -0.37451700519E+02  0.55916300879E+02  0.52007908111E+03  0.52441540136E+03  0.00000000000E+00 0.  1.
         -2    1    5    5    0  503 -0.13523994949E+03  0.14460166111E+03  0.70387415414E+03  0.73118965337E+03  0.00000000000E+00 0. -1.
<mgrwt>
<rscale>  0 0.12202541E+04</rscale>
<asrwt>0</asrwt>
<pdfrwt beam="1">  1        2 0.38909405E+00 0.12202541E+04</pdfrwt>
<pdfrwt beam="2">  1       -1 0.22644319E-01 0.12202541E+04</pdfrwt>
<totfact> 0.62735503E+01</totfact>
</mgrwt>
</event>
<event>
11    6  0.1705838E-008  0.1508082E+04  0.7818608E-02  0.8879096E-01
         -1   -1    0    0    0  501 -0.00000000000E+00  0.00000000000E+00  0.82499207868E+03  0.82499207868E+03  0.00000000000E+00 0.  1.
          2   -1    0    0  501    0  0.00000000000E+00 -0.00000000000E+00 -0.68919168947E+03  0.68919168947E+03  0.00000000000E+00 0. -1.
         24    2    1    2    0    0  0.31041600753E+03 -0.36475113539E+03  0.11290906036E+03  0.49865425764E+03  0.80660549491E+02 0.  0.
        254    2    1    2    0    0 -0.31041600753E+03  0.36475113539E+03  0.22891328843E+02  0.10155295105E+04  0.89519533359E+03 0.  0.
         23    2    4    4    0    0 -0.15507165616E+03  0.50707920091E+03  0.25845830049E+03  0.59678962019E+03  0.90446797243E+02 0.  0.
          4    1    3    3  502    0  0.25043513242E+03 -0.29167956516E+03  0.56508557361E+02  0.38857166821E+03  0.00000000000E+00 0. -1.
         -3    1    3    3    0  502  0.59980875114E+02 -0.73071570235E+02  0.56400503002E+02  0.11008258943E+03  0.00000000000E+00 0.  1.
         11    1    4    4    0    0 -0.13682109704E+03 -0.81384810305E+02  0.15283953089E+02  0.15992841888E+03  0.00000000000E+00 0. -1.
        -11    1    4    4    0    0 -0.18523254330E+02 -0.60943255216E+02 -0.25085092473E+03  0.25881147144E+03  0.00000000000E+00 0.  1.
          4    1    5    5  503    0 -0.15731701986E+03  0.45632261541E+03  0.25492074578E+03  0.54586038572E+03  0.00000000000E+00 0.  1.
         -4    1    5    5    0  503  0.22453636962E+01  0.50756585502E+02  0.35375547057E+01  0.50929234466E+02  0.00000000000E+00 0. -1.
<mgrwt>
<rscale>  0 0.15080818E+04</rscale>
<asrwt>0</asrwt>
<pdfrwt beam="1">  1        2 0.10602949E+00 0.15080818E+04</pdfrwt>
<pdfrwt beam="2">  1       -1 0.12692186E+00 0.15080818E+04</pdfrwt>
<totfact> 0.24834007E+01</totfact>
</mgrwt>
</event>
<event>
12    6  0.1705838E-008  0.1800251E+04  0.7818608E-02  0.8706166E-01
         -1   -1    0    0    0  501 -0.00000000000E+00  0.00000000000E+00  0.79156883243E+03  0.79156883243E+03  0.00000000000E+00 0.  1.
          2   -1    0    0  501    0  0.00000000000E+00 -0.00000000000E+00 -0.10235696915E+04  0.10235696915E+04  0.00000000000E+00 0. -1.
         24    2    1    2    0    0  0.21136642883E+03 -0.42005517509E+03  0.38982463994E+03  0.61638515929E+03  0.82736312047E+02 0.  0.
        254    2    1    2    0    0 -0.21136642883E+03  0.42005517509E+03 -0.62182549897E+03  0.11987533646E+04  0.91061548450E+03 0.  0.
         23    2    4    4    0    0 -0.42700897890E+03  0.28534473726E+03 -0.73686442508E+03  0.90503153226E+03  0.11115127665E+03 0.  0.
         23    2    4    4    0    0  0.21564255007E+03  0.13471043783E+03  0.11503892611E+03  0.29372183233E+03  0.91596663742E+02 0.  0.
          4    1    3    3  502    0  0.81538901765E+02 -0.83549058851E+02  0.92184583569E+02  0.14875158884E+03  0.00000000000E+00 0. -1.
         -3    1    3    3    0  502  0.12982752706E+03 -0.33650611624E+03  0.29764005637E+03  0.46763357044E+03  0.00000000000E+00 0.  1.
         11    1    5    5    0    0 -0.25805644197E+02  0.30426829857E+02 -0.19330165407E+02  0.44332590069E+02  0.00000000000E+00 0. -1.
        -11    1    5    5    0    0 -0.40120333470E+03  0.25491790740E+03 -0.71753425967E+03  0.86069894219E+03  0.00000000000E+00 0.  1.
          4    1    6    6  503    0  0.20986308762E+03  0.14607547968E+03  0.11631345621E+03  0.28090813695E+03  0.00000000000E+00 0.  1.
         -4    1    6    6    0  503  0.57794624516E+01 -0.11365041849E+02 -0.12745301024E+01  0.12813695386E+02  0.00000000000E+00 0. -1.
<mgrwt>
<rscale>  0 0.18002509E+04</rscale>
<asrwt>0</asrwt>
<pdfrwt beam="1">  1        2 0.15747226E+00 0.18002509E+04</pdfrwt>
<pdfrwt beam="2">  1       -1 0.12177982E+00 0.18002509E+04</pdfrwt>
<totfact> 0.15645194E+01</totfact>
</mgrwt>
</event>
<event>
11    6  0.1705838E-008  0.3005063E+04  0.7818608E-02  0.8242286E-01
          2   -1    0    0  501    0  0.00000000000E+00  0.00000000000E+00  0.18109386909E+04  0.18109386909E+04  0.00000000000E+00 0. -1.
         -1   -1    0    0    0  501 -0.00000000000E+00 -0.00000000000E+00 -0.12466470757E+04  0.12466470757E+04  0.00000000000E+00 0.  1.
         24    2    1    2    0    0 -0.50404218109E+03  0.19605719134E+03 -0.10214424687E+04  0.11585413948E+04  0.79853014661E+02 0.  0.
        254    2    1    2    0    0  0.50404218109E+03 -0.19605719134E+03  0.15857340839E+04  0.18990443717E+04  0.89404697764E+03 0.  0.
         23    2    4    4    0    0  0.41712068546E+03  0.10821617217E+03  0.23672165506E+03  0.49888379586E+03  0.84542850928E+02 0.  0.
          4    1    3    3  502    0 -0.41950444132E+01 -0.13515258960E+01 -0.34366955218E+02  0.34648414550E+02  0.00000000000E+00 0. -1.
         -1    1    3    3    0  502 -0.49984713668E+03  0.19740871724E+03 -0.98707551351E+03  0.11238929803E+04  0.00000000000E+00 0.  1.
         11    1    4    4    0    0  0.14916414272E+03 -0.17123416987E+03  0.76812377008E+03  0.80099014262E+03  0.00000000000E+00 0.  1.
        -11    1    4    4    0    0 -0.62242647089E+02 -0.13303919363E+03  0.58088865879E+03  0.59917043324E+03  0.00000000000E+00 0. -1.
          2    1    5    5  503    0  0.33728871323E+03  0.10174388330E+03  0.22478819622E+03  0.41790576333E+03  0.00000000000E+00 0. -1.
         -2    1    5    5    0  503  0.79831972229E+02  0.64722888647E+01  0.11933458835E+02  0.80978032533E+02  0.00000000000E+00 0.  1.
<mgrwt>
<rscale>  0 0.30050633E+04</rscale>
<asrwt>0</asrwt>
<pdfrwt beam="1">  1        2 0.27860595E+00 0.30050633E+04</pdfrwt>
<pdfrwt beam="2">  1       -1 0.19179186E+00 0.30050633E+04</pdfrwt>
<totfact> 0.14222861E+00</totfact>
</mgrwt>
</event>
<event>
12    6  0.1705838E-008  0.2126172E+04  0.7818608E-02  0.8549801E-01
          2   -1    0    0  501    0  0.00000000000E+00  0.00000000000E+00  0.10914917390E+04  0.10914917390E+04  0.00000000000E+00 0. -1.
         -1   -1    0    0    0  501 -0.00000000000E+00 -0.00000000000E+00 -0.10354198532E+04  0.10354198532E+04  0.00000000000E+00 0.  1.
         24    2    1    2    0    0 -0.36796178421E+03 -0.76969295098E+03 -0.67246993410E+02  0.85935507184E+03  0.78395586278E+02 0.  0.
        254    2    1    2    0    0  0.36796178421E+03  0.76969295098E+03  0.12331887918E+03  0.12675565204E+04  0.92933786810E+03 0.  0.
         23    2    4    4    0    0 -0.26193672522E+03  0.36867598442E+02  0.14437954178E+02  0.29070795871E+03  0.11971881599E+03 0.  0.
         23    2    4    4    0    0  0.62989850942E+03  0.73282535254E+03  0.10888092500E+03  0.97684856172E+03  0.92590103208E+02 0.  0.
          4    1    3    3  502    0 -0.18849207690E+03 -0.37635091707E+03 -0.71718285115E+02  0.42698101627E+03  0.00000000000E+00 0. -1.
         -3    1    3    3    0  502 -0.17946970731E+03 -0.39334203391E+03  0.44712917051E+01  0.43237405557E+03  0.00000000000E+00 0.  1.
         11    1    5    5    0    0 -0.15602059458E+03 -0.38076077689E+02  0.83139800669E+01  0.16081460099E+03  0.00000000000E+00 0. -1.
        -11    1    5    5    0    0 -0.10591613063E+03  0.74943676130E+02  0.61239741108E+01  0.12989335772E+03  0.00000000000E+00 0.  1.
          1    1    6    6  503    0  0.23970425912E+03  0.23134474157E+03  0.61122578568E+01  0.33319045753E+03  0.00000000000E+00 0. -1.
         -1    1    6    6    0  503  0.39019425031E+03  0.50148061097E+03  0.10276866714E+03  0.64365810420E+03  0.00000000000E+00 0.  1.
<mgrwt>
<rscale>  0 0.21261724E+04</rscale>
<asrwt>0</asrwt>
<pdfrwt beam="1">  1        2 0.16792181E+00 0.21261724E+04</pdfrwt>
<pdfrwt beam="2">  1       -1 0.15929536E+00 0.21261724E+04</pdfrwt>
<totfact> 0.68419353E+00</totfact>
</mgrwt>
</event>
<event>
12    6  0.1705838E-008  0.1675520E+04  0.7818608E-02  0.8775451E-01
         -1   -1    0    0    0  501 -0.00000000000E+00  0.00000000000E+00  0.21478791475E+03  0.21478791475E+03  0.00000000000E+00 0.  1.
          2   -1    0    0  501    0  0.00000000000E+00 -0.00000000000E+00 -0.32676025918E+04  0.32676025918E+04  0.00000000000E+00 0. -1.
         24    2    1    2    0    0 -0.27045964783E+02  0.41147775679E+03 -0.20413368035E+03  0.46705680935E+03  0.80162804104E+02 0.  0.
        254    2    1    2    0    0  0.27045964783E+02 -0.41147775679E+03 -0.28486809967E+04  0.30153336972E+04  0.89844780370E+03 0.  0.
         23    2    4    4    0    0 -0.24692731659E+03  0.76773217455E+02 -0.32942133138E+03  0.43307520385E+03  0.11031088809E+03 0.  0.
         23    2    4    4    0    0  0.27397328137E+03 -0.48825097425E+03 -0.25192596654E+04  0.25822584934E+04  0.89102706960E+02 0.  0.
          4    1    3    3  502    0 -0.35823315551E+01  0.39484810370E+02 -0.49753680951E+02  0.63618488803E+02  0.00000000000E+00 0. -1.
         -3    1    3    3    0  502 -0.23463633228E+02  0.37199294642E+03 -0.15437999940E+03  0.40343832055E+03  0.00000000000E+00 0.  1.
         11    1    5    5    0    0 -0.17325797584E+03  0.19011710546E+02 -0.14689614281E+03  0.22794351954E+03  0.00000000000E+00 0. -1.
        -11    1    5    5    0    0 -0.73669340750E+02  0.57761506909E+02 -0.18252518857E+03  0.20513168431E+03  0.00000000000E+00 0.  1.
          2    1    6    6  503    0  0.26952881948E+03 -0.44095894706E+03 -0.22282604371E+04  0.22874079551E+04  0.00000000000E+00 0. -1.
         -2    1    6    6    0  503  0.44444618851E+01 -0.47292027182E+02 -0.29099922821E+03  0.29485053823E+03  0.00000000000E+00 0.  1.
<mgrwt>
<rscale>  0 0.16755197E+04</rscale>
<asrwt>0</asrwt>
<pdfrwt beam="1">  1        2 0.50270806E+00 0.16755197E+04</pdfrwt>
<pdfrwt beam="2">  1       -1 0.33044297E-01 0.16755197E+04</pdfrwt>
<totfact> 0.11011416E+01</totfact>
</mgrwt>
</event>
<event>
12    6  0.1705838E-008  0.2976214E+04  0.7818608E-02  0.8250556E-01
         -1   -1    0    0    0  501 -0.00000000000E+00  0.00000000000E+00  0.82834061364E+03  0.82834061364E+03  0.00000000000E+00 0.  1.
          2   -1    0    0  501    0  0.00000000000E+00 -0.00000000000E+00 -0.26733724303E+04  0.26733724303E+04  0.00000000000E+00 0. -1.
         24    2    1    2    0    0 -0.69542393010E+03 -0.40583222881E+01  0.52352315349E+03  0.87407037766E+03  0.79319734773E+02 0.  0.
        254    2    1    2    0    0  0.69542393010E+03  0.40583222881E+01 -0.23685549701E+04  0.26276426663E+04  0.90045678546E+03 0.  0.
         23    2    4    4    0    0  0.77076051806E+03 -0.11129087191E+03 -0.23242300748E+04  0.24538809381E+04  0.11414369734E+03 0.  0.
         23    2    4    4    0    0 -0.75336587957E+02  0.11534919420E+03 -0.44324895356E+02  0.17376172813E+03  0.96163421984E+02 0.  0.
          4    1    3    3  502    0 -0.14009674235E+03 -0.22088888619E+02  0.13731565681E+03  0.19740974095E+03  0.00000000000E+00 0. -1.
         -3    1    3    3    0  502 -0.55532718776E+03  0.18030566331E+02  0.38620749669E+03  0.67666063672E+03  0.00000000000E+00 0.  1.
         11    1    5    5    0    0  0.66730462617E+03 -0.13349438444E+03 -0.20461399873E+04  0.21563406647E+04  0.00000000000E+00 0.  1.
        -11    1    5    5    0    0  0.10345589189E+03  0.22203512529E+02 -0.27809008752E+03  0.29754027343E+03  0.00000000000E+00 0. -1.
          3    1    6    6  503    0 -0.69387949488E+02  0.11509290412E+03 -0.67106893776E+02  0.15021451097E+03  0.00000000000E+00 0. -1.
         -3    1    6    6    0  503 -0.59486384684E+01  0.25629008015E+00  0.22781998419E+02  0.23547217165E+02  0.00000000000E+00 0.  1.
<mgrwt>
<rscale>  0 0.29762143E+04</rscale>
<asrwt>0</asrwt>
<pdfrwt beam="1">  1        2 0.41128807E+00 0.29762143E+04</pdfrwt>
<pdfrwt beam="2">  1       -1 0.12743702E+00 0.29762143E+04</pdfrwt>
<totfact> 0.14310092E+00</totfact>
</mgrwt>
</event>
<event>
11    6  0.1705838E-008  0.1734291E+04  0.7818608E-02  0.8742045E-01
         -1   -1    0    0    0  501 -0.00000000000E+00  0.00000000000E+00  0.30979547453E+03  0.30979547453E+03  0.00000000000E+00 0.  1.
          2   -1    0    0  501    0  0.00000000000E+00 -0.00000000000E+00 -0.24272187393E+04  0.24272187393E+04  0.00000000000E+00 0. -1.
         24    2    1    2    0    0  0.13103398499E+03  0.97646554281E+02  0.18485730467E+03  0.25852934430E+03  0.77203911763E+02 0.  0.
        254    2    1    2    0    0 -0.13103398499E+03 -0.97646554281E+02 -0.23022805694E+04  0.24784848695E+04  0.90315373735E+03 0.  0.
         23    2    4    4    0    0  0.56521198882E+02  0.29442618518E+03 -0.14827330975E+04  0.15156474529E+04  0.93852748903E+02 0.  0.
          2    1    3    3  502    0  0.63868190852E+02  0.23729542107E+02  0.30431920198E+02  0.74621302175E+02  0.00000000000E+00 0. -1.
         -1    1    3    3    0  502  0.67165794135E+02  0.73917012174E+02  0.15442538447E+03  0.18390804213E+03  0.00000000000E+00 0.  1.
         11    1    4    4    0    0 -0.17565108042E+03 -0.15616377984E+03 -0.58279392887E+03  0.62840209398E+03  0.00000000000E+00 0. -1.
        -11    1    4    4    0    0 -0.11904103453E+02 -0.23590895963E+03 -0.23675354304E+03  0.33443532268E+03  0.00000000000E+00 0.  1.
          3    1    5    5  503    0  0.61419183998E+02  0.12590468021E+03 -0.53504696974E+03  0.55308187865E+03  0.00000000000E+00 0.  1.
         -3    1    5    5    0  503 -0.48979851158E+01  0.16852150498E+03 -0.94768612778E+03  0.96256557423E+03  0.00000000000E+00 0. -1.
<mgrwt>
<rscale>  0 0.17342911E+04</rscale>
<asrwt>0</asrwt>
<pdfrwt beam="1">  1        2 0.37341826E+00 0.17342911E+04</pdfrwt>
<pdfrwt beam="2">  1       -1 0.47660843E-01 0.17342911E+04</pdfrwt>
<totfact> 0.18239066E+01</totfact>
</mgrwt>
</event>
<event>
12    6  0.1705838E-008  0.1168163E+04  0.7818608E-02  0.9141189E-01
         -3   -1    0    0    0  501 -0.00000000000E+00  0.00000000000E+00  0.79036084950E+03  0.79036084950E+03  0.00000000000E+00 0.  1.
          4   -1    0    0  501    0  0.00000000000E+00 -0.00000000000E+00 -0.43163988782E+03  0.43163988782E+03  0.00000000000E+00 0. -1.
         24    2    1    2    0    0  0.13397300814E+03 -0.17681388471E+03 -0.12127616852E+02  0.23607174233E+03  0.79817740500E+02 0.  0.
        254    2    1    2    0    0 -0.13397300814E+03  0.17681388471E+03  0.37084857853E+03  0.98592899499E+03  0.88618022898E+03 0.  0.
         23    2    4    4    0    0 -0.13477456858E+03  0.47054105302E+03 -0.95396904258E+01  0.49575301119E+03  0.78147140051E+02 0.  0.
         23    2    4    4    0    0  0.80156043639E+00 -0.29372716831E+03  0.38038826896E+03  0.49017598380E+03  0.96441526470E+02 0.  0.
          4    1    3    3  502    0  0.57478734521E+02 -0.85680553255E+02 -0.45107293825E+02  0.11260386354E+03  0.00000000000E+00 0. -1.
         -3    1    3    3    0  502  0.76494273621E+02 -0.91133331455E+02  0.32979676973E+02  0.12346787879E+03  0.00000000000E+00 0.  1.
         11    1    5    5    0    0 -0.75528828442E+02  0.28129974131E+03  0.32426128964E+02  0.29306245448E+03  0.00000000000E+00 0.  1.
        -11    1    5    5    0    0 -0.59245740137E+02  0.18924131172E+03 -0.41965819390E+02  0.20269055672E+03  0.00000000000E+00 0. -1.
          4    1    6    6  503    0  0.40008919329E+02 -0.11441722819E+03  0.19274097864E+03  0.22768640842E+03  0.00000000000E+00 0. -1.
         -4    1    6    6    0  503 -0.39207358892E+02 -0.17930994012E+03  0.18764729032E+03  0.26248957538E+03  0.00000000000E+00 0.  1.
<mgrwt>
<rscale>  0 0.11681631E+04</rscale>
<asrwt>0</asrwt>
<pdfrwt beam="1">  1        4 0.66406137E-01 0.11681631E+04</pdfrwt>
<pdfrwt beam="2">  1       -3 0.12159398E+00 0.11681631E+04</pdfrwt>
<totfact> 0.26017543E+00</totfact>
</mgrwt>
</event>
<event>
12    6  0.1705838E-008  0.2101305E+04  0.7818608E-02  0.8560669E-01
          2   -1    0    0  501    0  0.00000000000E+00  0.00000000000E+00  0.11030972086E+04  0.11030972086E+04  0.00000000000E+00 0. -1.
         -1   -1    0    0    0  501 -0.00000000000E+00 -0.00000000000E+00 -0.10007015745E+04  0.10007015745E+04  0.00000000000E+00 0.  1.
         24    2    1    2    0    0 -0.38382283860E+03 -0.60294205051E+03 -0.43008449574E+03  0.83783681255E+03  0.78350260336E+02 0.  0.
        254    2    1    2    0    0  0.38382283860E+03  0.60294205051E+03  0.53248012986E+03  0.12659619705E+04  0.89903589155E+03 0.  0.
         23    2    4    4    0    0 -0.29160706001E+02 -0.17365224752E+03 -0.34640082030E+02  0.21538903287E+03  0.11910940499E+03 0.  0.
         23    2    4    4    0    0  0.41298354460E+03  0.77659429803E+03  0.56712021189E+03  0.10505729376E+04  0.91782627251E+02 0.  0.
          4    1    3    3  502    0 -0.35122755024E+02 -0.57036256219E+02 -0.15490617594E+02  0.68751012191E+02  0.00000000000E+00 0. -1.
         -3    1    3    3    0  502 -0.34870008358E+03 -0.54590579429E+03 -0.41459387814E+03  0.76908580036E+03  0.00000000000E+00 0.  1.
         11    1    5    5    0    0 -0.89736081081E+01  0.15531156103E+02 -0.16322035842E+02  0.24251830991E+02  0.00000000000E+00 0. -1.
        -11    1    5    5    0    0 -0.20187097893E+02 -0.18918340362E+03 -0.18318046188E+02  0.19113720188E+03  0.00000000000E+00 0.  1.
          2    1    6    6  503    0  0.29566816389E+03  0.47633518426E+03  0.38778559930E+03  0.68168360837E+03  0.00000000000E+00 0. -1.
         -2    1    6    6    0  503  0.11731538072E+03  0.30025911377E+03  0.17933461260E+03  0.36888932924E+03  0.00000000000E+00 0.  1.
<mgrwt>
<rscale>  0 0.21013054E+04</rscale>
<asrwt>0</asrwt>
<pdfrwt beam="1">  1        2 0.16970726E+00 0.21013054E+04</pdfrwt>
<pdfrwt beam="2">  1       -1 0.15395409E+00 0.21013054E+04</pdfrwt>
<totfact> 0.74097653E+00</totfact>
</mgrwt>
</event>
<event>
11    6  0.1705838E-008  0.1169644E+04  0.7818608E-02  0.9139850E-01
         -1   -1    0    0    0  501 -0.00000000000E+00  0.00000000000E+00  0.12295869100E+03  0.12295869100E+03  0.00000000000E+00 0.  1.
          2   -1    0    0  501    0  0.00000000000E+00 -0.00000000000E+00 -0.27815567977E+04  0.27815567977E+04  0.00000000000E+00 0. -1.
         24    2    1    2    0    0 -0.15398228620E+02 -0.27779178876E+02  0.15674624913E+02  0.86779079263E+02  0.79222007724E+02 0.  0.
        254    2    1    2    0    0  0.15398228620E+02  0.27779178876E+02 -0.26742727316E+04  0.28177364095E+04  0.88707104668E+03 0.  0.
         23    2    4    4    0    0  0.27010665692E+03  0.25546933185E+03 -0.16239183059E+04  0.16684241412E+04  0.91138712584E+02 0.  0.
          2    1    3    3  502    0  0.13329168971E+02 -0.14400110293E+02 -0.27153512041E+02  0.33501390091E+02  0.00000000000E+00 0. -1.
         -1    1    3    3    0  502 -0.28727397591E+02 -0.13379068584E+02  0.42828136954E+02  0.53277689171E+02  0.00000000000E+00 0.  1.
         11    1    4    4    0    0 -0.23890215893E+02  0.42133871192E+01 -0.55574168882E+03  0.55627090499E+03  0.00000000000E+00 0.  1.
        -11    1    4    4    0    0 -0.23081821240E+03 -0.23190354009E+03 -0.49461273686E+03  0.59304136327E+03  0.00000000000E+00 0. -1.
          4    1    5    5  503    0  0.21159226332E+03  0.16389176202E+03 -0.12824221807E+04  0.13100528405E+04  0.00000000000E+00 0. -1.
         -4    1    5    5    0  503  0.58514393593E+02  0.91577569822E+02 -0.34149612527E+03  0.35837130065E+03  0.00000000000E+00 0.  1.
<mgrwt>
<rscale>  0 0.11696437E+04</rscale>
<asrwt>0</asrwt>
<pdfrwt beam="1">  1        2 0.42793185E+00 0.11696437E+04</pdfrwt>
<pdfrwt beam="2">  1       -1 0.18916720E-01 0.11696437E+04</pdfrwt>
<totfact> 0.60677129E+01</totfact>
</mgrwt>
</event>
<event>
12    6  0.1705838E-008  0.1620224E+04  0.7818608E-02  0.8808219E-01
         -1   -1    0    0    0  501 -0.00000000000E+00  0.00000000000E+00  0.19801464960E+03  0.19801464960E+03  0.00000000000E+00 0.  1.
          2   -1    0    0  501    0  0.00000000000E+00 -0.00000000000E+00 -0.33143070596E+04  0.33143070596E+04  0.00000000000E+00 0. -1.
         24    2    1    2    0    0 -0.53453909976E+03  0.73856873407E+02 -0.90389267556E+03  0.10556789233E+04  0.79051459265E+02 0.  0.
        254    2    1    2    0    0  0.53453909976E+03 -0.73856873407E+02 -0.22123997345E+04  0.24566427859E+04  0.92151739306E+03 0.  0.
         23    2    4    4    0    0  0.49316699152E+03 -0.18119576593E+03 -0.48494865682E+03  0.72287329668E+03  0.10641905933E+03 0.  0.
         23    2    4    4    0    0  0.41372108235E+02  0.10733889252E+03 -0.17274510776E+04  0.17337694892E+04  0.92930764702E+02 0.  0.
          2    1    3    3  502    0 -0.46047854291E+03  0.66324729725E+02 -0.82551066444E+03  0.94757971451E+03  0.00000000000E+00 0. -1.
         -1    1    3    3    0  502 -0.74060556849E+02  0.75321436823E+01 -0.78382011117E+02  0.10809920877E+03  0.00000000000E+00 0.  1.
         11    1    5    5    0    0  0.40673184027E+03 -0.16302892398E+03 -0.34642369752E+03  0.55858624952E+03  0.00000000000E+00 0.  1.
        -11    1    5    5    0    0  0.86435151246E+02 -0.18166841957E+02 -0.13852495930E+03  0.16428704716E+03  0.00000000000E+00 0. -1.
          3    1    6    6  503    0 -0.27372388460E+02  0.22808116433E+02 -0.28690105817E+03  0.28910495500E+03  0.00000000000E+00 0. -1.
         -3    1    6    6    0  503  0.68744496695E+02  0.84530776092E+02 -0.14405500195E+04  0.14446645342E+04  0.00000000000E+00 0.  1.
<mgrwt>
<rscale>  0 0.16202239E+04</rscale>
<asrwt>0</asrwt>
<pdfrwt beam="1">  1        2 0.50989337E+00 0.16202239E+04</pdfrwt>
<pdfrwt beam="2">  1       -1 0.30463794E-01 0.16202239E+04</pdfrwt>
<totfact> 0.11905347E+01</totfact>
</mgrwt>
</event>
<event>
11    6  0.1705838E-008  0.1661278E+04  0.7818608E-02  0.8783762E-01
          2   -1    0    0  501    0  0.00000000000E+00  0.00000000000E+00  0.19282113171E+04  0.19282113171E+04  0.00000000000E+00 0. -1.
         -1   -1    0    0    0  501 -0.00000000000E+00 -0.00000000000E+00 -0.35782445769E+03  0.35782445769E+03  0.00000000000E+00 0.  1.
         24    2    1    2    0    0 -0.13117686966E+03 -0.44562393167E+03  0.10538703931E+04  0.11544384780E+04  0.79355746190E+02 0.  0.
        254    2    1    2    0    0  0.13117686966E+03  0.44562393167E+03  0.51651646632E+03  0.11315972968E+04  0.89327214359E+03 0.  0.
         23    2    4    4    0    0  0.11989224153E+02 -0.25451889372E+03  0.20582103654E+03  0.34031273527E+03  0.92340944061E+02 0.  0.
          2    1    3    3  502    0 -0.13735704478E+03 -0.44412131235E+03  0.10383081805E+04  0.11376267294E+04  0.00000000000E+00 0. -1.
         -1    1    3    3    0  502  0.61801751154E+01 -0.15026193263E+01  0.15562212620E+02  0.16811748598E+02  0.00000000000E+00 0.  1.
         11    1    4    4    0    0  0.13333524176E+03  0.38391669012E+03  0.21934061377E+03  0.46182314418E+03  0.00000000000E+00 0. -1.
        -11    1    4    4    0    0 -0.14147596256E+02  0.31622613527E+03  0.91354816007E+02  0.32946141734E+03  0.00000000000E+00 0.  1.
          3    1    5    5  503    0 -0.23825209337E+02 -0.56815242508E+02  0.15426638711E+02  0.63510578356E+02  0.00000000000E+00 0. -1.
         -3    1    5    5    0  503  0.35814433489E+02 -0.19770365121E+03  0.19039439783E+03  0.27680215692E+03  0.00000000000E+00 0.  1.
<mgrwt>
<rscale>  0 0.16612780E+04</rscale>
<asrwt>0</asrwt>
<pdfrwt beam="1">  1        2 0.29664789E+00 0.16612780E+04</pdfrwt>
<pdfrwt beam="2">  1       -1 0.55049917E-01 0.16612780E+04</pdfrwt>
<totfact> 0.26557879E+01</totfact>
</mgrwt>
</event>
<event>
12    6  0.1705838E-008  0.1116714E+04  0.7818608E-02  0.9189052E-01
         -1   -1    0    0    0  501 -0.00000000000E+00  0.00000000000E+00  0.25604895061E+03  0.25604895061E+03  0.00000000000E+00 0.  1.
          2   -1    0    0  501    0  0.00000000000E+00 -0.00000000000E+00 -0.12175905891E+04  0.12175905891E+04  0.00000000000E+00 0. -1.
         24    2    1    2    0    0  0.16203331252E+03 -0.67472361576E+02 -0.13083585355E+03  0.23329748203E+03  0.80637340020E+02 0.  0.
        254    2    1    2    0    0 -0.16203331252E+03  0.67472361576E+02 -0.83070578495E+03  0.12403420577E+04  0.90419522505E+03 0.  0.
         23    2    4    4    0    0 -0.35404994742E+03  0.34477073655E+03 -0.71517067662E+03  0.87214154020E+03  0.70310336305E+02 0.  0.
         23    2    4    4    0    0  0.19201663490E+03 -0.27729837497E+03 -0.11553510833E+03  0.36820051750E+03  0.91970011374E+02 0.  0.
          2    1    3    3  502    0  0.29407107372E+02 -0.43692628397E+02 -0.12878188151E+02  0.54218737262E+02  0.00000000000E+00 0. -1.
         -1    1    3    3    0  502  0.13262620514E+03 -0.23779733179E+02 -0.11795766540E+03  0.17907874477E+03  0.00000000000E+00 0.  1.
         11    1    5    5    0    0 -0.28206812123E+03  0.25264675888E+03 -0.58813440215E+03  0.69949616495E+03  0.00000000000E+00 0. -1.
        -11    1    5    5    0    0 -0.71981826186E+02  0.92123977669E+02 -0.12703627448E+03  0.17264537525E+03  0.00000000000E+00 0.  1.
          1    1    6    6  503    0  0.98485024859E+02 -0.15402889795E+03 -0.14495782217E+02  0.18339664454E+03  0.00000000000E+00 0. -1.
         -1    1    6    6    0  503  0.93531610043E+02 -0.12326947702E+03 -0.10103932611E+03  0.18480387296E+03  0.00000000000E+00 0.  1.
<mgrwt>
<rscale>  0 0.11167145E+04</rscale>
<asrwt>0</asrwt>
<pdfrwt beam="1">  1        2 0.18732163E+00 0.11167145E+04</pdfrwt>
<pdfrwt beam="2">  1       -1 0.39392145E-01 0.11167145E+04</pdfrwt>
<totfact> 0.13083319E+02</totfact>
</mgrwt>
</event>
<event>
11    6  0.1705838E-008  0.2701527E+04  0.7818608E-02  0.8334510E-01
          2   -1    0    0  501    0  0.00000000000E+00  0.00000000000E+00  0.99800693178E+03  0.99800693178E+03  0.00000000000E+00 0. -1.
         -1   -1    0    0    0  501 -0.00000000000E+00 -0.00000000000E+00 -0.18282063275E+04  0.18282063275E+04  0.00000000000E+00 0.  1.
         24    2    1    2    0    0  0.28071780719E+03 -0.30956018130E+03 -0.15455344441E+04  0.16031419426E+04  0.82203266834E+02 0.  0.
        254    2    1    2    0    0 -0.28071780719E+03  0.30956018130E+03  0.71533504839E+03  0.12230713167E+04  0.89976064657E+03 0.  0.
         23    2    4    4    0    0 -0.50471981571E+03 -0.55588280924E+02  0.40062097401E+03  0.65332773908E+03  0.92237847346E+02 0.  0.
          4    1    3    3  502    0  0.11433469718E+03 -0.73561934231E+02 -0.44046084531E+03  0.46096587444E+03  0.00000000000E+00 0. -1.
         -3    1    3    3    0  502  0.16638311001E+03 -0.23599824707E+03 -0.11050735988E+04  0.11421760681E+04  0.00000000000E+00 0.  1.
         11    1    4    4    0    0  0.21763086593E+03  0.17844988401E+03  0.23495571502E+03  0.36662207098E+03  0.00000000000E+00 0. -1.
        -11    1    4    4    0    0  0.63711425882E+01  0.18669857822E+03  0.79758359355E+02  0.20312150663E+03  0.00000000000E+00 0.  1.
          4    1    5    5  503    0 -0.50114042595E+03 -0.60850176676E+02  0.38031374308E+03  0.63204668633E+03  0.00000000000E+00 0. -1.
         -4    1    5    5    0  503 -0.35793897585E+01  0.52618957524E+01  0.20307230930E+02  0.21281052747E+02  0.00000000000E+00 0.  1.
<mgrwt>
<rscale>  0 0.27015274E+04</rscale>
<asrwt>0</asrwt>
<pdfrwt beam="1">  1        2 0.15353953E+00 0.27015274E+04</pdfrwt>
<pdfrwt beam="2">  1       -1 0.28126251E+00 0.27015274E+04</pdfrwt>
<totfact> 0.11032580E+00</totfact>
</mgrwt>
</event>
<event>
12    6  0.3323505E-008  0.1402235E+04  0.7818608E-02  0.8952202E-01
          2   -1    0    0  501    0  0.00000000000E+00  0.00000000000E+00  0.20149697442E+04  0.20149697442E+04  0.00000000000E+00 0. -1.
         -3   -1    0    0    0  501 -0.00000000000E+00 -0.00000000000E+00 -0.24395697096E+03  0.24395697096E+03  0.00000000000E+00 0.  1.
         24    2    1    2    0    0 -0.22915389489E+03 -0.72472047429E+01  0.10659019266E+04  0.10936583442E+04  0.85893114535E+02 0.  0.
        254    2    1    2    0    0  0.22915389489E+03  0.72472047429E+01  0.70511084668E+03  0.11652683710E+04  0.89894662851E+03 0.  0.
         23    2    4    4    0    0 -0.19498207905E+03 -0.14057130039E+03 -0.63836710147E+02  0.27019425107E+03  0.10560069179E+03 0.  0.
         23    2    4    4    0    0  0.42413597393E+03  0.14781850513E+03  0.76894755682E+03  0.89507411997E+03  0.90198116611E+02 0.  0.
          4    1    3    3  502    0 -0.20443515802E+03 -0.44301261650E+01  0.76922106521E+03  0.79593618275E+03  0.00000000000E+00 0. -1.
         -3    1    3    3    0  502 -0.24718736869E+02 -0.28170785780E+01  0.29668086138E+03  0.29772216141E+03  0.00000000000E+00 0.  1.
         11    1    5    5    0    0 -0.16953754853E+02 -0.28181553701E+02  0.25372334395E+02  0.41537755419E+02  0.00000000000E+00 0. -1.
        -11    1    5    5    0    0 -0.17802832419E+03 -0.11238974669E+03 -0.89209044542E+02  0.22865649565E+03  0.00000000000E+00 0.  1.
          3    1    6    6  503    0  0.27526285605E+02  0.36531693478E+02  0.65476164030E+02  0.79871077892E+02  0.00000000000E+00 0. -1.
         -3    1    6    6    0  503  0.39660968833E+03  0.11128681166E+03  0.70347139279E+03  0.81520304207E+03  0.00000000000E+00 0.  1.
<mgrwt>
<rscale>  0 0.14022352E+04</rscale>
<asrwt>0</asrwt>
<pdfrwt beam="1">  1        2 0.30999533E+00 0.14022352E+04</pdfrwt>
<pdfrwt beam="2">  1       -3 0.37531843E-01 0.14022352E+04</pdfrwt>
<totfact> 0.28994825E+01</totfact>
</mgrwt>
</event>
<event>
11    6  0.1705838E-008  0.1462633E+04  0.7818608E-02  0.8909689E-01
          2   -1    0    0  501    0  0.00000000000E+00  0.00000000000E+00  0.27203403320E+04  0.27203403320E+04  0.00000000000E+00 0. -1.
         -1   -1    0    0    0  501 -0.00000000000E+00 -0.00000000000E+00 -0.19660187039E+03  0.19660187039E+03  0.00000000000E+00 0.  1.
         24    2    1    2    0    0 -0.31529433521E+02 -0.11316293060E+03 -0.76662363473E+02  0.16134114463E+03  0.79711309962E+02 0.  0.
        254    2    1    2    0    0  0.31529433521E+02  0.11316293060E+03  0.26004008251E+04  0.27556010577E+04  0.90413095531E+03 0.  0.
         23    2    4    4    0    0 -0.22748174196E+03 -0.22327042021E+03  0.50412151555E+03  0.60351613296E+03  0.92171561963E+02 0.  0.
          4    1    3    3  502    0  0.10780671774E+02  0.81295064099E+01 -0.70508716138E+01  0.15232417697E+02  0.00000000000E+00 0. -1.
         -3    1    3    3    0  502 -0.42310105296E+02 -0.12129243701E+03 -0.69611491860E+02  0.14610872693E+03  0.00000000000E+00 0.  1.
         11    1    4    4    0    0  0.23969686187E+03  0.36362186112E+03  0.20453787703E+04  0.20912316365E+04  0.00000000000E+00 0.  1.
        -11    1    4    4    0    0  0.19314313617E+02 -0.27188510308E+02  0.50900539237E+02  0.60853288308E+02  0.00000000000E+00 0. -1.
          4    1    5    5  503    0 -0.71171758561E+01 -0.20262989904E+02  0.61237330918E+01  0.22332556034E+02  0.00000000000E+00 0. -1.
         -4    1    5    5    0  503 -0.22036456611E+03 -0.20300743030E+03  0.49799778246E+03  0.58118357693E+03  0.00000000000E+00 0.  1.
<mgrwt>
<rscale>  0 0.14626332E+04</rscale>
<asrwt>0</asrwt>
<pdfrwt beam="1">  1        2 0.41851387E+00 0.14626332E+04</pdfrwt>
<pdfrwt beam="2">  1       -1 0.30246443E-01 0.14626332E+04</pdfrwt>
<totfact> 0.28800734E+01</totfact>
</mgrwt>
</event>
<event>
12    6  0.1705838E-008  0.1692662E+04  0.7818608E-02  0.8765561E-01
          2   -1    0    0  501    0  0.00000000000E+00  0.00000000000E+00  0.32024218772E+04  0.32024218772E+04  0.00000000000E+00 0. -1.
         -1   -1    0    0    0  501 -0.00000000000E+00 -0.00000000000E+00 -0.22366698220E+03  0.22366698220E+03  0.00000000000E+00 0.  1.
         24    2    1    2    0    0 -0.39473957478E+03  0.43546857312E+03  0.10323133638E+04  0.11906345677E+04  0.80545531321E+02 0.  0.
        254    2    1    2    0    0  0.39473957478E+03 -0.43546857312E+03  0.19464415311E+04  0.22354542917E+04  0.92906891340E+03 0.  0.
         23    2    4    4    0    0  0.17180836824E+03 -0.96883665044E+02  0.17733588525E+04  0.17855269650E+04  0.66335232237E+02 0.  0.
         23    2    4    4    0    0  0.22293120654E+03 -0.33858490808E+03  0.17308267868E+03  0.44992732670E+03  0.90215978747E+02 0.  0.
          4    1    3    3  502    0 -0.60500739050E+01  0.33667086827E+02  0.59228608557E+02  0.68396668056E+02  0.00000000000E+00 0. -1.
         -3    1    3    3    0  502 -0.38868950087E+03  0.40180148630E+03  0.97308475527E+03  0.11222378997E+04  0.00000000000E+00 0.  1.
         11    1    5    5    0    0  0.33419458748E+02  0.32499812007E+01  0.43840181293E+03  0.43968576527E+03  0.00000000000E+00 0.  1.
        -11    1    5    5    0    0  0.13838890949E+03 -0.10013364624E+03  0.13349570395E+04  0.13458411997E+04  0.00000000000E+00 0. -1.
          3    1    6    6  503    0  0.19497907873E+03 -0.27885984946E+03  0.10729465024E+03  0.35677976225E+03  0.00000000000E+00 0. -1.
         -3    1    6    6    0  503  0.27952127814E+02 -0.59725058621E+02  0.65788028438E+02  0.93147564447E+02  0.00000000000E+00 0.  1.
<mgrwt>
<rscale>  0 0.16926619E+04</rscale>
<asrwt>0</asrwt>
<pdfrwt beam="1">  1        2 0.49268025E+00 0.16926619E+04</pdfrwt>
<pdfrwt beam="2">  1       -1 0.34410307E-01 0.16926619E+04</pdfrwt>
<totfact> 0.11280896E+01</totfact>
</mgrwt>
</event>
<event>
12    6  0.1705838E-008  0.1425548E+04  0.7818608E-02  0.8935530E-01
          2   -1    0    0  501    0  0.00000000000E+00  0.00000000000E+00  0.11174673971E+04  0.11174673971E+04  0.00000000000E+00 0. -1.
         -1   -1    0    0    0  501 -0.00000000000E+00 -0.00000000000E+00 -0.45464132705E+03  0.45464132705E+03  0.00000000000E+00 0.  1.
         24    2    1    2    0    0  0.26838225903E+03  0.25542331494E+02 -0.15963265542E+03  0.32309238888E+03  0.78896510785E+02 0.  0.
        254    2    1    2    0    0 -0.26838225903E+03 -0.25542331494E+02  0.82245872551E+03  0.12490163353E+04  0.90051207824E+03 0.  0.
         23    2    4    4    0    0  0.44443574131E+01  0.32460154468E+03  0.26019232487E+02  0.33286597638E+03  0.68824724127E+02 0.  0.
         23    2    4    4    0    0 -0.27282661644E+03 -0.35014387618E+03  0.79643949302E+03  0.91615035893E+03  0.89333742003E+02 0.  0.
          4    1    3    3  502    0 -0.31220331311E+01  0.39580654696E+01 -0.12615661880E+02  0.13585591551E+02  0.00000000000E+00 0. -1.
         -3    1    3    3    0  502  0.27150429216E+03  0.21584266025E+02 -0.14701699354E+03  0.30950679732E+03  0.00000000000E+00 0.  1.
         11    1    5    5    0    0 -0.13408916443E+02  0.24922830125E+03 -0.44539363981E+01  0.24962848942E+03  0.00000000000E+00 0.  1.
        -11    1    5    5    0    0  0.17853273856E+02  0.75373243434E+02  0.30473168885E+02  0.83237486958E+02  0.00000000000E+00 0. -1.
          1    1    6    6  503    0 -0.88204075946E+01 -0.33917958460E+02  0.11147429092E+03  0.11685351956E+03  0.00000000000E+00 0. -1.
         -1    1    6    6    0  503 -0.26400620884E+03 -0.31622591772E+03  0.68496520210E+03  0.79929683938E+03  0.00000000000E+00 0.  1.
<mgrwt>
<rscale>  0 0.14255481E+04</rscale>
<asrwt>0</asrwt>
<pdfrwt beam="1">  1        2 0.17191806E+00 0.14255481E+04</pdfrwt>
<pdfrwt beam="2">  1       -1 0.69944820E-01 0.14255481E+04</pdfrwt>
<totfact> 0.48669565E+01</totfact>
</mgrwt>
</event>
<event>
12    6  0.1705838E-008  0.3740666E+04  0.7818608E-02  0.8059009E-01
          2   -1    0    0  501    0  0.00000000000E+00  0.00000000000E+00  0.16927469697E+04  0.16927469697E+04  0.00000000000E+00 0. -1.
         -1   -1    0    0    0  501 -0.00000000000E+00 -0.00000000000E+00 -0.20665498498E+04  0.20665498498E+04  0.00000000000E+00 0.  1.
         24    2    1    2    0    0 -0.11250142105E+04 -0.13531053600E+04 -0.10068927065E+03  0.17642581798E+04  0.76925332464E+02 0.  0.
        254    2    1    2    0    0  0.11250142105E+04  0.13531053600E+04 -0.27311360945E+03  0.19950386396E+04  0.89946486345E+03 0.  0.
         23    2    4    4    0    0  0.30807160856E+03  0.50668788092E+03 -0.51716967157E+03  0.79009551718E+03  0.71733760540E+02 0.  0.
         23    2    4    4    0    0  0.81694260199E+03  0.84641747906E+03  0.24405606212E+03  0.12049431224E+04  0.92232331407E+02 0.  0.
          2    1    3    3  502    0 -0.17746109949E+03 -0.22490821115E+03  0.11049430346E+02  0.28670234597E+03  0.00000000000E+00 0. -1.
         -1    1    3    3    0  502 -0.94755311106E+03 -0.11281971488E+04 -0.11173870099E+03  0.14775558339E+04  0.00000000000E+00 0.  1.
         11    1    5    5    0    0  0.13192847405E+03  0.22232561743E+03 -0.27284499843E+03  0.37586991846E+03  0.00000000000E+00 0.  1.
        -11    1    5    5    0    0  0.17614313451E+03  0.28436226350E+03 -0.24432467314E+03  0.41422559872E+03  0.00000000000E+00 0. -1.
          4    1    6    6  503    0  0.44380713676E+03  0.39549324428E+03  0.11129096687E+03  0.60478538360E+03  0.00000000000E+00 0. -1.
         -4    1    6    6    0  503  0.37313546523E+03  0.45092423478E+03  0.13276509524E+03  0.60015773880E+03  0.00000000000E+00 0.  1.
<mgrwt>
<rscale>  0 0.37406662E+04</rscale>
<asrwt>0</asrwt>
<pdfrwt beam="1">  1        2 0.26042261E+00 0.37406662E+04</pdfrwt>
<pdfrwt beam="2">  1       -1 0.31793075E+00 0.37406662E+04</pdfrwt>
<totfact> 0.22916001E-01</totfact>
</mgrwt>
</event>
<event>
11    6  0.1705838E-008  0.2776112E+04  0.7818608E-02  0.8310723E-01
         -1   -1    0    0    0  501 -0.00000000000E+00  0.00000000000E+00  0.74831184290E+03  0.74831184290E+03  0.00000000000E+00 0.  1.
          2   -1    0    0  501    0  0.00000000000E+00 -0.00000000000E+00 -0.25747284206E+04  0.25747284206E+04  0.00000000000E+00 0. -1.
         24    2    1    2    0    0 -0.79820033750E+03  0.22295506230E+03  0.28959047495E+03  0.88142925266E+03  0.78880578599E+02 0.  0.
        254    2    1    2    0    0  0.79820033750E+03 -0.22295506230E+03 -0.21160070527E+04  0.24416110109E+04  0.89283018698E+03 0.  0.
         23    2    4    4    0    0  0.15562433653E+03 -0.65128784701E+02 -0.15208833045E+04  0.15329550878E+04  0.91676510909E+02 0.  0.
          4    1    3    3  502    0 -0.91811295281E+02  0.32862415918E+02  0.89529878639E+01  0.97925524317E+02  0.00000000000E+00 0. -1.
         -1    1    3    3    0  502 -0.70638904222E+03  0.19009264638E+03  0.28063748708E+03  0.78350372835E+03  0.00000000000E+00 0.  1.
         11    1    4    4    0    0  0.53223600342E+02  0.26682243206E+02 -0.10310314217E+03  0.11905860600E+03  0.00000000000E+00 0.  1.
        -11    1    4    4    0    0  0.58935240063E+03 -0.18450852081E+03 -0.49202060606E+03  0.78959731709E+03  0.00000000000E+00 0. -1.
          2    1    5    5  503    0  0.15541099413E+03 -0.35824609867E+02 -0.13700275479E+04  0.13792793269E+04  0.00000000000E+00 0. -1.
         -2    1    5    5    0  503  0.21334240367E+00 -0.29304174834E+02 -0.15085575662E+03  0.15367576088E+03  0.00000000000E+00 0.  1.
<mgrwt>
<rscale>  0 0.27761122E+04</rscale>
<asrwt>0</asrwt>
<pdfrwt beam="1">  1        2 0.39611207E+00 0.27761122E+04</pdfrwt>
<pdfrwt beam="2">  1       -1 0.11512490E+00 0.27761122E+04</pdfrwt>
<totfact> 0.21361179E+00</totfact>
</mgrwt>
</event>
<event>
11    6  0.1705838E-008  0.1715942E+04  0.7818608E-02  0.8752324E-01
         -1   -1    0    0    0  501 -0.00000000000E+00  0.00000000000E+00  0.21555526720E+03  0.21555526720E+03  0.00000000000E+00 0.  1.
          2   -1    0    0  501    0  0.00000000000E+00 -0.00000000000E+00 -0.34149691345E+04  0.34149691345E+04  0.00000000000E+00 0. -1.
         24    2    1    2    0    0  0.36024163827E+03 -0.39929133056E+03 -0.51237801523E+03  0.74711263178E+03  0.80239949354E+02 0.  0.
        254    2    1    2    0    0 -0.36024163827E+03  0.39929133056E+03 -0.26870358520E+04  0.28834117699E+04  0.89704746810E+03 0.  0.
         23    2    4    4    0    0  0.23825282585E+03  0.32232454253E+03 -0.12745426767E+04  0.13391721969E+04  0.90915447024E+02 0.  0.
          4    1    3    3  502    0  0.22282682816E+03 -0.23922030700E+03 -0.25685529357E+03  0.41575568843E+03  0.00000000000E+00 0. -1.
         -3    1    3    3    0  502  0.13741481011E+03 -0.16007102356E+03 -0.25552272166E+03  0.33135694335E+03  0.00000000000E+00 0.  1.
         11    1    4    4    0    0 -0.83148777357E+01  0.17984092059E+02 -0.11598901708E+02  0.22958642812E+02  0.00000000000E+00 0. -1.
        -11    1    4    4    0    0 -0.59017958638E+03  0.58982695963E+02 -0.14008942736E+04  0.15212809302E+04  0.00000000000E+00 0.  1.
          1    1    5    5  503    0  0.74459553043E+02  0.41921739950E+02 -0.30127670817E+03  0.31316020214E+03  0.00000000000E+00 0. -1.
         -1    1    5    5    0  503  0.16379327281E+03  0.28040280258E+03 -0.97326596853E+03  0.10260119948E+04  0.00000000000E+00 0.  1.
<mgrwt>
<rscale>  0 0.17159424E+04</rscale>
<asrwt>0</asrwt>
<pdfrwt beam="1">  1        2 0.52537981E+00 0.17159424E+04</pdfrwt>
<pdfrwt beam="2">  1       -1 0.33162352E-01 0.17159424E+04</pdfrwt>
<totfact> 0.86850010E+00</totfact>
</mgrwt>
</event>
<event>
12    6  0.1705838E-008  0.1211081E+04  0.7818608E-02  0.9103212E-01
         -1   -1    0    0    0  501 -0.00000000000E+00  0.00000000000E+00  0.16626493924E+03  0.16626493924E+03  0.00000000000E+00 0.  1.
          2   -1    0    0  501    0  0.00000000000E+00 -0.00000000000E+00 -0.22053914483E+04  0.22053914483E+04  0.00000000000E+00 0. -1.
         24    2    1    2    0    0 -0.41010478013E+02  0.67085611893E+02 -0.10500860619E+04  0.10561456393E+04  0.81120499843E+02 0.  0.
        254    2    1    2    0    0  0.41010478013E+02 -0.67085611893E+02 -0.98904044716E+03  0.13155107482E+04  0.86382011081E+03 0.  0.
         23    2    4    4    0    0 -0.23552889632E+02  0.38371810310E+03 -0.51690798718E+03  0.65337892600E+03  0.10915966499E+03 0.  0.
         23    2    4    4    0    0  0.64563367645E+02 -0.45080371500E+03 -0.47213245998E+03  0.66213182219E+03  0.90094796162E+02 0.  0.
          4    1    3    3  502    0 -0.50463412713E+02  0.70989796625E+02 -0.10293119614E+04  0.10329904265E+04  0.00000000000E+00 0. -1.
         -3    1    3    3    0  502  0.94529347002E+01 -0.39041847315E+01 -0.20774100442E+02  0.23155212848E+02  0.00000000000E+00 0.  1.
         11    1    5    5    0    0 -0.20438888084E+02  0.31757094451E+03 -0.48447607358E+03  0.57964309607E+03  0.00000000000E+00 0. -1.
        -11    1    5    5    0    0 -0.31140015486E+01  0.66147158590E+02 -0.32431913600E+02  0.73735829926E+02  0.00000000000E+00 0.  1.
          3    1    6    6  503    0  0.63061489315E+02 -0.23907733746E+03 -0.20445086437E+03  0.32083466251E+03  0.00000000000E+00 0. -1.
         -3    1    6    6    0  503  0.15018783298E+01 -0.21172637753E+03 -0.26768159561E+03  0.34129715968E+03  0.00000000000E+00 0.  1.
<mgrwt>
<rscale>  0 0.12110810E+04</rscale>
<asrwt>0</asrwt>
<pdfrwt beam="1">  1        2 0.33929096E+00 0.12110810E+04</pdfrwt>
<pdfrwt beam="2">  1       -1 0.25579224E-01 0.12110810E+04</pdfrwt>
<totfact> 0.77782988E+01</totfact>
</mgrwt>
</event>
<event>
12    6  0.1705838E-008  0.2033451E+04  0.7818608E-02  0.8591139E-01
         -1   -1    0    0    0  501 -0.00000000000E+00  0.00000000000E+00  0.34718098946E+03  0.34718098946E+03  0.00000000000E+00 0.  1.
          2   -1    0    0  501    0  0.00000000000E+00 -0.00000000000E+00 -0.29774971949E+04  0.29774971949E+04  0.00000000000E+00 0. -1.
         24    2    1    2    0    0  0.31665408001E+03  0.17162009599E+03  0.13892821315E+03  0.39536813780E+03  0.85391171928E+02 0.  0.
        254    2    1    2    0    0 -0.31665408001E+03 -0.17162009599E+03 -0.27692444186E+04  0.29293100466E+04  0.88454476157E+03 0.  0.
         23    2    4    4    0    0  0.11937903722E+03  0.28416135506E+03 -0.80138757342E+03  0.86081536347E+03  0.61498104941E+02 0.  0.
         23    2    4    4    0    0 -0.43603311724E+03 -0.45578145105E+03 -0.19678568452E+04  0.20684946831E+04  0.91367830367E+02 0.  0.
          2    1    3    3  502    0  0.36677536445E+02  0.41330659177E+02  0.48681996783E+02  0.73643749758E+02  0.00000000000E+00 0. -1.
         -1    1    3    3    0  502  0.27997654357E+03  0.13028943681E+03  0.90246216369E+02  0.32172438805E+03  0.00000000000E+00 0.  1.
         11    1    5    5    0    0  0.97343191121E+02  0.20178127853E+03 -0.64329274986E+03  0.68118789129E+03  0.00000000000E+00 0.  1.
        -11    1    5    5    0    0  0.22035846101E+02  0.82380076538E+02 -0.15809482356E+03  0.17962747217E+03  0.00000000000E+00 0. -1.
          4    1    6    6  503    0 -0.43339899888E+03 -0.43649329526E+03 -0.19337403509E+04  0.20292148318E+04  0.00000000000E+00 0.  1.
         -4    1    6    6    0  503 -0.26341183579E+01 -0.19288155793E+02 -0.34116494304E+02  0.39279851285E+02  0.00000000000E+00 0. -1.
<mgrwt>
<rscale>  0 0.20334507E+04</rscale>
<asrwt>0</asrwt>
<pdfrwt beam="1">  1        2 0.45807647E+00 0.20334507E+04</pdfrwt>
<pdfrwt beam="2">  1       -1 0.53412463E-01 0.20334507E+04</pdfrwt>
<totfact> 0.67210454E+00</totfact>
</mgrwt>
</event>
<event>
11    6  0.1705838E-008  0.1938729E+04  0.7818608E-02  0.8635815E-01
         -3   -1    0    0    0  501 -0.00000000000E+00  0.00000000000E+00  0.14573784873E+04  0.14573784873E+04  0.00000000000E+00 0.  1.
          2   -1    0    0  501    0  0.00000000000E+00 -0.00000000000E+00 -0.64476591063E+03  0.64476591063E+03  0.00000000000E+00 0. -1.
         24    2    1    2    0    0 -0.30290786814E+02 -0.25456307313E+03 -0.45596583472E+03  0.52923931746E+03  0.80433343514E+02 0.  0.
        254    2    1    2    0    0  0.30290786814E+02  0.25456307313E+03  0.12685784114E+04  0.15729050804E+04  0.89387880406E+03 0.  0.
         23    2    4    4    0    0  0.19667090206E+03  0.53330309412E+03  0.74774467020E+03  0.94371027995E+03  0.91517029798E+02 0.  0.
          4    1    3    3  502    0 -0.70982163080E+01 -0.18862597471E+03 -0.38929695415E+03  0.43264565353E+03  0.00000000000E+00 0. -1.
         -3    1    3    3    0  502 -0.23192570506E+02 -0.65937098422E+02 -0.66668880565E+02  0.96593663927E+02  0.00000000000E+00 0.  1.
         11    1    4    4    0    0 -0.10031159002E+03 -0.11434057407E+03  0.13005663187E+03  0.20012723319E+03  0.00000000000E+00 0.  1.
        -11    1    4    4    0    0 -0.66068525225E+02 -0.16439944692E+03  0.39077710927E+03  0.42906756730E+03  0.00000000000E+00 0. -1.
          1    1    5    5  503    0  0.79198269253E+02  0.31892568622E+03  0.38340071702E+03  0.50495749226E+03  0.00000000000E+00 0. -1.
         -1    1    5    5    0  503  0.11747263281E+03  0.21437740791E+03  0.36434395319E+03  0.43875278769E+03  0.00000000000E+00 0.  1.
<mgrwt>
<rscale>  0 0.19387294E+04</rscale>
<asrwt>0</asrwt>
<pdfrwt beam="1">  1        2 0.99194756E-01 0.19387294E+04</pdfrwt>
<pdfrwt beam="2">  1       -3 0.22421207E+00 0.19387294E+04</pdfrwt>
<totfact> 0.27573356E+00</totfact>
</mgrwt>
</event>
<event>
12    6  0.1705838E-008  0.1944406E+04  0.7818608E-02  0.8633063E-01
         -3   -1    0    0    0  501 -0.00000000000E+00  0.00000000000E+00  0.74215936972E+03  0.74215936972E+03  0.00000000000E+00 0.  1.
          4   -1    0    0  501    0  0.00000000000E+00 -0.00000000000E+00 -0.12735515218E+04  0.12735515218E+04  0.00000000000E+00 0. -1.
         24    2    1    2    0    0  0.36066698472E+03 -0.61842497393E+03 -0.47542342065E+03  0.86314154949E+03  0.80347889275E+02 0.  0.
        254    2    1    2    0    0 -0.36066698472E+03  0.61842497393E+03 -0.55968731453E+02  0.11525693421E+04  0.90152840615E+03 0.  0.
         23    2    4    4    0    0 -0.16731409934E+01 -0.31431788747E+02 -0.34171184323E+03  0.35181616310E+03  0.77568499230E+02 0.  0.
         23    2    4    4    0    0 -0.35899384373E+03  0.64985676267E+03  0.28574311178E+03  0.80075317895E+03  0.91466583240E+02 0.  0.
          4    1    3    3  502    0  0.34805808693E+03 -0.60787027874E+03 -0.44899084910E+03  0.83201171280E+03  0.00000000000E+00 0. -1.
         -3    1    3    3    0  502  0.12608897789E+02 -0.10554695186E+02 -0.26432571547E+02  0.31129836693E+02  0.00000000000E+00 0.  1.
         11    1    5    5    0    0  0.25073828325E+02 -0.19347179172E+01 -0.38401257965E+02  0.45903122046E+02  0.00000000000E+00 0.  1.
        -11    1    5    5    0    0 -0.26746969319E+02 -0.29497070830E+02 -0.30331058526E+03  0.30591304106E+03  0.00000000000E+00 0. -1.
          3    1    6    6  503    0 -0.30687398832E+03  0.48134563988E+03  0.20238503483E+03  0.60566077310E+03  0.00000000000E+00 0. -1.
         -3    1    6    6    0  503 -0.52119855407E+02  0.16851112279E+03  0.83358076945E+02  0.19509240586E+03  0.00000000000E+00 0.  1.
<mgrwt>
<rscale>  0 0.19444055E+04</rscale>
<asrwt>0</asrwt>
<pdfrwt beam="1">  1        4 0.19593101E+00 0.19444055E+04</pdfrwt>
<pdfrwt beam="2">  1       -3 0.11417836E+00 0.19444055E+04</pdfrwt>
<totfact> 0.19030269E-01</totfact>
</mgrwt>
</event>
<event>
12    6  0.1705838E-008  0.3357995E+04  0.7818608E-02  0.8148293E-01
         -3   -1    0    0    0  501 -0.00000000000E+00  0.00000000000E+00  0.90918095561E+03  0.90918095561E+03  0.00000000000E+00 0.  1.
          2   -1    0    0  501    0  0.00000000000E+00 -0.00000000000E+00 -0.31006295606E+04  0.31006295606E+04  0.00000000000E+00 0. -1.
         24    2    1    2    0    0  0.10625076296E+03 -0.78622749228E+03  0.58274080057E+03  0.98779496230E+03  0.81909417444E+02 0.  0.
        254    2    1    2    0    0 -0.10625076296E+03  0.78622749228E+03 -0.27741894055E+04  0.30220155539E+04  0.89833638236E+03 0.  0.
         23    2    4    4    0    0  0.17062838226E+03  0.58282365879E+03 -0.24929969383E+04  0.25687826156E+04  0.12170837998E+03 0.  0.
         23    2    4    4    0    0 -0.27687914522E+03  0.20340383348E+03 -0.28119246719E+03  0.45323293823E+03  0.91190526707E+02 0.  0.
          4    1    3    3  502    0 -0.30729435823E+00 -0.89574708857E+01  0.21147425508E+02  0.22968332985E+02  0.00000000000E+00 0. -1.
         -3    1    3    3    0  502  0.10655805732E+03 -0.77727002139E+03  0.56159337506E+03  0.96482662932E+03  0.00000000000E+00 0.  1.
         11    1    5    5    0    0  0.44523284128E+02  0.25362879254E+03 -0.83864707767E+03  0.87729060642E+03  0.00000000000E+00 0. -1.
        -11    1    5    5    0    0  0.12610509813E+03  0.32919486626E+03 -0.16543498607E+04  0.16914920092E+04  0.00000000000E+00 0.  1.
          1    1    6    6  503    0 -0.16390234739E+03  0.63894043387E+02 -0.14184106071E+03  0.22597635886E+03  0.00000000000E+00 0. -1.
         -1    1    6    6    0  503 -0.11297679784E+03  0.13950979010E+03 -0.13935140648E+03  0.22725657938E+03  0.00000000000E+00 0.  1.
<mgrwt>
<rscale>  0 0.33579954E+04</rscale>
<asrwt>0</asrwt>
<pdfrwt beam="1">  1        2 0.47701994E+00 0.33579954E+04</pdfrwt>
<pdfrwt beam="2">  1       -3 0.13987399E+00 0.33579954E+04</pdfrwt>
<totfact> 0.30733144E-01</totfact>
</mgrwt>
</event>
<event>
11    6  0.1705838E-008  0.1737989E+04  0.7818608E-02  0.8739990E-01
          2   -1    0    0  501    0  0.00000000000E+00  0.00000000000E+00  0.12603427468E+04  0.12603427468E+04  0.00000000000E+00 0. -1.
         -1   -1    0    0    0  501 -0.00000000000E+00 -0.00000000000E+00 -0.59916340440E+03  0.59916340440E+03  0.00000000000E+00 0.  1.
         24    2    1    2    0    0 -0.15198395107E+03 -0.52015329517E+03 -0.10911447499E+03  0.55951360261E+03  0.86550164605E+02 0.  0.
        254    2    1    2    0    0  0.15198395107E+03  0.52015329517E+03  0.77029381741E+03  0.12999925486E+04  0.89608564851E+03 0.  0.
         23    2    4    4    0    0 -0.30654859378E+03  0.19626234046E+03  0.16608084901E+03  0.41022659349E+03  0.90620433475E+02 0.  0.
          4    1    3    3  502    0 -0.20198614940E+02 -0.14130858783E+02 -0.12941271391E+02  0.27841367076E+02  0.00000000000E+00 0. -1.
         -3    1    3    3    0  502 -0.13178533613E+03 -0.50602243639E+03 -0.96173203600E+02  0.53167223553E+03  0.00000000000E+00 0.  1.
         11    1    4    4    0    0  0.21435092527E+03  0.87830182111E+02  0.45726389694E+02  0.23611726487E+03  0.00000000000E+00 0. -1.
        -11    1    4    4    0    0  0.24418161958E+03  0.23606077260E+03  0.55848657871E+03  0.65364869027E+03  0.00000000000E+00 0.  1.
          4    1    5    5  503    0 -0.22296899283E+03  0.11032315358E+03  0.14666382955E+03  0.28878477951E+03  0.00000000000E+00 0. -1.
         -4    1    5    5    0  503 -0.83579600952E+02  0.85939186884E+02  0.19417019465E+02  0.12144181398E+03  0.00000000000E+00 0.  1.
<mgrwt>
<rscale>  0 0.17379888E+04</rscale>
<asrwt>0</asrwt>
<pdfrwt beam="1">  1        2 0.19389888E+00 0.17379888E+04</pdfrwt>
<pdfrwt beam="2">  1       -1 0.92178985E-01 0.17379888E+04</pdfrwt>
<totfact> 0.21611347E+01</totfact>
</mgrwt>
</event>
<event>
12    6  0.1705838E-008  0.1342362E+04  0.7818608E-02  0.8996630E-01
         -1   -1    0    0    0  501 -0.00000000000E+00  0.00000000000E+00  0.35815535289E+03  0.35815535289E+03  0.00000000000E+00 0.  1.
          2   -1    0    0  501    0  0.00000000000E+00 -0.00000000000E+00 -0.12577899256E+04  0.12577899256E+04  0.00000000000E+00 0. -1.
         24    2    1    2    0    0 -0.64688485557E+02 -0.10964413207E+03  0.15086463928E+03  0.21315178399E+03  0.80418329807E+02 0.  0.
        254    2    1    2    0    0  0.64688485557E+02  0.10964413207E+03 -0.10504992120E+04  0.14027934945E+04  0.92090963616E+03 0.  0.
         23    2    4    4    0    0 -0.23417761863E+03 -0.25631742999E+03 -0.75717799474E+03  0.83985848582E+03  0.10726592426E+03 0.  0.
         23    2    4    4    0    0  0.29886610418E+03  0.36596156206E+03 -0.29332121726E+03  0.56293500869E+03  0.87233447572E+02 0.  0.
          2    1    3    3  502    0 -0.29803151604E+02 -0.81688536474E+02  0.44299182378E+02  0.97589253487E+02  0.00000000000E+00 0. -1.
         -1    1    3    3    0  502 -0.34885333953E+02 -0.27955595600E+02  0.10656545690E+03  0.11556253050E+03  0.00000000000E+00 0.  1.
         11    1    5    5    0    0 -0.23215940706E+03 -0.26574254235E+03 -0.74486552590E+03  0.82422190021E+03  0.00000000000E+00 0. -1.
        -11    1    5    5    0    0 -0.20182115701E+01  0.94251123581E+01 -0.12312468837E+02  0.15636585617E+02  0.00000000000E+00 0.  1.
          1    1    6    6  503    0  0.29323991344E+03  0.36631601494E+03 -0.27524649213E+03  0.54400156348E+03  0.00000000000E+00 0. -1.
         -1    1    6    6    0  503  0.56261907436E+01 -0.35445287824E+00 -0.18074725124E+02  0.18933445208E+02  0.00000000000E+00 0.  1.
<mgrwt>
<rscale>  0 0.13423624E+04</rscale>
<asrwt>0</asrwt>
<pdfrwt beam="1">  1        2 0.19350614E+00 0.13423624E+04</pdfrwt>
<pdfrwt beam="2">  1       -1 0.55100825E-01 0.13423624E+04</pdfrwt>
<totfact> 0.64907249E+01</totfact>
</mgrwt>
</event>
<event>
11    6  0.1705838E-008  0.1754835E+04  0.7818608E-02  0.8730693E-01
         -1   -1    0    0    0  501 -0.00000000000E+00  0.00000000000E+00  0.33674029613E+03  0.33674029613E+03  0.00000000000E+00 0.  1.
          2   -1    0    0  501    0  0.00000000000E+00 -0.00000000000E+00 -0.22862177332E+04  0.22862177332E+04  0.00000000000E+00 0. -1.
         24    2    1    2    0    0 -0.15339062802E+03  0.23449819080E+03  0.13637007334E+03  0.32173709793E+03  0.79999231441E+02 0.  0.
        254    2    1    2    0    0  0.15339062802E+03 -0.23449819080E+03 -0.20858475104E+04  0.23012209314E+04  0.93077379216E+03 0.  0.
         23    2    4    4    0    0  0.54234031398E+02 -0.19192234696E+03 -0.12029207580E+02  0.21934607465E+03  0.90512326275E+02 0.  0.
          2    1    3    3  502    0  0.87314158091E+01  0.22322842347E+02  0.16117065130E+02  0.28884367760E+02  0.00000000000E+00 0. -1.
         -3    1    3    3    0  502 -0.16212204383E+03  0.21217534845E+03  0.12025300821E+03  0.29285273017E+03  0.00000000000E+00 0.  1.
         11    1    4    4    0    0  0.49054406189E+02 -0.17056361858E+02 -0.18619010623E+04  0.18626252495E+04  0.00000000000E+00 0. -1.
        -11    1    4    4    0    0  0.50102190438E+02 -0.25519481980E+02 -0.21191724045E+03  0.21924960718E+03  0.00000000000E+00 0.  1.
          2    1    5    5  503    0  0.90137063788E+01 -0.11306821718E+03  0.32686708172E+02  0.11804274450E+03  0.00000000000E+00 0. -1.
         -2    1    5    5    0  503  0.45220325019E+02 -0.78854129777E+02 -0.44715915752E+02  0.10130333015E+03  0.00000000000E+00 0.  1.
<mgrwt>
<rscale>  0 0.17548352E+04</rscale>
<asrwt>0</asrwt>
<pdfrwt beam="1">  1        2 0.35172580E+00 0.17548352E+04</pdfrwt>
<pdfrwt beam="2">  1       -1 0.51806199E-01 0.17548352E+04</pdfrwt>
<totfact> 0.18689131E+01</totfact>
</mgrwt>
</event>
<event>
12    6  0.1705838E-008  0.1891581E+04  0.7818608E-02  0.8659058E-01
          2   -1    0    0  501    0  0.00000000000E+00  0.00000000000E+00  0.15247530472E+04  0.15247530472E+04  0.00000000000E+00 0. -1.
         -1   -1    0    0    0  501 -0.00000000000E+00 -0.00000000000E+00 -0.58666534497E+03  0.58666534497E+03  0.00000000000E+00 0.  1.
         24    2    1    2    0    0 -0.25957145469E+03 -0.32187442322E+03 -0.31177211117E+03  0.52405141159E+03  0.80296626824E+02 0.  0.
        254    2    1    2    0    0  0.25957145469E+03  0.32187442322E+03  0.12498598134E+04  0.15873669806E+04  0.88690692493E+03 0.  0.
         23    2    4    4    0    0  0.13442069335E+03  0.56066734072E+03  0.11456777123E+04  0.12871583024E+04  0.10854623612E+03 0.  0.
         23    2    4    4    0    0  0.12515076135E+03 -0.23879291750E+03  0.10418210113E+03  0.30020867816E+03  0.81157684359E+02 0.  0.
          2    1    3    3  502    0  0.85589076608E+00 -0.18227188170E+02 -0.25163653452E+01  0.18419962870E+02  0.00000000000E+00 0. -1.
         -1    1    3    3    0  502 -0.26042734546E+03 -0.30364723505E+03 -0.30925574582E+03  0.50563144872E+03  0.00000000000E+00 0.  1.
         11    1    5    5    0    0  0.12517858852E+03  0.53525689677E+03  0.10209088658E+04  0.11594932241E+04  0.00000000000E+00 0. -1.
        -11    1    5    5    0    0  0.92421048224E+01  0.25410443946E+02  0.12476884652E+03  0.12766507833E+03  0.00000000000E+00 0.  1.
          4    1    6    6  503    0  0.83072487601E+02 -0.20807514901E+03  0.60106773780E+02  0.23196795055E+03  0.00000000000E+00 0. -1.
         -4    1    6    6    0  503  0.42078273745E+02 -0.30717768494E+02  0.44075327349E+02  0.68240727602E+02  0.00000000000E+00 0.  1.
<mgrwt>
<rscale>  0 0.18915811E+04</rscale>
<asrwt>0</asrwt>
<pdfrwt beam="1">  1        2 0.23457739E+00 0.18915811E+04</pdfrwt>
<pdfrwt beam="2">  1       -1 0.90256208E-01 0.18915811E+04</pdfrwt>
<totfact> 0.15755480E+01</totfact>
</mgrwt>
</event>
<event>
12    6  0.1705838E-008  0.2129048E+04  0.7818608E-02  0.8548555E-01
         -1   -1    0    0    0  501 -0.00000000000E+00  0.00000000000E+00  0.45601760664E+03  0.45601760664E+03  0.00000000000E+00 0.  1.
          2   -1    0    0  501    0  0.00000000000E+00 -0.00000000000E+00 -0.24850157479E+04  0.24850157479E+04  0.00000000000E+00 0. -1.
         24    2    1    2    0    0 -0.44595357787E+03  0.71977431051E+03 -0.11217257967E+04  0.14076433125E+04  0.79001775269E+02 0.  0.
        254    2    1    2    0    0  0.44595357787E+03 -0.71977431051E+03 -0.90727234458E+03  0.15333900421E+04  0.90066212436E+03 0.  0.
         23    2    4    4    0    0  0.19715456689E+03  0.16010651629E+03 -0.37571125688E+02  0.26822331974E+03  0.77641097120E+02 0.  0.
         23    2    4    4    0    0  0.24879901097E+03 -0.87988082679E+03 -0.86970121890E+03  0.12651667223E+04  0.90417962651E+02 0.  0.
          4    1    3    3  502    0 -0.43739708870E+03  0.67161390138E+03 -0.10561087272E+04  0.13258005466E+04  0.00000000000E+00 0. -1.
         -3    1    3    3    0  502 -0.85564891656E+01  0.48160409130E+02 -0.65617069550E+02  0.81842765904E+02  0.00000000000E+00 0.  1.
         11    1    5    5    0    0  0.10371207880E+03  0.47332073155E+02  0.94761103999E+01  0.11439544181E+03  0.00000000000E+00 0.  1.
        -11    1    5    5    0    0  0.93442488089E+02  0.11277444313E+03 -0.47047236088E+02  0.15382787793E+03  0.00000000000E+00 0. -1.
          4    1    6    6  503    0  0.70400444803E+02 -0.16939895054E+03 -0.21576415165E+03  0.28320733785E+03  0.00000000000E+00 0.  1.
         -4    1    6    6    0  503  0.17839856617E+03 -0.71048187625E+03 -0.65393706725E+03  0.98195938450E+03  0.00000000000E+00 0. -1.
<mgrwt>
<rscale>  0 0.21290476E+04</rscale>
<asrwt>0</asrwt>
<pdfrwt beam="1">  1        2 0.38231011E+00 0.21290476E+04</pdfrwt>
<pdfrwt beam="2">  1       -1 0.70156556E-01 0.21290476E+04</pdfrwt>
<totfact> 0.76334944E+00</totfact>
</mgrwt>
</event>
<event>
12    6  0.1705838E-008  0.1379896E+04  0.7818608E-02  0.8968501E-01
          2   -1    0    0  501    0  0.00000000000E+00  0.00000000000E+00  0.20718958255E+04  0.20718958255E+04  0.00000000000E+00 0. -1.
         -1   -1    0    0    0  501 -0.00000000000E+00 -0.00000000000E+00 -0.22975487074E+03  0.22975487074E+03  0.00000000000E+00 0.  1.
         24    2    1    2    0    0 -0.30354312661E+03  0.17215462030E+02  0.12442796216E+03  0.33738422754E+03  0.76883010982E+02 0.  0.
        254    2    1    2    0    0  0.30354312661E+03 -0.17215462030E+02  0.17177129926E+04  0.19642664687E+04  0.90297842347E+03 0.  0.
         23    2    4    4    0    0 -0.28285263936E+03 -0.14798929816E+03  0.70973161304E+03  0.78729256663E+03  0.11918126934E+03 0.  0.
         23    2    4    4    0    0  0.58639576598E+03  0.13077383613E+03  0.10079813796E+04  0.11769739021E+04  0.90990735959E+02 0.  0.
          4    1    3    3  502    0 -0.14907234482E+03  0.15153054683E+02  0.10204148931E+03  0.18128608495E+03  0.00000000000E+00 0. -1.
         -3    1    3    3    0  502 -0.15447078179E+03  0.20624073473E+01  0.22386472844E+02  0.15609814259E+03  0.00000000000E+00 0.  1.
         11    1    5    5    0    0 -0.19216205903E+02  0.95017698539E+01  0.12499185446E+03  0.12681683595E+03  0.00000000000E+00 0. -1.
        -11    1    5    5    0    0 -0.26363643346E+03 -0.15749106802E+03  0.58473975858E+03  0.66047573068E+03  0.00000000000E+00 0.  1.
          1    1    6    6  503    0  0.56274670951E+02  0.25846361508E+02  0.15850854619E+03  0.17017588610E+03  0.00000000000E+00 0. -1.
         -1    1    6    6    0  503  0.53012109503E+03  0.10492747462E+03  0.84947283338E+03  0.10067980160E+04  0.00000000000E+00 0.  1.
<mgrwt>
<rscale>  0 0.13798959E+04</rscale>
<asrwt>0</asrwt>
<pdfrwt beam="1">  1        2 0.31875319E+00 0.13798959E+04</pdfrwt>
<pdfrwt beam="2">  1       -1 0.35346905E-01 0.13798959E+04</pdfrwt>
<totfact> 0.51615959E+01</totfact>
</mgrwt>
</event>
<event>
11    6  0.1705838E-008  0.1991912E+04  0.7818608E-02  0.8610411E-01
          2   -1    0    0  501    0  0.00000000000E+00  0.00000000000E+00  0.53020798192E+03  0.53020798192E+03  0.00000000000E+00 0. -1.
         -1   -1    0    0    0  501 -0.00000000000E+00 -0.00000000000E+00 -0.18708285225E+04  0.18708285225E+04  0.00000000000E+00 0.  1.
         24    2    1    2    0    0 -0.67316479199E+03 -0.75028957548E+02 -0.10361789853E+04  0.12403841164E+04  0.78138882451E+02 0.  0.
        254    2    1    2    0    0  0.67316479199E+03  0.75028957548E+02 -0.30444155522E+03  0.11606523880E+04  0.89199166115E+03 0.  0.
         23    2    4    4    0    0  0.71494115834E+03  0.31177608039E+03 -0.55554885936E+02  0.78706958404E+03  0.89705075581E+02 0.  0.
          4    1    3    3  502    0 -0.68950419234E+02  0.21784228901E+01 -0.14934066712E+03  0.16450392304E+03  0.00000000000E+00 0. -1.
         -3    1    3    3    0  502 -0.60421437276E+03 -0.77207380438E+02 -0.88683831818E+03  0.10758801933E+04  0.00000000000E+00 0.  1.
         11    1    4    4    0    0 -0.49137094572E+02 -0.58005104219E+02 -0.15244734847E+03  0.17035034557E+03  0.00000000000E+00 0.  1.
        -11    1    4    4    0    0  0.73607282256E+01 -0.17874201862E+03 -0.96439320818E+02  0.20323245838E+03  0.00000000000E+00 0. -1.
          3    1    5    5  503    0  0.49253767245E+03  0.24748174414E+03 -0.67012438939E+02  0.55527582285E+03  0.00000000000E+00 0. -1.
         -3    1    5    5    0  503  0.22240348588E+03  0.64294336250E+02  0.11457553003E+02  0.23179376119E+03  0.00000000000E+00 0.  1.
<mgrwt>
<rscale>  0 0.19919119E+04</rscale>
<asrwt>0</asrwt>
<pdfrwt beam="1">  1        2 0.81570460E-01 0.19919119E+04</pdfrwt>
<pdfrwt beam="2">  1       -1 0.28781977E+00 0.19919119E+04</pdfrwt>
<totfact> 0.24192662E+00</totfact>
</mgrwt>
</event>
<event>
12    6  0.1705838E-008  0.1849097E+04  0.7818608E-02  0.8680617E-01
         -1   -1    0    0    0  501 -0.00000000000E+00  0.00000000000E+00  0.49583917998E+03  0.49583917998E+03  0.00000000000E+00 0.  1.
          2   -1    0    0  501    0  0.00000000000E+00 -0.00000000000E+00 -0.17239262315E+04  0.17239262315E+04  0.00000000000E+00 0. -1.
         24    2    1    2    0    0 -0.61487688904E+03 -0.32047763825E+03 -0.36846095583E+03  0.78895940890E+03  0.76902325264E+02 0.  0.
        254    2    1    2    0    0  0.61487688904E+03  0.32047763825E+03 -0.85962609564E+03  0.14308060025E+04  0.90965338853E+03 0.  0.
         23    2    4    4    0    0  0.65761127984E+03  0.17201807726E+03 -0.99229119438E+03  0.12077702404E+04  0.10965548282E+03 0.  0.
         23    2    4    4    0    0 -0.42734390803E+02  0.14845956099E+03  0.13266509874E+03  0.22303576211E+03  0.90986006334E+02 0.  0.
          2    1    3    3  502    0 -0.52415475259E+03 -0.29693556021E+03 -0.30065621756E+03  0.67327787186E+03  0.00000000000E+00 0. -1.
         -1    1    3    3    0  502 -0.90722136448E+02 -0.23542078040E+02 -0.67804738270E+02  0.11568153704E+03  0.00000000000E+00 0.  1.
         11    1    5    5    0    0  0.30701204889E+02 -0.14875557764E+01 -0.16068099352E+02  0.34683722704E+02  0.00000000000E+00 0. -1.
        -11    1    5    5    0    0  0.62691007495E+03  0.17350563304E+03 -0.97622309503E+03  0.11730865177E+04  0.00000000000E+00 0.  1.
          1    1    6    6  503    0 -0.47486427934E+02  0.21305268276E+02  0.38636901375E+02  0.64820409148E+02  0.00000000000E+00 0. -1.
         -1    1    6    6    0  503  0.47520371311E+01  0.12715429271E+03  0.94028197364E+02  0.15821535296E+03  0.00000000000E+00 0.  1.
<mgrwt>
<rscale>  0 0.18490973E+04</rscale>
<asrwt>0</asrwt>
<pdfrwt beam="1">  1        2 0.26521942E+00 0.18490973E+04</pdfrwt>
<pdfrwt beam="2">  1       -1 0.76282951E-01 0.18490973E+04</pdfrwt>
<totfact> 0.17575434E+01</totfact>
</mgrwt>
</event>
<event>
12    6  0.1705838E-008  0.1569018E+04  0.7818608E-02  0.8839811E-01
          2   -1    0    0  501    0  0.00000000000E+00  0.00000000000E+00  0.12801848752E+04  0.12801848752E+04  0.00000000000E+00 0. -1.
         -1   -1    0    0    0  501 -0.00000000000E+00 -0.00000000000E+00 -0.48075449517E+03  0.48075449517E+03  0.00000000000E+00 0.  1.
         24    2    1    2    0    0 -0.14413228471E+03 -0.64704888757E+02 -0.28952561842E+03  0.33948624969E+03  0.80405173253E+02 0.  0.
        254    2    1    2    0    0  0.14413228471E+03  0.64704888757E+02  0.10889559984E+04  0.14214531206E+04  0.89985719400E+03 0.  0.
         23    2    4    4    0    0 -0.11309453080E+03  0.20418767632E+03  0.10867460061E+04  0.11143052298E+04  0.78589333792E+02 0.  0.
         23    2    4    4    0    0  0.25722681551E+03 -0.13948278756E+03  0.22099923203E+01  0.30714789083E+03  0.93348059077E+02 0.  0.
          2    1    3    3  502    0  0.97100437578E+01 -0.97438993662E+01 -0.26467178534E+02  0.29828510928E+02  0.00000000000E+00 0. -1.
         -1    1    3    3    0  502 -0.15384232846E+03 -0.54960989390E+02 -0.26305843988E+03  0.30965773876E+03  0.00000000000E+00 0.  1.
         11    1    5    5    0    0 -0.66924657262E+02  0.17298065009E+03  0.72795056791E+03  0.75120785697E+03  0.00000000000E+00 0.  1.
        -11    1    5    5    0    0 -0.46169873537E+02  0.31207026235E+02  0.35879543818E+03  0.36309737284E+03  0.00000000000E+00 0. -1.
          2    1    6    6  503    0  0.24960782864E+03 -0.14849737905E+03  0.13582232728E+02  0.29075765983E+03  0.00000000000E+00 0.  1.
         -2    1    6    6    0  503  0.76189868641E+01  0.90145914815E+01 -0.11372240408E+02  0.16390231002E+02  0.00000000000E+00 0. -1.
<mgrwt>
<rscale>  0 0.15690183E+04</rscale>
<asrwt>0</asrwt>
<pdfrwt beam="1">  1        2 0.19695152E+00 0.15690183E+04</pdfrwt>
<pdfrwt beam="2">  1       -1 0.73962230E-01 0.15690183E+04</pdfrwt>
<totfact> 0.34249856E+01</totfact>
</mgrwt>
</event>
<event>
12    6  0.1705838E-008  0.1660725E+04  0.7818608E-02  0.8784087E-01
         -1   -1    0    0    0  501 -0.00000000000E+00  0.00000000000E+00  0.10712625274E+04  0.10712625274E+04  0.00000000000E+00 0.  1.
          2   -1    0    0  501    0  0.00000000000E+00 -0.00000000000E+00 -0.64363494647E+03  0.64363494647E+03  0.00000000000E+00 0. -1.
         24    2    1    2    0    0 -0.52436609656E+03  0.11523480120E+03 -0.69145080695E+02  0.54815311442E+03  0.86324573750E+02 0.  0.
        254    2    1    2    0    0  0.52436609656E+03 -0.11523480120E+03  0.49677266160E+03  0.11667443594E+04  0.90899420257E+03 0.  0.
         23    2    4    4    0    0  0.24300431019E+03 -0.26144426967E+01  0.72638934599E+03  0.77600025272E+03  0.12440651177E+03 0.  0.
         23    2    4    4    0    0  0.28136178637E+03 -0.11262035851E+03 -0.22961668438E+03  0.39074410671E+03  0.90051847301E+02 0.  0.
          4    1    3    3  502    0 -0.51074839935E+03  0.10046755331E+03 -0.77730664704E+02  0.52630762197E+03  0.00000000000E+00 0. -1.
         -3    1    3    3    0  502 -0.13617697212E+02  0.14767247894E+02  0.85855840091E+01  0.21845492452E+02  0.00000000000E+00 0.  1.
         11    1    5    5    0    0  0.12909480487E+03 -0.76569407562E+01  0.55696294724E+03  0.57177952218E+03  0.00000000000E+00 0.  1.
        -11    1    5    5    0    0  0.11390950531E+03  0.50424980595E+01  0.16942639875E+03  0.20422073053E+03  0.00000000000E+00 0. -1.
          4    1    6    6  503    0  0.15606336676E+03 -0.10980395440E+03 -0.13716041039E+03  0.23500140643E+03  0.00000000000E+00 0. -1.
         -4    1    6    6    0  503  0.12529841962E+03 -0.28164041040E+01 -0.92456273993E+02  0.15574270028E+03  0.00000000000E+00 0.  1.
<mgrwt>
<rscale>  0 0.16607251E+04</rscale>
<asrwt>0</asrwt>
<pdfrwt beam="1">  1        2 0.99020761E-01 0.16607251E+04</pdfrwt>
<pdfrwt beam="2">  1       -1 0.16480962E+00 0.16607251E+04</pdfrwt>
<totfact> 0.13340933E+01</totfact>
</mgrwt>
</event>
<event>
12    6  0.1705838E-008  0.2060231E+04  0.7818608E-02  0.8578967E-01
          2   -1    0    0  501    0  0.00000000000E+00  0.00000000000E+00  0.13870024601E+04  0.13870024601E+04  0.00000000000E+00 0. -1.
         -1   -1    0    0    0  501 -0.00000000000E+00 -0.00000000000E+00 -0.76505839138E+03  0.76505839138E+03  0.00000000000E+00 0.  1.
         24    2    1    2    0    0  0.51185333670E+02  0.49916316074E+03  0.86669121377E+03  0.10046585688E+04  0.80008626692E+02 0.  0.
        254    2    1    2    0    0 -0.51185333670E+02 -0.49916316074E+03 -0.24474714508E+03  0.11474022827E+04  0.10024205873E+04 0.  0.
         23    2    4    4    0    0  0.31456430181E+03  0.11566613992E+03 -0.25509875679E+03  0.42617744459E+03  0.64980632993E+02 0.  0.
         23    2    4    4    0    0 -0.36574963548E+03 -0.61482930066E+03  0.10351611715E+02  0.72122483810E+03  0.90940895188E+02 0.  0.
          4    1    3    3  502    0  0.46991734140E+02  0.23886553695E+03  0.35355914439E+03  0.42926569442E+03  0.00000000000E+00 0. -1.
         -3    1    3    3    0  502  0.41935995303E+01  0.26029762379E+03  0.51313206937E+03  0.57539287435E+03  0.00000000000E+00 0.  1.
         11    1    5    5    0    0  0.44810076084E+01  0.12344002885E+02 -0.31708435117E+01  0.13509555321E+02  0.00000000000E+00 0. -1.
        -11    1    5    5    0    0  0.31008329420E+03  0.10332213704E+03 -0.25192791328E+03  0.41266788927E+03  0.00000000000E+00 0.  1.
          2    1    6    6  503    0 -0.12145666933E+03 -0.23446333246E+03 -0.37240102797E+02  0.26666758717E+03  0.00000000000E+00 0. -1.
         -2    1    6    6    0  503 -0.24429296616E+03 -0.38036596820E+03  0.47591714512E+02  0.45455725092E+03  0.00000000000E+00 0.  1.
<mgrwt>
<rscale>  0 0.20602309E+04</rscale>
<asrwt>0</asrwt>
<pdfrwt beam="1">  1        2 0.21338499E+00 0.20602309E+04</pdfrwt>
<pdfrwt beam="2">  1       -1 0.11770129E+00 0.20602309E+04</pdfrwt>
<totfact> 0.10067095E+01</totfact>
</mgrwt>
</event>
<event>
12    6  0.1705838E-008  0.1688017E+04  0.7818608E-02  0.8768229E-01
         -1   -1    0    0    0  501 -0.00000000000E+00  0.00000000000E+00  0.80517032382E+03  0.80517032382E+03  0.00000000000E+00 0.  1.
          2   -1    0    0  501    0  0.00000000000E+00 -0.00000000000E+00 -0.88471968740E+03  0.88471968740E+03  0.00000000000E+00 0. -1.
         24    2    1    2    0    0 -0.34529242706E+03  0.32788023760E+03  0.33940698767E+03  0.59103621779E+03  0.85990680060E+02 0.  0.
        254    2    1    2    0    0  0.34529242706E+03 -0.32788023760E+03 -0.41895635126E+03  0.10988537934E+04  0.89734214472E+03 0.  0.
         23    2    4    4    0    0  0.31134540798E+03 -0.18093814003E+03  0.22108911027E+03  0.43510900664E+03  0.10375393675E+03 0.  0.
         23    2    4    4    0    0  0.33947019080E+02 -0.14694209757E+03 -0.64004546153E+03  0.66374478679E+03  0.90302652347E+02 0.  0.
          2    1    3    3  502    0 -0.12834214930E+03  0.17844762889E+03  0.16937625050E+03  0.27749518514E+03  0.00000000000E+00 0. -1.
         -3    1    3    3    0  502 -0.21695027777E+03  0.14943260871E+03  0.17003073717E+03  0.31354103264E+03  0.00000000000E+00 0.  1.
         11    1    5    5    0    0  0.10779162493E+03 -0.10854506872E+02  0.48890638914E+02  0.11885768506E+03  0.00000000000E+00 0. -1.
        -11    1    5    5    0    0  0.20355378305E+03 -0.17008363316E+03  0.17219847136E+03  0.31625132158E+03  0.00000000000E+00 0.  1.
          3    1    6    6  503    0  0.31039828999E+02 -0.80499905671E+02 -0.18823142952E+03  0.20706225357E+03  0.00000000000E+00 0. -1.
         -3    1    6    6    0  503  0.29071900810E+01 -0.66442191895E+02 -0.45181403202E+03  0.45668253322E+03  0.00000000000E+00 0.  1.
<mgrwt>
<rscale>  0 0.16880166E+04</rscale>
<asrwt>0</asrwt>
<pdfrwt beam="1">  1        2 0.13611072E+00 0.16880166E+04</pdfrwt>
<pdfrwt beam="2">  1       -1 0.12387236E+00 0.16880166E+04</pdfrwt>
<totfact> 0.18689648E+01</totfact>
</mgrwt>
</event>
<event>
12    6  0.1705838E-008  0.3390817E+04  0.7818608E-02  0.8140164E-01
          2   -1    0    0  501    0  0.00000000000E+00  0.00000000000E+00  0.14499776855E+04  0.14499776855E+04  0.00000000000E+00 0. -1.
         -1   -1    0    0    0  501 -0.00000000000E+00 -0.00000000000E+00 -0.19823816435E+04  0.19823816435E+04  0.00000000000E+00 0.  1.
         24    2    1    2    0    0  0.68533039000E+02  0.20657620906E+03  0.13292012075E+04  0.13493036907E+04  0.80461743180E+02 0.  0.
        254    2    1    2    0    0 -0.68533039000E+02 -0.20657620906E+03 -0.18616051656E+04  0.20830556383E+04  0.90894251322E+03 0.  0.
         23    2    4    4    0    0 -0.43712993850E+03  0.63816580811E+02 -0.76469960461E+03  0.89052417488E+03  0.11451061802E+03 0.  0.
         23    2    4    4    0    0  0.36859689950E+03 -0.27039278987E+03 -0.10969055610E+04  0.11925314635E+04  0.99767462278E+02 0.  0.
          2    1    3    3  502    0  0.64113590878E+02  0.10807021020E+03  0.91155614871E+03  0.92017625220E+03  0.00000000000E+00 0. -1.
         -1    1    3    3    0  502  0.44194481221E+01  0.98505998860E+02  0.41764505877E+03  0.42912743847E+03  0.00000000000E+00 0.  1.
         11    1    5    5    0    0 -0.47461444502E+02  0.81322162277E+01 -0.17511510478E+03  0.18161503676E+03  0.00000000000E+00 0. -1.
        -11    1    5    5    0    0 -0.38966849399E+03  0.55684364584E+02 -0.58958449982E+03  0.70890913812E+03  0.00000000000E+00 0.  1.
          1    1    6    6  503    0  0.28039338431E+02 -0.51129137503E+02 -0.90298142669E+02  0.10749022175E+03  0.00000000000E+00 0. -1.
         -1    1    6    6    0  503  0.34055756106E+03 -0.21926365236E+03 -0.10066074183E+04  0.10850412417E+04  0.00000000000E+00 0.  1.
<mgrwt>
<rscale>  0 0.33908165E+04</rscale>
<asrwt>0</asrwt>
<pdfrwt beam="1">  1        2 0.22307349E+00 0.33908165E+04</pdfrwt>
<pdfrwt beam="2">  1       -1 0.30498179E+00 0.33908165E+04</pdfrwt>
<totfact> 0.39206847E-01</totfact>
</mgrwt>
</event>
<event>
12    6  0.1705838E-008  0.1842920E+04  0.7818608E-02  0.8683803E-01
          2   -1    0    0  501    0  0.00000000000E+00  0.00000000000E+00  0.33748628139E+04  0.33748628139E+04  0.00000000000E+00 0. -1.
         -1   -1    0    0    0  501 -0.00000000000E+00 -0.00000000000E+00 -0.25159190578E+03  0.25159190578E+03  0.00000000000E+00 0.  1.
         24    2    1    2    0    0  0.60425630858E+03 -0.31883176213E+03  0.89683800715E+03  0.11300259440E+04  0.76556149086E+02 0.  0.
        254    2    1    2    0    0 -0.60425630858E+03  0.31883176213E+03  0.22264329010E+04  0.24964287757E+04  0.89909609646E+03 0.  0.
         23    2    4    4    0    0 -0.16892032986E+03  0.56934172069E+03  0.14076766169E+04  0.15314201892E+04  0.10492981160E+03 0.  0.
         23    2    4    4    0    0 -0.43533597873E+03 -0.25050995856E+03  0.81875628413E+03  0.96500858656E+03  0.92774272448E+02 0.  0.
          2    1    3    3  502    0  0.32024577439E+03 -0.20517931833E+03  0.46308803969E+03  0.59925490501E+03  0.00000000000E+00 0. -1.
         -1    1    3    3    0  502  0.28401053419E+03 -0.11365244380E+03  0.43374996746E+03  0.53077103895E+03  0.00000000000E+00 0.  1.
         11    1    5    5    0    0 -0.13351789057E+03  0.53920280197E+03  0.13214767821E+04  0.14334809292E+04  0.00000000000E+00 0. -1.
        -11    1    5    5    0    0 -0.35402439294E+02  0.30138918721E+02  0.86199834805E+02  0.97939260004E+02  0.00000000000E+00 0.  1.
          1    1    6    6  503    0 -0.25220395826E+03 -0.18242555252E+03  0.56107950228E+03  0.64163550918E+03  0.00000000000E+00 0. -1.
         -1    1    6    6    0  503 -0.18313202047E+03 -0.68084406043E+02  0.25767678185E+03  0.32337307738E+03  0.00000000000E+00 0.  1.
<mgrwt>
<rscale>  0 0.18429196E+04</rscale>
<asrwt>0</asrwt>
<pdfrwt beam="1">  1        2 0.51920963E+00 0.18429196E+04</pdfrwt>
<pdfrwt beam="2">  1       -1 0.38706449E-01 0.18429196E+04</pdfrwt>
<totfact> 0.69146040E+00</totfact>
</mgrwt>
</event>
<event>
11    6  0.1705838E-008  0.1306970E+04  0.7818608E-02  0.9024056E-01
          2   -1    0    0  501    0  0.00000000000E+00  0.00000000000E+00  0.79496929363E+03  0.79496929363E+03  0.00000000000E+00 0. -1.
         -1   -1    0    0    0  501 -0.00000000000E+00 -0.00000000000E+00 -0.53718151013E+03  0.53718151013E+03  0.00000000000E+00 0.  1.
         24    2    1    2    0    0 -0.29438382119E+03  0.14179589715E+03 -0.15780744282E+02  0.33674892341E+03  0.79893021601E+02 0.  0.
        254    2    1    2    0    0  0.29438382119E+03 -0.14179589715E+03  0.27356852778E+03  0.99540188035E+03  0.89956503566E+03 0.  0.
         23    2    4    4    0    0  0.26792980764E+03  0.34665860894E+03  0.12256034585E+03  0.46412110212E+03  0.91808420523E+02 0.  0.
          2    1    3    3  502    0 -0.15305951888E+03  0.66630291378E+02  0.31419968734E+02  0.16986472996E+03  0.00000000000E+00 0. -1.
         -1    1    3    3    0  502 -0.14132430231E+03  0.75165605773E+02 -0.47200713015E+02  0.16688419345E+03  0.00000000000E+00 0.  1.
         11    1    4    4    0    0  0.85189119136E+00 -0.42947928755E+03  0.17345194655E+03  0.46318329192E+03  0.00000000000E+00 0.  1.
        -11    1    4    4    0    0  0.25602122361E+02 -0.58975218544E+02 -0.22443764620E+02  0.68097486312E+02  0.00000000000E+00 0. -1.
          3    1    5    5  503    0  0.33851918010E+02  0.79763250842E+01  0.18845874575E+02  0.39556808558E+02  0.00000000000E+00 0. -1.
         -3    1    5    5    0  503  0.23407788963E+03  0.33868228386E+03  0.10371447128E+03  0.42456429356E+03  0.00000000000E+00 0.  1.
<mgrwt>
<rscale>  0 0.13069702E+04</rscale>
<asrwt>0</asrwt>
<pdfrwt beam="1">  1        2 0.12230297E+00 0.13069702E+04</pdfrwt>
<pdfrwt beam="2">  1       -1 0.82643310E-01 0.13069702E+04</pdfrwt>
<totfact> 0.56554934E+01</totfact>
</mgrwt>
</event>
<event>
12    6  0.1705838E-008  0.2151430E+04  0.7818608E-02  0.8538920E-01
         -1   -1    0    0    0  501 -0.00000000000E+00  0.00000000000E+00  0.31166214740E+03  0.31166214740E+03  0.00000000000E+00 0.  1.
          2   -1    0    0  501    0  0.00000000000E+00 -0.00000000000E+00 -0.37128766312E+04  0.37128766312E+04  0.00000000000E+00 0. -1.
         24    2    1    2    0    0 -0.67587646919E+03  0.26634399626E+02 -0.24763561810E+04  0.25682933778E+04  0.79199409642E+02 0.  0.
        254    2    1    2    0    0  0.67587646919E+03 -0.26634399626E+02 -0.92485830283E+03  0.14562454008E+04  0.89875992024E+03 0.  0.
         23    2    4    4    0    0  0.47733191834E+03  0.35511323537E+03 -0.80009340260E+03  0.99986331560E+03  0.75006845028E+02 0.  0.
         23    2    4    4    0    0  0.19854455084E+03 -0.38174763500E+03 -0.12476490024E+03  0.45638208521E+03  0.86989263002E+02 0.  0.
          2    1    3    3  502    0 -0.58031006656E+03  0.48514411144E+02 -0.20784584301E+04  0.21584955101E+04  0.00000000000E+00 0. -1.
         -1    1    3    3    0  502 -0.95566402631E+02 -0.21880011518E+02 -0.39789775087E+03  0.40979786769E+03  0.00000000000E+00 0.  1.
         11    1    5    5    0    0  0.43922165589E+03  0.33687527486E+03 -0.70934225669E+03  0.89975944060E+03  0.00000000000E+00 0. -1.
        -11    1    5    5    0    0  0.38110262454E+02  0.18237960512E+02 -0.90751145904E+02  0.10010387500E+03  0.00000000000E+00 0.  1.
          1    1    6    6  503    0  0.17243792858E+03 -0.26999708467E+03 -0.11806454718E+03  0.34142715511E+03  0.00000000000E+00 0. -1.
         -1    1    6    6    0  503  0.26106622261E+02 -0.11175055033E+03 -0.67003530525E+01  0.11495493011E+03  0.00000000000E+00 0.  1.
<mgrwt>
<rscale>  0 0.21514303E+04</rscale>
<asrwt>0</asrwt>
<pdfrwt beam="1">  1        2 0.57121179E+00 0.21514303E+04</pdfrwt>
<pdfrwt beam="2">  1       -1 0.47948023E-01 0.21514303E+04</pdfrwt>
<totfact> 0.26060802E+00</totfact>
</mgrwt>
</event>
<event>
11    6  0.1705838E-008  0.1724968E+04  0.7818608E-02  0.8747251E-01
          4   -1    0    0  501    0  0.00000000000E+00  0.00000000000E+00  0.88867410243E+03  0.88867410243E+03  0.00000000000E+00 0. -1.
         -3   -1    0    0    0  501 -0.00000000000E+00 -0.00000000000E+00 -0.83706569965E+03  0.83706569965E+03  0.00000000000E+00 0.  1.
         24    2    1    2    0    0 -0.27770658289E+03  0.35646149743E+03 -0.40910786997E+03  0.61469257168E+03  0.79321895318E+02 0.  0.
        254    2    1    2    0    0  0.27770658289E+03 -0.35646149743E+03  0.46071627275E+03  0.11110472304E+04  0.90442286509E+03 0.  0.
         23    2    4    4    0    0  0.39143988325E+03 -0.16200781237E+03 -0.14067374697E+03  0.45586408462E+03  0.92472953328E+02 0.  0.
          2    1    3    3  502    0 -0.51997660275E+02  0.82813364245E+02 -0.49601599793E+02  0.10964546809E+03  0.00000000000E+00 0. -1.
         -1    1    3    3    0  502 -0.22570892262E+03  0.27364813318E+03 -0.35950627017E+03  0.50504710358E+03  0.00000000000E+00 0.  1.
         11    1    4    4    0    0 -0.26249348029E+02 -0.20847645742E+02  0.13767073878E+02  0.36237893539E+02  0.00000000000E+00 0.  1.
        -11    1    4    4    0    0 -0.87483952324E+02 -0.17360603931E+03  0.58762294584E+03  0.61894525225E+03  0.00000000000E+00 0. -1.
          2    1    5    5  503    0  0.12441681402E+03 -0.91766156989E+02 -0.76068827916E+02  0.17229926802E+03  0.00000000000E+00 0. -1.
         -2    1    5    5    0  503  0.26702306922E+03 -0.70241655384E+02 -0.64604919053E+02  0.28356481660E+03  0.00000000000E+00 0.  1.
<mgrwt>
<rscale>  0 0.17249680E+04</rscale>
<asrwt>0</asrwt>
<pdfrwt beam="1">  1        4 0.13671909E+00 0.17249680E+04</pdfrwt>
<pdfrwt beam="2">  1       -3 0.12877934E+00 0.17249680E+04</pdfrwt>
<totfact> 0.39226355E-01</totfact>
</mgrwt>
</event>
<event>
12    6  0.1705838E-008  0.2036396E+04  0.7818608E-02  0.8589791E-01
          2   -1    0    0  501    0  0.00000000000E+00  0.00000000000E+00  0.86454476539E+03  0.86454476539E+03  0.00000000000E+00 0. -1.
         -1   -1    0    0    0  501 -0.00000000000E+00 -0.00000000000E+00 -0.11991597793E+04  0.11991597793E+04  0.00000000000E+00 0.  1.
         24    2    1    2    0    0  0.52414332493E+03 -0.38893550756E+03 -0.63597212720E+03  0.91386165414E+03  0.68450874548E+02 0.  0.
        254    2    1    2    0    0 -0.52414332493E+03  0.38893550756E+03  0.30135711328E+03  0.11498428906E+04  0.89739930306E+03 0.  0.
         23    2    4    4    0    0 -0.74686299958E+03  0.17051659012E+03  0.27535902589E+03  0.82375497025E+03  0.12597384740E+03 0.  0.
         23    2    4    4    0    0  0.22271967465E+03  0.21841891744E+03  0.25998087391E+02  0.32608792031E+03  0.91359478146E+02 0.  0.
          2    1    3    3  502    0  0.17924701761E+03 -0.15348031360E+03 -0.19068144829E+03  0.30338937804E+03  0.00000000000E+00 0. -1.
         -1    1    3    3    0  502  0.34489630731E+03 -0.23545519396E+03 -0.44529067892E+03  0.61047227611E+03  0.00000000000E+00 0.  1.
         11    1    5    5    0    0 -0.85884467387E+02  0.31928030092E+02 -0.66944042295E+01  0.91871409546E+02  0.00000000000E+00 0. -1.
        -11    1    5    5    0    0 -0.66097853219E+03  0.13858856003E+03  0.28205343012E+03  0.73188356071E+03  0.00000000000E+00 0.  1.
          4    1    6    6  503    0  0.63044552366E+02  0.84672547928E+02 -0.31215961720E+02  0.11008402346E+03  0.00000000000E+00 0. -1.
         -4    1    6    6    0  503  0.15967512229E+03  0.13374636951E+03  0.57214049111E+02  0.21600389684E+03  0.00000000000E+00 0.  1.
<mgrwt>
<rscale>  0 0.20363961E+04</rscale>
<asrwt>0</asrwt>
<pdfrwt beam="1">  1        2 0.13300689E+00 0.20363961E+04</pdfrwt>
<pdfrwt beam="2">  1       -1 0.18448612E+00 0.20363961E+04</pdfrwt>
<totfact> 0.63346235E+00</totfact>
</mgrwt>
</event>
<event>
12    6  0.1705838E-008  0.2265290E+04  0.7818608E-02  0.8491734E-01
          2   -1    0    0  501    0  0.00000000000E+00  0.00000000000E+00  0.28418119136E+04  0.28418119136E+04  0.00000000000E+00 0. -1.
         -1   -1    0    0    0  501 -0.00000000000E+00 -0.00000000000E+00 -0.45143186860E+03  0.45143186860E+03  0.00000000000E+00 0.  1.
         24    2    1    2    0    0  0.55157354690E+03 -0.13754436075E+03  0.21058864274E+04  0.21827283670E+04  0.79960303459E+02 0.  0.
        254    2    1    2    0    0 -0.55157354690E+03  0.13754436075E+03  0.28449361768E+03  0.11105154153E+04  0.91058005705E+03 0.  0.
         23    2    4    4    0    0 -0.55029556280E+03 -0.14220826980E+02 -0.20314823906E+03  0.59167671428E+03  0.76057141894E+02 0.  0.
         23    2    4    4    0    0 -0.12779840997E+01  0.15176518773E+03  0.48764185674E+03  0.51883870101E+03  0.91458798258E+02 0.  0.
          4    1    3    3  502    0  0.53741917791E+03 -0.14444828552E+03  0.20707794720E+04  0.21442509884E+04  0.00000000000E+00 0. -1.
         -3    1    3    3    0  502  0.14154368988E+02  0.69039247718E+01  0.35106955406E+02  0.38477378505E+02  0.00000000000E+00 0.  1.
         11    1    5    5    0    0 -0.39108967175E+03  0.13474414782E+02 -0.17031282253E+03  0.42677763381E+03  0.00000000000E+00 0. -1.
        -11    1    5    5    0    0 -0.15920589105E+03 -0.27695241762E+02 -0.32835416527E+02  0.16489908047E+03  0.00000000000E+00 0.  1.
          1    1    6    6  503    0 -0.10829564500E+02  0.15341968877E+03  0.48498396247E+03  0.50878711090E+03  0.00000000000E+00 0. -1.
         -1    1    6    6    0  503  0.95515804007E+01 -0.16545010384E+01  0.26578942684E+01  0.10051590112E+02  0.00000000000E+00 0.  1.
<mgrwt>
<rscale>  0 0.22652898E+04</rscale>
<asrwt>0</asrwt>
<pdfrwt beam="1">  1        2 0.43720182E+00 0.22652898E+04</pdfrwt>
<pdfrwt beam="2">  1       -1 0.69451058E-01 0.22652898E+04</pdfrwt>
<totfact> 0.47333541E+00</totfact>
</mgrwt>
</event>
<event>
12    6  0.1705838E-008  0.1429229E+04  0.7818608E-02  0.8932929E-01
          2   -1    0    0  501    0  0.00000000000E+00  0.00000000000E+00  0.26936252792E+03  0.26936252792E+03  0.00000000000E+00 0. -1.
         -1   -1    0    0    0  501 -0.00000000000E+00 -0.00000000000E+00 -0.18958605454E+04  0.18958605454E+04  0.00000000000E+00 0.  1.
         24    2    1    2    0    0 -0.20023685939E+02  0.24591754554E+03  0.26403444855E+02  0.26160530251E+03  0.82848085085E+02 0.  0.
        254    2    1    2    0    0  0.20023685939E+02 -0.24591754554E+03 -0.16529014623E+04  0.19036177708E+04  0.91148285006E+03 0.  0.
         23    2    4    4    0    0  0.17101997916E+03  0.13323252108E+03 -0.30232973022E+02  0.22797759345E+03  0.63726074035E+02 0.  0.
         23    2    4    4    0    0 -0.15099629322E+03 -0.37915006662E+03 -0.16226684893E+04  0.16756401773E+04  0.90345582105E+02 0.  0.
          4    1    3    3  502    0  0.91001021162E+00  0.22360309801E+03  0.39255635589E+01  0.22363940531E+03  0.00000000000E+00 0. -1.
         -3    1    3    3    0  502 -0.20933696150E+02  0.22314447526E+02  0.22477881296E+02  0.37965897203E+02  0.00000000000E+00 0.  1.
         11    1    5    5    0    0  0.13504925047E+03  0.70101492828E+02 -0.96804026136E+01  0.15246714251E+03  0.00000000000E+00 0.  1.
        -11    1    5    5    0    0  0.35970728681E+02  0.63131028255E+02 -0.20552570409E+02  0.75510450938E+02  0.00000000000E+00 0. -1.
          4    1    6    6  503    0 -0.49903104197E+02 -0.20683939943E+03 -0.70156280168E+03  0.73311883188E+03  0.00000000000E+00 0. -1.
         -4    1    6    6    0  503 -0.10109318902E+03 -0.17231066719E+03 -0.92110568760E+03  0.94252134545E+03  0.00000000000E+00 0.  1.
<mgrwt>
<rscale>  0 0.14292289E+04</rscale>
<asrwt>0</asrwt>
<pdfrwt beam="1">  1        2 0.41440389E-01 0.14292289E+04</pdfrwt>
<pdfrwt beam="2">  1       -1 0.29167085E+00 0.14292289E+04</pdfrwt>
<totfact> 0.51664613E+00</totfact>
</mgrwt>
</event>
<event>
12    6  0.1705838E-008  0.1120418E+04  0.7818608E-02  0.9185517E-01
          2   -1    0    0  501    0  0.00000000000E+00  0.00000000000E+00  0.16227868612E+04  0.16227868612E+04  0.00000000000E+00 0. -1.
         -1   -1    0    0    0  501 -0.00000000000E+00 -0.00000000000E+00 -0.19339204036E+03  0.19339204036E+03  0.00000000000E+00 0.  1.
         24    2    1    2    0    0 -0.36252871209E+02 -0.17684573938E+03  0.35441293281E+03  0.40569194574E+03  0.79929604554E+02 0.  0.
        254    2    1    2    0    0  0.36252871209E+02  0.17684573938E+03  0.10749818881E+04  0.14104869559E+04  0.89515289576E+03 0.  0.
         23    2    4    4    0    0 -0.35818896435E+03  0.29542907802E+03  0.69490929151E+03  0.84281031957E+03  0.10886981689E+03 0.  0.
         23    2    4    4    0    0  0.39444183556E+03 -0.11858333864E+03  0.38007259655E+03  0.56767663628E+03  0.90306228407E+02 0.  0.
          2    1    3    3  502    0 -0.10873373847E+02 -0.14755689912E+03  0.32481975957E+03  0.35693016816E+03  0.00000000000E+00 0. -1.
         -1    1    3    3    0  502 -0.25379497362E+02 -0.29288840255E+02  0.29593173248E+02  0.48761777580E+02  0.00000000000E+00 0.  1.
         11    1    5    5    0    0 -0.38214325937E+02 -0.26316573383E+01  0.74588296991E+02  0.83849116723E+02  0.00000000000E+00 0. -1.
        -11    1    5    5    0    0 -0.31997463842E+03  0.29806073536E+03  0.62032099452E+03  0.75896120285E+03  0.00000000000E+00 0.  1.
          1    1    6    6  503    0  0.62216504324E+02 -0.70026724463E+01  0.10461087222E+03  0.12191540271E+03  0.00000000000E+00 0. -1.
         -1    1    6    6    0  503  0.33222533124E+03 -0.11158066619E+03  0.27546172433E+03  0.44576123357E+03  0.00000000000E+00 0.  1.
<mgrwt>
<rscale>  0 0.11204179E+04</rscale>
<asrwt>0</asrwt>
<pdfrwt beam="1">  1        2 0.24965951E+00 0.11204179E+04</pdfrwt>
<pdfrwt beam="2">  1       -1 0.29752623E-01 0.11204179E+04</pdfrwt>
<totfact> 0.12662965E+02</totfact>
</mgrwt>
</event>
<event>
11    6  0.1705838E-008  0.1107549E+04  0.7818608E-02  0.9197865E-01
         -1   -1    0    0    0  501 -0.00000000000E+00  0.00000000000E+00  0.28160538287E+03  0.28160538287E+03  0.00000000000E+00 0.  1.
          2   -1    0    0  501    0  0.00000000000E+00 -0.00000000000E+00 -0.10889922937E+04  0.10889922937E+04  0.00000000000E+00 0. -1.
         24    2    1    2    0    0  0.59437776172E+02  0.10225291182E+03 -0.30101223973E+03  0.33325911673E+03  0.80403751164E+02 0.  0.
        254    2    1    2    0    0 -0.59437776172E+02 -0.10225291182E+03 -0.50637467113E+03  0.10373385599E+04  0.89758981335E+03 0.  0.
         23    2    4    4    0    0 -0.15407105538E+03 -0.42048063305E+03 -0.12880349852E+03  0.47462642383E+03  0.90211130642E+02 0.  0.
          4    1    3    3  502    0  0.28072093612E+02  0.88972950368E+02 -0.27501839960E+03  0.29041237656E+03  0.00000000000E+00 0. -1.
         -3    1    3    3    0  502  0.31365682560E+02  0.13279961457E+02 -0.25993840130E+02  0.42846740173E+02  0.00000000000E+00 0.  1.
         11    1    4    4    0    0  0.97380012758E+02  0.43649341570E+02 -0.14801670876E+02  0.10773681527E+03  0.00000000000E+00 0. -1.
        -11    1    4    4    0    0 -0.27467335507E+01  0.27457837966E+03 -0.36276950173E+03  0.45497532077E+03  0.00000000000E+00 0.  1.
          3    1    5    5  503    0 -0.94220168107E+02 -0.15000954970E+03 -0.25468257321E+02  0.17896630189E+03  0.00000000000E+00 0. -1.
         -3    1    5    5    0  503 -0.59850887272E+02 -0.27047108335E+03 -0.10333524120E+03  0.29566012194E+03  0.00000000000E+00 0.  1.
<mgrwt>
<rscale>  0 0.11075488E+04</rscale>
<asrwt>0</asrwt>
<pdfrwt beam="1">  1        2 0.16753727E+00 0.11075488E+04</pdfrwt>
<pdfrwt beam="2">  1       -1 0.43323905E-01 0.11075488E+04</pdfrwt>
<totfact> 0.13154830E+02</totfact>
</mgrwt>
</event>
<event>
11    6  0.1705838E-008  0.1267822E+04  0.7818608E-02  0.9055479E-01
          2   -1    0    0  501    0  0.00000000000E+00  0.00000000000E+00  0.23577298874E+04  0.23577298874E+04  0.00000000000E+00 0. -1.
         -1   -1    0    0    0  501 -0.00000000000E+00 -0.00000000000E+00 -0.17043639930E+03  0.17043639930E+03  0.00000000000E+00 0.  1.
         24    2    1    2    0    0  0.52730738057E+02 -0.10110187248E+02 -0.53137036605E+02  0.11093868734E+03  0.81247160369E+02 0.  0.
        254    2    1    2    0    0 -0.52730738057E+02  0.10110187248E+02  0.22404305248E+04  0.24172275994E+04  0.90585737533E+03 0.  0.
         23    2    4    4    0    0  0.21802983351E+03  0.21880346965E+03  0.15402689344E+04  0.15736123506E+04  0.91735888333E+02 0.  0.
          2    1    3    3  502    0  0.20746069139E+02  0.33504938464E+02 -0.38069817125E+02  0.54793168024E+02  0.00000000000E+00 0. -1.
         -1    1    3    3    0  502  0.31984668917E+02 -0.43615125713E+02 -0.15067219480E+02  0.56145519319E+02  0.00000000000E+00 0.  1.
         11    1    4    4    0    0 -0.19892245258E+02  0.54804230201E+02  0.28802934433E+03  0.29387090408E+03  0.00000000000E+00 0. -1.
        -11    1    4    4    0    0 -0.25086832631E+03 -0.26349751260E+03  0.41213224604E+03  0.54974434469E+03  0.00000000000E+00 0.  1.
          1    1    5    5  503    0  0.27703487553E+02  0.53181120270E+01  0.64722222821E+02  0.70602632140E+02  0.00000000000E+00 0. -1.
         -1    1    5    5    0  503  0.19032634596E+03  0.21348535762E+03  0.14755467116E+04  0.15030097185E+04  0.00000000000E+00 0.  1.
<mgrwt>
<rscale>  0 0.12678217E+04</rscale>
<asrwt>0</asrwt>
<pdfrwt beam="1">  1        2 0.36272765E+00 0.12678217E+04</pdfrwt>
<pdfrwt beam="2">  1       -1 0.26220986E-01 0.12678217E+04</pdfrwt>
<totfact> 0.60903830E+01</totfact>
</mgrwt>
</event>
<event>
11    6  0.1705838E-008  0.1757517E+04  0.7818608E-02  0.8729223E-01
          2   -1    0    0  501    0  0.00000000000E+00  0.00000000000E+00  0.10059069634E+04  0.10059069634E+04  0.00000000000E+00 0. -1.
         -1   -1    0    0    0  501 -0.00000000000E+00 -0.00000000000E+00 -0.76768195225E+03  0.76768195225E+03  0.00000000000E+00 0.  1.
         24    2    1    2    0    0 -0.50957822252E+03  0.34765338176E+03  0.27587346109E+03  0.68052970050E+03  0.80508806996E+02 0.  0.
        254    2    1    2    0    0  0.50957822252E+03 -0.34765338176E+03 -0.37648449974E+02  0.10930592151E+04  0.90156985488E+03 0.  0.
         23    2    4    4    0    0  0.69013388810E+03 -0.30039957553E+03 -0.17640434371E+03  0.77908820338E+03  0.96619085558E+02 0.  0.
          2    1    3    3  502    0 -0.31641801870E+03  0.23671845405E+03  0.13803004279E+03  0.41857888356E+03  0.00000000000E+00 0. -1.
         -1    1    3    3    0  502 -0.19316020382E+03  0.11093492772E+03  0.13784341831E+03  0.26195081694E+03  0.00000000000E+00 0.  1.
         11    1    4    4    0    0 -0.12622300173E+03 -0.83743983241E+02  0.18103890995E+03  0.23605166343E+03  0.00000000000E+00 0.  1.
        -11    1    4    4    0    0 -0.54332663847E+02  0.36490177013E+02 -0.42283016211E+02  0.77919348297E+02  0.00000000000E+00 0. -1.
          3    1    5    5  503    0  0.20948576580E+03 -0.51450543033E+02 -0.75005091563E+02  0.22837952669E+03  0.00000000000E+00 0. -1.
         -3    1    5    5    0  503  0.48064812229E+03 -0.24894903250E+03 -0.10139925214E+03  0.55070867669E+03  0.00000000000E+00 0.  1.
<mgrwt>
<rscale>  0 0.17575171E+04</rscale>
<asrwt>0</asrwt>
<pdfrwt beam="1">  1        2 0.15475492E+00 0.17575171E+04</pdfrwt>
<pdfrwt beam="2">  1       -1 0.11810492E+00 0.17575171E+04</pdfrwt>
<totfact> 0.17370924E+01</totfact>
</mgrwt>
</event>
<event>
11    6  0.1705838E-008  0.1310564E+04  0.7818608E-02  0.9021230E-01
          2   -1    0    0  501    0  0.00000000000E+00  0.00000000000E+00  0.19964319311E+04  0.19964319311E+04  0.00000000000E+00 0. -1.
         -3   -1    0    0    0  501 -0.00000000000E+00 -0.00000000000E+00 -0.21508090755E+03  0.21508090755E+03  0.00000000000E+00 0.  1.
         24    2    1    2    0    0  0.23444416458E+03  0.82594669296E+02  0.78037957684E+02  0.27247522170E+03  0.79792718304E+02 0.  0.
        254    2    1    2    0    0 -0.23444416458E+03 -0.82594669296E+02  0.17033130659E+04  0.19390376169E+04  0.89263964391E+03 0.  0.
         23    2    4    4    0    0  0.24122037029E+02 -0.43287676734E+03  0.10840857454E+04  0.11710337108E+04  0.90077079435E+02 0.  0.
          2    1    3    3  502    0  0.61861723295E+01  0.55112325110E+01 -0.12589468587E+02  0.15071069344E+02  0.00000000000E+00 0. -1.
         -1    1    3    3    0  502  0.22825799225E+03  0.77083436785E+02  0.90627426271E+02  0.25740415235E+03  0.00000000000E+00 0.  1.
         11    1    4    4    0    0  0.14090062227E+02  0.11428607920E+02  0.15107254437E+02  0.23608728665E+02  0.00000000000E+00 0. -1.
        -11    1    4    4    0    0 -0.27265626384E+03  0.33885349012E+03  0.60412006606E+03  0.74439517744E+03  0.00000000000E+00 0.  1.
          4    1    5    5  503    0  0.11045938908E+02 -0.70353520917E+02  0.27986415304E+03  0.28878291990E+03  0.00000000000E+00 0. -1.
         -4    1    5    5    0  503  0.13076098122E+02 -0.36252324642E+03  0.80422159233E+03  0.88225079094E+03  0.00000000000E+00 0.  1.
<mgrwt>
<rscale>  0 0.13105638E+04</rscale>
<asrwt>0</asrwt>
<pdfrwt beam="1">  1        2 0.30714336E+00 0.13105638E+04</pdfrwt>
<pdfrwt beam="2">  1       -3 0.33089372E-01 0.13105638E+04</pdfrwt>
<totfact> 0.38222933E+01</totfact>
</mgrwt>
</event>
<event>
12    6  0.1705838E-008  0.1492075E+04  0.7818608E-02  0.8889740E-01
         -1   -1    0    0    0  501 -0.00000000000E+00  0.00000000000E+00  0.54766410297E+03  0.54766410297E+03  0.00000000000E+00 0.  1.
          2   -1    0    0  501    0  0.00000000000E+00 -0.00000000000E+00 -0.10162651266E+04  0.10162651266E+04  0.00000000000E+00 0. -1.
         24    2    1    2    0    0  0.27440471307E+03 -0.32250794280E+03  0.42256681982E+02  0.43280170902E+03  0.78882015919E+02 0.  0.
        254    2    1    2    0    0 -0.27440471307E+03  0.32250794280E+03 -0.51085770557E+03  0.11311275205E+04  0.91605925167E+03 0.  0.
         23    2    4    4    0    0 -0.22808070711E+03 -0.28759072782E+03 -0.29729278991E+03  0.47667414238E+03  0.64078072699E+02 0.  0.
         23    2    4    4    0    0 -0.46324005958E+02  0.61009867062E+03 -0.21356491566E+03  0.65445337812E+03  0.91284990636E+02 0.  0.
          2    1    3    3  502    0  0.16743404626E+02 -0.20462646222E+02  0.23451762909E+02  0.35341854400E+02  0.00000000000E+00 0. -1.
         -3    1    3    3    0  502  0.25766130845E+03 -0.30204529658E+03  0.18804919073E+02  0.39745985463E+03  0.00000000000E+00 0.  1.
         11    1    5    5    0    0 -0.16482959177E+03 -0.24416401959E+03 -0.25133169629E+03  0.38723698731E+03  0.00000000000E+00 0.  1.
        -11    1    5    5    0    0 -0.63251115348E+02 -0.43426708229E+02 -0.45961093618E+02  0.89437155069E+02  0.00000000000E+00 0. -1.
          1    1    6    6  503    0  0.23353258115E+02  0.27801036471E+03 -0.85930975426E+02  0.29192339764E+03  0.00000000000E+00 0. -1.
         -1    1    6    6    0  503 -0.69677264073E+02  0.33208830591E+03 -0.12763394023E+03  0.36252998048E+03  0.00000000000E+00 0.  1.
<mgrwt>
<rscale>  0 0.14920750E+04</rscale>
<asrwt>0</asrwt>
<pdfrwt beam="1">  1        2 0.15634848E+00 0.14920750E+04</pdfrwt>
<pdfrwt beam="2">  1       -1 0.84256017E-01 0.14920750E+04</pdfrwt>
<totfact> 0.37856307E+01</totfact>
</mgrwt>
</event>
<event>
12    6  0.1705838E-008  0.1613573E+04  0.7818608E-02  0.8812253E-01
         -1   -1    0    0    0  501 -0.00000000000E+00  0.00000000000E+00  0.82756467805E+03  0.82756467805E+03  0.00000000000E+00 0.  1.
          2   -1    0    0  501    0  0.00000000000E+00 -0.00000000000E+00 -0.78653019418E+03  0.78653019418E+03  0.00000000000E+00 0. -1.
         24    2    1    2    0    0  0.18075752257E+03 -0.48660290175E+03  0.22524978329E+03  0.57210603732E+03  0.84333783941E+02 0.  0.
        254    2    1    2    0    0 -0.18075752257E+03  0.48660290175E+03 -0.18421529941E+03  0.10419888349E+04  0.88450539262E+03 0.  0.
         23    2    4    4    0    0 -0.43767352463E+03 -0.16331244523E+02 -0.66932924356E+02  0.45772097845E+03  0.11490715400E+03 0.  0.
         23    2    4    4    0    0  0.25691600207E+03  0.50293414627E+03 -0.11728237506E+03  0.58426785645E+03  0.93086975347E+02 0.  0.
          4    1    3    3  502    0  0.75898464113E+02 -0.22436758430E+03  0.57925518088E+02  0.24383755943E+03  0.00000000000E+00 0. -1.
         -3    1    3    3    0  502  0.10485905846E+03 -0.26223531744E+03  0.16732426520E+03  0.32826847789E+03  0.00000000000E+00 0.  1.
         11    1    5    5    0    0 -0.23629700350E+03  0.42138154360E+02 -0.90923246265E+01  0.24019693646E+03  0.00000000000E+00 0.  1.
        -11    1    5    5    0    0 -0.20137652113E+03 -0.58469398884E+02 -0.57840599730E+02  0.21752404200E+03  0.00000000000E+00 0. -1.
          3    1    6    6  503    0  0.26612567036E+02  0.13930714174E+03 -0.34370511964E+02  0.14593162973E+03  0.00000000000E+00 0. -1.
         -3    1    6    6    0  503  0.23030343503E+03  0.36362700453E+03 -0.82911863095E+02  0.43833622671E+03  0.00000000000E+00 0.  1.
<mgrwt>
<rscale>  0 0.16135732E+04</rscale>
<asrwt>0</asrwt>
<pdfrwt beam="1">  1        2 0.12100464E+00 0.16135732E+04</pdfrwt>
<pdfrwt beam="2">  1       -1 0.12731764E+00 0.16135732E+04</pdfrwt>
<totfact> 0.20600167E+01</totfact>
</mgrwt>
</event>
<event>
11    6  0.1705838E-008  0.1603427E+04  0.7818608E-02  0.8818445E-01
          2   -1    0    0  501    0  0.00000000000E+00  0.00000000000E+00  0.14441270174E+04  0.14441270174E+04  0.00000000000E+00 0. -1.
         -1   -1    0    0    0  501 -0.00000000000E+00 -0.00000000000E+00 -0.44507496679E+03  0.44507496679E+03  0.00000000000E+00 0.  1.
         24    2    1    2    0    0 -0.30595381723E+03 -0.83986015522E+02  0.86031311536E+03  0.92039279210E+03  0.79516326633E+02 0.  0.
        254    2    1    2    0    0  0.30595381723E+03  0.83986015522E+02  0.13873893524E+03  0.96880919209E+03  0.90481012895E+03 0.  0.
         23    2    4    4    0    0  0.27053194391E+03 -0.10658913025E+03 -0.32613625782E+03  0.44614763429E+03  0.90189121068E+02 0.  0.
          4    1    3    3  502    0 -0.30587863322E+03 -0.90896383240E+02  0.82824956611E+03  0.88759294415E+03  0.00000000000E+00 0. -1.
         -1    1    3    3    0  502 -0.75184009911E-01  0.69103677182E+01  0.32063549258E+02  0.32799847952E+02  0.00000000000E+00 0.  1.
         11    1    4    4    0    0  0.64051854137E+02  0.47839785111E+02  0.89290219065E+02  0.11985002411E+03  0.00000000000E+00 0. -1.
        -11    1    4    4    0    0 -0.28629980815E+02  0.14273536066E+03  0.37558497400E+03  0.40281153369E+03  0.00000000000E+00 0.  1.
          4    1    5    5  503    0  0.52632982912E+02 -0.28983100938E+02 -0.12870490146E+03  0.14203944061E+03  0.00000000000E+00 0. -1.
         -4    1    5    5    0  503  0.21789896100E+03 -0.77606029314E+02 -0.19743135636E+03  0.30410819368E+03  0.00000000000E+00 0.  1.
<mgrwt>
<rscale>  0 0.16034273E+04</rscale>
<asrwt>0</asrwt>
<pdfrwt beam="1">  1        2 0.22217339E+00 0.16034273E+04</pdfrwt>
<pdfrwt beam="2">  1       -1 0.68473072E-01 0.16034273E+04</pdfrwt>
<totfact> 0.32204583E+01</totfact>
</mgrwt>
</event>
<event>
11    6  0.1705838E-008  0.2471310E+04  0.7818608E-02  0.8413278E-01
         -3   -1    0    0    0  501 -0.00000000000E+00  0.00000000000E+00  0.74926132694E+03  0.74926132694E+03  0.00000000000E+00 0.  1.
          2   -1    0    0  501    0  0.00000000000E+00 -0.00000000000E+00 -0.20377975388E+04  0.20377975388E+04  0.00000000000E+00 0. -1.
         24    2    1    2    0    0 -0.81949774439E+03 -0.65025663442E+03 -0.30567401018E+03  0.10928391427E+04  0.80315301372E+02 0.  0.
        254    2    1    2    0    0  0.81949774439E+03  0.65025663442E+03 -0.98286220170E+03  0.16942197231E+04  0.89997339893E+03 0.  0.
         23    2    4    4    0    0  0.35450056278E+03  0.27816249121E+03  0.80521698554E+02  0.46646377799E+03  0.89775785767E+02 0.  0.
          2    1    3    3  502    0 -0.25258089256E+03 -0.24827334205E+03 -0.96928745790E+02  0.36719469144E+03  0.00000000000E+00 0. -1.
         -1    1    3    3    0  502 -0.56691685183E+03 -0.40198329237E+03 -0.20874526439E+03  0.72564445125E+03  0.00000000000E+00 0.  1.
         11    1    4    4    0    0  0.93052191032E+02  0.15732011702E+03 -0.35631785459E+03  0.40046316057E+03  0.00000000000E+00 0. -1.
        -11    1    4    4    0    0  0.37194499058E+03  0.21477402620E+03 -0.70706604567E+03  0.82729278450E+03  0.00000000000E+00 0.  1.
          4    1    5    5  503    0  0.28464378703E+03  0.18748486437E+03  0.32686286127E+02  0.34240480891E+03  0.00000000000E+00 0. -1.
         -4    1    5    5    0  503  0.69856775750E+02  0.90677626832E+02  0.47835412427E+02  0.12405896908E+03  0.00000000000E+00 0.  1.
<mgrwt>
<rscale>  0 0.24713097E+04</rscale>
<asrwt>0</asrwt>
<pdfrwt beam="1">  1        2 0.31350731E+00 0.24713097E+04</pdfrwt>
<pdfrwt beam="2">  1       -3 0.11527098E+00 0.24713097E+04</pdfrwt>
<totfact> 0.22589661E+00</totfact>
</mgrwt>
</event>
<event>
12    6  0.1705838E-008  0.4296559E+04  0.7818608E-02  0.7947255E-01
          2   -1    0    0  501    0  0.00000000000E+00  0.00000000000E+00  0.26011782868E+04  0.26011782868E+04  0.00000000000E+00 0. -1.
         -1   -1    0    0    0  501 -0.00000000000E+00 -0.00000000000E+00 -0.17742365657E+04  0.17742365657E+04  0.00000000000E+00 0.  1.
         24    2    1    2    0    0  0.36238587826E+03  0.49321088150E+03 -0.15960086075E+04  0.17129176301E+04  0.11073768060E+03 0.  0.
        254    2    1    2    0    0 -0.36238587826E+03 -0.49321088150E+03  0.24229503286E+04  0.26624972223E+04  0.91848933881E+03 0.  0.
         23    2    4    4    0    0 -0.19949294217E+03 -0.70039022099E+03  0.21446542973E+04  0.22674345425E+04  0.10664639568E+03 0.  0.
         23    2    4    4    0    0 -0.16289293609E+03  0.20717933949E+03  0.27829603131E+03  0.39506267986E+03  0.95752037254E+02 0.  0.
          4    1    3    3  502    0  0.22827729117E+03  0.24259546191E+03 -0.96405439183E+03  0.10199823284E+04  0.00000000000E+00 0. -1.
         -3    1    3    3    0  502  0.13410858709E+03  0.25061541959E+03 -0.63195421570E+03  0.69293530175E+03  0.00000000000E+00 0.  1.
         11    1    5    5    0    0  0.12688660015E+02 -0.31570524195E+02  0.11409061501E+03  0.11905615702E+03  0.00000000000E+00 0.  1.
        -11    1    5    5    0    0 -0.21218160219E+03 -0.66881969679E+03  0.20305636823E+04  0.21483783855E+04  0.00000000000E+00 0. -1.
          4    1    6    6  503    0 -0.11293958396E+02  0.78448733540E+02  0.57607941164E+02  0.97981795122E+02  0.00000000000E+00 0.  1.
         -4    1    6    6    0  503 -0.15159897769E+03  0.12873060595E+03  0.22068809015E+03  0.29708088474E+03  0.00000000000E+00 0. -1.
<mgrwt>
<rscale>  0 0.42965594E+04</rscale>
<asrwt>0</asrwt>
<pdfrwt beam="1">  1        2 0.40018128E+00 0.42965594E+04</pdfrwt>
<pdfrwt beam="2">  1       -1 0.27295947E+00 0.42965594E+04</pdfrwt>
<totfact> 0.13149804E-01</totfact>
</mgrwt>
</event>
<event>
12    6  0.1705838E-008  0.1758526E+04  0.7818608E-02  0.8728671E-01
         -1   -1    0    0    0  501 -0.00000000000E+00  0.00000000000E+00  0.93117671286E+03  0.93117671286E+03  0.00000000000E+00 0.  1.
          2   -1    0    0  501    0  0.00000000000E+00 -0.00000000000E+00 -0.83024327685E+03  0.83024327685E+03  0.00000000000E+00 0. -1.
         24    2    1    2    0    0 -0.32257186376E+03  0.29152101661E+03  0.51704431754E+03  0.68011733029E+03  0.78661593162E+02 0.  0.
        254    2    1    2    0    0  0.32257186376E+03 -0.29152101661E+03 -0.41611088153E+03  0.10813026594E+04  0.89834852097E+03 0.  0.
         23    2    4    4    0    0 -0.29119388990E+03 -0.11540207810E+03 -0.34899588486E+02  0.33202294971E+03  0.10444968506E+03 0.  0.
         23    2    4    4    0    0  0.61376575366E+03 -0.17611893852E+03 -0.38121129304E+03  0.74927970972E+03  0.91497281805E+02 0.  0.
          2    1    3    3  502    0 -0.84992335890E+02  0.67800135005E+02  0.81487936252E+02  0.13587067094E+03  0.00000000000E+00 0. -1.
         -1    1    3    3    0  502 -0.23757952787E+03  0.22372088161E+03  0.43555638129E+03  0.54424665935E+03  0.00000000000E+00 0.  1.
         11    1    5    5    0    0 -0.39971965683E+02 -0.61268743749E+02 -0.99046773453E+01  0.73822216402E+02  0.00000000000E+00 0. -1.
        -11    1    5    5    0    0 -0.25122192422E+03 -0.54133334348E+02 -0.24994911141E+02  0.25820073330E+03  0.00000000000E+00 0.  1.
          1    1    6    6  503    0  0.10267657868E+03  0.19327895765E+01 -0.44888152548E+02  0.11207658866E+03  0.00000000000E+00 0. -1.
         -1    1    6    6    0  503  0.51108917498E+03 -0.17805172809E+03 -0.33632314049E+03  0.63720312106E+03  0.00000000000E+00 0.  1.
<mgrwt>
<rscale>  0 0.17585258E+04</rscale>
<asrwt>0</asrwt>
<pdfrwt beam="1">  1        2 0.12772973E+00 0.17585258E+04</pdfrwt>
<pdfrwt beam="2">  1       -1 0.14325796E+00 0.17585258E+04</pdfrwt>
<totfact> 0.13979645E+01</totfact>
</mgrwt>
</event>
<event>
12    6  0.1705838E-008  0.2045536E+04  0.7818608E-02  0.8585622E-01
         -1   -1    0    0    0  501 -0.00000000000E+00  0.00000000000E+00  0.14825661069E+04  0.14825661069E+04  0.00000000000E+00 0.  1.
          2   -1    0    0  501    0  0.00000000000E+00 -0.00000000000E+00 -0.70557016362E+03  0.70557016362E+03  0.00000000000E+00 0. -1.
         24    2    1    2    0    0  0.15259427447E+03  0.79953817153E+03  0.36018911186E+03  0.89388253791E+03  0.82118785600E+02 0.  0.
        254    2    1    2    0    0 -0.15259427447E+03 -0.79953817153E+03  0.41680683144E+03  0.12942537326E+04  0.91587034528E+03 0.  0.
         23    2    4    4    0    0 -0.62583283158E+02 -0.30079064433E+03  0.65160378067E+03  0.72818072885E+03  0.10615087300E+03 0.  0.
         23    2    4    4    0    0 -0.90010991310E+02 -0.49874752720E+03 -0.23479694923E+03  0.56607300379E+03  0.91967188727E+02 0.  0.
          2    1    3    3  502    0  0.15323186473E+03  0.79473470129E+03  0.36425105863E+03  0.88755962251E+03  0.00000000000E+00 0. -1.
         -1    1    3    3    0  502 -0.63759025762E+00  0.48034702424E+01 -0.40619467633E+01  0.63229154047E+01  0.00000000000E+00 0.  1.
         11    1    5    5    0    0 -0.36672352121E+02 -0.39132437889E+02  0.18472039885E+03  0.19234821252E+03  0.00000000000E+00 0.  1.
        -11    1    5    5    0    0 -0.25910931037E+02 -0.26165820644E+03  0.46688338182E+03  0.53583251634E+03  0.00000000000E+00 0. -1.
          3    1    6    6  503    0 -0.10072673724E+03 -0.35996440603E+03 -0.19334657302E+03  0.42083624666E+03  0.00000000000E+00 0. -1.
         -3    1    6    6    0  503  0.10715745933E+02 -0.13878312117E+03 -0.41450376211E+02  0.14523675713E+03  0.00000000000E+00 0.  1.
<mgrwt>
<rscale>  0 0.20455360E+04</rscale>
<asrwt>0</asrwt>
<pdfrwt beam="1">  1        2 0.10854926E+00 0.20455360E+04</pdfrwt>
<pdfrwt beam="2">  1       -1 0.22808709E+00 0.20455360E+04</pdfrwt>
<totfact> 0.41651671E+00</totfact>
</mgrwt>
</event>
<event>
11    6  0.1705838E-008  0.3120911E+04  0.7818608E-02  0.8210022E-01
         -1   -1    0    0    0  501 -0.00000000000E+00  0.00000000000E+00  0.78170707367E+03  0.78170707367E+03  0.00000000000E+00 0.  1.
          2   -1    0    0  501    0  0.00000000000E+00 -0.00000000000E+00 -0.31150055275E+04  0.31150055275E+04  0.00000000000E+00 0. -1.
         24    2    1    2    0    0 -0.13241198341E+04 -0.39941798897E+03 -0.14810984361E+04  0.20280494867E+04  0.80647864117E+02 0.  0.
        254    2    1    2    0    0  0.13241198341E+04  0.39941798897E+03 -0.85220001773E+03  0.18686631145E+04  0.92348735792E+03 0.  0.
         23    2    4    4    0    0  0.10840262355E+04 -0.84371399579E+02 -0.44384403267E+03  0.11780904861E+04  0.93103468284E+02 0.  0.
          2    1    3    3  502    0 -0.12800512921E+04 -0.37220020128E+03 -0.14144262352E+04  0.19436218447E+04  0.00000000000E+00 0. -1.
         -1    1    3    3    0  502 -0.44068541990E+02 -0.27217787687E+02 -0.66672200928E+02  0.84427642015E+02  0.00000000000E+00 0.  1.
         11    1    4    4    0    0  0.12408176409E+03  0.32682978556E+03 -0.19070061977E+03  0.39822194727E+03  0.00000000000E+00 0.  1.
        -11    1    4    4    0    0  0.11601183457E+03  0.15695960299E+03 -0.21765536529E+03  0.29235068115E+03  0.00000000000E+00 0. -1.
          3    1    5    5  503    0  0.45999930708E+03 -0.44606952213E+01 -0.15117605861E+03  0.48422459769E+03  0.00000000000E+00 0. -1.
         -3    1    5    5    0  503  0.62402692839E+03 -0.79910704358E+02 -0.29266797406E+03  0.69386588839E+03  0.00000000000E+00 0.  1.
<mgrwt>
<rscale>  0 0.31209113E+04</rscale>
<asrwt>0</asrwt>
<pdfrwt beam="1">  1        2 0.47923161E+00 0.31209113E+04</pdfrwt>
<pdfrwt beam="2">  1       -1 0.12026263E+00 0.31209113E+04</pdfrwt>
<totfact> 0.87191200E-01</totfact>
</mgrwt>
</event>
<event>
11    6  0.1705838E-008  0.1374655E+04  0.7818608E-02  0.8972372E-01
         -1   -1    0    0    0  501 -0.00000000000E+00  0.00000000000E+00  0.60868707796E+03  0.60868707796E+03  0.00000000000E+00 0.  1.
          2   -1    0    0  501    0  0.00000000000E+00 -0.00000000000E+00 -0.77612770942E+03  0.77612770942E+03  0.00000000000E+00 0. -1.
         24    2    1    2    0    0  0.13949622302E+03 -0.28189491298E+03  0.18129358326E+03  0.37127640321E+03  0.77813019753E+02 0.  0.
        254    2    1    2    0    0 -0.13949622302E+03  0.28189491298E+03 -0.34873421472E+03  0.10135383842E+04  0.89817624410E+03 0.  0.
         23    2    4    4    0    0  0.58179863623E+02 -0.13110676604E+03  0.21239756287E+03  0.27163372313E+03  0.89990411690E+02 0.  0.
          2    1    3    3  502    0  0.55743397755E+01  0.34863237699E+01  0.11421188863E+02  0.13178439680E+02  0.00000000000E+00 0. -1.
         -1    1    3    3    0  502  0.13392188325E+03 -0.28538123675E+03  0.16987239440E+03  0.35809796353E+03  0.00000000000E+00 0.  1.
         11    1    4    4    0    0 -0.14153564954E+03  0.37390853014E+03 -0.53674009681E+03  0.66927562374E+03  0.00000000000E+00 0. -1.
        -11    1    4    4    0    0 -0.56140437107E+02  0.39093148879E+02 -0.24391680783E+02  0.72629037301E+02  0.00000000000E+00 0.  1.
          2    1    5    5  503    0  0.81334445948E+02 -0.11388995819E+03  0.18371615166E+03  0.23094986264E+03  0.00000000000E+00 0. -1.
         -2    1    5    5    0  503 -0.23154582325E+02 -0.17216807844E+02  0.28681411214E+02  0.40683860488E+02  0.00000000000E+00 0.  1.
<mgrwt>
<rscale>  0 0.13746547E+04</rscale>
<asrwt>0</asrwt>
<pdfrwt beam="1">  1        2 0.11940426E+00 0.13746547E+04</pdfrwt>
<pdfrwt beam="2">  1       -1 0.93644167E-01 0.13746547E+04</pdfrwt>
<totfact> 0.44167843E+01</totfact>
</mgrwt>
</event>
<event>
11    6  0.1705838E-008  0.1404089E+04  0.7818608E-02  0.8950864E-01
          2   -1    0    0  501    0  0.00000000000E+00  0.00000000000E+00  0.14500594553E+04  0.14500594553E+04  0.00000000000E+00 0. -1.
         -1   -1    0    0    0  501 -0.00000000000E+00 -0.00000000000E+00 -0.33989374158E+03  0.33989374158E+03  0.00000000000E+00 0.  1.
         24    2    1    2    0    0  0.38290059629E+03  0.33872866857E+02  0.47846921990E+03  0.61905190788E+03  0.80822227798E+02 0.  0.
        254    2    1    2    0    0 -0.38290059629E+03 -0.33872866857E+02  0.63169649385E+03  0.11709012890E+04  0.90785964256E+03 0.  0.
         23    2    4    4    0    0 -0.14203003486E+03 -0.43326477315E+03  0.20898889056E+03  0.50990011729E+03  0.91819816922E+02 0.  0.
          4    1    3    3  502    0  0.11066569826E+02 -0.41226159567E+01 -0.11043076308E+00  0.11810043395E+02  0.00000000000E+00 0. -1.
         -3    1    3    3    0  502  0.37183402646E+03  0.37995482814E+02  0.47857965067E+03  0.60724186448E+03  0.00000000000E+00 0.  1.
         11    1    4    4    0    0 -0.25546295190E+03  0.25152781078E+03  0.27882646421E+03  0.45417150564E+03  0.00000000000E+00 0. -1.
        -11    1    4    4    0    0  0.14592390477E+02  0.14786409551E+03  0.14388113908E+03  0.20682966611E+03  0.00000000000E+00 0.  1.
          3    1    5    5  503    0 -0.12951922201E+03 -0.36235876787E+03  0.13805120113E+03  0.40882421609E+03  0.00000000000E+00 0. -1.
         -3    1    5    5    0  503 -0.12510812849E+02 -0.70906005278E+02  0.70937689431E+02  0.10107590121E+03  0.00000000000E+00 0.  1.
<mgrwt>
<rscale>  0 0.14040885E+04</rscale>
<asrwt>0</asrwt>
<pdfrwt beam="1">  1        2 0.22308607E+00 0.14040885E+04</pdfrwt>
<pdfrwt beam="2">  1       -1 0.52291346E-01 0.14040885E+04</pdfrwt>
<totfact> 0.55337139E+01</totfact>
</mgrwt>
</event>
<event>
11    6  0.1705838E-008  0.1827273E+04  0.7818608E-02  0.8691929E-01
          2   -1    0    0  501    0  0.00000000000E+00  0.00000000000E+00  0.15966533462E+04  0.15966533462E+04  0.00000000000E+00 0. -1.
         -1   -1    0    0    0  501 -0.00000000000E+00 -0.00000000000E+00 -0.52280089988E+03  0.52280089988E+03  0.00000000000E+00 0.  1.
         24    2    1    2    0    0  0.47904322706E+03  0.19999207795E+03 -0.12316038433E+03  0.53947055052E+03  0.79879596750E+02 0.  0.
        254    2    1    2    0    0 -0.47904322706E+03 -0.19999207795E+03  0.11970128307E+04  0.15799836956E+04  0.89108333891E+03 0.  0.
         23    2    4    4    0    0 -0.61595531597E+03 -0.98387764656E+02  0.42070223630E+03  0.75812363204E+03  0.93166336842E+02 0.  0.
          2    1    3    3  502    0  0.10852901898E+03  0.75270222522E+02 -0.98754486858E+01  0.13244500310E+03  0.00000000000E+00 0. -1.
         -1    1    3    3    0  502  0.37051420808E+03  0.12472185543E+03 -0.11328493565E+03  0.40702554742E+03  0.00000000000E+00 0.  1.
         11    1    4    4    0    0  0.20765366064E+02 -0.10136377114E+03  0.13486293435E+03  0.16998183899E+03  0.00000000000E+00 0. -1.
        -11    1    4    4    0    0  0.11614672285E+03 -0.24054215681E+00  0.64144766005E+03  0.65187822457E+03  0.00000000000E+00 0.  1.
          4    1    5    5  503    0 -0.19106181125E+03 -0.67508728644E+02  0.10766091626E+03  0.22946223448E+03  0.00000000000E+00 0. -1.
         -4    1    5    5    0  503 -0.42489350472E+03 -0.30879036012E+02  0.31304132004E+03  0.52866139756E+03  0.00000000000E+00 0.  1.
<mgrwt>
<rscale>  0 0.18272732E+04</rscale>
<asrwt>0</asrwt>
<pdfrwt beam="1">  1        2 0.24563897E+00 0.18272732E+04</pdfrwt>
<pdfrwt beam="2">  1       -1 0.80430908E-01 0.18272732E+04</pdfrwt>
<totfact> 0.18535580E+01</totfact>
</mgrwt>
</event>
<event>
11    6  0.1705838E-008  0.3751539E+04  0.7818608E-02  0.8056635E-01
         -1   -1    0    0    0  501 -0.00000000000E+00  0.00000000000E+00  0.10254462529E+04  0.10254462529E+04  0.00000000000E+00 0.  1.
          2   -1    0    0  501    0  0.00000000000E+00 -0.00000000000E+00 -0.34311991473E+04  0.34311991473E+04  0.00000000000E+00 0. -1.
         24    2    1    2    0    0  0.94378839528E+02 -0.16170555417E+04 -0.19120599639E+04  0.25075059257E+04  0.88524976445E+02 0.  0.
        254    2    1    2    0    0 -0.94378839528E+02  0.16170555417E+04 -0.49369293047E+03  0.19491394745E+04  0.96521292527E+03 0.  0.
         23    2    4    4    0    0  0.15589339951E+03  0.13071757487E+04 -0.11188965361E+03  0.13243095591E+04  0.90913825163E+02 0.  0.
          2    1    3    3  502    0  0.20015839407E+02 -0.97016730911E+03 -0.11802487816E+04  0.15279438563E+04  0.00000000000E+00 0. -1.
         -1    1    3    3    0  502  0.74363000121E+02 -0.64688823259E+03 -0.73181118237E+03  0.97956206944E+03  0.00000000000E+00 0.  1.
         11    1    4    4    0    0 -0.26618234091E+03  0.17030665694E+03 -0.14096830139E+03  0.34601944744E+03  0.00000000000E+00 0. -1.
        -11    1    4    4    0    0  0.15910101871E+02  0.13957313603E+03 -0.24083497547E+03  0.27881046797E+03  0.00000000000E+00 0.  1.
          1    1    5    5  503    0  0.12427462848E+02  0.17633248723E+02 -0.65357998356E+01  0.22540851201E+02  0.00000000000E+00 0. -1.
         -1    1    5    5    0  503  0.14346593666E+03  0.12895425000E+04 -0.10535385378E+03  0.13017687079E+04  0.00000000000E+00 0.  1.
<mgrwt>
<rscale>  0 0.37515385E+04</rscale>
<asrwt>0</asrwt>
<pdfrwt beam="1">  1        2 0.52787678E+00 0.37515385E+04</pdfrwt>
<pdfrwt beam="2">  1       -1 0.15776096E+00 0.37515385E+04</pdfrwt>
<totfact> 0.25163159E-01</totfact>
</mgrwt>
</event>
<event>
12    6  0.1705838E-008  0.1226196E+04  0.7818608E-02  0.9090231E-01
          2   -1    0    0  501    0  0.00000000000E+00  0.00000000000E+00  0.32696866706E+03  0.32696866706E+03  0.00000000000E+00 0. -1.
         -1   -1    0    0    0  501 -0.00000000000E+00 -0.00000000000E+00 -0.11496182155E+04  0.11496182155E+04  0.00000000000E+00 0.  1.
         24    2    1    2    0    0 -0.15311497316E+03  0.23590099669E+03 -0.12043897782E+03  0.31514940268E+03  0.75631497307E+02 0.  0.
        254    2    1    2    0    0  0.15311497316E+03 -0.23590099669E+03 -0.70221057064E+03  0.11614374799E+04  0.88133073188E+03 0.  0.
         23    2    4    4    0    0  0.22814313281E+03 -0.35710786442E+03 -0.83898442362E+03  0.94278519187E+03  0.73305791372E+02 0.  0.
         23    2    4    4    0    0 -0.75028159646E+02  0.12120686773E+03  0.13677385299E+03  0.21865228802E+03  0.93709160014E+02 0.  0.
          4    1    3    3  502    0 -0.13965708275E+03  0.21888661736E+03 -0.84277683119E+02  0.27298018224E+03  0.00000000000E+00 0. -1.
         -3    1    3    3    0  502 -0.13457890414E+02  0.17014379327E+02 -0.36161294700E+02  0.42169220441E+02  0.00000000000E+00 0.  1.
         11    1    5    5    0    0  0.21390868446E+03 -0.35128447073E+03 -0.82569791558E+03  0.92246124713E+03  0.00000000000E+00 0. -1.
        -11    1    5    5    0    0  0.14234448346E+02 -0.58233936958E+01 -0.13286508040E+02  0.20323944739E+02  0.00000000000E+00 0.  1.
          1    1    6    6  503    0 -0.32045332762E+02  0.89138763440E+02  0.13509998824E+03  0.16499887673E+03  0.00000000000E+00 0. -1.
         -1    1    6    6    0  503 -0.42982826884E+02  0.32068104295E+02  0.16738647448E+01  0.53653411291E+02  0.00000000000E+00 0.  1.
<mgrwt>
<rscale>  0 0.12261960E+04</rscale>
<asrwt>0</asrwt>
<pdfrwt beam="1">  1        2 0.50302871E-01 0.12261960E+04</pdfrwt>
<pdfrwt beam="2">  1       -1 0.17686434E+00 0.12261960E+04</pdfrwt>
<totfact> 0.24668348E+01</totfact>
</mgrwt>
</event>
<event>
12    6  0.1705838E-008  0.1635443E+04  0.7818608E-02  0.8799065E-01
          2   -1    0    0  501    0  0.00000000000E+00  0.00000000000E+00  0.23764131960E+04  0.23764131960E+04  0.00000000000E+00 0. -1.
         -1   -1    0    0    0  501 -0.00000000000E+00 -0.00000000000E+00 -0.28137712135E+03  0.28137712135E+03  0.00000000000E+00 0.  1.
         24    2    1    2    0    0 -0.42915991143E+02  0.49019604921E+03  0.11913762832E+04  0.12924590579E+04  0.94546386643E+02 0.  0.
        254    2    1    2    0    0  0.42915991143E+02 -0.49019604921E+03  0.90365979150E+03  0.13653312595E+04  0.89743773065E+03 0.  0.
         23    2    4    4    0    0  0.11839042774E+02  0.25525729088E+03  0.29788990835E+03  0.40027619262E+03  0.78652306996E+02 0.  0.
         23    2    4    4    0    0  0.31076948369E+02 -0.74545334010E+03  0.60576988315E+03  0.96505506687E+03  0.87793346999E+02 0.  0.
          4    1    3    3  502    0 -0.40841478324E+02  0.45118348346E+03  0.11476111529E+04  0.12337933054E+04  0.00000000000E+00 0. -1.
         -3    1    3    3    0  502 -0.20745128195E+01  0.39012565751E+02  0.43765130251E+02  0.58665752495E+02  0.00000000000E+00 0.  1.
         11    1    5    5    0    0 -0.74231257379E+01  0.16576631624E+03  0.24065486692E+03  0.29231547918E+03  0.00000000000E+00 0. -1.
        -11    1    5    5    0    0  0.19262168512E+02  0.89490974646E+02  0.57235041434E+02  0.10796071344E+03  0.00000000000E+00 0.  1.
          4    1    6    6  503    0  0.25202442315E+02 -0.14081676654E+03  0.15450512805E+03  0.21056200852E+03  0.00000000000E+00 0.  1.
         -4    1    6    6    0  503  0.58745060544E+01 -0.60463657356E+03  0.45126475510E+03  0.75449305835E+03  0.00000000000E+00 0. -1.
<mgrwt>
<rscale>  0 0.16354428E+04</rscale>
<asrwt>0</asrwt>
<pdfrwt beam="1">  1        2 0.36560202E+00 0.16354428E+04</pdfrwt>
<pdfrwt beam="2">  1       -1 0.43288789E-01 0.16354428E+04</pdfrwt>
<totfact> 0.23545060E+01</totfact>
</mgrwt>
</event>
<event>
11    6  0.1705838E-008  0.1686403E+04  0.7818608E-02  0.8769157E-01
          2   -1    0    0  501    0  0.00000000000E+00  0.00000000000E+00  0.11497448329E+04  0.11497448329E+04  0.00000000000E+00 0. -1.
         -1   -1    0    0    0  501 -0.00000000000E+00 -0.00000000000E+00 -0.61838828941E+03  0.61838828941E+03  0.00000000000E+00 0.  1.
         24    2    1    2    0    0  0.13161273659E+02  0.52458566596E+02 -0.46263711980E+03  0.47243947864E+03  0.78998962210E+02 0.  0.
        254    2    1    2    0    0 -0.13161273659E+02 -0.52458566596E+02  0.99399366326E+03  0.12956936436E+04  0.82938139312E+03 0.  0.
         23    2    4    4    0    0  0.20406489264E+03  0.19613324708E+03  0.82653437892E+03  0.87834840212E+03  0.90697877278E+02 0.  0.
          4    1    3    3  502    0  0.20966478705E+02 -0.14555539869E+02 -0.18339880607E+03  0.18516635504E+03  0.00000000000E+00 0. -1.
         -3    1    3    3    0  502 -0.78052050458E+01  0.67014106465E+02 -0.27923831373E+03  0.28727312361E+03  0.00000000000E+00 0.  1.
         11    1    4    4    0    0  0.15505252867E+02  0.21008867859E+02  0.10829847485E+02  0.28267843776E+02  0.00000000000E+00 0. -1.
        -11    1    4    4    0    0 -0.23273141917E+03 -0.26960068154E+03  0.15662943685E+03  0.38907739775E+03  0.00000000000E+00 0.  1.
          1    1    5    5  503    0  0.10199310822E+03  0.38748532540E+02  0.27921113515E+03  0.29977141440E+03  0.00000000000E+00 0. -1.
         -1    1    5    5    0  503  0.10207178442E+03  0.15738471454E+03  0.54732324377E+03  0.57857698772E+03  0.00000000000E+00 0.  1.
<mgrwt>
<rscale>  0 0.16864030E+04</rscale>
<asrwt>0</asrwt>
<pdfrwt beam="1">  1        2 0.17688382E+00 0.16864030E+04</pdfrwt>
<pdfrwt beam="2">  1       -1 0.95136660E-01 0.16864030E+04</pdfrwt>
<totfact> 0.23551188E+01</totfact>
</mgrwt>
</event>
<event>
11    6  0.1705838E-008  0.1906289E+04  0.7818608E-02  0.8651732E-01
          2   -1    0    0  501    0  0.00000000000E+00  0.00000000000E+00  0.25810878786E+04  0.25810878786E+04  0.00000000000E+00 0. -1.
         -1   -1    0    0    0  501 -0.00000000000E+00 -0.00000000000E+00 -0.35197720530E+03  0.35197720530E+03  0.00000000000E+00 0.  1.
         24    2    1    2    0    0  0.37504857837E+03  0.56316763668E+03  0.13132254938E+04  0.14791030408E+04  0.73248785875E+02 0.  0.
        254    2    1    2    0    0 -0.37504857837E+03 -0.56316763668E+03  0.91588517953E+03  0.14539620431E+04  0.90406898941E+03 0.  0.
         23    2    4    4    0    0 -0.38985669862E+02  0.19498969399E+03  0.23547271577E+03  0.32154246475E+03  0.91658570492E+02 0.  0.
          2    1    3    3  502    0  0.17748255739E+03  0.27306205058E+03  0.71147612653E+03  0.78247122648E+03  0.00000000000E+00 0. -1.
         -1    1    3    3    0  502  0.19756602098E+03  0.29010558611E+03  0.60174936729E+03  0.69663181435E+03  0.00000000000E+00 0.  1.
         11    1    4    4    0    0 -0.25340894026E+03 -0.77849721717E+03  0.59709554166E+03  0.10133099694E+04  0.00000000000E+00 0.  1.
        -11    1    4    4    0    0 -0.82653968251E+02  0.20339886494E+02  0.83316922092E+02  0.11910960900E+03  0.00000000000E+00 0. -1.
          1    1    5    5  503    0 -0.60822422313E+02  0.90943269819E+02  0.91839937497E+02  0.14284473914E+03  0.00000000000E+00 0. -1.
         -1    1    5    5    0  503  0.21836752452E+02  0.10404642417E+03  0.14363277828E+03  0.17869772560E+03  0.00000000000E+00 0.  1.
<mgrwt>
<rscale>  0 0.19062886E+04</rscale>
<asrwt>0</asrwt>
<pdfrwt beam="1">  1        2 0.39709043E+00 0.19062886E+04</pdfrwt>
<pdfrwt beam="2">  1       -1 0.54150341E-01 0.19062886E+04</pdfrwt>
<totfact> 0.11469337E+01</totfact>
</mgrwt>
</event>
<event>
12    6  0.1705838E-008  0.1841703E+04  0.7818608E-02  0.8684431E-01
          2   -1    0    0  501    0  0.00000000000E+00  0.00000000000E+00  0.64349248971E+03  0.64349248971E+03  0.00000000000E+00 0. -1.
         -3   -1    0    0    0  501 -0.00000000000E+00 -0.00000000000E+00 -0.13177579315E+04  0.13177579315E+04  0.00000000000E+00 0.  1.
         24    2    1    2    0    0  0.49763583158E+03 -0.12671355469E+03 -0.76730534924E+03  0.92683527121E+03  0.81045513024E+02 0.  0.
        254    2    1    2    0    0 -0.49763583158E+03  0.12671355469E+03  0.93039907450E+02  0.10344151500E+04  0.89311843131E+03 0.  0.
         23    2    4    4    0    0  0.31879770378E+02  0.32962117541E+03  0.27107502150E+03  0.43314252294E+03  0.66815708220E+02 0.  0.
         23    2    4    4    0    0 -0.52951560196E+03 -0.20290762071E+03 -0.17803511405E+03  0.60127262705E+03  0.90961502571E+02 0.  0.
          4    1    3    3  502    0  0.69602370539E+02  0.99380737479E+01 -0.94340659461E+02  0.11765804402E+03  0.00000000000E+00 0. -1.
         -3    1    3    3    0  502  0.42803346104E+03 -0.13665162844E+03 -0.67296468978E+03  0.80917722720E+03  0.00000000000E+00 0.  1.
         11    1    5    5    0    0  0.22872537154E+02  0.22248716836E+03  0.22140154750E+03  0.31470992720E+03  0.00000000000E+00 0.  1.
        -11    1    5    5    0    0  0.90072332239E+01  0.10713400704E+03  0.49673473998E+02  0.11843259574E+03  0.00000000000E+00 0. -1.
          1    1    6    6  503    0 -0.16426790577E+03 -0.20203054668E+02 -0.41114620932E+02  0.17053597960E+03  0.00000000000E+00 0. -1.
         -1    1    6    6    0  503 -0.36524769619E+03 -0.18270456604E+03 -0.13692049312E+03  0.43073664745E+03  0.00000000000E+00 0.  1.
<mgrwt>
<rscale>  0 0.18417028E+04</rscale>
<asrwt>0</asrwt>
<pdfrwt beam="1">  1        2 0.98998846E-01 0.18417028E+04</pdfrwt>
<pdfrwt beam="2">  1       -3 0.20273199E+00 0.18417028E+04</pdfrwt>
<totfact> 0.37795043E+00</totfact>
</mgrwt>
</event>
<event>
12    6  0.1705838E-008  0.2204946E+04  0.7818608E-02  0.8516372E-01
          2   -1    0    0  501    0  0.00000000000E+00  0.00000000000E+00  0.25321791110E+04  0.25321791110E+04  0.00000000000E+00 0. -1.
         -1   -1    0    0    0  501 -0.00000000000E+00 -0.00000000000E+00 -0.48000031250E+03  0.48000031250E+03  0.00000000000E+00 0.  1.
         24    2    1    2    0    0  0.70348261368E+02  0.33515903403E+03 -0.30635847007E+03  0.46640509934E+03  0.79985927129E+02 0.  0.
        254    2    1    2    0    0 -0.70348261368E+02 -0.33515903403E+03  0.23585372686E+04  0.25457743242E+04  0.89497955640E+03 0.  0.
         23    2    4    4    0    0  0.27016787989E+03 -0.47537338127E+03  0.10932056694E+04  0.12246345689E+04  0.75237335664E+02 0.  0.
         23    2    4    4    0    0 -0.34051614126E+03  0.14021434724E+03  0.12653315991E+04  0.13211397553E+04  0.93460641868E+02 0.  0.
          4    1    3    3  502    0  0.24260465168E+02  0.67357874012E+02 -0.26541839084E+02  0.76355239398E+02  0.00000000000E+00 0. -1.
         -3    1    3    3    0  502  0.46087796200E+02  0.26780116001E+03 -0.27981663098E+03  0.39004985994E+03  0.00000000000E+00 0.  1.
         11    1    5    5    0    0  0.22193224184E+03 -0.36670173890E+03  0.91481948471E+03  0.10102567866E+04  0.00000000000E+00 0. -1.
        -11    1    5    5    0    0  0.48235638048E+02 -0.10867164237E+03  0.17838618473E+03  0.21437778228E+03  0.00000000000E+00 0.  1.
          4    1    6    6  503    0 -0.27807544637E+03  0.14479074526E+03  0.11163446501E+04  0.11595325315E+04  0.00000000000E+00 0. -1.
         -4    1    6    6    0  503 -0.62440694895E+02 -0.45763980144E+01  0.14898694908E+03  0.16160722383E+03  0.00000000000E+00 0.  1.
<mgrwt>
<rscale>  0 0.22049460E+04</rscale>
<asrwt>0</asrwt>
<pdfrwt beam="1">  1        2 0.38956601E+00 0.22049460E+04</pdfrwt>
<pdfrwt beam="2">  1       -1 0.73846203E-01 0.22049460E+04</pdfrwt>
<totfact> 0.64033107E+00</totfact>
</mgrwt>
</event>
<event>
11    6  0.1705838E-008  0.1078376E+04  0.7818608E-02  0.9226528E-01
          2   -1    0    0  501    0  0.00000000000E+00  0.00000000000E+00  0.98659997705E+03  0.98659997705E+03  0.00000000000E+00 0. -1.
         -1   -1    0    0    0  501 -0.00000000000E+00 -0.00000000000E+00 -0.29467226101E+03  0.29467226101E+03  0.00000000000E+00 0.  1.
         24    2    1    2    0    0 -0.70944568205E+02  0.11444676376E+03  0.13406178243E+03  0.20618183836E+03  0.80044959043E+02 0.  0.
        254    2    1    2    0    0  0.70944568205E+02 -0.11444676376E+03  0.55786593360E+03  0.10750903997E+04  0.90910603021E+03 0.  0.
         23    2    4    4    0    0  0.26792854446E+03  0.16870921970E+03 -0.75999373110E+02  0.33847920279E+03  0.92432463236E+02 0.  0.
          4    1    3    3  502    0 -0.51187890562E+02  0.10186185787E+03  0.14140309985E+03  0.18163390344E+03  0.00000000000E+00 0. -1.
         -3    1    3    3    0  502 -0.19756677643E+02  0.12584905886E+02 -0.73413174191E+01  0.24547934925E+02  0.00000000000E+00 0.  1.
         11    1    4    4    0    0 -0.13746847946E+03 -0.12302881753E+03  0.20947939586E+03  0.27913310459E+03  0.00000000000E+00 0. -1.
        -11    1    4    4    0    0 -0.59515496788E+02 -0.16012716593E+03  0.42438591085E+03  0.45747809232E+03  0.00000000000E+00 0.  1.
          4    1    5    5  503    0  0.75279507116E+01  0.27077024963E+02 -0.25169379296E+02  0.37727085455E+02  0.00000000000E+00 0. -1.
         -4    1    5    5    0  503  0.26040059375E+03  0.14163219474E+03 -0.50829993814E+02  0.30075211733E+03  0.00000000000E+00 0.  1.
<mgrwt>
<rscale>  0 0.10783759E+04</rscale>
<asrwt>0</asrwt>
<pdfrwt beam="1">  1        2 0.15178461E+00 0.10783759E+04</pdfrwt>
<pdfrwt beam="2">  1       -1 0.45334194E-01 0.10783759E+04</pdfrwt>
<totfact> 0.14063277E+02</totfact>
</mgrwt>
</event>
<event>
12    6  0.1705838E-008  0.1590529E+04  0.7818608E-02  0.8826388E-01
         -1   -1    0    0    0  501 -0.00000000000E+00  0.00000000000E+00  0.10149906516E+04  0.10149906516E+04  0.00000000000E+00 0.  1.
          2   -1    0    0  501    0  0.00000000000E+00 -0.00000000000E+00 -0.62310484524E+03  0.62310484524E+03  0.00000000000E+00 0. -1.
         24    2    1    2    0    0 -0.84464027792E+02 -0.48543544308E+03  0.34017895682E+03  0.60391587325E+03  0.78809377007E+02 0.  0.
        254    2    1    2    0    0  0.84464027792E+02  0.48543544308E+03  0.51706849538E+02  0.10341796236E+04  0.90778420022E+03 0.  0.
         23    2    4    4    0    0 -0.12334565213E+02  0.57352129237E+03  0.36075579403E+03  0.68603710439E+03  0.10688007943E+03 0.  0.
         23    2    4    4    0    0  0.96798593005E+02 -0.88085849283E+02 -0.30904894450E+03  0.34814251920E+03  0.92535826195E+02 0.  0.
          2    1    3    3  502    0 -0.72548287854E+01 -0.15436662109E+01  0.34855179126E-01  0.74173216837E+01  0.00000000000E+00 0. -1.
         -1    1    3    3    0  502 -0.77209199007E+02 -0.48389177687E+03  0.34014410164E+03  0.59649855156E+03  0.00000000000E+00 0.  1.
         11    1    5    5    0    0  0.42633727274E+02  0.14617017196E+03  0.10537271106E+03  0.18516684937E+03  0.00000000000E+00 0. -1.
        -11    1    5    5    0    0 -0.54968292487E+02  0.42735112041E+03  0.25538308298E+03  0.50087025502E+03  0.00000000000E+00 0.  1.
          3    1    6    6  503    0  0.30324771159E+02 -0.59915666285E+02 -0.23627338519E+03  0.24563100651E+03  0.00000000000E+00 0. -1.
         -3    1    6    6    0  503  0.66473821847E+02 -0.28170182998E+02 -0.72775559308E+02  0.10251151269E+03  0.00000000000E+00 0.  1.
<mgrwt>
<rscale>  0 0.15905290E+04</rscale>
<asrwt>0</asrwt>
<pdfrwt beam="1">  1        2 0.95862284E-01 0.15905290E+04</pdfrwt>
<pdfrwt beam="2">  1       -1 0.15615241E+00 0.15905290E+04</pdfrwt>
<totfact> 0.16236972E+01</totfact>
</mgrwt>
</event>
<event>
12    6  0.1705838E-008  0.2450553E+04  0.7818608E-02  0.8420816E-01
          2   -1    0    0  501    0  0.00000000000E+00  0.00000000000E+00  0.32138909051E+04  0.32138909051E+04  0.00000000000E+00 0. -1.
         -1   -1    0    0    0  501 -0.00000000000E+00 -0.00000000000E+00 -0.46712915578E+03  0.46712915578E+03  0.00000000000E+00 0.  1.
         24    2    1    2    0    0 -0.96629861903E+03 -0.17561614112E+02  0.18467986785E+04  0.20863104714E+04  0.89356546696E+02 0.  0.
        254    2    1    2    0    0  0.96629861903E+03  0.17561614112E+02  0.89996307082E+03  0.15947095896E+04  0.89393719845E+03 0.  0.
         23    2    4    4    0    0  0.10384614378E+04  0.14759595743E+03  0.94307086639E+03  0.14146310123E+04  0.10775675119E+03 0.  0.
         23    2    4    4    0    0 -0.72162818754E+02 -0.13003434331E+03 -0.43107795564E+02  0.18007857730E+03  0.91943510438E+02 0.  0.
          4    1    3    3  502    0 -0.73356160249E+03  0.42018791994E+01  0.14704929996E+04  0.16433137078E+04  0.00000000000E+00 0. -1.
         -3    1    3    3    0  502 -0.23273701654E+03 -0.21763493311E+02  0.37630567895E+03  0.44299676355E+03  0.00000000000E+00 0.  1.
         11    1    5    5    0    0  0.10131765516E+04  0.15185381043E+03  0.93681180728E+03  0.13882372516E+04  0.00000000000E+00 0. -1.
        -11    1    5    5    0    0  0.25284886189E+02 -0.42578530035E+01  0.62590591083E+01  0.26393760677E+02  0.00000000000E+00 0.  1.
          2    1    6    6  503    0 -0.87785234799E+02 -0.83827585499E+02 -0.11428744745E+02  0.12191770891E+03  0.00000000000E+00 0. -1.
         -2    1    6    6    0  503  0.15622416045E+02 -0.46206757816E+02 -0.31679050819E+02  0.58160868389E+02  0.00000000000E+00 0.  1.
<mgrwt>
<rscale>  0 0.24505527E+04</rscale>
<asrwt>0</asrwt>
<pdfrwt beam="1">  1        2 0.49444474E+00 0.24505527E+04</pdfrwt>
<pdfrwt beam="2">  1       -1 0.71866026E-01 0.24505527E+04</pdfrwt>
<totfact> 0.25294262E+00</totfact>
</mgrwt>
</event>
<event>
12    6  0.1705838E-008  0.2428317E+04  0.7818608E-02  0.8428978E-01
          2   -1    0    0  501    0  0.00000000000E+00  0.00000000000E+00  0.16728886631E+04  0.16728886631E+04  0.00000000000E+00 0. -1.
         -1   -1    0    0    0  501 -0.00000000000E+00 -0.00000000000E+00 -0.88121846005E+03  0.88121846005E+03  0.00000000000E+00 0.  1.
         24    2    1    2    0    0  0.19281586752E+02  0.86526043830E+03  0.95451107858E+03  0.12912574214E+04  0.84893601627E+02 0.  0.
        254    2    1    2    0    0 -0.19281586752E+02 -0.86526043830E+03 -0.16284087558E+03  0.12628497017E+04  0.90511038697E+03 0.  0.
         23    2    4    4    0    0 -0.23633258362E+02  0.11082815496E+03  0.17722627992E+03  0.22436874286E+03  0.78043370263E+02 0.  0.
         23    2    4    4    0    0  0.43516716104E+01 -0.97608859326E+03 -0.34006715550E+03  0.10384809588E+04  0.10014565710E+03 0.  0.
          4    1    3    3  502    0  0.83230074791E+01  0.54119336004E+03  0.65656456106E+03  0.85090337186E+03  0.00000000000E+00 0. -1.
         -3    1    3    3    0  502  0.10958579272E+02  0.32406707826E+03  0.29794651753E+03  0.44035404958E+03  0.00000000000E+00 0.  1.
         11    1    5    5    0    0 -0.44957778054E+02  0.76901003433E+02  0.15439374041E+03  0.17824812261E+03  0.00000000000E+00 0.  1.
        -11    1    5    5    0    0  0.21324519692E+02  0.33927151532E+02  0.22832539511E+02  0.46120620244E+02  0.00000000000E+00 0. -1.
          4    1    6    6  503    0 -0.11051403911E+02 -0.32083726322E+03 -0.16040317307E+03  0.35887025640E+03  0.00000000000E+00 0. -1.
         -4    1    6    6    0  503  0.15403075521E+02 -0.65525133004E+03 -0.17966398243E+03  0.67961070242E+03  0.00000000000E+00 0.  1.
<mgrwt>
<rscale>  0 0.24283166E+04</rscale>
<asrwt>0</asrwt>
<pdfrwt beam="1">  1        2 0.25736749E+00 0.24283166E+04</pdfrwt>
<pdfrwt beam="2">  1       -1 0.13557207E+00 0.24283166E+04</pdfrwt>
<totfact> 0.47264381E+00</totfact>
</mgrwt>
</event>
<event>
12    6  0.1705838E-008  0.1140734E+04  0.7818608E-02  0.9166375E-01
         -1   -1    0    0    0  501 -0.00000000000E+00  0.00000000000E+00  0.25749156468E+03  0.25749156468E+03  0.00000000000E+00 0.  1.
          2   -1    0    0  501    0  0.00000000000E+00 -0.00000000000E+00 -0.12634141005E+04  0.12634141005E+04  0.00000000000E+00 0. -1.
         24    2    1    2    0    0  0.16936090615E+03  0.60840545752E+02 -0.60883103703E+02  0.20435100379E+03  0.75285402930E+02 0.  0.
        254    2    1    2    0    0 -0.16936090615E+03 -0.60840545752E+02 -0.94503943208E+03  0.13165546614E+04  0.89879472608E+03 0.  0.
         23    2    4    4    0    0 -0.25273093071E+03 -0.35660209875E+03 -0.18081664412E+03  0.48733815492E+03  0.11732790922E+03 0.  0.
         23    2    4    4    0    0  0.83370024562E+02  0.29576155299E+03 -0.76422278796E+03  0.82921650644E+03  0.95593345398E+02 0.  0.
          2    1    3    3  502    0  0.10452960221E+02  0.20047182019E+02  0.11108244088E+02  0.25190215779E+02  0.00000000000E+00 0. -1.
         -1    1    3    3    0  502  0.15890794593E+03  0.40793363733E+02 -0.71991347791E+02  0.17916078801E+03  0.00000000000E+00 0.  1.
         11    1    5    5    0    0 -0.17151836955E+03 -0.22355897621E+03 -0.55157470092E+02  0.28712281944E+03  0.00000000000E+00 0. -1.
        -11    1    5    5    0    0 -0.81212561167E+02 -0.13304312254E+03 -0.12565917402E+03  0.20021533548E+03  0.00000000000E+00 0.  1.
          2    1    6    6  503    0  0.99476296637E+02  0.19222584923E+03 -0.53802047642E+03  0.57992442934E+03  0.00000000000E+00 0. -1.
         -2    1    6    6    0  503 -0.16106272075E+02  0.10353570377E+03 -0.22620231155E+03  0.24929207710E+03  0.00000000000E+00 0.  1.
<mgrwt>
<rscale>  0 0.11407339E+04</rscale>
<asrwt>0</asrwt>
<pdfrwt beam="1">  1        2 0.19437140E+00 0.11407339E+04</pdfrwt>
<pdfrwt beam="2">  1       -1 0.39614087E-01 0.11407339E+04</pdfrwt>
<totfact> 0.12147549E+02</totfact>
</mgrwt>
</event>
<event>
11    6  0.1705838E-008  0.2745785E+04  0.7818608E-02  0.8320300E-01
          2   -1    0    0  501    0  0.00000000000E+00  0.00000000000E+00  0.12270566490E+04  0.12270566490E+04  0.00000000000E+00 0. -1.
         -1   -1    0    0    0  501 -0.00000000000E+00 -0.00000000000E+00 -0.15360606541E+04  0.15360606541E+04  0.00000000000E+00 0.  1.
         24    2    1    2    0    0 -0.40886948317E+03 -0.87466931622E+03  0.62251599258E+03  0.11515167085E+04  0.79018363812E+02 0.  0.
        254    2    1    2    0    0  0.40886948317E+03  0.87466931622E+03 -0.93151999771E+03  0.16116005946E+04  0.89292009913E+03 0.  0.
         23    2    4    4    0    0  0.64074767360E+03  0.76833261829E+03 -0.81764272072E+03  0.12952280452E+04  0.90462570539E+02 0.  0.
          2    1    3    3  502    0 -0.32921119925E+03 -0.67538433660E+03  0.51950053921E+03  0.91345762139E+03  0.00000000000E+00 0. -1.
         -1    1    3    3    0  502 -0.79658283926E+02 -0.19928497962E+03  0.10301545337E+03  0.23805908706E+03  0.00000000000E+00 0.  1.
         11    1    4    4    0    0 -0.23812922348E+03  0.74366202555E+02 -0.12855103591E+03  0.28064430867E+03  0.00000000000E+00 0. -1.
        -11    1    4    4    0    0  0.62510330501E+01  0.31970495379E+02  0.14673758918E+02  0.35728240788E+02  0.00000000000E+00 0.  1.
          3    1    5    5  503    0  0.54428842191E+03  0.62883911477E+03 -0.71656980163E+03  0.10977981595E+04  0.00000000000E+00 0. -1.
         -3    1    5    5    0  503  0.96459251691E+02  0.13949350352E+03 -0.10107291909E+03  0.19742988562E+03  0.00000000000E+00 0.  1.
<mgrwt>
<rscale>  0 0.27457847E+04</rscale>
<asrwt>0</asrwt>
<pdfrwt beam="1">  1        2 0.18877795E+00 0.27457847E+04</pdfrwt>
<pdfrwt beam="2">  1       -1 0.23631702E+00 0.27457847E+04</pdfrwt>
<totfact> 0.15580845E+00</totfact>
</mgrwt>
</event>
<event>
11    6  0.1705838E-008  0.1562264E+04  0.7818608E-02  0.8844072E-01
          2   -1    0    0  501    0  0.00000000000E+00  0.00000000000E+00  0.53418237493E+03  0.53418237493E+03  0.00000000000E+00 0. -1.
         -1   -1    0    0    0  501 -0.00000000000E+00 -0.00000000000E+00 -0.11422452728E+04  0.11422452728E+04  0.00000000000E+00 0.  1.
         24    2    1    2    0    0  0.34384614343E+03  0.30024555412E+03 -0.43537059601E+03  0.63576836415E+03  0.79223063923E+02 0.  0.
        254    2    1    2    0    0 -0.34384614343E+03 -0.30024555412E+03 -0.17269230187E+03  0.10406592836E+04  0.91911454688E+03 0.  0.
         23    2    4    4    0    0 -0.16051936957E+03  0.26857758946E+03  0.11913248001E+03  0.34615599361E+03  0.87926301806E+02 0.  0.
          4    1    3    3  502    0  0.19248113960E+03  0.11811052984E+03 -0.19562243372E+03  0.29877620878E+03  0.00000000000E+00 0. -1.
         -3    1    3    3    0  502  0.15136500384E+03  0.18213502429E+03 -0.23974816229E+03  0.33699215537E+03  0.00000000000E+00 0.  1.
         11    1    4    4    0    0 -0.49554239666E+02 -0.39261795606E+03 -0.25353304051E+03  0.46998243022E+03  0.00000000000E+00 0. -1.
        -11    1    4    4    0    0 -0.13377253419E+03 -0.17620518752E+03 -0.38291741374E+02  0.22452085977E+03  0.00000000000E+00 0.  1.
          2    1    5    5  503    0 -0.51551130383E+01  0.59400239269E+02  0.46634235780E+02  0.75694884651E+02  0.00000000000E+00 0.  1.
         -2    1    5    5    0  503 -0.15536425654E+03  0.20917735019E+03  0.72498244229E+02  0.27046110896E+03  0.00000000000E+00 0. -1.
<mgrwt>
<rscale>  0 0.15622641E+04</rscale>
<asrwt>0</asrwt>
<pdfrwt beam="1">  1        2 0.82181905E-01 0.15622641E+04</pdfrwt>
<pdfrwt beam="2">  1       -1 0.17573004E+00 0.15622641E+04</pdfrwt>
<totfact> 0.13994101E+01</totfact>
</mgrwt>
</event>
<event>
12    6  0.1705838E-008  0.2731241E+04  0.7818608E-02  0.8324939E-01
         -1   -1    0    0    0  501 -0.00000000000E+00  0.00000000000E+00  0.10903213593E+04  0.10903213593E+04  0.00000000000E+00 0.  1.
          2   -1    0    0  501    0  0.00000000000E+00 -0.00000000000E+00 -0.17104313719E+04  0.17104313719E+04  0.00000000000E+00 0. -1.
         24    2    1    2    0    0  0.94864111730E+03 -0.74804339266E+03 -0.40499170762E+03  0.12769766540E+04  0.84629810237E+02 0.  0.
        254    2    1    2    0    0 -0.94864111730E+03  0.74804339266E+03 -0.21511830495E+03  0.15237760772E+04  0.90339845117E+03 0.  0.
         23    2    4    4    0    0 -0.36603873859E+03  0.61118645801E+03 -0.47623500516E+03  0.86447183146E+03  0.11392331911E+03 0.  0.
         23    2    4    4    0    0 -0.58260237871E+03  0.13685693465E+03  0.26111670022E+03  0.65930424574E+03  0.91349904633E+02 0.  0.
          4    1    3    3  502    0  0.30107985638E+03 -0.26014008713E+03 -0.17107624792E+03  0.43311548974E+03  0.00000000000E+00 0. -1.
         -3    1    3    3    0  502  0.64756126092E+03 -0.48790330553E+03 -0.23391545970E+03  0.84386116421E+03  0.00000000000E+00 0.  1.
         11    1    5    5    0    0 -0.15874970512E+03  0.32505472684E+03 -0.18347934547E+03  0.40561892773E+03  0.00000000000E+00 0. -1.
        -11    1    5    5    0    0 -0.20728903347E+03  0.28613173117E+03 -0.29275565969E+03  0.45885290373E+03  0.00000000000E+00 0.  1.
          2    1    6    6  503    0 -0.13163624477E+03 -0.49230614898E+01  0.41991496828E+02  0.13825926109E+03  0.00000000000E+00 0. -1.
         -2    1    6    6    0  503 -0.45096613394E+03  0.14177999614E+03  0.21912520339E+03  0.52104498465E+03  0.00000000000E+00 0.  1.
<mgrwt>
<rscale>  0 0.27312414E+04</rscale>
<asrwt>0</asrwt>
<pdfrwt beam="1">  1        2 0.26314329E+00 0.27312414E+04</pdfrwt>
<pdfrwt beam="2">  1       -1 0.16774175E+00 0.27312414E+04</pdfrwt>
<totfact> 0.24647248E+00</totfact>
</mgrwt>
</event>
<event>
11    6  0.1705838E-008  0.1282120E+04  0.7818608E-02  0.9043866E-01
          2   -1    0    0  501    0  0.00000000000E+00  0.00000000000E+00  0.72075261692E+03  0.72075261692E+03  0.00000000000E+00 0. -1.
         -1   -1    0    0    0  501 -0.00000000000E+00 -0.00000000000E+00 -0.57017887563E+03  0.57017887563E+03  0.00000000000E+00 0.  1.
         24    2    1    2    0    0 -0.15853455887E+03 -0.13113961004E+03  0.28453051899E+03  0.36007317861E+03  0.79776400278E+02 0.  0.
        254    2    1    2    0    0  0.15853455887E+03  0.13113961004E+03 -0.13395677770E+03  0.93085831393E+03  0.89789864609E+03 0.  0.
         23    2    4    4    0    0  0.24120993705E+02  0.44401474294E+03 -0.23132765357E+03  0.50930490823E+03  0.90266782111E+02 0.  0.
          4    1    3    3  502    0 -0.15146219039E+03 -0.13847890589E+03  0.28327661198E+03  0.34980400424E+03  0.00000000000E+00 0. -1.
         -3    1    3    3    0  502 -0.70723684837E+01  0.73392958433E+01  0.12539070151E+01  0.10269174370E+02  0.00000000000E+00 0.  1.
         11    1    4    4    0    0  0.17181880938E+03 -0.32200569044E+03  0.63888741708E+02  0.37052818955E+03  0.00000000000E+00 0. -1.
        -11    1    4    4    0    0 -0.37405244216E+02  0.91305575437E+01  0.33482134156E+02  0.51025216154E+02  0.00000000000E+00 0.  1.
          4    1    5    5  503    0  0.14900991516E+02  0.43008431772E+03 -0.23745991933E+03  0.49150968778E+03  0.00000000000E+00 0. -1.
         -4    1    5    5    0  503  0.92200021893E+01  0.13930425222E+02  0.61322657640E+01  0.17795220444E+02  0.00000000000E+00 0.  1.
<mgrwt>
<rscale>  0 0.12821200E+04</rscale>
<asrwt>0</asrwt>
<pdfrwt beam="1">  1        2 0.11088502E+00 0.12821200E+04</pdfrwt>
<pdfrwt beam="2">  1       -1 0.87719827E-01 0.12821200E+04</pdfrwt>
<totfact> 0.56579179E+01</totfact>
</mgrwt>
</event>
<event>
12    6  0.1705838E-008  0.2399918E+04  0.7818608E-02  0.8439534E-01
         -1   -1    0    0    0  501 -0.00000000000E+00  0.00000000000E+00  0.81580851287E+03  0.81580851287E+03  0.00000000000E+00 0.  1.
          2   -1    0    0  501    0  0.00000000000E+00 -0.00000000000E+00 -0.17650000684E+04  0.17650000684E+04  0.00000000000E+00 0. -1.
         24    2    1    2    0    0 -0.49620161638E+03  0.49695740397E+02 -0.13847084104E+04  0.14739333340E+04  0.79852240836E+02 0.  0.
        254    2    1    2    0    0  0.49620161638E+03 -0.49695740397E+02  0.43551685486E+03  0.11068752473E+04  0.88702433540E+03 0.  0.
         23    2    4    4    0    0 -0.17472551517E+03 -0.23011016456E+03  0.18942442158E+03  0.36377179409E+03  0.11387981909E+03 0.  0.
         23    2    4    4    0    0  0.67092713155E+03  0.18041442417E+03  0.24609243329E+03  0.74310345325E+03  0.94597442941E+02 0.  0.
          2    1    3    3  502    0 -0.34861059934E+03  0.70204773670E+02 -0.94798831175E+03  0.10124919256E+04  0.00000000000E+00 0. -1.
         -1    1    3    3    0  502 -0.14759101704E+03 -0.20509033274E+02 -0.43672009866E+03  0.46144140834E+03  0.00000000000E+00 0.  1.
         11    1    5    5    0    0 -0.60323777021E+02 -0.15213271584E+03  0.14420526750E+03  0.21812491943E+03  0.00000000000E+00 0.  1.
        -11    1    5    5    0    0 -0.11440173815E+03 -0.77977448725E+02  0.45219154076E+02  0.14564687466E+03  0.00000000000E+00 0. -1.
          3    1    6    6  503    0  0.49503444494E+03  0.15706133535E+03  0.21888330124E+03  0.56359317268E+03  0.00000000000E+00 0. -1.
         -3    1    6    6    0  503  0.17589268662E+03  0.23353088819E+02  0.27209132051E+02  0.17951028057E+03  0.00000000000E+00 0.  1.
<mgrwt>
<rscale>  0 0.23999184E+04</rscale>
<asrwt>0</asrwt>
<pdfrwt beam="1">  1        2 0.27153847E+00 0.23999184E+04</pdfrwt>
<pdfrwt beam="2">  1       -1 0.12550900E+00 0.23999184E+04</pdfrwt>
<totfact> 0.51176486E+00</totfact>
</mgrwt>
</event>
<event>
12    6  0.4246094E-008  0.2177220E+04  0.7818608E-02  0.8527970E-01
          2   -1    0    0  501    0  0.00000000000E+00  0.00000000000E+00  0.29302632102E+04  0.29302632102E+04  0.00000000000E+00 0. -1.
         -1   -1    0    0    0  501 -0.00000000000E+00 -0.00000000000E+00 -0.40442502793E+03  0.40442502793E+03  0.00000000000E+00 0.  1.
         24    2    1    2    0    0 -0.49537679511E+03  0.61966468509E+03  0.39540116921E+03  0.89126824885E+03  0.92922094874E+02 0.  0.
        254    2    1    2    0    0  0.49537679511E+03 -0.61966468509E+03  0.21304370130E+04  0.24434199892E+04  0.89563211549E+03 0.  0.
         23    2    4    4    0    0  0.32851056296E+03 -0.15235664511E+02  0.15342598044E+04  0.15735134080E+04  0.11764345385E+03 0.  0.
         23    2    4    4    0    0  0.16686623214E+03 -0.60442902058E+03  0.59617720864E+03  0.86990658128E+03  0.90174362816E+02 0.  0.
          2    1    3    3  502    0 -0.14100686476E+02  0.25859626809E+02 -0.24834751808E+01  0.29558709490E+02  0.00000000000E+00 0. -1.
         -1    1    3    3    0  502 -0.48127610863E+03  0.59380505828E+03  0.39788464439E+03  0.86170953936E+03  0.00000000000E+00 0.  1.
         11    1    5    5    0    0  0.51285749202E+02 -0.27383977146E+02  0.13472522840E+03  0.14673444532E+03  0.00000000000E+00 0. -1.
        -11    1    5    5    0    0  0.27722481376E+03  0.12148312635E+02  0.13995345760E+04  0.14267789626E+04  0.00000000000E+00 0.  1.
          1    1    6    6  503    0  0.27679671460E+01 -0.15445693959E+03  0.15002964704E+03  0.21534507847E+03  0.00000000000E+00 0. -1.
         -1    1    6    6    0  503  0.16409826500E+03 -0.44997208098E+03  0.44614756160E+03  0.65456150281E+03  0.00000000000E+00 0.  1.
<mgrwt>
<rscale>  0 0.21772200E+04</rscale>
<asrwt>0</asrwt>
<pdfrwt beam="1">  1        2 0.45080971E+00 0.21772200E+04</pdfrwt>
<pdfrwt beam="2">  1       -1 0.62219237E-01 0.21772200E+04</pdfrwt>
<totfact> 0.52600367E+00</totfact>
</mgrwt>
</event>
<event>
12    6  0.1705838E-008  0.2685254E+04  0.7818608E-02  0.8339806E-01
         -1   -1    0    0    0  501 -0.00000000000E+00  0.00000000000E+00  0.10268486979E+04  0.10268486979E+04  0.00000000000E+00 0.  1.
          2   -1    0    0  501    0  0.00000000000E+00 -0.00000000000E+00 -0.17555135008E+04  0.17555135008E+04  0.00000000000E+00 0. -1.
         24    2    1    2    0    0 -0.11067301637E+04 -0.32566864624E+03 -0.62635023244E+03  0.13154716245E+04  0.85083833357E+02 0.  0.
        254    2    1    2    0    0  0.11067301637E+04  0.32566864624E+03 -0.10231457044E+03  0.14668905742E+04  0.90021550922E+03 0.  0.
         23    2    4    4    0    0  0.35984091672E+03 -0.88806830113E+02  0.32729765770E+03  0.50650984289E+03  0.10980130141E+03 0.  0.
         23    2    4    4    0    0  0.74688924700E+03  0.41447547635E+03 -0.42961222814E+03  0.96038073135E+03  0.90172139777E+02 0.  0.
          2    1    3    3  502    0 -0.98901407481E+03 -0.30388490948E+03 -0.53431973350E+03  0.11644708910E+04  0.00000000000E+00 0. -1.
         -1    1    3    3    0  502 -0.11771608891E+03 -0.21783736761E+02 -0.92030498939E+02  0.15100073348E+03  0.00000000000E+00 0.  1.
         11    1    5    5    0    0  0.31021080585E+01 -0.23646365767E+02  0.17930092007E+02  0.29837256707E+02  0.00000000000E+00 0.  1.
        -11    1    5    5    0    0  0.35673880866E+03 -0.65160464346E+02  0.30936756570E+03  0.47667258619E+03  0.00000000000E+00 0. -1.
          4    1    6    6  503    0  0.52530799382E+03  0.30109307926E+03 -0.34840094804E+03  0.69856191661E+03  0.00000000000E+00 0. -1.
         -4    1    6    6    0  503  0.22158125318E+03  0.11338239709E+03 -0.81211280095E+02  0.26181881473E+03  0.00000000000E+00 0.  1.
<mgrwt>
<rscale>  0 0.26852536E+04</rscale>
<asrwt>0</asrwt>
<pdfrwt beam="1">  1        2 0.27007900E+00 0.26852536E+04</pdfrwt>
<pdfrwt beam="2">  1       -1 0.15797672E+00 0.26852536E+04</pdfrwt>
<totfact> 0.27651105E+00</totfact>
</mgrwt>
</event>
<event>
11    6  0.1705838E-008  0.1937127E+04  0.7818608E-02  0.8636594E-01
         -1   -1    0    0    0  501 -0.00000000000E+00  0.00000000000E+00  0.75463174378E+03  0.75463174378E+03  0.00000000000E+00 0.  1.
          2   -1    0    0  501    0  0.00000000000E+00 -0.00000000000E+00 -0.12431427312E+04  0.12431427312E+04  0.00000000000E+00 0. -1.
         24    2    1    2    0    0  0.52288603204E+03 -0.29892506116E+03 -0.66130673968E+03  0.89791909096E+03  0.78524488392E+02 0.  0.
        254    2    1    2    0    0 -0.52288603204E+03  0.29892506116E+03  0.17279575224E+03  0.10998553840E+04  0.90391232933E+03 0.  0.
         23    2    4    4    0    0 -0.61260381196E+03  0.16818660655E+03  0.39817445955E+03  0.75531753827E+03  0.91605230898E+02 0.  0.
          4    1    3    3  502    0  0.41037777870E+03 -0.26989713474E+03 -0.53134658673E+03  0.72359075438E+03  0.00000000000E+00 0. -1.
         -3    1    3    3    0  502  0.11250825334E+03 -0.29027926423E+02 -0.12996015295E+03  0.17432833659E+03  0.00000000000E+00 0.  1.
         11    1    4    4    0    0  0.25062157093E+02 -0.44589579813E+02  0.79039305895E+00  0.51156300367E+02  0.00000000000E+00 0.  1.
        -11    1    4    4    0    0  0.64655622828E+02  0.17532803443E+03 -0.22616910037E+03  0.29338154540E+03  0.00000000000E+00 0. -1.
          2    1    5    5  503    0 -0.35659165778E+03  0.93527955342E+02  0.28338130428E+03  0.46498392709E+03  0.00000000000E+00 0. -1.
         -2    1    5    5    0  503 -0.25601215418E+03  0.74658651204E+02  0.11479315527E+03  0.29033361118E+03  0.00000000000E+00 0.  1.
<mgrwt>
<rscale>  0 0.19371267E+04</rscale>
<asrwt>0</asrwt>
<pdfrwt beam="1">  1        2 0.19125273E+00 0.19371267E+04</pdfrwt>
<pdfrwt beam="2">  1       -1 0.11609719E+00 0.19371267E+04</pdfrwt>
<totfact> 0.12752527E+01</totfact>
</mgrwt>
</event>
<event>
11    6  0.1705838E-008  0.1579828E+04  0.7818608E-02  0.8833037E-01
         -1   -1    0    0    0  501 -0.00000000000E+00  0.00000000000E+00  0.24985711358E+03  0.24985711358E+03  0.00000000000E+00 0.  1.
          2   -1    0    0  501    0  0.00000000000E+00 -0.00000000000E+00 -0.24972829058E+04  0.24972829058E+04  0.00000000000E+00 0. -1.
         24    2    1    2    0    0 -0.24351978107E+03  0.25676148718E+03 -0.78699902688E+02  0.37142227359E+03  0.80823793308E+02 0.  0.
        254    2    1    2    0    0  0.24351978107E+03 -0.25676148718E+03 -0.21687258895E+04  0.23757177458E+04  0.90301410768E+03 0.  0.
         23    2    4    4    0    0  0.50277631162E+03  0.62657105981E+02 -0.91961194750E+03  0.10541258574E+04  0.93729700426E+02 0.  0.
          2    1    3    3  502    0 -0.14797559341E+03  0.12290405537E+03 -0.76320475331E+02  0.20694684831E+03  0.00000000000E+00 0. -1.
         -1    1    3    3    0  502 -0.95544187666E+02  0.13385743181E+03 -0.23794273574E+01  0.16447542528E+03  0.00000000000E+00 0.  1.
         11    1    4    4    0    0 -0.11964179612E+03 -0.64868242709E+02 -0.49986429250E+03  0.51806018878E+03  0.00000000000E+00 0. -1.
        -11    1    4    4    0    0 -0.13961473443E+03 -0.25455035045E+03 -0.74924964955E+03  0.80353169965E+03  0.00000000000E+00 0.  1.
          3    1    5    5  503    0  0.19730739546E+03 -0.17547806339E+02 -0.31785351489E+03  0.37452502018E+03  0.00000000000E+00 0. -1.
         -3    1    5    5    0  503  0.30546891615E+03  0.80204912320E+02 -0.60175843261E+03  0.67960083719E+03  0.00000000000E+00 0.  1.
<mgrwt>
<rscale>  0 0.15798277E+04</rscale>
<asrwt>0</asrwt>
<pdfrwt beam="1">  1        2 0.38419736E+00 0.15798277E+04</pdfrwt>
<pdfrwt beam="2">  1       -1 0.38439557E-01 0.15798277E+04</pdfrwt>
<totfact> 0.25086058E+01</totfact>
</mgrwt>
</event>
<event>
12    6  0.1705838E-008  0.2105060E+04  0.7818608E-02  0.8559018E-01
          2   -1    0    0  501    0  0.00000000000E+00  0.00000000000E+00  0.17699842316E+04  0.17699842316E+04  0.00000000000E+00 0. -1.
         -1   -1    0    0    0  501 -0.00000000000E+00 -0.00000000000E+00 -0.62589199981E+03  0.62589199981E+03  0.00000000000E+00 0.  1.
         24    2    1    2    0    0 -0.23134426897E+03  0.21223095959E+03  0.13759471649E+04  0.14135847046E+04  0.80180831131E+02 0.  0.
        254    2    1    2    0    0  0.23134426897E+03 -0.21223095959E+03 -0.23185493303E+03  0.98229152683E+03  0.90143096392E+03 0.  0.
         23    2    4    4    0    0  0.25408559440E+02 -0.54052101288E+03 -0.82307659398E+02  0.55840918973E+03  0.11062419321E+03 0.  0.
         23    2    4    4    0    0  0.20593570953E+03  0.32829005329E+03 -0.14954727363E+03  0.42388233710E+03  0.84427324392E+02 0.  0.
          4    1    3    3  502    0 -0.17469170275E+03  0.20081611626E+03  0.11412570428E+04  0.11718839283E+04  0.00000000000E+00 0. -1.
         -3    1    3    3    0  502 -0.56652566218E+02  0.11414843327E+02  0.23469012206E+03  0.24170077637E+03  0.00000000000E+00 0.  1.
         11    1    5    5    0    0  0.16065363610E+02 -0.28216212370E+03  0.12885347275E+02  0.28291269348E+03  0.00000000000E+00 0. -1.
        -11    1    5    5    0    0  0.93431958299E+01 -0.25835888918E+03 -0.95193006673E+02  0.27549649625E+03  0.00000000000E+00 0.  1.
          3    1    6    6  503    0  0.19330150395E+03  0.33123010415E+03 -0.14664863428E+03  0.41059064195E+03  0.00000000000E+00 0. -1.
         -3    1    6    6    0  503  0.12634205582E+02 -0.29400508593E+01 -0.28986393565E+01  0.13291695146E+02  0.00000000000E+00 0.  1.
<mgrwt>
<rscale>  0 0.21050596E+04</rscale>
<asrwt>0</asrwt>
<pdfrwt beam="1">  1        2 0.27230526E+00 0.21050596E+04</pdfrwt>
<pdfrwt beam="2">  1       -1 0.96291078E-01 0.21050596E+04</pdfrwt>
<totfact> 0.97686728E+00</totfact>
</mgrwt>
</event>
<event>
11    6  0.1705838E-008  0.2139906E+04  0.7818608E-02  0.8543866E-01
         -1   -1    0    0    0  501 -0.00000000000E+00  0.00000000000E+00  0.64733054149E+03  0.64733054149E+03  0.00000000000E+00 0.  1.
          2   -1    0    0  501    0  0.00000000000E+00 -0.00000000000E+00 -0.17684920166E+04  0.17684920166E+04  0.00000000000E+00 0. -1.
         24    2    1    2    0    0  0.24350833050E+03  0.70571907991E+03 -0.98381211905E+03  0.12375761153E+04  0.79828746007E+02 0.  0.
        254    2    1    2    0    0 -0.24350833050E+03 -0.70571907991E+03 -0.13734935610E+03  0.11782464429E+04  0.90114599691E+03 0.  0.
         23    2    4    4    0    0  0.15377872266E+03 -0.11660277276E+03 -0.36040736114E+03  0.41880305544E+03  0.90875910621E+02 0.  0.
          4    1    3    3  502    0  0.22551070457E+03  0.55589447396E+03 -0.78845036952E+03  0.99072081297E+03  0.00000000000E+00 0. -1.
         -3    1    3    3    0  502  0.17997625930E+02  0.14982460595E+03 -0.19536174953E+03  0.24685530229E+03  0.00000000000E+00 0.  1.
         11    1    4    4    0    0 -0.32145731509E+03 -0.35130449497E+03  0.15380780737E+03  0.50040633012E+03  0.00000000000E+00 0.  1.
        -11    1    4    4    0    0 -0.75829738070E+02 -0.23781181218E+03  0.69250197659E+02  0.25903705732E+03  0.00000000000E+00 0. -1.
          1    1    5    5  503    0  0.56026770880E+02  0.61502286624E+01 -0.98383054427E+02  0.11338452172E+03  0.00000000000E+00 0. -1.
         -1    1    5    5    0  503  0.97751951779E+02 -0.12275300142E+03 -0.26202430671E+03  0.30541853372E+03  0.00000000000E+00 0.  1.
<mgrwt>
<rscale>  0 0.21399055E+04</rscale>
<asrwt>0</asrwt>
<pdfrwt beam="1">  1        2 0.27207569E+00 0.21399055E+04</pdfrwt>
<pdfrwt beam="2">  1       -1 0.99589314E-01 0.21399055E+04</pdfrwt>
<totfact> 0.90402471E+00</totfact>
</mgrwt>
</event>
<event>
12    6  0.1705838E-008  0.2194253E+04  0.7818608E-02  0.8520824E-01
         -1   -1    0    0    0  501 -0.00000000000E+00  0.00000000000E+00  0.11147165534E+04  0.11147165534E+04  0.00000000000E+00 0.  1.
          2   -1    0    0  501    0  0.00000000000E+00 -0.00000000000E+00 -0.10798140599E+04  0.10798140599E+04  0.00000000000E+00 0. -1.
         24    2    1    2    0    0 -0.25296986979E+03 -0.48651719671E+02 -0.86040088407E+03  0.90186978224E+03  0.81967542108E+02 0.  0.
        254    2    1    2    0    0  0.25296986979E+03  0.48651719671E+02  0.89530337756E+03  0.12926608311E+04  0.89612674418E+03 0.  0.
         23    2    4    4    0    0  0.36043336346E+03  0.28141602290E+03  0.90552570951E+03  0.10202350850E+04  0.10860769183E+03 0.  0.
         23    2    4    4    0    0 -0.10746349367E+03 -0.23276430323E+03 -0.10222331953E+02  0.27242574609E+03  0.91562370737E+02 0.  0.
          4    1    3    3  502    0 -0.15609427415E+03 -0.17552130655E+02 -0.64192555690E+03  0.66086452493E+03  0.00000000000E+00 0. -1.
         -3    1    3    3    0  502 -0.96875595642E+02 -0.31099589016E+02 -0.21847532718E+03  0.24100525731E+03  0.00000000000E+00 0.  1.
         11    1    5    5    0    0  0.96893723955E+02  0.12594293669E+03  0.24131349675E+03  0.28893290010E+03  0.00000000000E+00 0.  1.
        -11    1    5    5    0    0  0.26353963951E+03  0.15547308621E+03  0.66421221276E+03  0.73130218495E+03  0.00000000000E+00 0. -1.
          4    1    6    6  503    0 -0.10287656156E+03 -0.14842855226E+03 -0.35940085111E+02  0.18413666599E+03  0.00000000000E+00 0. -1.
         -4    1    6    6    0  503 -0.45869321065E+01 -0.84335750966E+02  0.25717753158E+02  0.88289080099E+02  0.00000000000E+00 0.  1.
<mgrwt>
<rscale>  0 0.21942530E+04</rscale>
<asrwt>0</asrwt>
<pdfrwt beam="1">  1        2 0.16612524E+00 0.21942530E+04</pdfrwt>
<pdfrwt beam="2">  1       -1 0.17149485E+00 0.21942530E+04</pdfrwt>
<totfact> 0.56100099E+00</totfact>
</mgrwt>
</event>
<event>
12    6  0.1705838E-008  0.1655576E+04  0.7818608E-02  0.8787114E-01
         -1   -1    0    0    0  501 -0.00000000000E+00  0.00000000000E+00  0.31746693158E+03  0.31746693158E+03  0.00000000000E+00 0.  1.
          2   -1    0    0  501    0  0.00000000000E+00 -0.00000000000E+00 -0.21584399556E+04  0.21584399556E+04  0.00000000000E+00 0. -1.
         24    2    1    2    0    0 -0.36078859608E+03  0.35741958720E+03 -0.23286889586E+03  0.56839420464E+03  0.10453170251E+03 0.  0.
        254    2    1    2    0    0  0.36078859608E+03 -0.35741958720E+03 -0.16081041282E+04  0.19075126826E+04  0.89145306924E+03 0.  0.
         23    2    4    4    0    0  0.46671833564E+03 -0.52406102630E+03 -0.79691184291E+03  0.10675383201E+04  0.11001643251E+03 0.  0.
         23    2    4    4    0    0 -0.10592973955E+03  0.16664143909E+03 -0.81119228530E+03  0.83997436247E+03  0.92377090962E+02 0.  0.
          2    1    3    3  502    0 -0.89666012346E+02  0.15475064757E+03 -0.62659628344E+02  0.18950985652E+03  0.00000000000E+00 0. -1.
         -1    1    3    3    0  502 -0.27112258374E+03  0.20266893964E+03 -0.17020926751E+03  0.37888434812E+03  0.00000000000E+00 0.  1.
         11    1    5    5    0    0  0.37149712416E+03 -0.47313520403E+03 -0.69314417380E+03  0.91777768562E+03  0.00000000000E+00 0. -1.
        -11    1    5    5    0    0  0.95221211481E+02 -0.50925822268E+02 -0.10376766911E+03  0.14976063449E+03  0.00000000000E+00 0.  1.
          4    1    6    6  503    0 -0.10271943326E+03  0.13288369964E+03 -0.51149249717E+03  0.53836227046E+03  0.00000000000E+00 0. -1.
         -4    1    6    6    0  503 -0.32103062966E+01  0.33757739453E+02 -0.29969978814E+03  0.30161209201E+03  0.00000000000E+00 0.  1.
<mgrwt>
<rscale>  0 0.16555764E+04</rscale>
<asrwt>0</asrwt>
<pdfrwt beam="1">  1        2 0.33206770E+00 0.16555764E+04</pdfrwt>
<pdfrwt beam="2">  1       -1 0.48841065E-01 0.16555764E+04</pdfrwt>
<totfact> 0.24883490E+01</totfact>
</mgrwt>
</event>
<event>
12    6  0.1705838E-008  0.2341996E+04  0.7818608E-02  0.8461544E-01
         -1   -1    0    0    0  501 -0.00000000000E+00  0.00000000000E+00  0.76736822590E+03  0.76736822590E+03  0.00000000000E+00 0.  1.
          2   -1    0    0  501    0  0.00000000000E+00 -0.00000000000E+00 -0.17869346210E+04  0.17869346210E+04  0.00000000000E+00 0. -1.
         24    2    1    2    0    0 -0.83402736673E+03  0.10910244623E+03  0.10310250952E+03  0.85049128308E+03  0.72113125682E+02 0.  0.
        254    2    1    2    0    0  0.83402736673E+03 -0.10910244623E+03 -0.11226689046E+04  0.17038115638E+04  0.96699709582E+03 0.  0.
         23    2    4    4    0    0  0.45926807498E+03  0.36562645817E+03 -0.25966962568E+03  0.64594902441E+03  0.72193878020E+02 0.  0.
         23    2    4    4    0    0  0.37475929175E+03 -0.47472890440E+03 -0.86299927892E+03  0.10578625394E+04  0.92159304421E+02 0.  0.
          4    1    3    3  502    0 -0.12173221675E+03 -0.73297318926E+01  0.25425489817E+02  0.12457492965E+03  0.00000000000E+00 0. -1.
         -1    1    3    3    0  502 -0.71229514998E+03  0.11643217812E+03  0.77677019700E+02  0.72591635343E+03  0.00000000000E+00 0.  1.
         11    1    5    5    0    0  0.21910500272E+02  0.37057697786E+02 -0.30999679456E+02  0.53050194286E+02  0.00000000000E+00 0. -1.
        -11    1    5    5    0    0  0.43735757471E+03  0.32856876038E+03 -0.22866994622E+03  0.59289883012E+03  0.00000000000E+00 0.  1.
          1    1    6    6  503    0  0.52968415974E+02 -0.10202007646E+03 -0.21734091414E+03  0.24586748880E+03  0.00000000000E+00 0. -1.
         -1    1    6    6    0  503  0.32179087578E+03 -0.37270882794E+03 -0.64565836478E+03  0.81199505058E+03  0.00000000000E+00 0.  1.
<mgrwt>
<rscale>  0 0.23419965E+04</rscale>
<asrwt>0</asrwt>
<pdfrwt beam="1">  1        2 0.27491301E+00 0.23419965E+04</pdfrwt>
<pdfrwt beam="2">  1       -1 0.11805665E+00 0.23419965E+04</pdfrwt>
<totfact> 0.58146839E+00</totfact>
</mgrwt>
</event>
<event>
12    6  0.1705838E-008  0.1810930E+04  0.7818608E-02  0.8700509E-01
         -1   -1    0    0    0  501 -0.00000000000E+00  0.00000000000E+00  0.32187752343E+03  0.32187752343E+03  0.00000000000E+00 0.  1.
          2   -1    0    0  501    0  0.00000000000E+00 -0.00000000000E+00 -0.25471388019E+04  0.25471388019E+04  0.00000000000E+00 0. -1.
         24    2    1    2    0    0 -0.28310427458E+03  0.48112607762E+03 -0.14469613749E+04  0.15528614233E+04  0.77788474205E+02 0.  0.
        254    2    1    2    0    0  0.28310427458E+03 -0.48112607762E+03 -0.77829990357E+03  0.13161549020E+04  0.90270850962E+03 0.  0.
         23    2    4    4    0    0  0.57705267526E+03 -0.38896560795E+03 -0.37482246045E+03  0.79991182927E+03  0.12281296164E+03 0.  0.
         23    2    4    4    0    0 -0.29394840068E+03 -0.92160469671E+02 -0.40347744312E+03  0.51624307275E+03  0.93881034394E+02 0.  0.
          2    1    3    3  502    0 -0.24146403981E+03  0.38313710071E+03 -0.12401270462E+04  0.13202325595E+04  0.00000000000E+00 0. -1.
         -1    1    3    3    0  502 -0.41640234776E+02  0.97988976916E+02 -0.20683432865E+03  0.23262886377E+03  0.00000000000E+00 0.  1.
         11    1    5    5    0    0  0.51357664661E+03 -0.29714745236E+03 -0.33509494932E+03  0.68142953080E+03  0.00000000000E+00 0. -1.
        -11    1    5    5    0    0  0.63476028658E+02 -0.91818155594E+02 -0.39727511136E+02  0.11848229847E+03  0.00000000000E+00 0.  1.
          1    1    6    6  503    0 -0.27573202896E+03 -0.93788266406E+02 -0.40389258433E+03  0.49794940545E+03  0.00000000000E+00 0. -1.
         -1    1    6    6    0  503 -0.18216371722E+02  0.16277967347E+01  0.41514121230E+00  0.18293667297E+02  0.00000000000E+00 0.  1.
<mgrwt>
<rscale>  0 0.18109298E+04</rscale>
<asrwt>0</asrwt>
<pdfrwt beam="1">  1        2 0.39186750E+00 0.18109298E+04</pdfrwt>
<pdfrwt beam="2">  1       -1 0.49519620E-01 0.18109298E+04</pdfrwt>
<totfact> 0.14368152E+01</totfact>
</mgrwt>
</event>
<event>
11    6  0.1705838E-008  0.2355873E+04  0.7818608E-02  0.8456211E-01
         -1   -1    0    0    0  501 -0.00000000000E+00  0.00000000000E+00  0.63187862644E+03  0.63187862644E+03  0.00000000000E+00 0.  1.
          2   -1    0    0  501    0  0.00000000000E+00 -0.00000000000E+00 -0.21958870515E+04  0.21958870515E+04  0.00000000000E+00 0. -1.
         24    2    1    2    0    0  0.25736645666E+03  0.68318962457E+03  0.16051423216E+03  0.75176347125E+03  0.79987135496E+02 0.  0.
        254    2    1    2    0    0 -0.25736645666E+03 -0.68318962457E+03 -0.17245226572E+04  0.20760022067E+04  0.89600290778E+03 0.  0.
         23    2    4    4    0    0  0.16140226973E+03 -0.24556357891E+02 -0.48998422094E+01  0.18684740085E+03  0.90742687664E+02 0.  0.
          2    1    3    3  502    0  0.13020568124E+03  0.23736261103E+03  0.53487060554E+02  0.27596266811E+03  0.00000000000E+00 0. -1.
         -3    1    3    3    0  502  0.12716077542E+03  0.44582701355E+03  0.10702717161E+03  0.47580080315E+03  0.00000000000E+00 0.  1.
         11    1    4    4    0    0 -0.17450890905E+03 -0.31570657987E+03 -0.76244939144E+03  0.84347678001E+03  0.00000000000E+00 0.  1.
        -11    1    4    4    0    0 -0.24425981734E+03 -0.34292668681E+03 -0.95717342355E+03  0.10456780258E+04  0.00000000000E+00 0. -1.
          3    1    5    5  503    0  0.35098603674E+02 -0.46819998909E+02 -0.36224764322E+00  0.58516284068E+02  0.00000000000E+00 0. -1.
         -3    1    5    5    0  503  0.12630366606E+03  0.22263641018E+02 -0.45375945661E+01  0.12833111678E+03  0.00000000000E+00 0.  1.
<mgrwt>
<rscale>  0 0.23558727E+04</rscale>
<asrwt>0</asrwt>
<pdfrwt beam="1">  1        2 0.33782878E+00 0.23558727E+04</pdfrwt>
<pdfrwt beam="2">  1       -1 0.97212096E-01 0.23558727E+04</pdfrwt>
<totfact> 0.54183622E+00</totfact>
</mgrwt>
</event>
<event>
12    6  0.1705838E-008  0.1414499E+04  0.7818608E-02  0.8943390E-01
          2   -1    0    0  501    0  0.00000000000E+00  0.00000000000E+00  0.20222897557E+04  0.20222897557E+04  0.00000000000E+00 0. -1.
         -1   -1    0    0    0  501 -0.00000000000E+00 -0.00000000000E+00 -0.24734413184E+03  0.24734413184E+03  0.00000000000E+00 0.  1.
         24    2    1    2    0    0 -0.20939779768E+02  0.34410775861E+03  0.16817696216E+03  0.39179023532E+03  0.79796453422E+02 0.  0.
        254    2    1    2    0    0  0.20939779768E+02 -0.34410775861E+03  0.16067686617E+04  0.18778436522E+04  0.90870381647E+03 0.  0.
         23    2    4    4    0    0  0.34189240956E+03  0.70942466055E+02  0.10225470075E+04  0.10873656265E+04  0.12181284802E+03 0.  0.
         23    2    4    4    0    0 -0.32095262980E+03 -0.41505022466E+03  0.58422165420E+03  0.79047802572E+03  0.90902631160E+02 0.  0.
          2    1    3    3  502    0  0.19377456254E+01  0.10209614332E+03  0.90900777473E+02  0.13671257691E+03  0.00000000000E+00 0. -1.
         -1    1    3    3    0  502 -0.22877525393E+02  0.24201161528E+03  0.77276184690E+02  0.25507765841E+03  0.00000000000E+00 0.  1.
         11    1    5    5    0    0  0.30414952288E+03  0.25668104514E+02  0.91713484448E+03  0.96659304095E+03  0.00000000000E+00 0. -1.
        -11    1    5    5    0    0  0.37742886683E+02  0.45274361541E+02  0.10541216304E+03  0.12077258557E+03  0.00000000000E+00 0.  1.
          2    1    6    6  503    0 -0.23620490014E+03 -0.33562866303E+03  0.40273947403E+03  0.57501168531E+03  0.00000000000E+00 0. -1.
         -2    1    6    6    0  503 -0.84747729653E+02 -0.79421561633E+02  0.18148218017E+03  0.21546634042E+03  0.00000000000E+00 0.  1.
<mgrwt>
<rscale>  0 0.14144985E+04</rscale>
<asrwt>0</asrwt>
<pdfrwt beam="1">  1        2 0.31112149E+00 0.14144985E+04</pdfrwt>
<pdfrwt beam="2">  1       -1 0.38052945E-01 0.14144985E+04</pdfrwt>
<totfact> 0.48009605E+01</totfact>
</mgrwt>
</event>
<event>
11    6  0.1705838E-008  0.1804206E+04  0.7818608E-02  0.8704066E-01
          2   -1    0    0  501    0  0.00000000000E+00  0.00000000000E+00  0.46847782221E+03  0.46847782221E+03  0.00000000000E+00 0. -1.
         -1   -1    0    0    0  501 -0.00000000000E+00 -0.00000000000E+00 -0.17370932449E+04  0.17370932449E+04  0.00000000000E+00 0.  1.
         24    2    1    2    0    0 -0.23531274984E+03  0.32946155516E+03 -0.11475903484E+04  0.12195625250E+04  0.80325202207E+02 0.  0.
        254    2    1    2    0    0  0.23531274984E+03 -0.32946155516E+03 -0.12102507427E+03  0.98600854209E+03  0.89086967055E+03 0.  0.
         23    2    4    4    0    0 -0.23765392250E+03 -0.19543728205E+03  0.25537016501E+02  0.32187683735E+03  0.90980443598E+02 0.  0.
          4    1    3    3  502    0  0.14910887842E+01  0.45121386770E+01 -0.57268372713E+02  0.57465200378E+02  0.00000000000E+00 0. -1.
         -3    1    3    3    0  502 -0.23680383863E+03  0.32494941648E+03 -0.10903219757E+04  0.11620973247E+04  0.00000000000E+00 0.  1.
         11    1    4    4    0    0  0.28306850585E+03 -0.16031972278E+03 -0.28108798291E+03  0.42993097894E+03  0.00000000000E+00 0.  1.
        -11    1    4    4    0    0  0.18989816649E+03  0.26295449673E+02  0.13452589213E+03  0.23420072580E+03  0.00000000000E+00 0. -1.
          4    1    5    5  503    0 -0.26935267595E+02 -0.14987372105E+02 -0.25244837143E+02  0.39842587333E+02  0.00000000000E+00 0. -1.
         -4    1    5    5    0  503 -0.21071865491E+03 -0.18044990994E+03  0.50781853644E+02  0.28203425002E+03  0.00000000000E+00 0.  1.
<mgrwt>
<rscale>  0 0.18042058E+04</rscale>
<asrwt>0</asrwt>
<pdfrwt beam="1">  1        2 0.72073511E-01 0.18042058E+04</pdfrwt>
<pdfrwt beam="2">  1       -1 0.26724512E+00 0.18042058E+04</pdfrwt>
<totfact> 0.38579881E+00</totfact>
</mgrwt>
</event>
<event>
12    6  0.1705838E-008  0.1347865E+04  0.7818608E-02  0.8992446E-01
         -1   -1    0    0    0  501 -0.00000000000E+00  0.00000000000E+00  0.24588242505E+03  0.24588242505E+03  0.00000000000E+00 0.  1.
          2   -1    0    0  501    0  0.00000000000E+00 -0.00000000000E+00 -0.18471623998E+04  0.18471623998E+04  0.00000000000E+00 0. -1.
         24    2    1    2    0    0 -0.18902969979E+03 -0.19587325452E+03 -0.55613205946E+02  0.28953048294E+03  0.81464793835E+02 0.  0.
        254    2    1    2    0    0  0.18902969979E+03  0.19587325452E+03 -0.15456667688E+04  0.18035143419E+04  0.88852668055E+03 0.  0.
         23    2    4    4    0    0  0.33252848500E+03  0.45131648054E+03 -0.12683230608E+04  0.13910079770E+04  0.10953559490E+03 0.  0.
         23    2    4    4    0    0 -0.14349878521E+03 -0.25544322602E+03 -0.27734370798E+03  0.41250636490E+03  0.86016426607E+02 0.  0.
          4    1    3    3  502    0 -0.14225469070E+00 -0.24799851486E+02 -0.20707694580E+02  0.32308845305E+02  0.00000000000E+00 0. -1.
         -3    1    3    3    0  502 -0.18888744510E+03 -0.17107340304E+03 -0.34905511366E+02  0.25722163763E+03  0.00000000000E+00 0.  1.
         11    1    5    5    0    0  0.22523326457E+03  0.26827120076E+03 -0.90271093269E+03  0.96829049805E+03  0.00000000000E+00 0.  1.
        -11    1    5    5    0    0  0.10729522043E+03  0.18304527978E+03 -0.36561212814E+03  0.42271747897E+03  0.00000000000E+00 0. -1.
          2    1    6    6  503    0 -0.88212593566E+02 -0.12940031315E+03 -0.91944043340E+02  0.18160289043E+03  0.00000000000E+00 0.  1.
         -2    1    6    6    0  503 -0.55286191646E+02 -0.12604291287E+03 -0.18539966464E+03  0.23090347447E+03  0.00000000000E+00 0. -1.
<mgrwt>
<rscale>  0 0.13478646E+04</rscale>
<asrwt>0</asrwt>
<pdfrwt beam="1">  1        2 0.28417884E+00 0.13478646E+04</pdfrwt>
<pdfrwt beam="2">  1       -1 0.37828064E-01 0.13478646E+04</pdfrwt>
<totfact> 0.60987633E+01</totfact>
</mgrwt>
</event>
<event>
12    6  0.1705838E-008  0.2521810E+04  0.7818608E-02  0.8395257E-01
          2   -1    0    0  501    0  0.00000000000E+00  0.00000000000E+00  0.12555272700E+04  0.12555272700E+04  0.00000000000E+00 0. -1.
         -1   -1    0    0    0  501 -0.00000000000E+00 -0.00000000000E+00 -0.12663053026E+04  0.12663053026E+04  0.00000000000E+00 0.  1.
         24    2    1    2    0    0  0.10246779549E+04 -0.34164003481E+02  0.39210115542E+03  0.11004583833E+04  0.78315049054E+02 0.  0.
        254    2    1    2    0    0 -0.10246779549E+04  0.34164003481E+02 -0.40287918806E+03  0.14213741892E+04  0.89825433773E+03 0.  0.
         23    2    4    4    0    0 -0.91630602959E+03  0.36655925398E+03 -0.36129367246E+03  0.10579623397E+04  0.12152681978E+03 0.  0.
         23    2    4    4    0    0 -0.10837192533E+03 -0.33239525050E+03 -0.41585515604E+02  0.36341184954E+03  0.90042992670E+02 0.  0.
          2    1    3    3  502    0  0.19997842796E+03 -0.25063267770E+02  0.50568363842E+02  0.20779003456E+03  0.00000000000E+00 0. -1.
         -1    1    3    3    0  502  0.82469952696E+03 -0.91007357112E+01  0.34153279158E+03  0.89266834876E+03  0.00000000000E+00 0.  1.
         11    1    5    5    0    0 -0.69265339635E+03  0.32203951270E+03 -0.24641225190E+03  0.80261894638E+03  0.00000000000E+00 0. -1.
        -11    1    5    5    0    0 -0.22365263325E+03  0.44519741281E+02 -0.11488142056E+03  0.25534339332E+03  0.00000000000E+00 0.  1.
          4    1    6    6  503    0 -0.90391200290E+02 -0.19856178036E+03  0.11128013035E+02  0.21845178503E+03  0.00000000000E+00 0. -1.
         -4    1    6    6    0  503 -0.17980725038E+02 -0.13383347013E+03 -0.52713528640E+02  0.14496006451E+03  0.00000000000E+00 0.  1.
<mgrwt>
<rscale>  0 0.25218095E+04</rscale>
<asrwt>0</asrwt>
<pdfrwt beam="1">  1        2 0.19315804E+00 0.25218095E+04</pdfrwt>
<pdfrwt beam="2">  1       -1 0.19481620E+00 0.25218095E+04</pdfrwt>
<totfact> 0.29120017E+00</totfact>
</mgrwt>
</event>
<event>
11    6  0.1705838E-008  0.1464970E+04  0.7818608E-02  0.8908088E-01
         -1   -1    0    0    0  501 -0.00000000000E+00  0.00000000000E+00  0.37095566649E+03  0.37095566649E+03  0.00000000000E+00 0.  1.
          2   -1    0    0  501    0  0.00000000000E+00 -0.00000000000E+00 -0.14463568494E+04  0.14463568494E+04  0.00000000000E+00 0. -1.
         24    2    1    2    0    0  0.10213262417E+03 -0.18690620516E+03  0.15438894772E+03  0.27565694427E+03  0.82375975256E+02 0.  0.
        254    2    1    2    0    0 -0.10213262417E+03  0.18690620516E+03 -0.12297901307E+04  0.15416555717E+04  0.90496029400E+03 0.  0.
         23    2    4    4    0    0 -0.16448179117E+03 -0.20199377590E+03 -0.10334863578E+04  0.10699771763E+04  0.94347023334E+02 0.  0.
          2    1    3    3  502    0  0.83983821366E+00  0.39253542568E+01  0.21802842861E+02  0.22169296134E+02  0.00000000000E+00 0. -1.
         -3    1    3    3    0  502  0.10129278596E+03 -0.19083155941E+03  0.13258610486E+03  0.25348764813E+03  0.00000000000E+00 0.  1.
         11    1    4    4    0    0 -0.51676305738E+02  0.17282845054E+03 -0.11617190639E+03  0.21456007486E+03  0.00000000000E+00 0. -1.
        -11    1    4    4    0    0  0.11402547274E+03  0.21607153052E+03 -0.80131866455E+02  0.25711832053E+03  0.00000000000E+00 0.  1.
          2    1    5    5  503    0 -0.86938072825E+02 -0.16964227570E+03 -0.64889093400E+03  0.67631070850E+03  0.00000000000E+00 0. -1.
         -2    1    5    5    0  503 -0.77543718345E+02 -0.32351500198E+02 -0.38459542383E+03  0.39366646777E+03  0.00000000000E+00 0.  1.
<mgrwt>
<rscale>  0 0.14649700E+04</rscale>
<asrwt>0</asrwt>
<pdfrwt beam="1">  1        2 0.22251644E+00 0.14649700E+04</pdfrwt>
<pdfrwt beam="2">  1       -1 0.57070102E-01 0.14649700E+04</pdfrwt>
<totfact> 0.46720866E+01</totfact>
</mgrwt>
</event>
<event>
11    6  0.1705838E-008  0.3190661E+04  0.7818608E-02  0.8191288E-01
          2   -1    0    0  501    0  0.00000000000E+00  0.00000000000E+00  0.26598039035E+04  0.26598039035E+04  0.00000000000E+00 0. -1.
         -1   -1    0    0    0  501 -0.00000000000E+00 -0.00000000000E+00 -0.95686748766E+03  0.95686748766E+03  0.00000000000E+00 0.  1.
         24    2    1    2    0    0 -0.47170564564E+02 -0.29169712887E+03 -0.84865871811E+03  0.90215622339E+03  0.79699149361E+02 0.  0.
        254    2    1    2    0    0  0.47170564564E+02  0.29169712887E+03  0.25515951339E+04  0.27145151678E+04  0.87786251274E+03 0.  0.
         23    2    4    4    0    0 -0.27152501357E+03  0.15185439175E+03  0.12932852273E+04  0.13335147915E+04  0.94283776658E+02 0.  0.
          2    1    3    3  502    0 -0.30808404040E+02 -0.31408641115E+02 -0.96236533912E+02  0.10581649661E+03  0.00000000000E+00 0. -1.
         -1    1    3    3    0  502 -0.16362160524E+02 -0.26028848776E+03 -0.75242218420E+03  0.79633972677E+03  0.00000000000E+00 0.  1.
         11    1    4    4    0    0 -0.30222754347E+02  0.92823887282E+02  0.28365710243E+02  0.10165777121E+03  0.00000000000E+00 0. -1.
        -11    1    4    4    0    0  0.34891833248E+03  0.47018849844E+02  0.12299441964E+04  0.12793426051E+04  0.00000000000E+00 0.  1.
          1    1    5    5  503    0 -0.13329574575E+02 -0.60985409665E+01  0.15442002549E+03  0.15511419675E+03  0.00000000000E+00 0. -1.
         -1    1    5    5    0  503 -0.25819543899E+03  0.15795293271E+03  0.11388652019E+04  0.11784005947E+04  0.00000000000E+00 0.  1.
<mgrwt>
<rscale>  0 0.31906613E+04</rscale>
<asrwt>0</asrwt>
<pdfrwt beam="1">  1        2 0.40920060E+00 0.31906613E+04</pdfrwt>
<pdfrwt beam="2">  1       -1 0.14721038E+00 0.31906613E+04</pdfrwt>
<totfact> 0.98551018E-01</totfact>
</mgrwt>
</event>
<event>
12    6  0.1705838E-008  0.1153372E+04  0.7818608E-02  0.9154678E-01
          2   -1    0    0  501    0  0.00000000000E+00  0.00000000000E+00  0.15605718247E+04  0.15605718247E+04  0.00000000000E+00 0. -1.
         -1   -1    0    0    0  501 -0.00000000000E+00 -0.00000000000E+00 -0.21310575101E+03  0.21310575101E+03  0.00000000000E+00 0.  1.
         24    2    1    2    0    0 -0.81943511549E+02 -0.18691973335E+03  0.17362848664E+03  0.27935611283E+03  0.78988990390E+02 0.  0.
        254    2    1    2    0    0  0.81943511549E+02  0.18691973335E+03  0.11738375871E+04  0.14943214629E+04  0.90191364770E+03 0.  0.
         23    2    4    4    0    0  0.32665561816E+03 -0.40135953008E+02  0.10793494273E+04  0.11350397879E+04  0.12249631077E+03 0.  0.
         23    2    4    4    0    0 -0.24471210661E+03  0.22705568636E+03  0.94488159747E+02  0.35928167505E+03  0.93364928466E+02 0.  0.
          4    1    3    3  502    0 -0.24510721139E+02 -0.10846737594E+03  0.13458267873E+03  0.17458076787E+03  0.00000000000E+00 0. -1.
         -3    1    3    3    0  502 -0.57432790410E+02 -0.78452357409E+02  0.39045807909E+02  0.10477534497E+03  0.00000000000E+00 0.  1.
         11    1    5    5    0    0  0.33466700621E+03 -0.49043854579E+02  0.10551288929E+04  0.11080181791E+04  0.00000000000E+00 0. -1.
        -11    1    5    5    0    0 -0.80113880513E+01  0.89079015704E+01  0.24220534491E+02  0.27021608759E+02  0.00000000000E+00 0.  1.
          1    1    6    6  503    0 -0.20127481614E+03  0.21132965807E+03  0.10794473979E+03  0.31116529826E+03  0.00000000000E+00 0. -1.
         -1    1    6    6    0  503 -0.43437290469E+02  0.15726028287E+02 -0.13456580047E+02  0.48116376791E+02  0.00000000000E+00 0.  1.
<mgrwt>
<rscale>  0 0.11533722E+04</rscale>
<asrwt>0</asrwt>
<pdfrwt beam="1">  1        2 0.24008797E+00 0.11533722E+04</pdfrwt>
<pdfrwt beam="2">  1       -1 0.32785501E-01 0.11533722E+04</pdfrwt>
<totfact> 0.11533833E+02</totfact>
</mgrwt>
</event>
<event>
12    6  0.1705838E-008  0.1588218E+04  0.7818608E-02  0.8827819E-01
          2   -1    0    0  501    0  0.00000000000E+00  0.00000000000E+00  0.65428039356E+03  0.65428039356E+03  0.00000000000E+00 0. -1.
         -1   -1    0    0    0  501 -0.00000000000E+00 -0.00000000000E+00 -0.96382097595E+03  0.96382097595E+03  0.00000000000E+00 0.  1.
         24    2    1    2    0    0 -0.25035409712E+03  0.32627889172E+02  0.36837428434E+03  0.45357390906E+03  0.79296434494E+02 0.  0.
        254    2    1    2    0    0  0.25035409712E+03 -0.32627889172E+02 -0.67791486672E+03  0.11645274604E+04  0.91258637208E+03 0.  0.
         23    2    4    4    0    0  0.16702667051E+03  0.40022649468E+03 -0.13739540058E+03  0.46099642515E+03  0.74572462678E+02 0.  0.
         23    2    4    4    0    0  0.83327426608E+02 -0.43285438385E+03 -0.54051946614E+03  0.70353103530E+03  0.92131681330E+02 0.  0.
          4    1    3    3  502    0 -0.14406953506E+03 -0.41509270012E+01  0.15049698736E+03  0.20838091163E+03  0.00000000000E+00 0. -1.
         -3    1    3    3    0  502 -0.10628456207E+03  0.36778816173E+02  0.21787729698E+03  0.24519299744E+03  0.00000000000E+00 0.  1.
         11    1    5    5    0    0  0.10721087854E+03  0.21374881043E+03 -0.40624004283E+02  0.24255522291E+03  0.00000000000E+00 0. -1.
        -11    1    5    5    0    0  0.59815791978E+02  0.18647768425E+03 -0.96771396297E+02  0.21844120224E+03  0.00000000000E+00 0.  1.
          1    1    6    6  503    0  0.41265286921E+02 -0.25880589408E+03 -0.38856707382E+03  0.46868719374E+03  0.00000000000E+00 0. -1.
         -1    1    6    6    0  503  0.42062139686E+02 -0.17404848977E+03 -0.15195239232E+03  0.23484384156E+03  0.00000000000E+00 0.  1.
<mgrwt>
<rscale>  0 0.15882181E+04</rscale>
<asrwt>0</asrwt>
<pdfrwt beam="1">  1        2 0.10065852E+00 0.15882181E+04</pdfrwt>
<pdfrwt beam="2">  1       -1 0.14828015E+00 0.15882181E+04</pdfrwt>
<totfact> 0.17599381E+01</totfact>
</mgrwt>
</event>
<event>
12    6  0.1705838E-008  0.1509486E+04  0.7818608E-02  0.8878169E-01
         -1   -1    0    0    0  501 -0.00000000000E+00  0.00000000000E+00  0.14651350029E+04  0.14651350029E+04  0.00000000000E+00 0.  1.
          2   -1    0    0  501    0  0.00000000000E+00 -0.00000000000E+00 -0.38879498618E+03  0.38879498618E+03  0.00000000000E+00 0. -1.
         24    2    1    2    0    0  0.21200759648E+03 -0.31109574875E+03  0.70472776970E+03  0.80301363320E+03  0.80385818813E+02 0.  0.
        254    2    1    2    0    0 -0.21200759648E+03  0.31109574875E+03  0.37161224699E+03  0.10509163558E+04  0.90807584430E+03 0.  0.
         23    2    4    4    0    0 -0.27536299329E+03  0.15601228564E+02 -0.22736741921E+03  0.37398464353E+03  0.11000179033E+03 0.  0.
         23    2    4    4    0    0  0.63355396806E+02  0.29549452019E+03  0.59897966619E+03  0.67693171230E+03  0.90160883091E+02 0.  0.
          2    1    3    3  502    0  0.72721443961E+02 -0.95886111991E+02  0.15315118053E+03  0.19477638199E+03  0.00000000000E+00 0. -1.
         -1    1    3    3    0  502  0.13928615252E+03 -0.21520963676E+03  0.55157658917E+03  0.60823725121E+03  0.00000000000E+00 0.  1.
         11    1    5    5    0    0 -0.27314911388E+03  0.36354652875E+02 -0.20543517161E+03  0.34370875598E+03  0.00000000000E+00 0. -1.
        -11    1    5    5    0    0 -0.22138794057E+01 -0.20753424311E+02 -0.21932247597E+02  0.30275887556E+02  0.00000000000E+00 0.  1.
          2    1    6    6  503    0  0.66803805395E+02  0.24448253077E+03  0.55240109244E+03  0.60776757333E+03  0.00000000000E+00 0. -1.
         -2    1    6    6    0  503 -0.34484085890E+01  0.51011989419E+02  0.46578573755E+02  0.69164138969E+02  0.00000000000E+00 0.  1.
<mgrwt>
<rscale>  0 0.15094862E+04</rscale>
<asrwt>0</asrwt>
<pdfrwt beam="1">  1        2 0.59814614E-01 0.15094862E+04</pdfrwt>
<pdfrwt beam="2">  1       -1 0.22540538E+00 0.15094862E+04</pdfrwt>
<totfact> 0.91862068E+00</totfact>
</mgrwt>
</event>
<event>
12    6  0.1705838E-008  0.1246066E+04  0.7818608E-02  0.9073464E-01
          2   -1    0    0  501    0  0.00000000000E+00  0.00000000000E+00  0.65178141989E+03  0.65178141989E+03  0.00000000000E+00 0. -1.
         -1   -1    0    0    0  501 -0.00000000000E+00 -0.00000000000E+00 -0.59555296097E+03  0.59555296097E+03  0.00000000000E+00 0.  1.
         24    2    1    2    0    0 -0.85403197135E+02  0.37420214260E+02 -0.15434828380E+03  0.19765282734E+03  0.80927553581E+02 0.  0.
        254    2    1    2    0    0  0.85403197135E+02 -0.37420214260E+02  0.21057674272E+03  0.10496815535E+04  0.10241068405E+04 0.  0.
         23    2    4    4    0    0  0.38785190662E+03  0.76064156868E+02 -0.25000446285E+03  0.47957268689E+03  0.10617378745E+03 0.  0.
         23    2    4    4    0    0 -0.30244870948E+03 -0.11348437113E+03  0.46058120557E+03  0.57010886663E+03  0.92385867597E+02 0.  0.
          4    1    3    3  502    0 -0.11096264388E+02 -0.94893582086E+01 -0.83521413682E+02  0.84787979962E+02  0.00000000000E+00 0. -1.
         -3    1    3    3    0  502 -0.74306932747E+02  0.46909572469E+02 -0.70826870114E+02  0.11286484738E+03  0.00000000000E+00 0.  1.
         11    1    5    5    0    0  0.33727284260E+03  0.10127998607E+03 -0.22403502716E+03  0.41737548962E+03  0.00000000000E+00 0. -1.
        -11    1    5    5    0    0  0.50579064014E+02 -0.25215829204E+02 -0.25969435684E+02  0.62197197274E+02  0.00000000000E+00 0.  1.
          2    1    6    6  503    0 -0.22977852012E+03 -0.42117724878E+02  0.30573811385E+03  0.38476988619E+03  0.00000000000E+00 0. -1.
         -2    1    6    6    0  503 -0.72670189366E+02 -0.71366646250E+02  0.15484309172E+03  0.18533898044E+03  0.00000000000E+00 0.  1.
<mgrwt>
<rscale>  0 0.12460664E+04</rscale>
<asrwt>0</asrwt>
<pdfrwt beam="1">  1        2 0.10027406E+00 0.12460664E+04</pdfrwt>
<pdfrwt beam="2">  1       -1 0.91623532E-01 0.12460664E+04</pdfrwt>
<totfact> 0.58504624E+01</totfact>
</mgrwt>
</event>
<event>
12    6  0.1705838E-008  0.2160551E+04  0.7818608E-02  0.8535030E-01
         -1   -1    0    0    0  501 -0.00000000000E+00  0.00000000000E+00  0.68925602752E+03  0.68925602752E+03  0.00000000000E+00 0.  1.
          2   -1    0    0  501    0  0.00000000000E+00 -0.00000000000E+00 -0.16931224366E+04  0.16931224366E+04  0.00000000000E+00 0. -1.
         24    2    1    2    0    0 -0.55648078294E+03  0.64745356698E+03 -0.12401483363E+03  0.86678669882E+03  0.84098270585E+02 0.  0.
        254    2    1    2    0    0  0.55648078294E+03 -0.64745356698E+03 -0.87985157540E+03  0.15155917652E+04  0.89107385831E+03 0.  0.
         23    2    4    4    0    0  0.26226473569E+03 -0.33950111216E+03  0.96576950131E+02  0.44664427249E+03  0.78231720574E+02 0.  0.
         23    2    4    4    0    0  0.29421604725E+03 -0.30795245482E+03 -0.97642852554E+03  0.10689474928E+04  0.88534060705E+02 0.  0.
          4    1    3    3  502    0 -0.10497566311E+03  0.11374026594E+03  0.95180299015E+01  0.15507201822E+03  0.00000000000E+00 0. -1.
         -3    1    3    3    0  502 -0.45150511983E+03  0.53371330104E+03 -0.13353286353E+03  0.71171468060E+03  0.00000000000E+00 0.  1.
         11    1    5    5    0    0  0.20967481257E+03 -0.28740781380E+03  0.10788922285E+03  0.37176183622E+03  0.00000000000E+00 0.  1.
        -11    1    5    5    0    0  0.52589923119E+02 -0.52093298358E+02 -0.11312272718E+02  0.74882436269E+02  0.00000000000E+00 0. -1.
          1    1    6    6  503    0  0.10617742128E+03 -0.13645102107E+03 -0.49603686508E+03  0.52530476626E+03  0.00000000000E+00 0. -1.
         -1    1    6    6    0  503  0.18803862597E+03 -0.17150143375E+03 -0.48039166046E+03  0.54364272650E+03  0.00000000000E+00 0.  1.
<mgrwt>
<rscale>  0 0.21605507E+04</rscale>
<asrwt>0</asrwt>
<pdfrwt beam="1">  1        2 0.26048037E+00 0.21605507E+04</pdfrwt>
<pdfrwt beam="2">  1       -1 0.10603939E+00 0.21605507E+04</pdfrwt>
<totfact> 0.85959401E+00</totfact>
</mgrwt>
</event>
<event>
11    6  0.1705838E-008  0.2025589E+04  0.7818608E-02  0.8594749E-01
          2   -1    0    0  501    0  0.00000000000E+00  0.00000000000E+00  0.21179617496E+04  0.21179617496E+04  0.00000000000E+00 0. -1.
         -1   -1    0    0    0  501 -0.00000000000E+00 -0.00000000000E+00 -0.48431143594E+03  0.48431143594E+03  0.00000000000E+00 0.  1.
         24    2    1    2    0    0  0.55072479073E+03 -0.27747124683E+02 -0.10092339096E+03  0.56730064957E+03  0.87044805181E+02 0.  0.
        254    2    1    2    0    0 -0.55072479073E+03  0.27747124683E+02  0.17345737046E+04  0.20349725360E+04  0.91010965676E+03 0.  0.
         23    2    4    4    0    0 -0.24746875030E+03  0.33577853345E+03  0.30391155753E+03  0.52426426321E+03  0.92210503600E+02 0.  0.
          2    1    3    3  502    0  0.15570290514E+03 -0.33758830492E+02  0.89622426676E+00  0.15932311986E+03  0.00000000000E+00 0. -1.
         -1    1    3    3    0  502  0.39502188559E+03  0.60117058093E+01 -0.10181961523E+03  0.40797752971E+03  0.00000000000E+00 0.  1.
         11    1    4    4    0    0 -0.54778691160E+02 -0.17102270874E+03  0.78782783368E+03  0.80803599390E+03  0.00000000000E+00 0. -1.
        -11    1    4    4    0    0 -0.24847734927E+03 -0.13700870003E+03  0.64283431342E+03  0.70267227887E+03  0.00000000000E+00 0.  1.
          2    1    5    5  503    0 -0.23715034596E+03  0.26850894175E+03  0.24254421575E+03  0.43262574471E+03  0.00000000000E+00 0. -1.
         -2    1    5    5    0  503 -0.10318404338E+02  0.67269591704E+02  0.61367341781E+02  0.91638518503E+02  0.00000000000E+00 0.  1.
<mgrwt>
<rscale>  0 0.20255894E+04</rscale>
<asrwt>0</asrwt>
<pdfrwt beam="1">  1        2 0.32584027E+00 0.20255894E+04</pdfrwt>
<pdfrwt beam="2">  1       -1 0.74509453E-01 0.20255894E+04</pdfrwt>
<totfact> 0.10984388E+01</totfact>
</mgrwt>
</event>
<event>
12    6  0.1705838E-008  0.1710149E+04  0.7818608E-02  0.8755597E-01
         -1   -1    0    0    0  501 -0.00000000000E+00  0.00000000000E+00  0.29925422969E+03  0.29925422969E+03  0.00000000000E+00 0.  1.
          2   -1    0    0  501    0  0.00000000000E+00 -0.00000000000E+00 -0.24432493089E+04  0.24432493089E+04  0.00000000000E+00 0. -1.
         24    2    1    2    0    0 -0.19993643740E+03 -0.15208830413E+03  0.12421795205E+03  0.29004227814E+03  0.74759562906E+02 0.  0.
        254    2    1    2    0    0  0.19993643740E+03  0.15208830413E+03 -0.22682130313E+04  0.24524612605E+04  0.89814834384E+03 0.  0.
         23    2    4    4    0    0  0.41226965861E+03  0.40369215006E+03 -0.15442404934E+04  0.16520539166E+04  0.10802693417E+03 0.  0.
         23    2    4    4    0    0 -0.21233322121E+03 -0.25160384593E+03 -0.72397253785E+03  0.80040734382E+03  0.90143154823E+02 0.  0.
          4    1    3    3  502    0 -0.61308966186E+02 -0.29078766068E+02  0.68723036868E+02  0.96577532414E+02  0.00000000000E+00 0. -1.
         -3    1    3    3    0  502 -0.13862747121E+03 -0.12300953806E+03  0.55494915186E+02  0.19346474573E+03  0.00000000000E+00 0.  1.
         11    1    5    5    0    0  0.84866718416E+02  0.12827664478E+03 -0.31630954805E+03  0.35172288478E+03  0.00000000000E+00 0. -1.
        -11    1    5    5    0    0  0.32740294020E+03  0.27541550529E+03 -0.12279309454E+04  0.13003310319E+04  0.00000000000E+00 0.  1.
          1    1    6    6  503    0 -0.69367186670E+02 -0.89358551600E+02 -0.35662198535E+03  0.37413366296E+03  0.00000000000E+00 0. -1.
         -1    1    6    6    0  503 -0.14296603454E+03 -0.16224529433E+03 -0.36735055251E+03  0.42627368086E+03  0.00000000000E+00 0.  1.
<mgrwt>
<rscale>  0 0.17101493E+04</rscale>
<asrwt>0</asrwt>
<pdfrwt beam="1">  1        2 0.37588452E+00 0.17101493E+04</pdfrwt>
<pdfrwt beam="2">  1       -1 0.46039112E-01 0.17101493E+04</pdfrwt>
<totfact> 0.19098466E+01</totfact>
</mgrwt>
</event>
<event>
12    6  0.1705838E-008  0.1513415E+04  0.7818608E-02  0.8875581E-01
         -1   -1    0    0    0  501 -0.00000000000E+00  0.00000000000E+00  0.35544247386E+03  0.35544247386E+03  0.00000000000E+00 0.  1.
          2   -1    0    0  501    0  0.00000000000E+00 -0.00000000000E+00 -0.16109667794E+04  0.16109667794E+04  0.00000000000E+00 0. -1.
         24    2    1    2    0    0  0.30351431934E+02 -0.34815894345E+03 -0.69689133658E+02  0.36511052170E+03  0.79456015380E+02 0.  0.
        254    2    1    2    0    0 -0.30351431934E+02  0.34815894345E+03 -0.11858351719E+04  0.16012987316E+04  0.10177508111E+04 0.  0.
         23    2    4    4    0    0 -0.12290877313E+03 -0.51544246922E+02  0.14120409867E+03  0.20923765637E+03  0.77964244729E+02 0.  0.
         23    2    4    4    0    0  0.92557341197E+02  0.39970319038E+03 -0.13270392706E+04  0.13920610752E+04  0.92039717931E+02 0.  0.
          4    1    3    3  502    0  0.41113804445E+02 -0.11574781115E+03 -0.46333576457E+02  0.13128100018E+03  0.00000000000E+00 0. -1.
         -3    1    3    3    0  502 -0.10762372511E+02 -0.23241113231E+03 -0.23355557200E+02  0.23382952152E+03  0.00000000000E+00 0.  1.
         11    1    5    5    0    0 -0.12208978133E+03 -0.38710864867E+02  0.14713857455E+03  0.19507487251E+03  0.00000000000E+00 0. -1.
        -11    1    5    5    0    0 -0.81899179817E+00 -0.12833382055E+02 -0.59344758784E+01  0.14162783854E+02  0.00000000000E+00 0.  1.
          4    1    6    6  503    0 -0.11492130898E+02  0.33907170527E+02 -0.18290895626E+03  0.18637985826E+03  0.00000000000E+00 0.  1.
         -4    1    6    6    0  503  0.10404947210E+03  0.36579601985E+03 -0.11441303143E+04  0.12056812170E+04  0.00000000000E+00 0. -1.
<mgrwt>
<rscale>  0 0.15134147E+04</rscale>
<asrwt>0</asrwt>
<pdfrwt beam="1">  1        2 0.24784104E+00 0.15134147E+04</pdfrwt>
<pdfrwt beam="2">  1       -1 0.54683458E-01 0.15134147E+04</pdfrwt>
<totfact> 0.40852363E+01</totfact>
</mgrwt>
</event>
<event>
11    6  0.1705838E-008  0.1324536E+04  0.7818608E-02  0.9010331E-01
          2   -1    0    0  501    0  0.00000000000E+00  0.00000000000E+00  0.80608093511E+03  0.80608093511E+03  0.00000000000E+00 0. -1.
         -1   -1    0    0    0  501 -0.00000000000E+00 -0.00000000000E+00 -0.54411282019E+03  0.54411282019E+03  0.00000000000E+00 0.  1.
         24    2    1    2    0    0 -0.17693862716E+03  0.12896694574E+03 -0.21255767997E+03  0.31572228013E+03  0.80994073725E+02 0.  0.
        254    2    1    2    0    0  0.17693862716E+03 -0.12896694574E+03  0.47452579489E+03  0.10344714752E+04  0.89275794707E+03 0.  0.
         23    2    4    4    0    0 -0.22143835880E+02  0.77032691115E+02 -0.22939586689E+03  0.26071219170E+03  0.94466915821E+02 0.  0.
          2    1    3    3  502    0 -0.36019037881E+01  0.11167456194E+02  0.57778520185E+01  0.13079348711E+02  0.00000000000E+00 0. -1.
         -1    1    3    3    0  502 -0.17333672337E+03  0.11779948955E+03 -0.21833553199E+03  0.30264293142E+03  0.00000000000E+00 0.  1.
         11    1    4    4    0    0  0.25675667183E+02 -0.99843393229E+02  0.13682068235E+03  0.17131211917E+03  0.00000000000E+00 0. -1.
        -11    1    4    4    0    0  0.17340679585E+03 -0.10615624363E+03  0.56710097943E+03  0.60244716431E+03  0.00000000000E+00 0.  1.
          2    1    5    5  503    0  0.21197060938E+01  0.66945066526E+02 -0.62010089983E+02  0.91276428205E+02  0.00000000000E+00 0. -1.
         -2    1    5    5    0  503 -0.24263541973E+02  0.10087624588E+02 -0.16738577691E+03  0.16943576349E+03  0.00000000000E+00 0.  1.
<mgrwt>
<rscale>  0 0.13245361E+04</rscale>
<asrwt>0</asrwt>
<pdfrwt beam="1">  1        2 0.12401245E+00 0.13245361E+04</pdfrwt>
<pdfrwt beam="2">  1       -1 0.83709665E-01 0.13245361E+04</pdfrwt>
<totfact> 0.53934850E+01</totfact>
</mgrwt>
</event>
<event>
11    6  0.1705838E-008  0.1640481E+04  0.7818608E-02  0.8796058E-01
          2   -1    0    0  501    0  0.00000000000E+00  0.00000000000E+00  0.37361146475E+04  0.37361146475E+04  0.00000000000E+00 0. -1.
         -1   -1    0    0    0  501 -0.00000000000E+00 -0.00000000000E+00 -0.18007872732E+03  0.18007872732E+03  0.00000000000E+00 0.  1.
         24    2    1    2    0    0  0.42609820372E+03  0.36979736359E+03  0.14334028401E+04  0.15424969491E+04  0.79645254311E+02 0.  0.
        254    2    1    2    0    0 -0.42609820372E+03 -0.36979736359E+03  0.21226330800E+04  0.23736964257E+04  0.90030759167E+03 0.  0.
         23    2    4    4    0    0  0.58658873801E+01  0.21219181146E+03  0.91363760731E+03  0.94257037111E+03  0.92980930882E+02 0.  0.
          2    1    3    3  502    0  0.57635097207E+02  0.58869467723E+02  0.14393020430E+03  0.16584125654E+03  0.00000000000E+00 0. -1.
         -1    1    3    3    0  502  0.36846310652E+03  0.31092789587E+03  0.12894726358E+04  0.13766556926E+04  0.00000000000E+00 0.  1.
         11    1    4    4    0    0 -0.80887629887E+02 -0.24300501752E+03  0.26554650819E+03  0.36892979715E+03  0.00000000000E+00 0.  1.
        -11    1    4    4    0    0 -0.35107646122E+03 -0.33898415754E+03  0.94344896452E+03  0.10621962574E+04  0.00000000000E+00 0. -1.
          1    1    5    5  503    0 -0.31435195414E+02  0.16915930711E+03  0.74374773405E+03  0.76338963485E+03  0.00000000000E+00 0. -1.
         -1    1    5    5    0  503  0.37301082794E+02  0.43032504353E+02  0.16988987326E+03  0.17918073625E+03  0.00000000000E+00 0.  1.
<mgrwt>
<rscale>  0 0.16404814E+04</rscale>
<asrwt>0</asrwt>
<pdfrwt beam="1">  1        2 0.57478681E+00 0.16404814E+04</pdfrwt>
<pdfrwt beam="2">  1       -1 0.27704422E-01 0.16404814E+04</pdfrwt>
<totfact> 0.71070579E+00</totfact>
</mgrwt>
</event>
<event>
12    6  0.1705838E-008  0.3281034E+04  0.7818608E-02  0.8167738E-01
         -1   -1    0    0    0  501 -0.00000000000E+00  0.00000000000E+00  0.23519675859E+04  0.23519675859E+04  0.00000000000E+00 0.  1.
          2   -1    0    0  501    0  0.00000000000E+00 -0.00000000000E+00 -0.11442745956E+04  0.11442745956E+04  0.00000000000E+00 0. -1.
         24    2    1    2    0    0  0.98517047724E+03  0.66405838793E+03  0.15574869324E+04  0.19605567829E+04  0.80516723222E+02 0.  0.
        254    2    1    2    0    0 -0.98517047724E+03 -0.66405838793E+03 -0.34979394212E+03  0.15356853986E+04  0.90798646994E+03 0.  0.
         23    2    4    4    0    0 -0.39355271839E+03 -0.78423730975E+03 -0.22146378892E+03  0.91182350687E+03  0.11164227571E+03 0.  0.
         23    2    4    4    0    0 -0.59161775885E+03  0.12017892182E+03 -0.12833015321E+03  0.62386189169E+03  0.90997174939E+02 0.  0.
          4    1    3    3  502    0  0.34700981494E+03  0.21992164404E+03  0.59955457097E+03  0.72680604342E+03  0.00000000000E+00 0. -1.
         -1    1    3    3    0  502  0.63816066230E+03  0.44413674389E+03  0.95793236139E+03  0.12337507395E+04  0.00000000000E+00 0.  1.
         11    1    5    5    0    0 -0.92730168827E+02 -0.10622858202E+03 -0.56797426528E+02  0.15201757631E+03  0.00000000000E+00 0.  1.
        -11    1    5    5    0    0 -0.30082254957E+03 -0.67800872773E+03 -0.16466636239E+03  0.75980593056E+03  0.00000000000E+00 0. -1.
          1    1    6    6  503    0 -0.58655430949E+03  0.11362953021E+03 -0.11538993570E+03  0.60850017697E+03  0.00000000000E+00 0. -1.
         -1    1    6    6    0  503 -0.50634493594E+01  0.65493916049E+01 -0.12940217511E+02  0.15361714717E+02  0.00000000000E+00 0.  1.
<mgrwt>
<rscale>  0 0.32810344E+04</rscale>
<asrwt>0</asrwt>
<pdfrwt beam="1">  1        2 0.17604225E+00 0.32810344E+04</pdfrwt>
<pdfrwt beam="2">  1       -1 0.36184117E+00 0.32810344E+04</pdfrwt>
<totfact> 0.25261136E-01</totfact>
</mgrwt>
</event>
<event>
12    6  0.1705838E-008  0.1336914E+04  0.7818608E-02  0.9000794E-01
         -1   -1    0    0    0  501 -0.00000000000E+00  0.00000000000E+00  0.43860362233E+03  0.43860362233E+03  0.00000000000E+00 0.  1.
          2   -1    0    0  501    0  0.00000000000E+00 -0.00000000000E+00 -0.10187667294E+04  0.10187667294E+04  0.00000000000E+00 0. -1.
         24    2    1    2    0    0 -0.22426790879E+03  0.71990345055E+02  0.14253894889E+03  0.28639947511E+03  0.78921497055E+02 0.  0.
        254    2    1    2    0    0  0.22426790879E+03 -0.71990345055E+02 -0.72270205593E+03  0.11709708766E+04  0.89072769546E+03 0.  0.
         23    2    4    4    0    0  0.27844332290E+03  0.22064448519E+03  0.91052313584E+01  0.37578097723E+03  0.12212192554E+03 0.  0.
         23    2    4    4    0    0 -0.54175414109E+02 -0.29263483025E+03 -0.73180728728E+03  0.79518989935E+03  0.90636366512E+02 0.  0.
          4    1    3    3  502    0 -0.13054308202E+03  0.29456019295E+02  0.12273902783E+03  0.18158750587E+03  0.00000000000E+00 0. -1.
         -1    1    3    3    0  502 -0.93724826777E+02  0.42534325759E+02  0.19799921059E+02  0.10481196924E+03  0.00000000000E+00 0.  1.
         11    1    5    5    0    0  0.58720225282E+02 -0.69756505840E+01 -0.26680741129E+01  0.59193269699E+02  0.00000000000E+00 0.  1.
        -11    1    5    5    0    0  0.21972309762E+03  0.22762013578E+03  0.11773305471E+02  0.31658770753E+03  0.00000000000E+00 0. -1.
          3    1    6    6  503    0  0.19789133459E+01 -0.20281564376E+03 -0.52535373419E+03  0.56314709222E+03  0.00000000000E+00 0. -1.
         -3    1    6    6    0  503 -0.56154327455E+02 -0.89819186489E+02 -0.20645355310E+03  0.23204280713E+03  0.00000000000E+00 0.  1.
<mgrwt>
<rscale>  0 0.13369140E+04</rscale>
<asrwt>0</asrwt>
<pdfrwt beam="1">  1        2 0.15673334E+00 0.13369140E+04</pdfrwt>
<pdfrwt beam="2">  1       -1 0.67477482E-01 0.13369140E+04</pdfrwt>
<totfact> 0.60787766E+01</totfact>
</mgrwt>
</event>
<event>
12    6  0.1705838E-008  0.1998839E+04  0.7818608E-02  0.8607164E-01
          2   -1    0    0  501    0  0.00000000000E+00  0.00000000000E+00  0.12922770363E+04  0.12922770363E+04  0.00000000000E+00 0. -1.
         -1   -1    0    0    0  501 -0.00000000000E+00 -0.00000000000E+00 -0.77292964934E+03  0.77292964934E+03  0.00000000000E+00 0.  1.
         24    2    1    2    0    0  0.74346201171E+03 -0.24767583884E+03  0.46676392389E+02  0.78903406973E+03  0.79479516795E+02 0.  0.
        254    2    1    2    0    0 -0.74346201171E+03  0.24767583884E+03  0.47267099461E+03  0.12761726159E+04  0.88944903875E+03 0.  0.
         23    2    4    4    0    0 -0.71394618427E+03  0.44344319345E+03  0.10945425555E+03  0.85081685825E+03  0.74485383598E+02 0.  0.
         23    2    4    4    0    0 -0.29515827443E+02 -0.19576735462E+03  0.36321673906E+03  0.42535575770E+03  0.99020603251E+02 0.  0.
          4    1    3    3  502    0  0.21329154772E+03 -0.10173577532E+03  0.36012527207E+02  0.23904048700E+03  0.00000000000E+00 0. -1.
         -3    1    3    3    0  502  0.53017046399E+03 -0.14594006352E+03  0.10663865182E+02  0.54999358273E+03  0.00000000000E+00 0.  1.
         11    1    5    5    0    0 -0.18459147342E+03  0.14958459678E+03  0.15226102578E+02  0.23807855395E+03  0.00000000000E+00 0. -1.
        -11    1    5    5    0    0 -0.52935471085E+03  0.29385859667E+03  0.94228152972E+02  0.61273830430E+03  0.00000000000E+00 0.  1.
          1    1    6    6  503    0 -0.64735491565E+02 -0.11588506469E+03  0.19596981531E+03  0.23669431890E+03  0.00000000000E+00 0. -1.
         -1    1    6    6    0  503  0.35219664122E+02 -0.79882289922E+02  0.16724692376E+03  0.18866143880E+03  0.00000000000E+00 0.  1.
<mgrwt>
<rscale>  0 0.19988389E+04</rscale>
<asrwt>0</asrwt>
<pdfrwt beam="1">  1        2 0.19881185E+00 0.19988389E+04</pdfrwt>
<pdfrwt beam="2">  1       -1 0.11891225E+00 0.19988389E+04</pdfrwt>
<totfact> 0.11200770E+01</totfact>
</mgrwt>
</event>
<event>
12    6  0.1705838E-008  0.1301892E+04  0.7818608E-02  0.9028066E-01
          2   -1    0    0  501    0  0.00000000000E+00  0.00000000000E+00  0.11910447568E+04  0.11910447568E+04  0.00000000000E+00 0. -1.
         -1   -1    0    0    0  501 -0.00000000000E+00 -0.00000000000E+00 -0.35576392920E+03  0.35576392920E+03  0.00000000000E+00 0.  1.
         24    2    1    2    0    0  0.27583372829E+03 -0.12822167453E+03  0.29660295155E+03  0.43252252056E+03  0.81101026139E+02 0.  0.
        254    2    1    2    0    0 -0.27583372829E+03  0.12822167453E+03  0.53867787608E+03  0.11142861655E+04  0.92678733316E+03 0.  0.
         23    2    4    4    0    0  0.10860220485E+03 -0.12143884386E+03 -0.17295931691E+03  0.26274337197E+03  0.11214866255E+03 0.  0.
         23    2    4    4    0    0 -0.38443593314E+03  0.24966051839E+03  0.71163719299E+03  0.85154279351E+03  0.92608172455E+02 0.  0.
          2    1    3    3  502    0  0.22743082787E+03 -0.13239526649E+03  0.27042247277E+03  0.37733486698E+03  0.00000000000E+00 0. -1.
         -1    1    3    3    0  502  0.48402900424E+02  0.41735919614E+01  0.26180478777E+02  0.55187653586E+02  0.00000000000E+00 0.  1.
         11    1    5    5    0    0  0.73503268700E+02 -0.14270314647E+02 -0.30005324717E+02  0.80664068216E+02  0.00000000000E+00 0. -1.
        -11    1    5    5    0    0  0.35098936148E+02 -0.10716852921E+03 -0.14295399219E+03  0.18207930375E+03  0.00000000000E+00 0.  1.
          2    1    6    6  503    0 -0.85430149632E+02  0.51882650050E+02  0.92932819944E+02  0.13647940821E+03  0.00000000000E+00 0. -1.
         -2    1    6    6    0  503 -0.29900578351E+03  0.19777786834E+03  0.61870437304E+03  0.71506338530E+03  0.00000000000E+00 0.  1.
<mgrwt>
<rscale>  0 0.13018921E+04</rscale>
<asrwt>0</asrwt>
<pdfrwt beam="1">  1        2 0.18323765E+00 0.13018921E+04</pdfrwt>
<pdfrwt beam="2">  1       -1 0.54732913E-01 0.13018921E+04</pdfrwt>
<totfact> 0.72261963E+01</totfact>
</mgrwt>
</event>
<event>
11    6  0.1705838E-008  0.1563939E+04  0.7818608E-02  0.8843013E-01
          2   -1    0    0  501    0  0.00000000000E+00  0.00000000000E+00  0.13597488010E+04  0.13597488010E+04  0.00000000000E+00 0. -1.
         -1   -1    0    0    0  501 -0.00000000000E+00 -0.00000000000E+00 -0.44969810490E+03  0.44969810490E+03  0.00000000000E+00 0.  1.
         24    2    1    2    0    0 -0.42743237913E+03  0.30149368291E+03  0.23835414505E+03  0.58027244124E+03  0.79413651484E+02 0.  0.
        254    2    1    2    0    0  0.42743237913E+03 -0.30149368291E+03  0.67169655101E+03  0.12291744646E+04  0.88662096087E+03 0.  0.
         23    2    4    4    0    0  0.25351919105E+03 -0.23235406083E+03  0.83536795534E+03  0.90788801195E+03  0.90336214250E+02 0.  0.
          4    1    3    3  502    0 -0.75013610015E+02  0.51245134399E+02  0.76382192913E+02  0.11869012125E+03  0.00000000000E+00 0. -1.
         -3    1    3    3    0  502 -0.35241876912E+03  0.25024854851E+03  0.16197195213E+03  0.46158232000E+03  0.00000000000E+00 0.  1.
         11    1    4    4    0    0  0.13764095990E+03 -0.13923141972E+03 -0.13264884760E+03  0.23648707967E+03  0.00000000000E+00 0. -1.
        -11    1    4    4    0    0  0.36272228186E+02  0.70091797649E+02 -0.31022556732E+02  0.84799373002E+02  0.00000000000E+00 0.  1.
          2    1    5    5  503    0  0.52419299430E+01  0.19585922753E+01  0.15344930802E+00  0.55979871309E+01  0.00000000000E+00 0.  1.
         -2    1    5    5    0  503  0.24827726111E+03 -0.23431265311E+03  0.83521450603E+03  0.90229002481E+03  0.00000000000E+00 0. -1.
<mgrwt>
<rscale>  0 0.15639392E+04</rscale>
<asrwt>0</asrwt>
<pdfrwt beam="1">  1        2 0.20919212E+00 0.15639392E+04</pdfrwt>
<pdfrwt beam="2">  1       -1 0.69184324E-01 0.15639392E+04</pdfrwt>
<totfact> 0.35355589E+01</totfact>
</mgrwt>
</event>
<event>
11    6  0.1705838E-008  0.1794516E+04  0.7818608E-02  0.8709221E-01
          2   -1    0    0  501    0  0.00000000000E+00  0.00000000000E+00  0.30446829308E+04  0.30446829308E+04  0.00000000000E+00 0. -1.
         -1   -1    0    0    0  501 -0.00000000000E+00 -0.00000000000E+00 -0.26441887398E+03  0.26441887398E+03  0.00000000000E+00 0.  1.
         24    2    1    2    0    0 -0.22424076698E+03 -0.35234579528E+03  0.82199219469E+02  0.43327528989E+03  0.80865840292E+02 0.  0.
        254    2    1    2    0    0  0.22424076698E+03  0.35234579528E+03  0.26980648374E+04  0.28758265149E+04  0.90354457341E+03 0.  0.
         23    2    4    4    0    0 -0.60811180180E+02  0.54852211042E+03  0.10795940157E+04  0.12157132714E+04  0.88662361547E+02 0.  0.
          2    1    3    3  502    0 -0.25413962584E+02 -0.98841045740E+02  0.61198479403E+01  0.10223929947E+03  0.00000000000E+00 0. -1.
         -1    1    3    3    0  502 -0.19882680440E+03 -0.25350474954E+03  0.76079371529E+02  0.33103599042E+03  0.00000000000E+00 0.  1.
         11    1    4    4    0    0  0.13853304158E+03 -0.25932956167E+02  0.74577872105E+03  0.75897946125E+03  0.00000000000E+00 0. -1.
        -11    1    4    4    0    0  0.14651890558E+03 -0.17024335898E+03  0.87269210062E+03  0.90113378222E+03  0.00000000000E+00 0.  1.
          3    1    5    5  503    0  0.30369907456E+01  0.29298760977E+03  0.51017188075E+03  0.58832500431E+03  0.00000000000E+00 0. -1.
         -3    1    5    5    0  503 -0.63848170926E+02  0.25553450065E+03  0.56942213495E+03  0.62738826712E+03  0.00000000000E+00 0.  1.
<mgrwt>
<rscale>  0 0.17945157E+04</rscale>
<asrwt>0</asrwt>
<pdfrwt beam="1">  1        2 0.46841273E+00 0.17945157E+04</pdfrwt>
<pdfrwt beam="2">  1       -1 0.40679829E-01 0.17945157E+04</pdfrwt>
<totfact> 0.10406178E+01</totfact>
</mgrwt>
</event>
<event>
12    6  0.1705838E-008  0.2085319E+04  0.7818608E-02  0.8567738E-01
          2   -1    0    0  501    0  0.00000000000E+00  0.00000000000E+00  0.68703296588E+03  0.68703296588E+03  0.00000000000E+00 0. -1.
         -1   -1    0    0    0  501 -0.00000000000E+00 -0.00000000000E+00 -0.15823674732E+04  0.15823674732E+04  0.00000000000E+00 0.  1.
         24    2    1    2    0    0  0.42166416367E+03 -0.19912694930E+03  0.40684906700E+03  0.62395319018E+03  0.79619164528E+02 0.  0.
        254    2    1    2    0    0 -0.42166416367E+03  0.19912694930E+03 -0.13021835744E+04  0.16454472489E+04  0.89127009309E+03 0.  0.
         23    2    4    4    0    0  0.23663314924E+03 -0.26234382788E+02 -0.59111523561E+03  0.64624778381E+03  0.10740338055E+03 0.  0.
         23    2    4    4    0    0 -0.65829731291E+03  0.22536133208E+03 -0.71106833875E+03  0.99919946512E+03  0.92942490473E+02 0.  0.
          2    1    3    3  502    0  0.34427753223E+03 -0.18826912798E+03  0.36191083646E+03  0.53380870853E+03  0.00000000000E+00 0. -1.
         -3    1    3    3    0  502  0.77386631436E+02 -0.10857821315E+02  0.44938230537E+02  0.90144481653E+02  0.00000000000E+00 0.  1.
         11    1    5    5    0    0  0.82044173568E+02 -0.12439781694E+02 -0.34845209196E+03  0.35819667080E+03  0.00000000000E+00 0.  1.
        -11    1    5    5    0    0  0.15458897568E+03 -0.13794601094E+02 -0.24266314365E+03  0.28805111301E+03  0.00000000000E+00 0. -1.
          1    1    6    6  503    0 -0.23321769303E+02  0.18309222205E+02 -0.57735011207E+02  0.64903498059E+02  0.00000000000E+00 0. -1.
         -1    1    6    6    0  503 -0.63497554361E+03  0.20705210988E+03 -0.65333332754E+03  0.93429596706E+03  0.00000000000E+00 0.  1.
<mgrwt>
<rscale>  0 0.20853188E+04</rscale>
<asrwt>0</asrwt>
<pdfrwt beam="1">  1        2 0.10569738E+00 0.20853188E+04</pdfrwt>
<pdfrwt beam="2">  1       -1 0.24344115E+00 0.20853188E+04</pdfrwt>
<totfact> 0.34004761E+00</totfact>
</mgrwt>
</event>
<event>
12    6  0.1705838E-008  0.1634692E+04  0.7818608E-02  0.8799514E-01
         -3   -1    0    0    0  501 -0.00000000000E+00  0.00000000000E+00  0.33215956876E+03  0.33215956876E+03  0.00000000000E+00 0.  1.
          2   -1    0    0  501    0  0.00000000000E+00 -0.00000000000E+00 -0.20112450519E+04  0.20112450519E+04  0.00000000000E+00 0. -1.
         24    2    1    2    0    0  0.41272429551E+03 -0.38408478349E+03 -0.51937745350E+03  0.77087524294E+03  0.81444680330E+02 0.  0.
        254    2    1    2    0    0 -0.41272429551E+03  0.38408478349E+03 -0.11597080297E+04  0.15725293778E+04  0.90003525756E+03 0.  0.
         23    2    4    4    0    0 -0.34524547124E+03  0.65834821078E+03 -0.92728447175E+03  0.11951159390E+04  0.12581261503E+03 0.  0.
         23    2    4    4    0    0 -0.67478824262E+02 -0.27426342728E+03 -0.23242355794E+03  0.37741343876E+03  0.92985881737E+02 0.  0.
          2    1    3    3  502    0  0.26800708918E+02 -0.44122825192E+02 -0.75771084666E+02  0.91686198377E+02  0.00000000000E+00 0. -1.
         -1    1    3    3    0  502  0.38592358659E+03 -0.33996195830E+03 -0.44360636883E+03  0.67918904456E+03  0.00000000000E+00 0.  1.
         11    1    5    5    0    0 -0.18086198781E+03  0.45570171086E+03 -0.65262348182E+03  0.81626742979E+03  0.00000000000E+00 0.  1.
        -11    1    5    5    0    0 -0.16438348344E+03  0.20264649992E+03 -0.27466098993E+03  0.37884850923E+03  0.00000000000E+00 0. -1.
          1    1    6    6  503    0 -0.11774382143E+02 -0.13003383207E+03 -0.16047193370E+03  0.20687840647E+03  0.00000000000E+00 0. -1.
         -1    1    6    6    0  503 -0.55704442118E+02 -0.14422959522E+03 -0.71951624234E+02  0.17053503229E+03  0.00000000000E+00 0.  1.
<mgrwt>
<rscale>  0 0.16346918E+04</rscale>
<asrwt>0</asrwt>
<pdfrwt beam="1">  1        2 0.30942231E+00 0.16346918E+04</pdfrwt>
<pdfrwt beam="2">  1       -3 0.51101473E-01 0.16346918E+04</pdfrwt>
<totfact> 0.15354839E+01</totfact>
</mgrwt>
</event>
<event>
12    6  0.1705838E-008  0.1801274E+04  0.7818608E-02  0.8705622E-01
          2   -1    0    0  501    0  0.00000000000E+00  0.00000000000E+00  0.55701399149E+03  0.55701399149E+03  0.00000000000E+00 0. -1.
         -1   -1    0    0    0  501 -0.00000000000E+00 -0.00000000000E+00 -0.14562410654E+04  0.14562410654E+04  0.00000000000E+00 0.  1.
         24    2    1    2    0    0 -0.39994991554E+03  0.54024047469E+03 -0.40774912370E+03  0.79039258090E+03  0.81494654002E+02 0.  0.
        254    2    1    2    0    0  0.39994991554E+03 -0.54024047469E+03 -0.49147795016E+03  0.12228624759E+04  0.89555700774E+03 0.  0.
         23    2    4    4    0    0  0.64894589143E+03 -0.23338174175E+03 -0.21203745997E+03  0.73044479739E+03  0.11398206094E+03 0.  0.
         23    2    4    4    0    0 -0.24899597589E+03 -0.30685873294E+03 -0.27944049019E+03  0.49241767855E+03  0.90702285499E+02 0.  0.
          2    1    3    3  502    0 -0.10466856306E+03  0.13890941575E+03 -0.14864681246E+03  0.22879512393E+03  0.00000000000E+00 0. -1.
         -1    1    3    3    0  502 -0.29528135248E+03  0.40133105894E+03 -0.25910231124E+03  0.56159745698E+03  0.00000000000E+00 0.  1.
         11    1    5    5    0    0  0.37238676471E+03 -0.12350913495E+03 -0.62093120300E+02  0.39721777973E+03  0.00000000000E+00 0.  1.
        -11    1    5    5    0    0  0.27655912672E+03 -0.10987260680E+03 -0.14994433967E+03  0.33322701766E+03  0.00000000000E+00 0. -1.
          1    1    6    6  503    0  0.36548442797E+00 -0.39584055645E+02 -0.33355836411E+02  0.51765266954E+02  0.00000000000E+00 0. -1.
         -1    1    6    6    0  503 -0.24936146032E+03 -0.26727467730E+03 -0.24608465378E+03  0.44065241159E+03  0.00000000000E+00 0.  1.
<mgrwt>
<rscale>  0 0.18012736E+04</rscale>
<asrwt>0</asrwt>
<pdfrwt beam="1">  1        2 0.85694462E-01 0.18012736E+04</pdfrwt>
<pdfrwt beam="2">  1       -1 0.22403708E+00 0.18012736E+04</pdfrwt>
<totfact> 0.60473797E+00</totfact>
</mgrwt>
</event>
<event>
12    6  0.1705838E-008  0.2673672E+04  0.7818608E-02  0.8343598E-01
         -1   -1    0    0    0  501 -0.00000000000E+00  0.00000000000E+00  0.19729512404E+04  0.19729512404E+04  0.00000000000E+00 0.  1.
          2   -1    0    0  501    0  0.00000000000E+00 -0.00000000000E+00 -0.90581576601E+03  0.90581576601E+03  0.00000000000E+00 0. -1.
         24    2    1    2    0    0  0.92879671180E+03  0.41003189583E+03 -0.18878132787E+03  0.10357177520E+04  0.79267803108E+02 0.  0.
        254    2    1    2    0    0 -0.92879671180E+03 -0.41003189583E+03  0.12559168023E+04  0.18430492544E+04  0.88809574516E+03 0.  0.
         23    2    4    4    0    0 -0.33493955218E+03 -0.11255804199E+02  0.10254044409E+04  0.10860666830E+04  0.12560006254E+03 0.  0.
         23    2    4    4    0    0 -0.59385715963E+03 -0.39877609163E+03  0.23051236141E+03  0.75698257149E+03  0.90542627955E+02 0.  0.
          2    1    3    3  502    0  0.86422653097E+03  0.39990182486E+03 -0.18625366741E+03  0.97030891730E+03  0.00000000000E+00 0. -1.
         -1    1    3    3    0  502  0.64570180832E+02  0.10130070974E+02 -0.25276604576E+01  0.65408834709E+02  0.00000000000E+00 0.  1.
         11    1    5    5    0    0 -0.38011075317E+02 -0.42287741694E+02  0.12175445523E+03  0.13437723882E+03  0.00000000000E+00 0.  1.
        -11    1    5    5    0    0 -0.29692847686E+03  0.31031937496E+02  0.90364998566E+03  0.95168944414E+03  0.00000000000E+00 0. -1.
          1    1    6    6  503    0 -0.22038715167E+03 -0.20160258665E+03  0.98322894950E+02  0.31445427527E+03  0.00000000000E+00 0. -1.
         -1    1    6    6    0  503 -0.37347000796E+03 -0.19717350499E+03  0.13218946646E+03  0.44252829622E+03  0.00000000000E+00 0.  1.
<mgrwt>
<rscale>  0 0.26736719E+04</rscale>
<asrwt>0</asrwt>
<pdfrwt beam="1">  1        2 0.13935627E+00 0.26736719E+04</pdfrwt>
<pdfrwt beam="2">  1       -1 0.30353096E+00 0.26736719E+04</pdfrwt>
<totfact> 0.91245009E-01</totfact>
</mgrwt>
</event>
<event>
11    6  0.1705838E-008  0.3144381E+04  0.7818608E-02  0.8203662E-01
         -1   -1    0    0    0  501 -0.00000000000E+00  0.00000000000E+00  0.13322390890E+04  0.13322390890E+04  0.00000000000E+00 0.  1.
          2   -1    0    0  501    0  0.00000000000E+00 -0.00000000000E+00 -0.18553603518E+04  0.18553603518E+04  0.00000000000E+00 0. -1.
         24    2    1    2    0    0 -0.39921792005E+03  0.11210737061E+04 -0.10697173668E+04  0.16020941061E+04  0.78924505126E+02 0.  0.
        254    2    1    2    0    0  0.39921792005E+03 -0.11210737061E+04  0.54659610398E+03  0.15855053347E+04  0.89380012480E+03 0.  0.
         23    2    4    4    0    0  0.44926431912E+02 -0.13525926136E+02  0.38773848801E+03  0.40082180790E+03  0.90086911618E+02 0.  0.
          4    1    3    3  502    0 -0.10080597438E+01 -0.13202502546E+01 -0.20650008178E+01  0.26501836841E+01  0.00000000000E+00 0. -1.
         -3    1    3    3    0  502 -0.39820986030E+03  0.11223939564E+04 -0.10676523660E+04  0.15994439224E+04  0.00000000000E+00 0.  1.
         11    1    4    4    0    0  0.34283037810E+03 -0.98733380566E+03  0.98816031727E+02  0.10498215658E+04  0.00000000000E+00 0.  1.
        -11    1    4    4    0    0  0.11461110032E+02 -0.12021397435E+03  0.60041584244E+02  0.13486196095E+03  0.00000000000E+00 0. -1.
          1    1    5    5  503    0 -0.94095794595E+01  0.24516910780E+02  0.48437497726E+02  0.55098187682E+02  0.00000000000E+00 0. -1.
         -1    1    5    5    0  503  0.54336011372E+02 -0.38042836916E+02  0.33930099028E+03  0.34572362022E+03  0.00000000000E+00 0.  1.
<mgrwt>
<rscale>  0 0.31443814E+04</rscale>
<asrwt>0</asrwt>
<pdfrwt beam="1">  1        2 0.28544005E+00 0.31443814E+04</pdfrwt>
<pdfrwt beam="2">  1       -1 0.20495986E+00 0.31443814E+04</pdfrwt>
<totfact> 0.10766771E+00</totfact>
</mgrwt>
</event>
<event>
12    6  0.1705838E-008  0.1961900E+04  0.7818608E-02  0.8624644E-01
         -1   -1    0    0    0  501 -0.00000000000E+00  0.00000000000E+00  0.12974959940E+04  0.12974959940E+04  0.00000000000E+00 0.  1.
          2   -1    0    0  501    0  0.00000000000E+00 -0.00000000000E+00 -0.74163063612E+03  0.74163063612E+03  0.00000000000E+00 0. -1.
         24    2    1    2    0    0 -0.33991651548E+03 -0.22033452957E+03 -0.46241823997E+03  0.62009531809E+03  0.81222117972E+02 0.  0.
        254    2    1    2    0    0  0.33991651548E+03  0.22033452957E+03  0.10182835979E+04  0.14190313120E+04  0.90147536652E+03 0.  0.
         23    2    4    4    0    0  0.64141037618E+03  0.15057446958E+03  0.69752766377E+03  0.96575784879E+03  0.10983368890E+03 0.  0.
         23    2    4    4    0    0 -0.30149386070E+03  0.69760059987E+02  0.32075593409E+03  0.45327346324E+03  0.82507267654E+02 0.  0.
          4    1    3    3  502    0 -0.34116309664E+03 -0.20966117995E+03 -0.45827823892E+03  0.60857950438E+03  0.00000000000E+00 0. -1.
         -3    1    3    3    0  502  0.12465811571E+01 -0.10673349624E+02 -0.41400010469E+01  0.11515813712E+02  0.00000000000E+00 0.  1.
         11    1    5    5    0    0  0.12228238283E+03  0.70695763415E+02  0.12263968594E+03  0.18705978906E+03  0.00000000000E+00 0.  1.
        -11    1    5    5    0    0  0.51912799335E+03  0.79878706169E+02  0.57488797783E+03  0.77869805973E+03  0.00000000000E+00 0. -1.
          4    1    6    6  503    0 -0.27174306165E+03  0.36104067245E+02  0.26092885005E+03  0.37845958835E+03  0.00000000000E+00 0. -1.
         -4    1    6    6    0  503 -0.29750799051E+02  0.33655992742E+02  0.59827084032E+02  0.74813874885E+02  0.00000000000E+00 0.  1.
<mgrwt>
<rscale>  0 0.19618999E+04</rscale>
<asrwt>0</asrwt>
<pdfrwt beam="1">  1        2 0.11409702E+00 0.19618999E+04</pdfrwt>
<pdfrwt beam="2">  1       -1 0.19961477E+00 0.19618999E+04</pdfrwt>
<totfact> 0.61285776E+00</totfact>
</mgrwt>
</event>
<event>
12    6  0.1705838E-008  0.1479385E+04  0.7818608E-02  0.8898279E-01
         -1   -1    0    0    0  501 -0.00000000000E+00  0.00000000000E+00  0.64770169943E+03  0.64770169943E+03  0.00000000000E+00 0.  1.
          2   -1    0    0  501    0  0.00000000000E+00 -0.00000000000E+00 -0.84474825348E+03  0.84474825348E+03  0.00000000000E+00 0. -1.
         24    2    1    2    0    0  0.21669551270E+03 -0.79402013006E+02 -0.44610512147E+03  0.50901074500E+03  0.82586525758E+02 0.  0.
        254    2    1    2    0    0 -0.21669551270E+03  0.79402013006E+02  0.24905856742E+03  0.98343920791E+03  0.92296309827E+03 0.  0.
         23    2    4    4    0    0 -0.51750869153E+03 -0.56870288368E+02  0.33767164618E+03  0.62948092732E+03  0.10571008330E+03 0.  0.
         23    2    4    4    0    0  0.30081317884E+03  0.13627230137E+03 -0.88613078761E+02  0.35395828059E+03  0.91517637596E+02 0.  0.
          4    1    3    3  502    0  0.20535485982E+03 -0.65102248488E+02 -0.34845989866E+03  0.40967453202E+03  0.00000000000E+00 0. -1.
         -3    1    3    3    0  502  0.11340652876E+02 -0.14299764519E+02 -0.97645222810E+02  0.99336212987E+02  0.00000000000E+00 0.  1.
         11    1    5    5    0    0 -0.49393374859E+03 -0.38344540704E+02  0.33757474114E+03  0.59949775451E+03  0.00000000000E+00 0. -1.
        -11    1    5    5    0    0 -0.23574942943E+02 -0.18525747664E+02  0.96905033697E-01  0.29983172812E+02  0.00000000000E+00 0.  1.
          3    1    6    6  503    0  0.20572898552E+03  0.73054857785E+02 -0.98181643436E+02  0.23937640409E+03  0.00000000000E+00 0. -1.
         -3    1    6    6    0  503  0.95084193318E+02  0.63217443590E+02  0.95685646759E+01  0.11458187650E+03  0.00000000000E+00 0.  1.
<mgrwt>
<rscale>  0 0.14793848E+04</rscale>
<asrwt>0</asrwt>
<pdfrwt beam="1">  1        2 0.12996127E+00 0.14793848E+04</pdfrwt>
<pdfrwt beam="2">  1       -1 0.99646416E-01 0.14793848E+04</pdfrwt>
<totfact> 0.33986315E+01</totfact>
</mgrwt>
</event>
<event>
11    6  0.1705838E-008  0.2492081E+04  0.7818608E-02  0.8405812E-01
          2   -1    0    0  501    0  0.00000000000E+00  0.00000000000E+00  0.16299455671E+04  0.16299455671E+04  0.00000000000E+00 0. -1.
         -3   -1    0    0    0  501 -0.00000000000E+00 -0.00000000000E+00 -0.95255715885E+03  0.95255715885E+03  0.00000000000E+00 0.  1.
         24    2    1    2    0    0  0.79419120142E+03  0.31024221134E+03 -0.39389267611E+03  0.94378232834E+03  0.92648523360E+02 0.  0.
        254    2    1    2    0    0 -0.79419120142E+03 -0.31024221134E+03  0.10712810844E+04  0.16387203977E+04  0.90042850122E+03 0.  0.
         23    2    4    4    0    0 -0.44964752266E+03  0.93452530866E+02  0.97363932287E+03  0.10803245130E+04  0.90615959507E+02 0.  0.
          4    1    3    3  502    0  0.40290672906E+02  0.19738615080E+02 -0.45602744572E+02  0.63973131556E+02  0.00000000000E+00 0. -1.
         -3    1    3    3    0  502  0.75390052851E+03  0.29050359625E+03 -0.34828993154E+03  0.87980919678E+03  0.00000000000E+00 0.  1.
         11    1    4    4    0    0  0.13717362129E+02 -0.88275621070E+01 -0.24364162781E+00  0.16314142263E+02  0.00000000000E+00 0. -1.
        -11    1    4    4    0    0 -0.35826104088E+03 -0.39486718009E+03  0.97885403167E+02  0.54208174244E+03  0.00000000000E+00 0.  1.
          3    1    5    5  503    0 -0.18071701364E+03  0.24646453010E+02  0.29140538980E+03  0.34377781759E+03  0.00000000000E+00 0. -1.
         -3    1    5    5    0  503 -0.26893050902E+03  0.68806077856E+02  0.68223393307E+03  0.73654669538E+03  0.00000000000E+00 0.  1.
<mgrwt>
<rscale>  0 0.24920805E+04</rscale>
<asrwt>0</asrwt>
<pdfrwt beam="1">  1        2 0.25076086E+00 0.24920805E+04</pdfrwt>
<pdfrwt beam="2">  1       -3 0.14654726E+00 0.24920805E+04</pdfrwt>
<totfact> 0.20804745E+00</totfact>
</mgrwt>
</event>
<event>
12    6  0.1705838E-008  0.2469588E+04  0.7818608E-02  0.8413901E-01
          2   -1    0    0  501    0  0.00000000000E+00  0.00000000000E+00  0.17743556894E+04  0.17743556894E+04  0.00000000000E+00 0. -1.
         -1   -1    0    0    0  501 -0.00000000000E+00 -0.00000000000E+00 -0.85930663881E+03  0.85930663881E+03  0.00000000000E+00 0.  1.
         24    2    1    2    0    0  0.65604943513E+03 -0.73178893048E+03  0.84616815328E+03  0.12994008957E+04  0.80785172471E+02 0.  0.
        254    2    1    2    0    0 -0.65604943513E+03  0.73178893048E+03  0.68880897272E+02  0.13342614324E+04  0.89977391158E+03 0.  0.
         23    2    4    4    0    0 -0.81331049952E+02 -0.44775910897E+02  0.31133145768E+03  0.33391181602E+03  0.77137555395E+02 0.  0.
         23    2    4    4    0    0 -0.57471838518E+03  0.77656484138E+03 -0.24245056041E+03  0.10003496164E+04  0.92535969755E+02 0.  0.
          2    1    3    3  502    0  0.64153233747E+03 -0.71860343309E+03  0.84184393311E+03  0.12793185068E+04  0.00000000000E+00 0. -1.
         -1    1    3    3    0  502  0.14517097663E+02 -0.13185497390E+02  0.43242201666E+01  0.20082388952E+02  0.00000000000E+00 0.  1.
         11    1    5    5    0    0 -0.27799386604E+02 -0.18880835495E+02  0.23379332101E+03  0.23619612357E+03  0.00000000000E+00 0. -1.
        -11    1    5    5    0    0 -0.53531663348E+02 -0.25895075402E+02  0.77538136673E+02  0.97715692443E+02  0.00000000000E+00 0.  1.
          1    1    6    6  503    0 -0.15233187893E+03  0.17755920276E+03 -0.96163577229E+02  0.25294209893E+03  0.00000000000E+00 0. -1.
         -1    1    6    6    0  503 -0.42238650625E+03  0.59900563862E+03 -0.14628698318E+03  0.74740751749E+03  0.00000000000E+00 0.  1.
<mgrwt>
<rscale>  0 0.24695875E+04</rscale>
<asrwt>0</asrwt>
<pdfrwt beam="1">  1        2 0.27297780E+00 0.24695875E+04</pdfrwt>
<pdfrwt beam="2">  1       -1 0.13220102E+00 0.24695875E+04</pdfrwt>
<totfact> 0.44105498E+00</totfact>
</mgrwt>
</event>
<event>
12    6  0.1705838E-008  0.1659278E+04  0.7818608E-02  0.8784936E-01
         -1   -1    0    0    0  501 -0.00000000000E+00  0.00000000000E+00  0.82332185174E+03  0.82332185174E+03  0.00000000000E+00 0.  1.
          2   -1    0    0  501    0  0.00000000000E+00 -0.00000000000E+00 -0.83600485437E+03  0.83600485437E+03  0.00000000000E+00 0. -1.
         24    2    1    2    0    0 -0.20874492820E+03 -0.37163543799E+02  0.51502422990E+03  0.55975348220E+03  0.55842899376E+02 0.  0.
        254    2    1    2    0    0  0.20874492820E+03  0.37163543799E+02 -0.52770723253E+03  0.10995732239E+04  0.94107958082E+03 0.  0.
         23    2    4    4    0    0  0.49529692542E+03  0.16749197746E+02 -0.17130206551E+02  0.50660758430E+03  0.10372184215E+03 0.  0.
         23    2    4    4    0    0 -0.28655199722E+03  0.20414346053E+02 -0.51057702598E+03  0.59296563961E+03  0.91599987257E+02 0.  0.
          4    1    3    3  502    0 -0.78939864067E+02 -0.29244739784E+02  0.14660375152E+03  0.16905447910E+03  0.00000000000E+00 0. -1.
         -3    1    3    3    0  502 -0.12980506413E+03 -0.79188040146E+01  0.36842047838E+03  0.39069900309E+03  0.00000000000E+00 0.  1.
         11    1    5    5    0    0  0.19476881493E+02  0.92191815510E+01  0.19843922310E+02  0.29293744619E+02  0.00000000000E+00 0.  1.
        -11    1    5    5    0    0  0.47582004393E+03  0.75300161952E+01 -0.36974128861E+02  0.47731383968E+03  0.00000000000E+00 0. -1.
          3    1    6    6  503    0 -0.16728969526E+03  0.46795075601E+02 -0.24173379967E+03  0.29767574833E+03  0.00000000000E+00 0. -1.
         -3    1    6    6    0  503 -0.11926230196E+03 -0.26380729549E+02 -0.26884322631E+03  0.29528989128E+03  0.00000000000E+00 0.  1.
<mgrwt>
<rscale>  0 0.16592782E+04</rscale>
<asrwt>0</asrwt>
<pdfrwt beam="1">  1        2 0.12861613E+00 0.16592782E+04</pdfrwt>
<pdfrwt beam="2">  1       -1 0.12666490E+00 0.16592782E+04</pdfrwt>
<totfact> 0.19156893E+01</totfact>
</mgrwt>
</event>
<event>
12    6  0.1705838E-008  0.1648808E+04  0.7818608E-02  0.8791112E-01
          2   -1    0    0  501    0  0.00000000000E+00  0.00000000000E+00  0.69855364159E+03  0.69855364159E+03  0.00000000000E+00 0. -1.
         -1   -1    0    0    0  501 -0.00000000000E+00 -0.00000000000E+00 -0.97292678206E+03  0.97292678206E+03  0.00000000000E+00 0.  1.
         24    2    1    2    0    0 -0.58077201005E+02  0.27812319163E+03 -0.60278328922E+03  0.67110536483E+03  0.79430761947E+02 0.  0.
        254    2    1    2    0    0  0.58077201005E+02 -0.27812319163E+03  0.32841014875E+03  0.10003750588E+04  0.90120561555E+03 0.  0.
         23    2    4    4    0    0  0.39907715120E+03 -0.25591056632E+03 -0.40582929619E+02  0.48788310452E+03  0.10784321461E+03 0.  0.
         23    2    4    4    0    0 -0.34099995019E+03 -0.22212625307E+02  0.36899307837E+03  0.51249195429E+03  0.98578621282E+02 0.  0.
          4    1    3    3  502    0 -0.36418253459E+02  0.13063349255E+03 -0.20019983017E+03  0.24180854112E+03  0.00000000000E+00 0. -1.
         -3    1    3    3    0  502 -0.21658947546E+02  0.14748969908E+03 -0.40258345905E+03  0.42929682371E+03  0.00000000000E+00 0.  1.
         11    1    5    5    0    0  0.46414365735E+02 -0.22868822701E+02 -0.39632981695E+02  0.65177063729E+02  0.00000000000E+00 0. -1.
        -11    1    5    5    0    0  0.35266278546E+03 -0.23304174362E+03 -0.94994792406E+00  0.42270604079E+03  0.00000000000E+00 0.  1.
          3    1    6    6  503    0 -0.43074373459E+02  0.30735670399E+02  0.60283692314E+02  0.80213506610E+02  0.00000000000E+00 0. -1.
         -3    1    6    6    0  503 -0.29792557674E+03 -0.52948295706E+02  0.30870938606E+03  0.43227844768E+03  0.00000000000E+00 0.  1.
<mgrwt>
<rscale>  0 0.16488075E+04</rscale>
<asrwt>0</asrwt>
<pdfrwt beam="1">  1        2 0.10746979E+00 0.16488075E+04</pdfrwt>
<pdfrwt beam="2">  1       -1 0.14968104E+00 0.16488075E+04</pdfrwt>
<totfact> 0.15729169E+01</totfact>
</mgrwt>
</event>
<event>
12    6  0.1705838E-008  0.1517532E+04  0.7818608E-02  0.8872878E-01
         -3   -1    0    0    0  501 -0.00000000000E+00  0.00000000000E+00  0.55409730261E+03  0.55409730261E+03  0.00000000000E+00 0.  1.
          2   -1    0    0  501    0  0.00000000000E+00 -0.00000000000E+00 -0.10390332639E+04  0.10390332639E+04  0.00000000000E+00 0. -1.
         24    2    1    2    0    0 -0.76981653193E+02  0.47532754493E+03 -0.24264510725E+03  0.54545604779E+03  0.82360197325E+02 0.  0.
        254    2    1    2    0    0  0.76981653193E+02 -0.47532754493E+03 -0.24229085404E+03  0.10476745187E+04  0.89836217046E+03 0.  0.
         23    2    4    4    0    0  0.24923773420E+03  0.32665288140E+02 -0.39360560870E+03  0.48126526968E+03  0.11620849966E+03 0.  0.
         23    2    4    4    0    0 -0.17225608101E+03 -0.50799283307E+03  0.15131475466E+03  0.56640924904E+03  0.10096735375E+03 0.  0.
          2    1    3    3  502    0 -0.86809293656E+02  0.46658775492E+03 -0.23072551865E+03  0.52770659600E+03  0.00000000000E+00 0. -1.
         -1    1    3    3    0  502  0.98276404629E+01  0.87397900112E+01 -0.11919588605E+02  0.17749451795E+02  0.00000000000E+00 0.  1.
         11    1    5    5    0    0  0.20492295403E+02 -0.21235219447E+02 -0.95605815506E+01  0.31020532482E+02  0.00000000000E+00 0. -1.
        -11    1    5    5    0    0  0.22874543880E+03  0.53900507587E+02 -0.38404502715E+03  0.45024473719E+03  0.00000000000E+00 0.  1.
          4    1    6    6  503    0 -0.12607425576E+03 -0.44675240015E+03  0.15560698874E+03  0.48958754064E+03  0.00000000000E+00 0.  1.
         -4    1    6    6    0  503 -0.46181825255E+02 -0.61240432916E+02 -0.42922340777E+01  0.76821708397E+02  0.00000000000E+00 0. -1.
<mgrwt>
<rscale>  0 0.15175316E+04</rscale>
<asrwt>0</asrwt>
<pdfrwt beam="1">  1        2 0.15985127E+00 0.15175316E+04</pdfrwt>
<pdfrwt beam="2">  1       -3 0.85245738E-01 0.15175316E+04</pdfrwt>
<totfact> 0.18377539E+01</totfact>
</mgrwt>
</event>
<event>
12    6  0.1705838E-008  0.1351648E+04  0.7818608E-02  0.8989581E-01
          2   -1    0    0  501    0  0.00000000000E+00  0.00000000000E+00  0.18491152884E+04  0.18491152884E+04  0.00000000000E+00 0. -1.
         -1   -1    0    0    0  501 -0.00000000000E+00 -0.00000000000E+00 -0.24700362705E+03  0.24700362705E+03  0.00000000000E+00 0.  1.
         24    2    1    2    0    0 -0.20174415813E+03  0.16881969159E+02  0.78857977328E+03  0.81802395301E+03  0.79494796336E+02 0.  0.
        254    2    1    2    0    0  0.20174415813E+03 -0.16881969159E+02  0.81353188805E+03  0.12780949624E+04  0.96473151389E+03 0.  0.
         23    2    4    4    0    0  0.19006983918E+03  0.44920599566E+03  0.50673106294E+03  0.71250441976E+03  0.11390174593E+03 0.  0.
         23    2    4    4    0    0  0.11674318956E+02 -0.46608796482E+03  0.30680082511E+03  0.56559054267E+03  0.91605867658E+02 0.  0.
          2    1    3    3  502    0 -0.20733542898E+03  0.11626164120E+02  0.77584909592E+03  0.80315936615E+03  0.00000000000E+00 0. -1.
         -1    1    3    3    0  502  0.55912708457E+01  0.52558050388E+01  0.12730677362E+02  0.14864586855E+02  0.00000000000E+00 0.  1.
         11    1    5    5    0    0  0.75137285847E+02  0.23820581234E+03  0.33176485605E+03  0.41527766671E+03  0.00000000000E+00 0.  1.
        -11    1    5    5    0    0  0.11493255333E+03  0.21100018332E+03  0.17496620689E+03  0.29722675305E+03  0.00000000000E+00 0. -1.
          1    1    6    6  503    0 -0.37562984887E+02 -0.24102417483E+03  0.14108570921E+03  0.28179568490E+03  0.00000000000E+00 0. -1.
         -1    1    6    6    0  503  0.49237303843E+02 -0.22506379000E+03  0.16571511590E+03  0.28379485777E+03  0.00000000000E+00 0.  1.
<mgrwt>
<rscale>  0 0.13516482E+04</rscale>
<asrwt>0</asrwt>
<pdfrwt beam="1">  1        2 0.28447927E+00 0.13516482E+04</pdfrwt>
<pdfrwt beam="2">  1       -1 0.38000559E-01 0.13516482E+04</pdfrwt>
<totfact> 0.60318819E+01</totfact>
</mgrwt>
</event>
<event>
11    6  0.1705838E-008  0.1909558E+04  0.7818608E-02  0.8650114E-01
         -1   -1    0    0    0  501 -0.00000000000E+00  0.00000000000E+00  0.32760249328E+03  0.32760249328E+03  0.00000000000E+00 0.  1.
          2   -1    0    0  501    0  0.00000000000E+00 -0.00000000000E+00 -0.27826482021E+04  0.27826482021E+04  0.00000000000E+00 0. -1.
         24    2    1    2    0    0 -0.41552379993E+03  0.21227707303E+03 -0.23771634252E+02  0.47412689828E+03  0.80682346469E+02 0.  0.
        254    2    1    2    0    0  0.41552379993E+03 -0.21227707303E+03 -0.24312740746E+04  0.26361237971E+04  0.90572261976E+03 0.  0.
         23    2    4    4    0    0  0.39345567373E+02 -0.24131477167E+03 -0.12517107660E+03  0.28901165132E+03  0.89883499503E+02 0.  0.
          4    1    3    3  502    0 -0.50161908771E+02  0.19567415449E+01  0.10060863026E+02  0.51198309482E+02  0.00000000000E+00 0. -1.
         -3    1    3    3    0  502 -0.36536189116E+03  0.21032033149E+03 -0.33832497278E+02  0.42292858880E+03  0.00000000000E+00 0.  1.
         11    1    4    4    0    0  0.29101678455E+03 -0.40614077299E+01 -0.11099221408E+04  0.11474469149E+04  0.00000000000E+00 0.  1.
        -11    1    4    4    0    0  0.85161448013E+02  0.33099106373E+02 -0.11961808572E+04  0.11996652309E+04  0.00000000000E+00 0. -1.
          4    1    5    5  503    0  0.36526509983E+02 -0.23853718418E+03 -0.13633519022E+03  0.27716684192E+03  0.00000000000E+00 0. -1.
         -4    1    5    5    0  503  0.28190573907E+01 -0.27775874920E+01  0.11164113619E+02  0.11844809401E+02  0.00000000000E+00 0.  1.
<mgrwt>
<rscale>  0 0.19095575E+04</rscale>
<asrwt>0</asrwt>
<pdfrwt beam="1">  1        2 0.42809974E+00 0.19095575E+04</pdfrwt>
<pdfrwt beam="2">  1       -1 0.50400382E-01 0.19095575E+04</pdfrwt>
<totfact> 0.99958566E+00</totfact>
</mgrwt>
</event>
<event>
12    6  0.1705838E-008  0.3143151E+04  0.7818608E-02  0.8203994E-01
          2   -1    0    0  501    0  0.00000000000E+00  0.00000000000E+00  0.32267017095E+04  0.32267017095E+04  0.00000000000E+00 0. -1.
         -1   -1    0    0    0  501 -0.00000000000E+00 -0.00000000000E+00 -0.76544114486E+03  0.76544114486E+03  0.00000000000E+00 0.  1.
         24    2    1    2    0    0 -0.13138544787E+04 -0.48537678434E+03  0.69951334922E+03  0.15676615141E+04  0.80246388816E+02 0.  0.
        254    2    1    2    0    0  0.13138544787E+04  0.48537678434E+03  0.17617472154E+04  0.24244813403E+04  0.90141683162E+03 0.  0.
         23    2    4    4    0    0  0.12945301972E+03  0.32042750644E+03  0.86299807704E+02  0.36400845532E+03  0.74984181904E+02 0.  0.
         23    2    4    4    0    0  0.11844014590E+04  0.16494927790E+03  0.16754474077E+04  0.20604728850E+04  0.91702853404E+02 0.  0.
          2    1    3    3  502    0 -0.20478842081E+03 -0.88053493636E+02  0.14210752091E+03  0.26436010013E+03  0.00000000000E+00 0. -1.
         -1    1    3    3    0  502 -0.11090660579E+04 -0.39732329070E+03  0.55740582831E+03  0.13033014139E+04  0.00000000000E+00 0.  1.
         11    1    5    5    0    0  0.10550719161E+03  0.19039705862E+03  0.79076808976E+02  0.23159436334E+03  0.00000000000E+00 0.  1.
        -11    1    5    5    0    0  0.23945828114E+02  0.13003044782E+03  0.72229987276E+01  0.13241409198E+03  0.00000000000E+00 0. -1.
          2    1    6    6  503    0  0.10851203806E+04  0.17398279794E+03  0.15543960830E+04  0.19036552831E+04  0.00000000000E+00 0. -1.
         -2    1    6    6    0  503  0.99281078435E+02 -0.90335200400E+01  0.12105132472E+03  0.15681760181E+03  0.00000000000E+00 0.  1.
<mgrwt>
<rscale>  0 0.31431514E+04</rscale>
<asrwt>0</asrwt>
<pdfrwt beam="1">  1        2 0.49641564E+00 0.31431514E+04</pdfrwt>
<pdfrwt beam="2">  1       -1 0.11776018E+00 0.31431514E+04</pdfrwt>
<totfact> 0.77515468E-01</totfact>
</mgrwt>
</event>
<event>
11    6  0.1705838E-008  0.2101787E+04  0.7818608E-02  0.8560456E-01
         -1   -1    0    0    0  501 -0.00000000000E+00  0.00000000000E+00  0.11772959962E+04  0.11772959962E+04  0.00000000000E+00 0.  1.
          2   -1    0    0  501    0  0.00000000000E+00 -0.00000000000E+00 -0.93806286105E+03  0.93806286105E+03  0.00000000000E+00 0. -1.
         24    2    1    2    0    0 -0.24718862077E+03  0.56326195905E+03  0.69162510133E+03  0.92896654199E+03  0.79166322334E+02 0.  0.
        254    2    1    2    0    0  0.24718862077E+03 -0.56326195905E+03 -0.45239196621E+03  0.11863923152E+04  0.90802091703E+03 0.  0.
         23    2    4    4    0    0 -0.17132093740E+03  0.95985934833E+02 -0.25099107655E+03  0.33218847951E+03  0.93747011341E+02 0.  0.
          2    1    3    3  502    0 -0.59629009828E+02  0.69395194353E+02  0.90429882263E+02  0.12864243242E+03  0.00000000000E+00 0. -1.
         -1    1    3    3    0  502 -0.18755961094E+03  0.49386676470E+03  0.60119521906E+03  0.80032410957E+03  0.00000000000E+00 0.  1.
         11    1    4    4    0    0  0.12342641311E+02 -0.71493766703E+02 -0.11303928691E+03  0.13431894824E+03  0.00000000000E+00 0.  1.
        -11    1    4    4    0    0  0.40616691685E+03 -0.58775412718E+03 -0.88361602755E+02  0.71988488747E+03  0.00000000000E+00 0. -1.
          3    1    5    5  503    0 -0.16823808499E+03  0.10196484662E+03 -0.25666728710E+03  0.32338673358E+03  0.00000000000E+00 0. -1.
         -3    1    5    5    0  503 -0.30828524038E+01 -0.59789117913E+01  0.56762105513E+01  0.88017459276E+01  0.00000000000E+00 0.  1.
<mgrwt>
<rscale>  0 0.21017875E+04</rscale>
<asrwt>0</asrwt>
<pdfrwt beam="1">  1        2 0.14431736E+00 0.21017875E+04</pdfrwt>
<pdfrwt beam="2">  1       -1 0.18112246E+00 0.21017875E+04</pdfrwt>
<totfact> 0.59365334E+00</totfact>
</mgrwt>
</event>
<event>
11    6  0.1705838E-008  0.2666002E+04  0.7818608E-02  0.8346121E-01
          2   -1    0    0  501    0  0.00000000000E+00  0.00000000000E+00  0.30644750666E+04  0.30644750666E+04  0.00000000000E+00 0. -1.
         -1   -1    0    0    0  501 -0.00000000000E+00 -0.00000000000E+00 -0.57983570255E+03  0.57983570255E+03  0.00000000000E+00 0.  1.
         24    2    1    2    0    0  0.39637448703E+03 -0.42956439154E+03  0.25070741684E+04  0.25755499559E+04  0.79989930439E+02 0.  0.
        254    2    1    2    0    0 -0.39637448703E+03  0.42956439154E+03 -0.22434804317E+02  0.10687608133E+04  0.89448759363E+03 0.  0.
         23    2    4    4    0    0 -0.49081418355E+02 -0.20193950944E+03 -0.16247561125E+03  0.27953956626E+03  0.92495912071E+02 0.  0.
          2    1    3    3  502    0  0.36401848240E+03 -0.41321346153E+03  0.22774743385E+04  0.23431056704E+04  0.00000000000E+00 0. -1.
         -1    1    3    3    0  502  0.32356004629E+02 -0.16350930014E+02  0.22959982994E+03  0.23244428549E+03  0.00000000000E+00 0.  1.
         11    1    4    4    0    0 -0.22774876368E+03  0.26969657965E+03 -0.61260388402E+02  0.35827165618E+03  0.00000000000E+00 0. -1.
        -11    1    4    4    0    0 -0.11954430500E+03  0.36180732133E+03  0.20130119534E+03  0.43094959087E+03  0.00000000000E+00 0.  1.
          1    1    5    5  503    0 -0.31871151911E+02 -0.90771601637E+01 -0.16302373131E+02  0.36931457194E+02  0.00000000000E+00 0. -1.
         -1    1    5    5    0  503 -0.17210266443E+02 -0.19286234928E+03 -0.14617323812E+03  0.24260810906E+03  0.00000000000E+00 0.  1.
<mgrwt>
<rscale>  0 0.26660023E+04</rscale>
<asrwt>0</asrwt>
<pdfrwt beam="1">  1        2 0.47145769E+00 0.26660023E+04</pdfrwt>
<pdfrwt beam="2">  1       -1 0.89205495E-01 0.26660023E+04</pdfrwt>
<totfact> 0.19528159E+00</totfact>
</mgrwt>
</event>
<event>
11    6  0.1705838E-008  0.2053970E+04  0.7818608E-02  0.8581795E-01
          2   -1    0    0  501    0  0.00000000000E+00  0.00000000000E+00  0.17774545774E+04  0.17774545774E+04  0.00000000000E+00 0. -1.
         -1   -1    0    0    0  501 -0.00000000000E+00 -0.00000000000E+00 -0.59337566154E+03  0.59337566154E+03  0.00000000000E+00 0.  1.
         24    2    1    2    0    0 -0.19786442055E+03  0.61479953597E+03  0.10809936708E+04  0.12617476072E+04  0.79567012568E+02 0.  0.
        254    2    1    2    0    0  0.19786442055E+03 -0.61479953597E+03  0.10308524504E+03  0.11090826318E+04  0.89571698545E+03 0.  0.
         23    2    4    4    0    0  0.40118725980E+03 -0.28691134567E+03  0.33590326731E+03  0.60369888275E+03  0.91389268166E+02 0.  0.
          4    1    3    3  502    0 -0.16219762854E+03  0.56453251653E+03  0.94890451526E+03  0.11159860268E+04  0.00000000000E+00 0. -1.
         -3    1    3    3    0  502 -0.35666792016E+02  0.50267019442E+02  0.13208915554E+03  0.14576158036E+03  0.00000000000E+00 0.  1.
         11    1    4    4    0    0 -0.80557377105E+01  0.35300488200E+02 -0.19136440687E+02  0.40953909941E+02  0.00000000000E+00 0. -1.
        -11    1    4    4    0    0 -0.19526710154E+03 -0.36318867850E+03 -0.21368158158E+03  0.46442983909E+03  0.00000000000E+00 0.  1.
          1    1    5    5  503    0  0.11363874292E+03 -0.41078200768E+02  0.10786553348E+03  0.16197578764E+03  0.00000000000E+00 0.  1.
         -1    1    5    5    0  503  0.28754851688E+03 -0.24583314490E+03  0.22803773384E+03  0.44172309510E+03  0.00000000000E+00 0. -1.
<mgrwt>
<rscale>  0 0.20539701E+04</rscale>
<asrwt>0</asrwt>
<pdfrwt beam="1">  1        2 0.27345455E+00 0.20539701E+04</pdfrwt>
<pdfrwt beam="2">  1       -1 0.91288564E-01 0.20539701E+04</pdfrwt>
<totfact> 0.10949615E+01</totfact>
</mgrwt>
</event>
<event>
12    6  0.1705838E-008  0.1261902E+04  0.7818608E-02  0.9060335E-01
         -1   -1    0    0    0  501 -0.00000000000E+00  0.00000000000E+00  0.31559843850E+03  0.31559843850E+03  0.00000000000E+00 0.  1.
          2   -1    0    0  501    0  0.00000000000E+00 -0.00000000000E+00 -0.12614101621E+04  0.12614101621E+04  0.00000000000E+00 0. -1.
         24    2    1    2    0    0 -0.14079075175E+03  0.21888371058E+03 -0.40735818618E+03  0.48982637790E+03  0.79101669468E+02 0.  0.
        254    2    1    2    0    0  0.14079075175E+03 -0.21888371058E+03 -0.53845353744E+03  0.10871822227E+04  0.90791016013E+03 0.  0.
         23    2    4    4    0    0  0.11650460034E+03 -0.54120423532E+03 -0.49206475547E+03  0.74463120528E+03  0.76632643586E+02 0.  0.
         23    2    4    4    0    0  0.24286151410E+02  0.32232052474E+03 -0.46388781968E+02  0.34255101744E+03  0.10348402115E+03 0.  0.
          4    1    3    3  502    0 -0.10271461609E+03  0.20731540320E+03 -0.33294842727E+03  0.40544373714E+03  0.00000000000E+00 0. -1.
         -3    1    3    3    0  502 -0.38076135659E+02  0.11568307375E+02 -0.74409758906E+02  0.84382640766E+02  0.00000000000E+00 0.  1.
         11    1    5    5    0    0  0.38282948066E+02 -0.28949255521E+03 -0.29871354463E+03  0.41773353394E+03  0.00000000000E+00 0.  1.
        -11    1    5    5    0    0  0.78221652273E+02 -0.25171168011E+03 -0.19335121084E+03  0.32689767133E+03  0.00000000000E+00 0. -1.
          2    1    6    6  503    0 -0.18676852256E+02  0.16566398330E+02 -0.21226768557E+02  0.32769590586E+02  0.00000000000E+00 0. -1.
         -2    1    6    6    0  503  0.42963003666E+02  0.30575412641E+03 -0.25162013412E+02  0.30978142685E+03  0.00000000000E+00 0.  1.
<mgrwt>
<rscale>  0 0.12619019E+04</rscale>
<asrwt>0</asrwt>
<pdfrwt beam="1">  1        2 0.19406310E+00 0.12619019E+04</pdfrwt>
<pdfrwt beam="2">  1       -1 0.48553606E-01 0.12619019E+04</pdfrwt>
<totfact> 0.82777569E+01</totfact>
</mgrwt>
</event>
<event>
11    6  0.1705838E-008  0.1691842E+04  0.7818608E-02  0.8766031E-01
         -1   -1    0    0    0  501 -0.00000000000E+00  0.00000000000E+00  0.14936261236E+04  0.14936261236E+04  0.00000000000E+00 0.  1.
          2   -1    0    0  501    0  0.00000000000E+00 -0.00000000000E+00 -0.47909046473E+03  0.47909046473E+03  0.00000000000E+00 0. -1.
         24    2    1    2    0    0 -0.37249416275E+02  0.14224024927E+03  0.10797542990E+04  0.10925405806E+04  0.78458692340E+02 0.  0.
        254    2    1    2    0    0  0.37249416275E+02 -0.14224024927E+03 -0.65218640182E+02  0.88017600774E+03  0.86535341107E+03 0.  0.
         23    2    4    4    0    0 -0.64699010741E+02  0.33880554055E+03 -0.13284452289E+03  0.38240266849E+03  0.98025391127E+02 0.  0.
          2    1    3    3  502    0 -0.13705567698E+02  0.23016771145E+02  0.61776995593E+02  0.67335069053E+02  0.00000000000E+00 0. -1.
         -1    1    3    3    0  502 -0.23543848577E+02  0.11922347812E+03  0.10179773034E+04  0.10252055115E+04  0.00000000000E+00 0.  1.
         11    1    4    4    0    0  0.93206032019E+02 -0.41657703430E+03  0.46657972735E+02  0.42941909172E+03  0.00000000000E+00 0.  1.
        -11    1    4    4    0    0  0.87423949968E+01 -0.64468755515E+02  0.20967909975E+02  0.68354247539E+02  0.00000000000E+00 0. -1.
          1    1    5    5  503    0  0.19915392444E+02  0.46159411213E+02 -0.39050096511E+02  0.63657082381E+02  0.00000000000E+00 0. -1.
         -1    1    5    5    0  503 -0.84614403184E+02  0.29264612934E+03 -0.93794426382E+02  0.31874558611E+03  0.00000000000E+00 0.  1.
<mgrwt>
<rscale>  0 0.16918416E+04</rscale>
<asrwt>0</asrwt>
<pdfrwt beam="1">  1        2 0.73706226E-01 0.16918416E+04</pdfrwt>
<pdfrwt beam="2">  1       -1 0.22978863E+00 0.16918416E+04</pdfrwt>
<totfact> 0.66693809E+00</totfact>
</mgrwt>
</event>
<event>
12    6  0.1705838E-008  0.3516268E+04  0.7818608E-02  0.8109945E-01
         -1   -1    0    0    0  501 -0.00000000000E+00  0.00000000000E+00  0.18357991986E+04  0.18357991986E+04  0.00000000000E+00 0.  1.
          2   -1    0    0  501    0  0.00000000000E+00 -0.00000000000E+00 -0.16837544406E+04  0.16837544406E+04  0.00000000000E+00 0. -1.
         24    2    1    2    0    0  0.13217376350E+04 -0.45489865871E+03  0.93398981080E+03  0.16828462355E+04  0.75573278239E+02 0.  0.
        254    2    1    2    0    0 -0.13217376350E+04  0.45489865871E+03 -0.78194505285E+03  0.18367074037E+04  0.89896209913E+03 0.  0.
         23    2    4    4    0    0 -0.13859064305E+04  0.56403422136E+03 -0.75909492910E+03  0.16793431261E+04  0.71393184999E+02 0.  0.
         23    2    4    4    0    0  0.64168795511E+02 -0.10913556265E+03 -0.22850123752E+02  0.15736427759E+03  0.90626609516E+02 0.  0.
          4    1    3    3  502    0  0.48440024808E+03 -0.12872496550E+03  0.32877687319E+03  0.59942301376E+03  0.00000000000E+00 0. -1.
         -3    1    3    3    0  502  0.83733738689E+03 -0.32617369321E+03  0.60521293761E+03  0.10834232218E+04  0.00000000000E+00 0.  1.
         11    1    5    5    0    0 -0.72051250363E+03  0.31959602884E+03 -0.42875189592E+03  0.89727814962E+03  0.00000000000E+00 0. -1.
        -11    1    5    5    0    0 -0.66539392686E+03  0.24443819252E+03 -0.33034303318E+03  0.78206497648E+03  0.00000000000E+00 0.  1.
          3    1    6    6  503    0  0.15221949269E+02 -0.10535004448E+03 -0.18938167591E+02  0.10811565013E+03  0.00000000000E+00 0. -1.
         -3    1    6    6    0  503  0.48946846242E+02 -0.37855181662E+01 -0.39119561612E+01  0.49248627451E+02  0.00000000000E+00 0.  1.
<mgrwt>
<rscale>  0 0.35162679E+04</rscale>
<asrwt>0</asrwt>
<pdfrwt beam="1">  1        2 0.25903915E+00 0.35162679E+04</pdfrwt>
<pdfrwt beam="2">  1       -1 0.28243064E+00 0.35162679E+04</pdfrwt>
<totfact> 0.40141765E-01</totfact>
</mgrwt>
</event>
<event>
12    6  0.1705838E-008  0.1726982E+04  0.7818608E-02  0.8746123E-01
         -1   -1    0    0    0  501 -0.00000000000E+00  0.00000000000E+00  0.46595489609E+03  0.46595489609E+03  0.00000000000E+00 0.  1.
          2   -1    0    0  501    0  0.00000000000E+00 -0.00000000000E+00 -0.16001915793E+04  0.16001915793E+04  0.00000000000E+00 0. -1.
         24    2    1    2    0    0  0.26597976706E+03 -0.33578813878E+03  0.16488135108E+03  0.46588093785E+03  0.79751349165E+02 0.  0.
        254    2    1    2    0    0 -0.26597976706E+03  0.33578813878E+03 -0.12991180343E+04  0.16002655375E+04  0.83044759798E+03 0.  0.
         23    2    4    4    0    0 -0.38020199618E+03 -0.14807292389E+03 -0.44113564566E+03  0.60445711802E+03  0.65487410661E+02 0.  0.
         23    2    4    4    0    0  0.11422222913E+03  0.48386106266E+03 -0.85798238860E+03  0.99580841950E+03  0.91281890911E+02 0.  0.
          4    1    3    3  502    0  0.55614718645E+02 -0.28132093311E+02  0.33093433616E+02  0.70566188451E+02  0.00000000000E+00 0. -1.
         -3    1    3    3    0  502  0.21036504841E+03 -0.30765604547E+03  0.13178791746E+03  0.39531474940E+03  0.00000000000E+00 0.  1.
         11    1    5    5    0    0 -0.79444354284E+01 -0.44623727235E+01  0.68514705883E+00  0.91376283078E+01  0.00000000000E+00 0. -1.
        -11    1    5    5    0    0 -0.37225756076E+03 -0.14361055116E+03 -0.44182079272E+03  0.59531948971E+03  0.00000000000E+00 0.  1.
          3    1    6    6  503    0 -0.17287381167E+01  0.16424644225E+02 -0.73154598415E+02  0.74995684827E+02  0.00000000000E+00 0. -1.
         -3    1    6    6    0  503  0.11595096725E+03  0.46743641844E+03 -0.78482779019E+03  0.92081273467E+03  0.00000000000E+00 0.  1.
<mgrwt>
<rscale>  0 0.17269825E+04</rscale>
<asrwt>0</asrwt>
<pdfrwt beam="1">  1        2 0.24618332E+00 0.17269825E+04</pdfrwt>
<pdfrwt beam="2">  1       -1 0.71685370E-01 0.17269825E+04</pdfrwt>
<totfact> 0.23692158E+01</totfact>
</mgrwt>
</event>
<event>
12    6  0.1705838E-008  0.1502788E+04  0.7818608E-02  0.8882601E-01
          2   -1    0    0  501    0  0.00000000000E+00  0.00000000000E+00  0.17648073421E+04  0.17648073421E+04  0.00000000000E+00 0. -1.
         -1   -1    0    0    0  501 -0.00000000000E+00 -0.00000000000E+00 -0.31991780808E+03  0.31991780808E+03  0.00000000000E+00 0.  1.
         24    2    1    2    0    0  0.94843921609E+02 -0.30800051485E+03  0.91608350772E+03  0.97438097410E+03  0.79684395925E+02 0.  0.
        254    2    1    2    0    0 -0.94843921609E+02  0.30800051485E+03  0.52880602631E+03  0.11103441761E+04  0.92161200584E+03 0.  0.
         23    2    4    4    0    0 -0.45732662731E+03  0.30490514810E+03  0.16107665285E+03  0.58607558353E+03  0.12419383290E+03 0.  0.
         23    2    4    4    0    0  0.36248270570E+03  0.30953667589E+01  0.36772937347E+03  0.52426859257E+03  0.90715885135E+02 0.  0.
          4    1    3    3  502    0  0.95215470576E+02 -0.31007300882E+03  0.87405991205E+03  0.93230466398E+03  0.00000000000E+00 0. -1.
         -3    1    3    3    0  502 -0.37154896676E+00  0.20724939638E+01  0.42023595669E+02  0.42076310114E+02  0.00000000000E+00 0.  1.
         11    1    5    5    0    0 -0.27881093063E+03  0.20059352829E+03  0.16096177968E+03  0.37931779967E+03  0.00000000000E+00 0.  1.
        -11    1    5    5    0    0 -0.17851569668E+03  0.10431161981E+03  0.11487316445E+00  0.20675778385E+03  0.00000000000E+00 0. -1.
          1    1    6    6  503    0  0.89147333219E+02 -0.12236894792E+02  0.43580642749E+02  0.99981303435E+02  0.00000000000E+00 0. -1.
         -1    1    6    6    0  503  0.27333537249E+03  0.15332261551E+02  0.32414873072E+03  0.42428728914E+03  0.00000000000E+00 0.  1.
<mgrwt>
<rscale>  0 0.15027885E+04</rscale>
<asrwt>0</asrwt>
<pdfrwt beam="1">  1        2 0.27150882E+00 0.15027885E+04</pdfrwt>
<pdfrwt beam="2">  1       -1 0.49218125E-01 0.15027885E+04</pdfrwt>
<totfact> 0.41083120E+01</totfact>
</mgrwt>
</event>
<event>
12    6  0.1705838E-008  0.2992549E+04  0.7818608E-02  0.8245862E-01
         -1   -1    0    0    0  501 -0.00000000000E+00  0.00000000000E+00  0.65607580492E+03  0.65607580492E+03  0.00000000000E+00 0.  1.
          2   -1    0    0  501    0  0.00000000000E+00 -0.00000000000E+00 -0.34124669842E+04  0.34124669842E+04  0.00000000000E+00 0. -1.
         24    2    1    2    0    0 -0.10915055459E+04  0.79203480602E+03 -0.10053330968E+04  0.16837536739E+04  0.75022049655E+02 0.  0.
        254    2    1    2    0    0  0.10915055459E+04 -0.79203480602E+03 -0.17510580824E+04  0.23847891152E+04  0.89571827335E+03 0.  0.
         23    2    4    4    0    0  0.18025528576E+03  0.18426224716E+03 -0.32931572586E+03  0.43211252820E+03  0.10875590077E+03 0.  0.
         23    2    4    4    0    0  0.91125026019E+03 -0.97629705318E+03 -0.14217423565E+04  0.19526765870E+04  0.89786147476E+02 0.  0.
          2    1    3    3  502    0 -0.93078712549E+03  0.65858972934E+03 -0.81957309637E+03  0.14042098009E+04  0.00000000000E+00 0. -1.
         -1    1    3    3    0  502 -0.16071842046E+03  0.13344507668E+03 -0.18576000046E+03  0.27954387301E+03  0.00000000000E+00 0.  1.
         11    1    5    5    0    0  0.97771172812E+02  0.15326251126E+03 -0.16426864665E+03  0.24501589308E+03  0.00000000000E+00 0. -1.
        -11    1    5    5    0    0  0.82484112949E+02  0.30999735900E+02 -0.16504707921E+03  0.18709663511E+03  0.00000000000E+00 0.  1.
          3    1    6    6  503    0  0.71407416540E+03 -0.71782640606E+03 -0.11064489752E+04  0.14998019861E+04  0.00000000000E+00 0. -1.
         -3    1    6    6    0  503  0.19717609479E+03 -0.25847064712E+03 -0.31529338139E+03  0.45287460088E+03  0.00000000000E+00 0.  1.
<mgrwt>
<rscale>  0 0.29925488E+04</rscale>
<asrwt>0</asrwt>
<pdfrwt beam="1">  1        2 0.52499493E+00 0.29925488E+04</pdfrwt>
<pdfrwt beam="2">  1       -1 0.10093474E+00 0.29925488E+04</pdfrwt>
<totfact> 0.84804703E-01</totfact>
</mgrwt>
</event>
<event>
12    6  0.1705838E-008  0.1403919E+04  0.7818608E-02  0.8950987E-01
          2   -1    0    0  501    0  0.00000000000E+00  0.00000000000E+00  0.21738572871E+04  0.21738572871E+04  0.00000000000E+00 0. -1.
         -1   -1    0    0    0  501 -0.00000000000E+00 -0.00000000000E+00 -0.22666953067E+03  0.22666953067E+03  0.00000000000E+00 0.  1.
         24    2    1    2    0    0 -0.16548619673E+03 -0.31911770394E+03  0.24068657650E+03  0.44015757975E+03  0.81159575052E+02 0.  0.
        254    2    1    2    0    0  0.16548619673E+03  0.31911770394E+03  0.17065011800E+04  0.19603692381E+04  0.89536555779E+03 0.  0.
         23    2    4    4    0    0  0.20410070841E+03  0.54229294539E+03  0.15773578473E+04  0.16841164069E+04  0.11158653970E+03 0.  0.
         23    2    4    4    0    0 -0.38614511678E+02 -0.22317524145E+03  0.12914333269E+03  0.27625283117E+03  0.91320082374E+02 0.  0.
          4    1    3    3  502    0 -0.28618681067E+02 -0.10847152779E+03  0.10947567232E+03  0.15674828253E+03  0.00000000000E+00 0. -1.
         -3    1    3    3    0  502 -0.13686751566E+03 -0.21064617615E+03  0.13121090419E+03  0.28340929722E+03  0.00000000000E+00 0.  1.
         11    1    5    5    0    0  0.17637303168E+03  0.48230181429E+03  0.14789838589E+04  0.15656039542E+04  0.00000000000E+00 0. -1.
        -11    1    5    5    0    0  0.27727676729E+02  0.59991131098E+02  0.98373988357E+02  0.11851245273E+03  0.00000000000E+00 0.  1.
          1    1    6    6  503    0 -0.64918806452E+02 -0.17772080652E+03  0.84059950039E+02  0.20703915500E+03  0.00000000000E+00 0. -1.
         -1    1    6    6    0  503  0.26304294775E+02 -0.45454434921E+02  0.45083382652E+02  0.69213676170E+02  0.00000000000E+00 0.  1.
<mgrwt>
<rscale>  0 0.14039191E+04</rscale>
<asrwt>0</asrwt>
<pdfrwt beam="1">  1        2 0.33443957E+00 0.14039191E+04</pdfrwt>
<pdfrwt beam="2">  1       -1 0.34872237E-01 0.14039191E+04</pdfrwt>
<totfact> 0.46305916E+01</totfact>
</mgrwt>
</event>
<event>
12    6  0.1705838E-008  0.2214447E+04  0.7818608E-02  0.8512439E-01
         -1   -1    0    0    0  501 -0.00000000000E+00  0.00000000000E+00  0.49427459694E+03  0.49427459694E+03  0.00000000000E+00 0.  1.
          2   -1    0    0  501    0  0.00000000000E+00 -0.00000000000E+00 -0.24802880276E+04  0.24802880276E+04  0.00000000000E+00 0. -1.
         24    2    1    2    0    0 -0.29120977913E+03 -0.53386512782E+03 -0.17590298772E+04  0.18628715165E+04  0.79303644089E+02 0.  0.
        254    2    1    2    0    0  0.29120977913E+03  0.53386512782E+03 -0.22698355340E+03  0.11116911080E+04  0.90250788135E+03 0.  0.
         23    2    4    4    0    0  0.34511933790E+02  0.25054644991E+03  0.33066863476E+03  0.42920622293E+03  0.10445878927E+03 0.  0.
         23    2    4    4    0    0  0.25669784534E+03  0.28331867791E+03 -0.55765218816E+03  0.68248488505E+03  0.92986011380E+02 0.  0.
          2    1    3    3  502    0 -0.27880469343E+03 -0.53195585114E+03 -0.17281373459E+04  0.18295266522E+04  0.00000000000E+00 0. -1.
         -1    1    3    3    0  502 -0.12405085698E+02 -0.19092766758E+01 -0.30892531311E+02  0.33344864363E+02  0.00000000000E+00 0.  1.
         11    1    5    5    0    0  0.41130152410E+02  0.20127452498E+03  0.31682684236E+03  0.37760081022E+03  0.00000000000E+00 0. -1.
        -11    1    5    5    0    0 -0.66182186194E+01  0.49271924930E+02  0.13841792400E+02  0.51605412709E+02  0.00000000000E+00 0.  1.
          4    1    6    6  503    0  0.11450697641E+02  0.58551060800E+02 -0.10454599461E+03  0.12037113519E+03  0.00000000000E+00 0.  1.
         -4    1    6    6    0  503  0.24524714769E+03  0.22476761711E+03 -0.45310619355E+03  0.56211374986E+03  0.00000000000E+00 0. -1.
<mgrwt>
<rscale>  0 0.22144465E+04</rscale>
<asrwt>0</asrwt>
<pdfrwt beam="1">  1        2 0.38158277E+00 0.22144465E+04</pdfrwt>
<pdfrwt beam="2">  1       -1 0.76042247E-01 0.22144465E+04</pdfrwt>
<totfact> 0.64490961E+00</totfact>
</mgrwt>
</event>
<event>
12    6  0.1705838E-008  0.2416218E+04  0.7818608E-02  0.8433457E-01
         -1   -1    0    0    0  501 -0.00000000000E+00  0.00000000000E+00  0.65404065547E+03  0.65404065547E+03  0.00000000000E+00 0.  1.
          2   -1    0    0  501    0  0.00000000000E+00 -0.00000000000E+00 -0.22315542167E+04  0.22315542167E+04  0.00000000000E+00 0. -1.
         24    2    1    2    0    0 -0.37998623746E+03  0.32830094009E+03 -0.16975680517E+04  0.17721010695E+04  0.80211361187E+02 0.  0.
        254    2    1    2    0    0  0.37998623746E+03 -0.32830094009E+03  0.12005449053E+03  0.11134938026E+04  0.98655173195E+03 0.  0.
         23    2    4    4    0    0  0.38390409177E+03 -0.23458503695E+03  0.52164260416E+03  0.69125855925E+03  0.57575151166E+02 0.  0.
         23    2    4    4    0    0 -0.39178543119E+01 -0.93715903139E+02 -0.40158811363E+03  0.42223524335E+03  0.90617700447E+02 0.  0.
          4    1    3    3  502    0 -0.33348969037E+03  0.27622462175E+03 -0.15407406427E+04  0.16004365477E+04  0.00000000000E+00 0. -1.
         -3    1    3    3    0  502 -0.46496547090E+02  0.52076318339E+02 -0.15682740906E+03  0.17166452183E+03  0.00000000000E+00 0.  1.
         11    1    5    5    0    0  0.33443034663E+03 -0.22153627101E+03  0.47786489119E+03  0.62392053208E+03  0.00000000000E+00 0.  1.
        -11    1    5    5    0    0  0.49473745143E+02 -0.13048765934E+02  0.43777712966E+02  0.67338027172E+02  0.00000000000E+00 0. -1.
          2    1    6    6  503    0  0.42323225284E+02 -0.33102558175E+02 -0.14896908201E+03  0.15836294437E+03  0.00000000000E+00 0.  1.
         -2    1    6    6    0  503 -0.46241079595E+02 -0.60613344963E+02 -0.25261903162E+03  0.26387229897E+03  0.00000000000E+00 0. -1.
<mgrwt>
<rscale>  0 0.24162179E+04</rscale>
<asrwt>0</asrwt>
<pdfrwt beam="1">  1        2 0.34331603E+00 0.24162179E+04</pdfrwt>
<pdfrwt beam="2">  1       -1 0.10062164E+00 0.24162179E+04</pdfrwt>
<totfact> 0.47578911E+00</totfact>
</mgrwt>
</event>
<event>
11    6  0.1705838E-008  0.1779815E+04  0.7818608E-02  0.8717108E-01
          2   -1    0    0  501    0  0.00000000000E+00  0.00000000000E+00  0.16254768585E+04  0.16254768585E+04  0.00000000000E+00 0. -1.
         -1   -1    0    0    0  501 -0.00000000000E+00 -0.00000000000E+00 -0.48720213180E+03  0.48720213180E+03  0.00000000000E+00 0.  1.
         24    2    1    2    0    0 -0.50678834508E+02  0.23137104759E+03  0.11564761979E+04  0.11831714594E+04  0.79728288789E+02 0.  0.
        254    2    1    2    0    0  0.50678834508E+02 -0.23137104759E+03 -0.18201471207E+02  0.92950753092E+03  0.89863899901E+03 0.  0.
         23    2    4    4    0    0  0.40512166439E+03 -0.26045874534E+03  0.15022487577E+03  0.51225255237E+03  0.88729043329E+02 0.  0.
          2    1    3    3  502    0 -0.60672538087E+02  0.19199601722E+03  0.82505734863E+03  0.84927219196E+03  0.00000000000E+00 0. -1.
         -1    1    3    3    0  502  0.99937035784E+01  0.39375030373E+02  0.33141884927E+03  0.33389926741E+03  0.00000000000E+00 0.  1.
         11    1    4    4    0    0 -0.39663380636E+02 -0.37463334082E+02 -0.10155611469E+01  0.54568457267E+02  0.00000000000E+00 0.  1.
        -11    1    4    4    0    0 -0.31477944924E+03  0.66551031836E+02 -0.16741078583E+03  0.36268652128E+03  0.00000000000E+00 0. -1.
          1    1    5    5  503    0  0.38776518529E+03 -0.26089166494E+03  0.12901218324E+03  0.48484063689E+03  0.00000000000E+00 0. -1.
         -1    1    5    5    0  503  0.17356479102E+02  0.43291959782E+00  0.21212692525E+02  0.27411915481E+02  0.00000000000E+00 0.  1.
<mgrwt>
<rscale>  0 0.17798155E+04</rscale>
<asrwt>0</asrwt>
<pdfrwt beam="1">  1        2 0.25007336E+00 0.17798155E+04</pdfrwt>
<pdfrwt beam="2">  1       -1 0.74954175E-01 0.17798155E+04</pdfrwt>
<totfact> 0.20811061E+01</totfact>
</mgrwt>
</event>
<event>
11    6  0.1705838E-008  0.1176895E+04  0.7818608E-02  0.9133324E-01
         -1   -1    0    0    0  501 -0.00000000000E+00  0.00000000000E+00  0.50747981903E+03  0.50747981903E+03  0.00000000000E+00 0.  1.
          2   -1    0    0  501    0  0.00000000000E+00 -0.00000000000E+00 -0.68233324565E+03  0.68233324565E+03  0.00000000000E+00 0. -1.
         24    2    1    2    0    0 -0.65025699903E+02 -0.12633605244E+03 -0.32140525921E+03  0.35996618832E+03  0.78007539992E+02 0.  0.
        254    2    1    2    0    0  0.65025699903E+02  0.12633605244E+03  0.14655183259E+03  0.82984687636E+03  0.80435020904E+03 0.  0.
         23    2    4    4    0    0 -0.25012497162E+03 -0.20007204362E+03  0.88243878569E+02  0.34412748040E+03  0.89696246281E+02 0.  0.
          4    1    3    3  502    0  0.14080931013E+02 -0.43839264542E+02 -0.11770906642E+03  0.12639453331E+03  0.00000000000E+00 0. -1.
         -1    1    3    3    0  502 -0.79106630916E+02 -0.82496787900E+02 -0.20369619279E+03  0.23357165502E+03  0.00000000000E+00 0.  1.
         11    1    4    4    0    0  0.28806429664E+03  0.29367250909E+03 -0.26949591220E+01  0.41137798240E+03  0.00000000000E+00 0.  1.
        -11    1    4    4    0    0  0.27086374880E+02  0.32735586969E+02  0.61002913140E+02  0.74341413559E+02  0.00000000000E+00 0. -1.
          1    1    5    5  503    0 -0.64559240893E+02 -0.34369412075E+02  0.58339481958E+02  0.93555583618E+02  0.00000000000E+00 0. -1.
         -1    1    5    5    0  503 -0.18556573073E+03 -0.16570263154E+03  0.29904396611E+02  0.25057189678E+03  0.00000000000E+00 0.  1.
<mgrwt>
<rscale>  0 0.11768948E+04</rscale>
<asrwt>0</asrwt>
<pdfrwt beam="1">  1        2 0.10497434E+00 0.11768948E+04</pdfrwt>
<pdfrwt beam="2">  1       -1 0.78073819E-01 0.11768948E+04</pdfrwt>
<totfact> 0.78514275E+01</totfact>
</mgrwt>
</event>
<event>
12    6  0.1705838E-008  0.1313362E+04  0.7818608E-02  0.9019035E-01
          2   -1    0    0  501    0  0.00000000000E+00  0.00000000000E+00  0.85589199626E+03  0.85589199626E+03  0.00000000000E+00 0. -1.
         -1   -1    0    0    0  501 -0.00000000000E+00 -0.00000000000E+00 -0.50383720326E+03  0.50383720326E+03  0.00000000000E+00 0.  1.
         24    2    1    2    0    0 -0.17555366071E+02  0.22699823508E+03 -0.16518822868E+03  0.29280572902E+03  0.81312080535E+02 0.  0.
        254    2    1    2    0    0  0.17555366071E+02 -0.22699823508E+03  0.51724302168E+03  0.10669234705E+04  0.90495798732E+03 0.  0.
         23    2    4    4    0    0  0.12593840568E+03 -0.36737672451E+03  0.69449693642E+03  0.79860503014E+03  0.67954836011E+02 0.  0.
         23    2    4    4    0    0 -0.10838303961E+03  0.14037848942E+03 -0.17725391474E+03  0.26831844036E+03  0.95513515160E+02 0.  0.
          4    1    3    3  502    0  0.86002368526E+01  0.15767356446E+02  0.67535868056E+01  0.19188135343E+02  0.00000000000E+00 0. -1.
         -3    1    3    3    0  502 -0.26155602923E+02  0.21123087864E+03 -0.17194181549E+03  0.27361759367E+03  0.00000000000E+00 0.  1.
         11    1    5    5    0    0  0.12654295456E+03 -0.35403502330E+03  0.68735290157E+03  0.78345895129E+03  0.00000000000E+00 0.  1.
        -11    1    5    5    0    0 -0.60454888181E+00 -0.13341701209E+02  0.71440348545E+01  0.15146078849E+02  0.00000000000E+00 0. -1.
          1    1    6    6  503    0 -0.38987991129E+02  0.32649659546E+02 -0.15862365186E+01  0.50878088281E+02  0.00000000000E+00 0. -1.
         -1    1    6    6    0  503 -0.69395048479E+02  0.10772882988E+03 -0.17566767822E+03  0.21744035208E+03  0.00000000000E+00 0.  1.
<mgrwt>
<rscale>  0 0.13133624E+04</rscale>
<asrwt>0</asrwt>
<pdfrwt beam="1">  1        2 0.13167569E+00 0.13133624E+04</pdfrwt>
<pdfrwt beam="2">  1       -1 0.77513416E-01 0.13133624E+04</pdfrwt>
<totfact> 0.58641309E+01</totfact>
</mgrwt>
</event>
<event>
12    6  0.1705838E-008  0.2120038E+04  0.7818608E-02  0.8552467E-01
         -1   -1    0    0    0  501 -0.00000000000E+00  0.00000000000E+00  0.67166289577E+03  0.67166289577E+03  0.00000000000E+00 0.  1.
          2   -1    0    0  501    0  0.00000000000E+00 -0.00000000000E+00 -0.16729232285E+04  0.16729232285E+04  0.00000000000E+00 0. -1.
         24    2    1    2    0    0 -0.28303232175E+03  0.58502211842E+03  0.24033424515E+03  0.69770805001E+03  0.81717803777E+02 0.  0.
        254    2    1    2    0    0  0.28303232175E+03 -0.58502211842E+03 -0.12415945778E+04  0.16468780742E+04  0.86503879763E+03 0.  0.
         23    2    4    4    0    0  0.22115914692E+03 -0.32670256242E+03 -0.37683757235E+02  0.41058575594E+03  0.10730640647E+03 0.  0.
         23    2    4    4    0    0  0.61873174830E+02 -0.25831955600E+03 -0.12039108206E+04  0.12362923183E+04  0.91979070817E+02 0.  0.
          2    1    3    3  502    0 -0.10469711146E+03  0.30893588942E+03  0.12690279764E+03  0.35001026981E+03  0.00000000000E+00 0. -1.
         -3    1    3    3    0  502 -0.17833521029E+03  0.27608622900E+03  0.11343144751E+03  0.34769778020E+03  0.00000000000E+00 0.  1.
         11    1    5    5    0    0 -0.69607094540E+01  0.32524060608E+01  0.20348139674E-01  0.76831006328E+01  0.00000000000E+00 0.  1.
        -11    1    5    5    0    0  0.22811985637E+03 -0.32995496848E+03 -0.37704105374E+02  0.40290265531E+03  0.00000000000E+00 0. -1.
          1    1    6    6  503    0  0.57434345252E+02 -0.26599890089E+03 -0.11596746073E+04  0.11911756017E+04  0.00000000000E+00 0. -1.
         -1    1    6    6    0  503  0.44388295777E+01  0.76793448842E+01 -0.44236213269E+02  0.45116716528E+02  0.00000000000E+00 0.  1.
<mgrwt>
<rscale>  0 0.21200382E+04</rscale>
<asrwt>0</asrwt>
<pdfrwt beam="1">  1        2 0.25737280E+00 0.21200382E+04</pdfrwt>
<pdfrwt beam="2">  1       -1 0.10333275E+00 0.21200382E+04</pdfrwt>
<totfact> 0.94012912E+00</totfact>
</mgrwt>
</event>
<event>
12    6  0.1764329E-008  0.2073283E+04  0.7818608E-02  0.8573105E-01
          2   -1    0    0  501    0  0.00000000000E+00  0.00000000000E+00  0.17108008479E+04  0.17108008479E+04  0.00000000000E+00 0. -1.
         -1   -1    0    0    0  501 -0.00000000000E+00 -0.00000000000E+00 -0.62814173149E+03  0.62814173149E+03  0.00000000000E+00 0.  1.
         24    2    1    2    0    0  0.48867411973E+03  0.20834340976E+03 -0.29436900372E+03  0.61270038665E+03  0.80865825714E+02 0.  0.
        254    2    1    2    0    0 -0.48867411973E+03 -0.20834340976E+03  0.13770281201E+04  0.17262421927E+04  0.89526325327E+03 0.  0.
         23    2    4    4    0    0 -0.37520888023E+03 -0.30436733670E+03  0.14537952955E+04  0.15360763239E+04  0.11219862793E+03 0.  0.
         23    2    4    4    0    0 -0.11346523950E+03  0.96023926938E+02 -0.76767175433E+02  0.19016586880E+03  0.90415171913E+02 0.  0.
          4    1    3    3  502    0  0.55173512650E+01 -0.13266438113E+01 -0.15992346112E+02  0.16969274674E+02  0.00000000000E+00 0. -1.
         -3    1    3    3    0  502  0.48315676846E+03  0.20967005357E+03 -0.27837665760E+03  0.59573111198E+03  0.00000000000E+00 0.  1.
         11    1    5    5    0    0 -0.34319957539E+03 -0.26717224973E+03  0.13841814980E+04  0.14509050206E+04  0.00000000000E+00 0.  1.
        -11    1    5    5    0    0 -0.32009304841E+02 -0.37195086969E+02  0.69613797572E+02  0.85171303286E+02  0.00000000000E+00 0. -1.
          2    1    6    6  503    0  0.14637768574E+02  0.12890838553E+02 -0.60624221301E+00  0.19514238829E+02  0.00000000000E+00 0. -1.
         -2    1    6    6    0  503 -0.12810300807E+03  0.83133088384E+02 -0.76160933220E+02  0.17065162997E+03  0.00000000000E+00 0.  1.
<mgrwt>
<rscale>  0 0.20732828E+04</rscale>
<asrwt>0</asrwt>
<pdfrwt beam="1">  1        2 0.26320013E+00 0.20732828E+04</pdfrwt>
<pdfrwt beam="2">  1       -1 0.96637190E-01 0.20732828E+04</pdfrwt>
<totfact> 0.10480839E+01</totfact>
</mgrwt>
</event>
<event>
11    6  0.1705838E-008  0.2707361E+04  0.7818608E-02  0.8332621E-01
         -1   -1    0    0    0  501 -0.00000000000E+00  0.00000000000E+00  0.68092779527E+03  0.68092779527E+03  0.00000000000E+00 0.  1.
          2   -1    0    0  501    0  0.00000000000E+00 -0.00000000000E+00 -0.26911083138E+04  0.26911083138E+04  0.00000000000E+00 0. -1.
         24    2    1    2    0    0  0.37391607758E+03 -0.80937161444E+03  0.11106062084E+03  0.90137798925E+03  0.72471888834E+02 0.  0.
        254    2    1    2    0    0 -0.37391607758E+03  0.80937161444E+03 -0.21212411393E+04  0.24706581198E+04  0.89977326604E+03 0.  0.
         23    2    4    4    0    0 -0.21563840616E+03  0.96603910197E+03 -0.15164787741E+04  0.18130614559E+04  0.88048292463E+02 0.  0.
          2    1    3    3  502    0  0.23893737056E+03 -0.50952980257E+03  0.34912492825E+02  0.56385332216E+03  0.00000000000E+00 0. -1.
         -1    1    3    3    0  502  0.13497870702E+03 -0.29984181187E+03  0.76148128010E+02  0.33752466709E+03  0.00000000000E+00 0.  1.
         11    1    4    4    0    0 -0.58026550999E+02 -0.14514333177E+03 -0.39566176193E+03  0.42541967189E+03  0.00000000000E+00 0. -1.
        -11    1    4    4    0    0 -0.10025112042E+03 -0.11524155752E+02 -0.20910060331E+03  0.23217699200E+03  0.00000000000E+00 0.  1.
          1    1    5    5  503    0 -0.21361474566E+03  0.82164004657E+03 -0.12785556350E+04  0.15347404137E+04  0.00000000000E+00 0. -1.
         -1    1    5    5    0  503 -0.20236605028E+01  0.14439905540E+03 -0.23792313909E+03  0.27832104217E+03  0.00000000000E+00 0.  1.
<mgrwt>
<rscale>  0 0.27073607E+04</rscale>
<asrwt>0</asrwt>
<pdfrwt beam="1">  1        2 0.41401667E+00 0.27073607E+04</pdfrwt>
<pdfrwt beam="2">  1       -1 0.10475812E+00 0.27073607E+04</pdfrwt>
<totfact> 0.22927312E+00</totfact>
</mgrwt>
</event>
<event>
12    6  0.1705838E-008  0.2866573E+04  0.7818608E-02  0.8282893E-01
          2   -1    0    0  501    0  0.00000000000E+00  0.00000000000E+00  0.15976327715E+04  0.15976327715E+04  0.00000000000E+00 0. -1.
         -1   -1    0    0    0  501 -0.00000000000E+00 -0.00000000000E+00 -0.12858462289E+04  0.12858462289E+04  0.00000000000E+00 0.  1.
         24    2    1    2    0    0  0.99757955784E+03  0.59736299130E+02  0.95745122355E+03  0.13862225359E+04  0.78528172885E+02 0.  0.
        254    2    1    2    0    0 -0.99757955784E+03 -0.59736299130E+02 -0.64566468096E+03  0.14972564645E+04  0.90893379334E+03 0.  0.
         23    2    4    4    0    0 -0.71606718457E+02  0.22709344856E+03 -0.43445343691E+03  0.50094304893E+03  0.74129568507E+02 0.  0.
         23    2    4    4    0    0 -0.92597283938E+03 -0.28682974769E+03 -0.21121124405E+03  0.99631341559E+03  0.91286521688E+02 0.  0.
          4    1    3    3  502    0  0.86965028798E+03  0.67576301515E+02  0.80399927028E+03  0.11862853816E+04  0.00000000000E+00 0. -1.
         -3    1    3    3    0  502  0.12792926986E+03 -0.78400023853E+01  0.15345195328E+03  0.19993715434E+03  0.00000000000E+00 0.  1.
         11    1    5    5    0    0 -0.81572892655E+02  0.22314804381E+03 -0.42364843678E+03  0.48572336186E+03  0.00000000000E+00 0. -1.
        -11    1    5    5    0    0  0.99661741981E+01  0.39454047463E+01 -0.10805000130E+02  0.15219687072E+02  0.00000000000E+00 0.  1.
          4    1    6    6  503    0 -0.37093661141E+03 -0.16061120861E+03 -0.98761080437E+02  0.41610537250E+03  0.00000000000E+00 0. -1.
         -4    1    6    6    0  503 -0.55503622797E+03 -0.12621853907E+03 -0.11245016361E+03  0.58020804309E+03  0.00000000000E+00 0.  1.
<mgrwt>
<rscale>  0 0.28665729E+04</rscale>
<asrwt>0</asrwt>
<pdfrwt beam="1">  1        2 0.24578966E+00 0.28665729E+04</pdfrwt>
<pdfrwt beam="2">  1       -1 0.19782250E+00 0.28665729E+04</pdfrwt>
<totfact> 0.17174057E+00</totfact>
</mgrwt>
</event>
<event>
12    6  0.1705838E-008  0.1490688E+04  0.7818608E-02  0.8890669E-01
          2   -1    0    0  501    0  0.00000000000E+00  0.00000000000E+00  0.74392639279E+03  0.74392639279E+03  0.00000000000E+00 0. -1.
         -1   -1    0    0    0  501 -0.00000000000E+00 -0.00000000000E+00 -0.74676408642E+03  0.74676408642E+03  0.00000000000E+00 0.  1.
         24    2    1    2    0    0 -0.33922268236E+03 -0.79889092595E+02  0.31377866264E+03  0.47557760579E+03  0.79137315202E+02 0.  0.
        254    2    1    2    0    0  0.33922268236E+03  0.79889092595E+02 -0.31661635626E+03  0.10151128734E+04  0.89930747433E+03 0.  0.
         23    2    4    4    0    0  0.96271373042E+02  0.22016662048E+03  0.26321751310E+03  0.36465932778E+03  0.77145629162E+02 0.  0.
         23    2    4    4    0    0  0.24295130932E+03 -0.14027752788E+03 -0.57983386936E+03  0.65045354564E+03  0.90439899667E+02 0.  0.
          2    1    3    3  502    0 -0.28823167490E+03 -0.95941933245E+02  0.27143648765E+03  0.40738203175E+03  0.00000000000E+00 0. -1.
         -1    1    3    3    0  502 -0.50991007468E+02  0.16052840651E+02  0.42342174986E+02  0.68195574036E+02  0.00000000000E+00 0.  1.
         11    1    5    5    0    0  0.32936893086E+02  0.18415387900E+02  0.21226353017E+02  0.43295767692E+02  0.00000000000E+00 0. -1.
        -11    1    5    5    0    0  0.63334479956E+02  0.20175123258E+03  0.24199116008E+03  0.32136356009E+03  0.00000000000E+00 0.  1.
          4    1    6    6  503    0  0.74207358932E+02 -0.50577657014E+02 -0.28748508579E+03  0.30118516906E+03  0.00000000000E+00 0. -1.
         -4    1    6    6    0  503  0.16874395039E+03 -0.89699870867E+02 -0.29234878357E+03  0.34926837658E+03  0.00000000000E+00 0.  1.
<mgrwt>
<rscale>  0 0.14906878E+04</rscale>
<asrwt>0</asrwt>
<pdfrwt beam="1">  1        2 0.11445021E+00 0.14906878E+04</pdfrwt>
<pdfrwt beam="2">  1       -1 0.11488678E+00 0.14906878E+04</pdfrwt>
<totfact> 0.28799369E+01</totfact>
</mgrwt>
</event>
<event>
12    6  0.1705838E-008  0.1434682E+04  0.7818608E-02  0.8929089E-01
          2   -1    0    0  501    0  0.00000000000E+00  0.00000000000E+00  0.32005539154E+03  0.32005539154E+03  0.00000000000E+00 0. -1.
         -1   -1    0    0    0  501 -0.00000000000E+00 -0.00000000000E+00 -0.16077789103E+04  0.16077789103E+04  0.00000000000E+00 0.  1.
         24    2    1    2    0    0 -0.75850238855E+02 -0.21541933853E+02 -0.96680862219E+03  0.97399325799E+03  0.87901314160E+02 0.  0.
        254    2    1    2    0    0  0.75850238855E+02  0.21541933853E+02 -0.32091489654E+03  0.95384104381E+03  0.89476759686E+03 0.  0.
         23    2    4    4    0    0  0.35261859025E+03 -0.26858693971E+03 -0.30359957407E+03  0.54230253449E+03  0.73759902134E+02 0.  0.
         23    2    4    4    0    0 -0.27676835139E+03  0.29012887356E+03 -0.17315322466E+02  0.41153850932E+03  0.91041971953E+02 0.  0.
          2    1    3    3  502    0  0.49450568375E+01 -0.22224197467E+02 -0.47880665565E+03  0.47934766301E+03  0.00000000000E+00 0. -1.
         -3    1    3    3    0  502 -0.80795295693E+02  0.68226361451E+00 -0.48800196654E+03  0.49464559498E+03  0.00000000000E+00 0.  1.
         11    1    5    5    0    0  0.16521076120E+03 -0.14085560174E+03 -0.19066373869E+03  0.28894213505E+03  0.00000000000E+00 0. -1.
        -11    1    5    5    0    0  0.18740782905E+03 -0.12773133797E+03 -0.11293583539E+03  0.25336039943E+03  0.00000000000E+00 0.  1.
          4    1    6    6  503    0 -0.31442049140E+02  0.87414507298E+02 -0.16799078432E+01  0.92912435285E+02  0.00000000000E+00 0. -1.
         -4    1    6    6    0  503 -0.24532630225E+03  0.20271436627E+03 -0.15635414623E+02  0.31862607404E+03  0.00000000000E+00 0.  1.
<mgrwt>
<rscale>  0 0.14346823E+04</rscale>
<asrwt>0</asrwt>
<pdfrwt beam="1">  1        2 0.49239291E-01 0.14346823E+04</pdfrwt>
<pdfrwt beam="2">  1       -1 0.24735060E+00 0.14346823E+04</pdfrwt>
<totfact> 0.82447229E+00</totfact>
</mgrwt>
</event>
<event>
12    6  0.1705838E-008  0.1256727E+04  0.7818608E-02  0.9064603E-01
          2   -1    0    0  501    0  0.00000000000E+00  0.00000000000E+00  0.43440043736E+03  0.43440043736E+03  0.00000000000E+00 0. -1.
         -1   -1    0    0    0  501 -0.00000000000E+00 -0.00000000000E+00 -0.90893303352E+03  0.90893303352E+03  0.00000000000E+00 0.  1.
         24    2    1    2    0    0 -0.16968719052E+03  0.10932817127E+03  0.10561148483E+03  0.24956951929E+03  0.10190567978E+03 0.  0.
        254    2    1    2    0    0  0.16968719052E+03 -0.10932817127E+03 -0.58014408099E+03  0.10937639516E+04  0.90498952227E+03 0.  0.
         23    2    4    4    0    0  0.50064235688E+03 -0.93355654379E+02 -0.14783755891E+03  0.54169735655E+03  0.11055331091E+03 0.  0.
         23    2    4    4    0    0 -0.33095516637E+03 -0.15972516893E+02 -0.43230652209E+03  0.55206659504E+03  0.90011959680E+02 0.  0.
          4    1    3    3  502    0 -0.16043237563E+03  0.11931633363E+03  0.70654683238E+02  0.21205428287E+03  0.00000000000E+00 0. -1.
         -3    1    3    3    0  502 -0.92548148901E+01 -0.99881623601E+01  0.34956801592E+02  0.37515236418E+02  0.00000000000E+00 0.  1.
         11    1    5    5    0    0  0.41984331517E+02 -0.42268431792E+02 -0.14235640853E+02  0.61253227584E+02  0.00000000000E+00 0. -1.
        -11    1    5    5    0    0  0.45865802537E+03 -0.51087222588E+02 -0.13360191805E+03  0.48044412896E+03  0.00000000000E+00 0.  1.
          1    1    6    6  503    0 -0.20975824468E+03 -0.36073973734E+02 -0.32748952499E+03  0.39057552633E+03  0.00000000000E+00 0. -1.
         -1    1    6    6    0  503 -0.12119692169E+03  0.20101456841E+02 -0.10481699710E+03  0.16149106871E+03  0.00000000000E+00 0.  1.
<mgrwt>
<rscale>  0 0.12567273E+04</rscale>
<asrwt>0</asrwt>
<pdfrwt beam="1">  1        2 0.66830838E-01 0.12567273E+04</pdfrwt>
<pdfrwt beam="2">  1       -1 0.13983585E+00 0.12567273E+04</pdfrwt>
<totfact> 0.34248675E+01</totfact>
</mgrwt>
</event>
<event>
12    6  0.1766448E-008  0.2481648E+04  0.7818608E-02  0.8409553E-01
         -1   -1    0    0    0  501 -0.00000000000E+00  0.00000000000E+00  0.83061154284E+03  0.83061154284E+03  0.00000000000E+00 0.  1.
          2   -1    0    0  501    0  0.00000000000E+00 -0.00000000000E+00 -0.18536270806E+04  0.18536270806E+04  0.00000000000E+00 0. -1.
         24    2    1    2    0    0 -0.47857896374E+03 -0.53068015673E+03  0.42546375426E+03  0.83601337769E+03  0.85086474756E+02 0.  0.
        254    2    1    2    0    0  0.47857896374E+03  0.53068015673E+03 -0.14484792920E+04  0.18482252458E+04  0.89843477577E+03 0.  0.
         23    2    4    4    0    0  0.54877449075E+03  0.64091728396E+03 -0.76082054914E+03  0.11422499147E+04  0.11814632034E+03 0.  0.
         23    2    4    4    0    0 -0.70195527003E+02 -0.11023712723E+03 -0.68765874291E+03  0.70597533109E+03  0.91907481652E+02 0.  0.
          4    1    3    3  502    0 -0.13639195285E+03 -0.10122941988E+03  0.85173388323E+02  0.19001227942E+03  0.00000000000E+00 0. -1.
         -3    1    3    3    0  502 -0.34218701089E+03 -0.42945073685E+03  0.34029036594E+03  0.64600109826E+03  0.00000000000E+00 0.  1.
         11    1    5    5    0    0 -0.22209411076E+01  0.23479454797E+02 -0.13298626859E+02  0.27075281223E+02  0.00000000000E+00 0.  1.
        -11    1    5    5    0    0  0.55099543186E+03  0.61743782916E+03 -0.74752192228E+03  0.11151746335E+04  0.00000000000E+00 0. -1.
          3    1    6    6  503    0 -0.92116461398E+02 -0.82380584627E+02 -0.56097628648E+03  0.57442701641E+03  0.00000000000E+00 0. -1.
         -3    1    6    6    0  503  0.21920934396E+02 -0.27856542599E+02 -0.12668245643E+03  0.13154831469E+03  0.00000000000E+00 0.  1.
<mgrwt>
<rscale>  0 0.24816479E+04</rscale>
<asrwt>0</asrwt>
<pdfrwt beam="1">  1        2 0.28517340E+00 0.24816479E+04</pdfrwt>
<pdfrwt beam="2">  1       -1 0.12778639E+00 0.24816479E+04</pdfrwt>
<totfact> 0.43379669E+00</totfact>
</mgrwt>
</event>
<event>
12    6  0.1705838E-008  0.1579700E+04  0.7818608E-02  0.8833117E-01
         -1   -1    0    0    0  501 -0.00000000000E+00  0.00000000000E+00  0.77098972466E+03  0.77098972466E+03  0.00000000000E+00 0.  1.
          2   -1    0    0  501    0  0.00000000000E+00 -0.00000000000E+00 -0.80917185005E+03  0.80917185005E+03  0.00000000000E+00 0. -1.
         24    2    1    2    0    0  0.57985867132E+02  0.43838672632E+03 -0.29492844015E+03  0.53729459370E+03  0.78469185086E+02 0.  0.
        254    2    1    2    0    0 -0.57985867132E+02 -0.43838672632E+03  0.25674631476E+03  0.10428669810E+04  0.90890460848E+03 0.  0.
         23    2    4    4    0    0 -0.45098139639E+03 -0.37899290493E+03  0.16201458258E+03  0.62382660056E+03  0.12605975058E+03 0.  0.
         23    2    4    4    0    0  0.39299552926E+03 -0.59393821390E+02  0.94731732176E+02  0.41904038044E+03  0.92992619725E+02 0.  0.
          2    1    3    3  502    0  0.61578782862E+02  0.43993374454E+03 -0.29521569264E+03  0.53337224456E+03  0.00000000000E+00 0. -1.
         -1    1    3    3    0  502 -0.35929157302E+01 -0.15470182189E+01  0.28725248650E+00  0.39223491437E+01  0.00000000000E+00 0.  1.
         11    1    5    5    0    0 -0.27264913809E+03 -0.28492825639E+03  0.63557546470E+02  0.39945115534E+03  0.00000000000E+00 0.  1.
        -11    1    5    5    0    0 -0.17833225831E+03 -0.94064648541E+02  0.98457036114E+02  0.22437544522E+03  0.00000000000E+00 0. -1.
          3    1    6    6  503    0  0.25491552824E+03 -0.62012313989E+02  0.22835237824E+02  0.26334179636E+03  0.00000000000E+00 0. -1.
         -3    1    6    6    0  503  0.13808000102E+03  0.26184925983E+01  0.71896494351E+02  0.15569858408E+03  0.00000000000E+00 0.  1.
<mgrwt>
<rscale>  0 0.15797002E+04</rscale>
<asrwt>0</asrwt>
<pdfrwt beam="1">  1        2 0.12448798E+00 0.15797002E+04</pdfrwt>
<pdfrwt beam="2">  1       -1 0.11861380E+00 0.15797002E+04</pdfrwt>
<totfact> 0.23699037E+01</totfact>
</mgrwt>
</event>
<event>
11    6  0.1705838E-008  0.1339162E+04  0.7818608E-02  0.8999073E-01
         -1   -1    0    0    0  501 -0.00000000000E+00  0.00000000000E+00  0.36302113215E+03  0.36302113215E+03  0.00000000000E+00 0.  1.
          2   -1    0    0  501    0  0.00000000000E+00 -0.00000000000E+00 -0.12350214629E+04  0.12350214629E+04  0.00000000000E+00 0. -1.
         24    2    1    2    0    0 -0.26400052329E+03  0.23049563888E+03 -0.34831554880E+03  0.49999939361E+03  0.76492850860E+02 0.  0.
        254    2    1    2    0    0  0.26400052329E+03 -0.23049563888E+03 -0.52368478200E+03  0.10980432015E+04  0.89923779146E+03 0.  0.
         23    2    4    4    0    0  0.10922460736E+02  0.24567455508E+03 -0.46146634178E+03  0.53086620536E+03  0.91610350001E+02 0.  0.
          2    1    3    3  502    0 -0.21041808653E+03  0.19857005184E+03 -0.24406549060E+03  0.37851525772E+03  0.00000000000E+00 0. -1.
         -1    1    3    3    0  502 -0.53582436759E+02  0.31925587037E+02 -0.10425005820E+03  0.12148413589E+03  0.00000000000E+00 0.  1.
         11    1    4    4    0    0  0.26591812682E+03 -0.42690404221E+03 -0.24012103378E+02  0.50352367624E+03  0.00000000000E+00 0. -1.
        -11    1    4    4    0    0 -0.12840064262E+02 -0.49266151750E+02 -0.38206336838E+02  0.63653319891E+02  0.00000000000E+00 0.  1.
          4    1    5    5  503    0 -0.13458846616E+01  0.24158130158E+03 -0.39397429762E+03  0.46214617154E+03  0.00000000000E+00 0. -1.
         -4    1    5    5    0  503  0.12268345398E+02  0.40932534998E+01 -0.67492044163E+02  0.68720033821E+02  0.00000000000E+00 0.  1.
<mgrwt>
<rscale>  0 0.13391623E+04</rscale>
<asrwt>0</asrwt>
<pdfrwt beam="1">  1        2 0.19000330E+00 0.13391623E+04</pdfrwt>
<pdfrwt beam="2">  1       -1 0.55849405E-01 0.13391623E+04</pdfrwt>
<totfact> 0.65233535E+01</totfact>
</mgrwt>
</event>
<event>
12    6  0.1705838E-008  0.1276954E+04  0.7818608E-02  0.9048043E-01
          2   -1    0    0  501    0  0.00000000000E+00  0.00000000000E+00  0.63294479843E+03  0.63294479843E+03  0.00000000000E+00 0. -1.
         -1   -1    0    0    0  501 -0.00000000000E+00 -0.00000000000E+00 -0.64405754461E+03  0.64405754461E+03  0.00000000000E+00 0.  1.
         24    2    1    2    0    0  0.14019409284E+03  0.14140680076E+03 -0.24438620958E+03  0.32541900680E+03  0.80762884975E+02 0.  0.
        254    2    1    2    0    0 -0.14019409284E+03 -0.14140680076E+03  0.23327346340E+03  0.95158333624E+03  0.90080190392E+03 0.  0.
         23    2    4    4    0    0  0.17091089952E+03 -0.42596529055E+03  0.21434250491E+03  0.51960532947E+03  0.11571527415E+03 0.  0.
         23    2    4    4    0    0 -0.31110499236E+03  0.28455848979E+03  0.18930958491E+02  0.43197800677E+03  0.92123649285E+02 0.  0.
          4    1    3    3  502    0  0.94455183058E+02  0.12003330597E+03 -0.13070474879E+03  0.20103111079E+03  0.00000000000E+00 0. -1.
         -1    1    3    3    0  502  0.45738909777E+02  0.21373494782E+02 -0.11368146079E+03  0.12438789601E+03  0.00000000000E+00 0.  1.
         11    1    5    5    0    0  0.11406666711E+03 -0.32693643414E+03  0.21076631552E+03  0.40536536146E+03  0.00000000000E+00 0.  1.
        -11    1    5    5    0    0  0.56844232408E+02 -0.99028856406E+02  0.35761893897E+01  0.11423996800E+03  0.00000000000E+00 0. -1.
          4    1    6    6  503    0  0.46185844753E+01  0.10060244598E+01  0.57061175364E+01  0.74096683535E+01  0.00000000000E+00 0. -1.
         -4    1    6    6    0  503 -0.31572357683E+03  0.28355246533E+03  0.13224840955E+02  0.42456833841E+03  0.00000000000E+00 0.  1.
<mgrwt>
<rscale>  0 0.12769540E+04</rscale>
<asrwt>0</asrwt>
<pdfrwt beam="1">  1        2 0.97376123E-01 0.12769540E+04</pdfrwt>
<pdfrwt beam="2">  1       -1 0.99085776E-01 0.12769540E+04</pdfrwt>
<totfact> 0.50755937E+01</totfact>
</mgrwt>
</event>
<event>
11    6  0.1705838E-008  0.3090384E+04  0.7818608E-02  0.8218382E-01
          2   -1    0    0  501    0  0.00000000000E+00  0.00000000000E+00  0.22869105440E+04  0.22869105440E+04  0.00000000000E+00 0. -1.
         -1   -1    0    0    0  501 -0.00000000000E+00 -0.00000000000E+00 -0.10440368914E+04  0.10440368914E+04  0.00000000000E+00 0.  1.
         24    2    1    2    0    0 -0.73387047878E+03  0.99972906478E+03  0.11727207410E+04  0.17086685710E+04  0.79058627911E+02 0.  0.
        254    2    1    2    0    0  0.73387047878E+03 -0.99972906478E+03  0.70152911551E+02  0.16222788643E+04  0.10434764971E+04 0.  0.
         23    2    4    4    0    0  0.67325626994E+03 -0.43913633823E+03 -0.36236102923E+03  0.88605535572E+03  0.87600509801E+02 0.  0.
          2    1    3    3  502    0 -0.63594491496E+03  0.84237999976E+03  0.10298498056E+04  0.14746594932E+04  0.00000000000E+00 0. -1.
         -1    1    3    3    0  502 -0.97925563824E+02  0.15734906503E+03  0.14287093542E+03  0.23400907782E+03  0.00000000000E+00 0.  1.
         11    1    4    4    0    0 -0.13987849945E+02 -0.46575202811E+02  0.12138599313E+03  0.13076493716E+03  0.00000000000E+00 0. -1.
        -11    1    4    4    0    0  0.74602058785E+02 -0.51401752374E+03  0.31112794765E+03  0.60545857141E+03  0.00000000000E+00 0.  1.
          1    1    5    5  503    0  0.44914613615E+00  0.26848091336E+01 -0.43236753619E+01  0.51092172562E+01  0.00000000000E+00 0. -1.
         -1    1    5    5    0  503  0.67280712380E+03 -0.44182114737E+03 -0.35803735387E+03  0.88094613846E+03  0.00000000000E+00 0.  1.
<mgrwt>
<rscale>  0 0.30903844E+04</rscale>
<asrwt>0</asrwt>
<pdfrwt beam="1">  1        2 0.35183239E+00 0.30903844E+04</pdfrwt>
<pdfrwt beam="2">  1       -1 0.16062106E+00 0.30903844E+04</pdfrwt>
<totfact> 0.12877881E+00</totfact>
</mgrwt>
</event>
<event>
11    6  0.1705838E-008  0.1276930E+04  0.7818608E-02  0.9048063E-01
          2   -1    0    0  501    0  0.00000000000E+00  0.00000000000E+00  0.30477345864E+03  0.30477345864E+03  0.00000000000E+00 0. -1.
         -1   -1    0    0    0  501 -0.00000000000E+00 -0.00000000000E+00 -0.13375093596E+04  0.13375093596E+04  0.00000000000E+00 0.  1.
         24    2    1    2    0    0 -0.14541011130E+02 -0.60007370879E+02 -0.67202948456E+03  0.67905255224E+03  0.75341987089E+02 0.  0.
        254    2    1    2    0    0  0.14541011130E+02  0.60007370879E+02 -0.36070641636E+03  0.96323026597E+03  0.89100566828E+03 0.  0.
         23    2    4    4    0    0  0.36968705081E+02  0.33555012692E+03  0.13817455194E+03  0.37614969502E+03  0.91846684395E+02 0.  0.
          2    1    3    3  502    0 -0.26200596849E+02  0.31996263417E+01 -0.10005182784E+03  0.10347500731E+03  0.00000000000E+00 0. -1.
         -1    1    3    3    0  502  0.11659585718E+02 -0.63206997221E+02 -0.57197765672E+03  0.57557754493E+03  0.00000000000E+00 0.  1.
         11    1    4    4    0    0  0.10456242873E+02 -0.25979778608E+03 -0.48029614885E+03  0.54615804788E+03  0.00000000000E+00 0.  1.
        -11    1    4    4    0    0 -0.32883936824E+02 -0.15744969952E+02 -0.18584819452E+02  0.40922523063E+02  0.00000000000E+00 0. -1.
          1    1    5    5  503    0 -0.19008605492E+02  0.73625324235E+02  0.29175813499E+01  0.76095517164E+02  0.00000000000E+00 0. -1.
         -1    1    5    5    0  503  0.55977310573E+02  0.26192480268E+03  0.13525697059E+03  0.30005417786E+03  0.00000000000E+00 0.  1.
<mgrwt>
<rscale>  0 0.12769297E+04</rscale>
<asrwt>0</asrwt>
<pdfrwt beam="1">  1        2 0.46888224E-01 0.12769297E+04</pdfrwt>
<pdfrwt beam="2">  1       -1 0.20577067E+00 0.12769297E+04</pdfrwt>
<totfact> 0.16669134E+01</totfact>
</mgrwt>
</event>
<event>
11    6  0.1705838E-008  0.2171166E+04  0.7818608E-02  0.8530526E-01
         -1   -1    0    0    0  501 -0.00000000000E+00  0.00000000000E+00  0.94494404036E+03  0.94494404036E+03  0.00000000000E+00 0.  1.
          2   -1    0    0  501    0  0.00000000000E+00 -0.00000000000E+00 -0.12471540802E+04  0.12471540802E+04  0.00000000000E+00 0. -1.
         24    2    1    2    0    0 -0.48968979780E+03 -0.55504856971E+03  0.37916129968E+03  0.83546945604E+03  0.79817967808E+02 0.  0.
        254    2    1    2    0    0  0.48968979780E+03  0.55504856971E+03 -0.68137133953E+03  0.13566286645E+04  0.91010956386E+03 0.  0.
         23    2    4    4    0    0  0.72065197693E+03  0.28655635461E+03 -0.30729808031E+03  0.83920534378E+03  0.91540606502E+02 0.  0.
          4    1    3    3  502    0 -0.27705485341E+03 -0.25855947326E+03  0.17559543385E+03  0.41766751059E+03  0.00000000000E+00 0. -1.
         -3    1    3    3    0  502 -0.21263494440E+03 -0.29648909646E+03  0.20356586583E+03  0.41780194546E+03  0.00000000000E+00 0.  1.
         11    1    4    4    0    0 -0.94068903631E+02  0.11699409036E+03 -0.19303228423E+03  0.24453637473E+03  0.00000000000E+00 0.  1.
        -11    1    4    4    0    0 -0.13689327550E+03  0.15149812475E+03 -0.18104097499E+03  0.27288694601E+03  0.00000000000E+00 0. -1.
          3    1    5    5  503    0  0.64150138570E+03  0.22894208830E+03 -0.28752110307E+03  0.73932867681E+03  0.00000000000E+00 0. -1.
         -3    1    5    5    0  503  0.79150591228E+02  0.57614266310E+02 -0.19776977243E+02  0.99876666960E+02  0.00000000000E+00 0.  1.
<mgrwt>
<rscale>  0 0.21711663E+04</rscale>
<asrwt>0</asrwt>
<pdfrwt beam="1">  1        2 0.19186986E+00 0.21711663E+04</pdfrwt>
<pdfrwt beam="2">  1       -1 0.14537601E+00 0.21711663E+04</pdfrwt>
<totfact> 0.70372021E+00</totfact>
</mgrwt>
</event>
<event>
12    6  0.1705838E-008  0.1527206E+04  0.7818608E-02  0.8866560E-01
         -1   -1    0    0    0  501 -0.00000000000E+00  0.00000000000E+00  0.13591545802E+03  0.13591545802E+03  0.00000000000E+00 0.  1.
          2   -1    0    0  501    0  0.00000000000E+00 -0.00000000000E+00 -0.42900919393E+04  0.42900919393E+04  0.00000000000E+00 0. -1.
         24    2    1    2    0    0  0.25393319576E+03 -0.25656411391E+03 -0.23401216156E+04  0.23691338277E+04  0.79490284912E+02 0.  0.
        254    2    1    2    0    0 -0.25393319576E+03  0.25656411391E+03 -0.18140548656E+04  0.20568735696E+04  0.89979253895E+03 0.  0.
         23    2    4    4    0    0 -0.32884442492E+03  0.11014990495E+03 -0.15606481210E+03  0.38831042132E+03  0.78467192955E+02 0.  0.
         23    2    4    4    0    0  0.74911229153E+02  0.14641420896E+03 -0.16579900535E+04  0.16685631482E+04  0.90128514958E+02 0.  0.
          2    1    3    3  502    0  0.20266571949E+03 -0.24080655564E+03 -0.19247457835E+04  0.19503095965E+04  0.00000000000E+00 0. -1.
         -1    1    3    3    0  502  0.51267476272E+02 -0.15757558275E+02 -0.41537583208E+03  0.41882423120E+03  0.00000000000E+00 0.  1.
         11    1    5    5    0    0 -0.36665665531E+00 -0.25836088855E+01  0.48881792257E+01  0.55410980968E+01  0.00000000000E+00 0. -1.
        -11    1    5    5    0    0 -0.32847776826E+03  0.11273351383E+03 -0.16095299133E+03  0.38276932322E+03  0.00000000000E+00 0.  1.
          2    1    6    6  503    0  0.31683505585E+02 -0.29268098933E+01 -0.31565134311E+03  0.31725097502E+03  0.00000000000E+00 0. -1.
         -2    1    6    6    0  503  0.43227723567E+02  0.14934101885E+03 -0.13423387104E+04  0.13513121732E+04  0.00000000000E+00 0.  1.
<mgrwt>
<rscale>  0 0.15272064E+04</rscale>
<asrwt>0</asrwt>
<pdfrwt beam="1">  1        2 0.66001413E+00 0.15272064E+04</pdfrwt>
<pdfrwt beam="2">  1       -1 0.20910071E-01 0.15272064E+04</pdfrwt>
<totfact> 0.41536943E+00</totfact>
</mgrwt>
</event>
<event>
11    6  0.1705838E-008  0.2102931E+04  0.7818608E-02  0.8559953E-01
          2   -1    0    0  501    0  0.00000000000E+00  0.00000000000E+00  0.17195429824E+04  0.17195429824E+04  0.00000000000E+00 0. -1.
         -1   -1    0    0    0  501 -0.00000000000E+00 -0.00000000000E+00 -0.64294954424E+03  0.64294954424E+03  0.00000000000E+00 0.  1.
         24    2    1    2    0    0 -0.55324353114E+03  0.61269040860E+03  0.68057854402E+03  0.10729559327E+04  0.81113115433E+02 0.  0.
        254    2    1    2    0    0  0.55324353114E+03 -0.61269040860E+03  0.39601489418E+03  0.12895365939E+04  0.90807978125E+03 0.  0.
         23    2    4    4    0    0  0.65027894934E+03 -0.17863373387E+03  0.13992982054E+03  0.69465634131E+03  0.90522676815E+02 0.  0.
          4    1    3    3  502    0 -0.35267920834E+03  0.39502776002E+03  0.38546649581E+03  0.65499158359E+03  0.00000000000E+00 0. -1.
         -3    1    3    3    0  502 -0.20056432280E+03  0.21766264858E+03  0.29511204821E+03  0.41796434915E+03  0.00000000000E+00 0.  1.
         11    1    4    4    0    0  0.62733585648E+02 -0.36127595046E+02  0.12851419493E+03  0.14750120064E+03  0.00000000000E+00 0. -1.
        -11    1    4    4    0    0 -0.15976900385E+03 -0.39792907968E+03  0.12757087871E+03  0.44737905197E+03  0.00000000000E+00 0.  1.
          1    1    5    5  503    0  0.99257576568E+02 -0.32056631345E+02  0.55818600026E+02  0.11830219875E+03  0.00000000000E+00 0. -1.
         -1    1    5    5    0  503  0.55102137277E+03 -0.14657710253E+03  0.84111220509E+02  0.57635414257E+03  0.00000000000E+00 0.  1.
<mgrwt>
<rscale>  0 0.21029307E+04</rscale>
<asrwt>0</asrwt>
<pdfrwt beam="1">  1        2 0.26454507E+00 0.21029307E+04</pdfrwt>
<pdfrwt beam="2">  1       -1 0.98915315E-01 0.21029307E+04</pdfrwt>
<totfact> 0.98058428E+00</totfact>
</mgrwt>
</event>
<event>
12    6  0.1705838E-008  0.1562843E+04  0.7818608E-02  0.8843706E-01
         -1   -1    0    0    0  501 -0.00000000000E+00  0.00000000000E+00  0.31434931299E+03  0.31434931299E+03  0.00000000000E+00 0.  1.
          2   -1    0    0  501    0  0.00000000000E+00 -0.00000000000E+00 -0.19424873937E+04  0.19424873937E+04  0.00000000000E+00 0. -1.
         24    2    1    2    0    0 -0.94335238942E+02 -0.11380851846E+03 -0.12677261525E+04  0.12783236647E+04  0.71625958922E+02 0.  0.
        254    2    1    2    0    0  0.94335238942E+02  0.11380851846E+03 -0.36041192827E+03  0.97851304199E+03  0.89762993440E+03 0.  0.
         23    2    4    4    0    0 -0.32970442100E+03 -0.16824284352E+03 -0.11779196650E+03  0.40757347705E+03  0.12341204234E+03 0.  0.
         23    2    4    4    0    0  0.42403965995E+03  0.28205136198E+03 -0.24261996177E+03  0.57093956495E+03  0.88005323531E+02 0.  0.
          4    1    3    3  502    0 -0.48321634555E+02 -0.90576638059E+02 -0.10282947653E+04  0.10334066150E+04  0.00000000000E+00 0. -1.
         -3    1    3    3    0  502 -0.46013604387E+02 -0.23231880403E+02 -0.23943138719E+03  0.24491704969E+03  0.00000000000E+00 0.  1.
         11    1    5    5    0    0 -0.21618695200E+03 -0.11450229683E+03 -0.14687821317E+02  0.24507816363E+03  0.00000000000E+00 0. -1.
        -11    1    5    5    0    0 -0.11351746900E+03 -0.53740546692E+02 -0.10310414518E+03  0.16249531341E+03  0.00000000000E+00 0.  1.
          1    1    6    6  503    0  0.27393591120E+03  0.13935365836E+03 -0.17153177822E+03  0.35197084607E+03  0.00000000000E+00 0. -1.
         -1    1    6    6    0  503  0.15010374874E+03  0.14269770362E+03 -0.71088183550E+02  0.21896871888E+03  0.00000000000E+00 0.  1.
<mgrwt>
<rscale>  0 0.15628430E+04</rscale>
<asrwt>0</asrwt>
<pdfrwt beam="1">  1        2 0.29884422E+00 0.15628430E+04</pdfrwt>
<pdfrwt beam="2">  1       -1 0.48361432E-01 0.15628430E+04</pdfrwt>
<totfact> 0.33693976E+01</totfact>
</mgrwt>
</event>
<event>
12    6  0.1705838E-008  0.2013321E+04  0.7818608E-02  0.8600418E-01
         -1   -1    0    0    0  501 -0.00000000000E+00  0.00000000000E+00  0.41694657167E+03  0.41694657167E+03  0.00000000000E+00 0.  1.
          2   -1    0    0  501    0  0.00000000000E+00 -0.00000000000E+00 -0.24304447107E+04  0.24304447107E+04  0.00000000000E+00 0. -1.
         24    2    1    2    0    0  0.62234909361E+03 -0.61392439255E+02 -0.10992297375E+03  0.63999105033E+03  0.80112785694E+02 0.  0.
        254    2    1    2    0    0 -0.62234909361E+03  0.61392439255E+02 -0.19035751653E+04  0.22074002321E+04  0.92624508021E+03 0.  0.
         23    2    4    4    0    0 -0.66820653941E+03  0.36096070119E+03 -0.10740405688E+04  0.13195263846E+04  0.10389479826E+03 0.  0.
         23    2    4    4    0    0  0.45857445794E+02 -0.29956826193E+03 -0.82953459652E+03  0.88787384748E+03  0.91368885979E+02 0.  0.
          2    1    3    3  502    0  0.47280617007E+02 -0.26834150661E+02 -0.10474983565E+02  0.55364733062E+02  0.00000000000E+00 0. -1.
         -1    1    3    3    0  502  0.57506847660E+03 -0.34558288593E+02 -0.99447990182E+02  0.58462631727E+03  0.00000000000E+00 0.  1.
         11    1    5    5    0    0 -0.38240977119E+03  0.19234111488E+03 -0.51779280179E+03  0.67181971031E+03  0.00000000000E+00 0.  1.
        -11    1    5    5    0    0 -0.28579676822E+03  0.16861958630E+03 -0.55624776701E+03  0.64770667428E+03  0.00000000000E+00 0. -1.
          1    1    6    6  503    0  0.12798156805E+02 -0.20740274556E+03 -0.44591068350E+03  0.49195124691E+03  0.00000000000E+00 0. -1.
         -1    1    6    6    0  503  0.33059288989E+02 -0.92165516373E+02 -0.38362391303E+03  0.39592260057E+03  0.00000000000E+00 0.  1.
<mgrwt>
<rscale>  0 0.20133212E+04</rscale>
<asrwt>0</asrwt>
<pdfrwt beam="1">  1        2 0.37391457E+00 0.20133212E+04</pdfrwt>
<pdfrwt beam="2">  1       -1 0.64145626E-01 0.20133212E+04</pdfrwt>
<totfact> 0.99459790E+00</totfact>
</mgrwt>
</event>
<event>
12    6  0.1705838E-008  0.1821359E+04  0.7818608E-02  0.8695023E-01
         -1   -1    0    0    0  501 -0.00000000000E+00  0.00000000000E+00  0.45738683787E+03  0.45738683787E+03  0.00000000000E+00 0.  1.
          2   -1    0    0  501    0  0.00000000000E+00 -0.00000000000E+00 -0.18132070054E+04  0.18132070054E+04  0.00000000000E+00 0. -1.
         24    2    1    2    0    0  0.24613031336E+03 -0.50268692806E+02 -0.13071242098E+04  0.13336296759E+04  0.82989998365E+02 0.  0.
        254    2    1    2    0    0 -0.24613031336E+03  0.50268692806E+02 -0.48695957727E+02  0.93696416741E+03  0.90134537336E+03 0.  0.
         23    2    4    4    0    0 -0.35172888616E+02 -0.25467422944E+03  0.31205852341E+03  0.41156469455E+03  0.76869243062E+02 0.  0.
         23    2    4    4    0    0 -0.21095742474E+03  0.30494292224E+03 -0.36075448114E+03  0.52539947287E+03  0.91692908905E+02 0.  0.
          4    1    3    3  502    0  0.18780138662E+03 -0.30133034757E+02 -0.11339219798E+04  0.11497636352E+04  0.00000000000E+00 0. -1.
         -3    1    3    3    0  502  0.58328926740E+02 -0.20135658049E+02 -0.17320223000E+03  0.18386604063E+03  0.00000000000E+00 0.  1.
         11    1    5    5    0    0  0.13716115960E+02 -0.17007371520E+03  0.19793833781E+03  0.26132888477E+03  0.00000000000E+00 0.  1.
        -11    1    5    5    0    0 -0.48889004576E+02 -0.84600514237E+02  0.11412018560E+03  0.15023580978E+03  0.00000000000E+00 0. -1.
          2    1    6    6  503    0 -0.34653859497E+02  0.10906595042E+03 -0.75814705698E+02  0.13727396373E+03  0.00000000000E+00 0. -1.
         -2    1    6    6    0  503 -0.17630356525E+03  0.19587697182E+03 -0.28493977544E+03  0.38812550913E+03  0.00000000000E+00 0.  1.
<mgrwt>
<rscale>  0 0.18213589E+04</rscale>
<asrwt>0</asrwt>
<pdfrwt beam="1">  1        2 0.27895492E+00 0.18213589E+04</pdfrwt>
<pdfrwt beam="2">  1       -1 0.70367207E-01 0.18213589E+04</pdfrwt>
<totfact> 0.18587866E+01</totfact>
</mgrwt>
</event>
<event>
11    6  0.1705838E-008  0.1112420E+04  0.7818608E-02  0.9193170E-01
          2   -1    0    0  501    0  0.00000000000E+00  0.00000000000E+00  0.23238319744E+04  0.23238319744E+04  0.00000000000E+00 0. -1.
         -1   -1    0    0    0  501 -0.00000000000E+00 -0.00000000000E+00 -0.13312916111E+03  0.13312916111E+03  0.00000000000E+00 0.  1.
         24    2    1    2    0    0  0.17245650901E+03 -0.42497472171E+02  0.27305689018E+03  0.33537046117E+03  0.79787206403E+02 0.  0.
        254    2    1    2    0    0 -0.17245650901E+03  0.42497472171E+02  0.19176459231E+04  0.21215906744E+04  0.89007517683E+03 0.  0.
         23    2    4    4    0    0  0.35208371546E+03 -0.56191937551E+01  0.74388962151E+03  0.82807346665E+03  0.91320201199E+02 0.  0.
          2    1    3    3  502    0  0.59117546221E+02  0.53839580777E+01  0.15016113426E+03  0.16146899863E+03  0.00000000000E+00 0. -1.
         -1    1    3    3    0  502  0.11333896279E+03 -0.47881430248E+02  0.12289575592E+03  0.17390146254E+03  0.00000000000E+00 0.  1.
         11    1    4    4    0    0 -0.24900171987E+03  0.25582851576E+02  0.40009900693E+03  0.47194867744E+03  0.00000000000E+00 0. -1.
        -11    1    4    4    0    0 -0.27553850460E+03  0.22533814349E+02  0.77365729468E+03  0.82156853026E+03  0.00000000000E+00 0.  1.
          3    1    5    5  503    0  0.86503994496E+02  0.34017861367E+02  0.23431465983E+03  0.25207839210E+03  0.00000000000E+00 0. -1.
         -3    1    5    5    0  503  0.26557972096E+03 -0.39637055122E+02  0.50957496169E+03  0.57599507455E+03  0.00000000000E+00 0.  1.
<mgrwt>
<rscale>  0 0.11124204E+04</rscale>
<asrwt>0</asrwt>
<pdfrwt beam="1">  1        2 0.35751258E+00 0.11124204E+04</pdfrwt>
<pdfrwt beam="2">  1       -1 0.20481411E-01 0.11124204E+04</pdfrwt>
<totfact> 0.98173648E+01</totfact>
</mgrwt>
</event>
<event>
11    6  0.1705838E-008  0.1329968E+04  0.7818608E-02  0.9006132E-01
          2   -1    0    0  501    0  0.00000000000E+00  0.00000000000E+00  0.43048728914E+03  0.43048728914E+03  0.00000000000E+00 0. -1.
         -1   -1    0    0    0  501 -0.00000000000E+00 -0.00000000000E+00 -0.10272170742E+04  0.10272170742E+04  0.00000000000E+00 0.  1.
         24    2    1    2    0    0  0.20916257787E+02  0.33861227516E+03 -0.28516500220E+03  0.44884955987E+03  0.71070993987E+02 0.  0.
        254    2    1    2    0    0 -0.20916257787E+02 -0.33861227516E+03 -0.31156478287E+03  0.10088548035E+04  0.89756316648E+03 0.  0.
         23    2    4    4    0    0 -0.32336735305E+03 -0.23089524799E+03 -0.20935060928E+03  0.45732919731E+03  0.86274309850E+02 0.  0.
          4    1    3    3  502    0  0.36975191457E+01  0.26363005711E+03 -0.18293245519E+03  0.32090304115E+03  0.00000000000E+00 0. -1.
         -3    1    3    3    0  502  0.17218738642E+02  0.74982218058E+02 -0.10223254700E+03  0.12794651872E+03  0.00000000000E+00 0.  1.
         11    1    4    4    0    0 -0.13574234680E+02 -0.16495535364E+03  0.78306227140E+02  0.18310214021E+03  0.00000000000E+00 0.  1.
        -11    1    4    4    0    0  0.31602532994E+03  0.57238326470E+02 -0.18052040072E+03  0.36842346594E+03  0.00000000000E+00 0. -1.
          1    1    5    5  503    0 -0.31406167606E+03 -0.23738172973E+03 -0.19588429176E+03  0.43972204600E+03  0.00000000000E+00 0. -1.
         -1    1    5    5    0  503 -0.93056769871E+01  0.64864817372E+01 -0.13466317527E+02  0.17607151310E+02  0.00000000000E+00 0.  1.
<mgrwt>
<rscale>  0 0.13299683E+04</rscale>
<asrwt>0</asrwt>
<pdfrwt beam="1">  1        2 0.66228814E-01 0.13299683E+04</pdfrwt>
<pdfrwt beam="2">  1       -1 0.15803340E+00 0.13299683E+04</pdfrwt>
<totfact> 0.24765272E+01</totfact>
</mgrwt>
</event>
<event>
11    6  0.1705838E-008  0.2141405E+04  0.7818608E-02  0.8543220E-01
         -1   -1    0    0    0  501 -0.00000000000E+00  0.00000000000E+00  0.32490260328E+03  0.32490260328E+03  0.00000000000E+00 0.  1.
          2   -1    0    0  501    0  0.00000000000E+00 -0.00000000000E+00 -0.35284532090E+04  0.35284532090E+04  0.00000000000E+00 0. -1.
         24    2    1    2    0    0 -0.51389427154E+03  0.68836849750E+03 -0.15540254173E+04  0.17775145921E+04  0.81391748588E+02 0.  0.
        254    2    1    2    0    0  0.51389427154E+03 -0.68836849750E+03 -0.16495251884E+04  0.20758412202E+04  0.92208725920E+03 0.  0.
         23    2    4    4    0    0  0.24531379211E+03 -0.66906639460E+03 -0.15792311171E+04  0.17348039890E+04  0.88007171136E+02 0.  0.
          4    1    3    3  502    0 -0.18306368013E+03  0.18982885608E+03 -0.43987526417E+03  0.51287186861E+03  0.00000000000E+00 0. -1.
         -3    1    3    3    0  502 -0.33083059141E+03  0.49853964142E+03 -0.11141501532E+04  0.12646427235E+04  0.00000000000E+00 0.  1.
         11    1    4    4    0    0  0.38538657238E+02 -0.14786510697E+00 -0.10105918298E+03  0.10815825642E+03  0.00000000000E+00 0.  1.
        -11    1    4    4    0    0  0.23004182220E+03 -0.19154237788E+02  0.30765111667E+02  0.23287897475E+03  0.00000000000E+00 0. -1.
          3    1    5    5  503    0  0.24627498416E+03 -0.65693436057E+03 -0.15696785123E+04  0.17193326478E+04  0.00000000000E+00 0. -1.
         -3    1    5    5    0  503 -0.96119205281E+00 -0.12132034034E+02 -0.95526047726E+01  0.15471341180E+02  0.00000000000E+00 0.  1.
<mgrwt>
<rscale>  0 0.21414048E+04</rscale>
<asrwt>0</asrwt>
<pdfrwt beam="1">  1        2 0.54283897E+00 0.21414048E+04</pdfrwt>
<pdfrwt beam="2">  1       -1 0.49985014E-01 0.21414048E+04</pdfrwt>
<totfact> 0.32728286E+00</totfact>
</mgrwt>
</event>
<event>
12    6  0.1705838E-008  0.2385133E+04  0.7818608E-02  0.8445091E-01
         -1   -1    0    0    0  501 -0.00000000000E+00  0.00000000000E+00  0.17711512741E+04  0.17711512741E+04  0.00000000000E+00 0.  1.
          2   -1    0    0  501    0  0.00000000000E+00 -0.00000000000E+00 -0.80298861163E+03  0.80298861163E+03  0.00000000000E+00 0. -1.
         24    2    1    2    0    0  0.34042364063E+03 -0.91185312326E+03  0.75576458456E+03  0.12349208494E+04  0.80529643152E+02 0.  0.
        254    2    1    2    0    0 -0.34042364063E+03  0.91185312326E+03  0.21239807786E+03  0.13392190363E+04  0.89500296663E+03 0.  0.
         23    2    4    4    0    0 -0.11600149730E+03  0.75917721162E+03  0.50776119995E+03  0.92814074648E+03  0.11754753547E+03 0.  0.
         23    2    4    4    0    0 -0.22442214333E+03  0.15267591164E+03 -0.29536312208E+03  0.41107828984E+03  0.89837375743E+02 0.  0.
          2    1    3    3  502    0  0.27428078474E+03 -0.68489347237E+03  0.60910063623E+03  0.95671970943E+03  0.00000000000E+00 0. -1.
         -1    1    3    3    0  502  0.66142855883E+02 -0.22695965089E+03  0.14666394833E+03  0.27820113993E+03  0.00000000000E+00 0.  1.
         11    1    5    5    0    0 -0.36641328149E+02  0.61181578480E+02  0.24211967041E+02  0.75312627240E+02  0.00000000000E+00 0. -1.
        -11    1    5    5    0    0 -0.79360169148E+02  0.69799563314E+03  0.48354923290E+03  0.85282811924E+03  0.00000000000E+00 0.  1.
          3    1    6    6  503    0 -0.22866121227E+03  0.14570978572E+03 -0.29762697269E+03  0.40261533319E+03  0.00000000000E+00 0.  1.
         -3    1    6    6    0  503  0.42390689363E+01  0.69661259122E+01  0.22638506033E+01  0.84629566479E+01  0.00000000000E+00 0. -1.
<mgrwt>
<rscale>  0 0.23851325E+04</rscale>
<asrwt>0</asrwt>
<pdfrwt beam="1">  1        2 0.12353671E+00 0.23851325E+04</pdfrwt>
<pdfrwt beam="2">  1       -1 0.27248481E+00 0.23851325E+04</pdfrwt>
<totfact> 0.17525808E+00</totfact>
</mgrwt>
</event>
<event>
11    6  0.1705838E-008  0.1447955E+04  0.7818608E-02  0.8919819E-01
         -1   -1    0    0    0  501 -0.00000000000E+00  0.00000000000E+00  0.14763755480E+03  0.14763755480E+03  0.00000000000E+00 0.  1.
          2   -1    0    0  501    0  0.00000000000E+00 -0.00000000000E+00 -0.35502044252E+04  0.35502044252E+04  0.00000000000E+00 0. -1.
         24    2    1    2    0    0  0.50883251914E+02 -0.31761824423E+03 -0.28738575710E+03  0.43898400486E+03  0.81522565873E+02 0.  0.
        254    2    1    2    0    0 -0.50883251914E+02  0.31761824423E+03 -0.31151811133E+04  0.32588579751E+04  0.90129433545E+03 0.  0.
         23    2    4    4    0    0  0.23724692870E+02  0.60645975903E+03 -0.17539772655E+04  0.18583413659E+04  0.92952052901E+02 0.  0.
          2    1    3    3  502    0  0.35556812923E+02 -0.51565713833E+02 -0.78219102588E+02  0.10020747376E+03  0.00000000000E+00 0. -1.
         -1    1    3    3    0  502  0.15326438992E+02 -0.26605253040E+03 -0.20916665452E+03  0.33877653110E+03  0.00000000000E+00 0.  1.
         11    1    4    4    0    0  0.22269871967E+02 -0.53460139250E+02 -0.47388801039E+03  0.47741363625E+03  0.00000000000E+00 0.  1.
        -11    1    4    4    0    0 -0.96877816751E+02 -0.23538137555E+03 -0.88731583746E+03  0.92310297299E+03  0.00000000000E+00 0. -1.
          2    1    5    5  503    0 -0.26313570707E+02  0.42184092642E+03 -0.12194487762E+04  0.12906190333E+04  0.00000000000E+00 0.  1.
         -2    1    5    5    0  503  0.50038263577E+02  0.18461883261E+03 -0.53452848925E+03  0.56772233265E+03  0.00000000000E+00 0. -1.
<mgrwt>
<rscale>  0 0.14479551E+04</rscale>
<asrwt>0</asrwt>
<pdfrwt beam="1">  1        2 0.54618536E+00 0.14479551E+04</pdfrwt>
<pdfrwt beam="2">  1       -1 0.22713467E-01 0.14479551E+04</pdfrwt>
<totfact> 0.13886466E+01</totfact>
</mgrwt>
</event>
<event>
11    6  0.1705838E-008  0.1474171E+04  0.7818608E-02  0.8901813E-01
         -3   -1    0    0    0  501 -0.00000000000E+00  0.00000000000E+00  0.34388004342E+03  0.34388004342E+03  0.00000000000E+00 0.  1.
          2   -1    0    0  501    0  0.00000000000E+00 -0.00000000000E+00 -0.15798961986E+04  0.15798961986E+04  0.00000000000E+00 0. -1.
         24    2    1    2    0    0  0.14086926450E+03  0.90347979634E+02  0.14373392723E+03  0.23537307733E+03  0.82061785181E+02 0.  0.
        254    2    1    2    0    0 -0.14086926450E+03 -0.90347979634E+02 -0.13797500824E+04  0.16884031646E+04  0.95863864384E+03 0.  0.
         23    2    4    4    0    0  0.10854410175E+03 -0.39006575045E+03 -0.48489854351E+03  0.63779154981E+03  0.87854150809E+02 0.  0.
          2    1    3    3  502    0 -0.55592643336E+01  0.18139927554E+02  0.33108140698E+02  0.38159027399E+02  0.00000000000E+00 0. -1.
         -1    1    3    3    0  502  0.14642852884E+03  0.72208052080E+02  0.11062578654E+03  0.19721404993E+03  0.00000000000E+00 0.  1.
         11    1    4    4    0    0 -0.29819327983E+03  0.27052235134E+03 -0.90711805559E+03  0.99245389892E+03  0.00000000000E+00 0. -1.
        -11    1    4    4    0    0  0.48779913581E+02  0.29195419472E+02  0.12266516728E+02  0.58157715909E+02  0.00000000000E+00 0.  1.
          4    1    5    5  503    0  0.40286052333E+02 -0.66830970938E+02 -0.54323328173E+02  0.95080853346E+02  0.00000000000E+00 0. -1.
         -4    1    5    5    0  503  0.68258049414E+02 -0.32323477951E+03 -0.43057521533E+03  0.54271069646E+03  0.00000000000E+00 0.  1.
<mgrwt>
<rscale>  0 0.14741706E+04</rscale>
<asrwt>0</asrwt>
<pdfrwt beam="1">  1        2 0.24306096E+00 0.14741706E+04</pdfrwt>
<pdfrwt beam="2">  1       -3 0.52904622E-01 0.14741706E+04</pdfrwt>
<totfact> 0.25061733E+01</totfact>
</mgrwt>
</event>
<event>
11    6  0.1705838E-008  0.1608132E+04  0.7818608E-02  0.8815568E-01
          2   -1    0    0  501    0  0.00000000000E+00  0.00000000000E+00  0.14870710559E+04  0.14870710559E+04  0.00000000000E+00 0. -1.
         -1   -1    0    0    0  501 -0.00000000000E+00 -0.00000000000E+00 -0.43476199043E+03  0.43476199043E+03  0.00000000000E+00 0.  1.
         24    2    1    2    0    0 -0.12951220279E+03  0.18954905274E+03 -0.22928939134E+03  0.33414297100E+03  0.79847642549E+02 0.  0.
        254    2    1    2    0    0  0.12951220279E+03 -0.18954905274E+03  0.12815984568E+04  0.15876900754E+04  0.90860492888E+03 0.  0.
         23    2    4    4    0    0 -0.29699606174E+03 -0.30493606674E+03  0.82063733385E+03  0.92897400581E+03  0.91402430368E+02 0.  0.
          4    1    3    3  502    0 -0.10217601055E+01  0.30862871602E+02 -0.57918248290E+01  0.31418244255E+02  0.00000000000E+00 0. -1.
         -1    1    3    3    0  502 -0.12849044268E+03  0.15868618113E+03 -0.22349756651E+03  0.30272472674E+03  0.00000000000E+00 0.  1.
         11    1    4    4    0    0 -0.11037174117E+02 -0.81434179832E+01  0.26595492355E+02  0.29924148819E+02  0.00000000000E+00 0. -1.
        -11    1    4    4    0    0  0.43754543865E+03  0.12353043198E+03  0.43436563063E+03  0.62879192073E+03  0.00000000000E+00 0.  1.
          3    1    5    5  503    0 -0.68499791493E+02 -0.25971977544E+02  0.16951987405E+03  0.18467201398E+03  0.00000000000E+00 0. -1.
         -3    1    5    5    0  503 -0.22849627025E+03 -0.27896408919E+03  0.65111745981E+03  0.74430199183E+03  0.00000000000E+00 0.  1.
<mgrwt>
<rscale>  0 0.16081318E+04</rscale>
<asrwt>0</asrwt>
<pdfrwt beam="1">  1        2 0.22878016E+00 0.16081318E+04</pdfrwt>
<pdfrwt beam="2">  1       -1 0.66886461E-01 0.16081318E+04</pdfrwt>
<totfact> 0.31923659E+01</totfact>
</mgrwt>
</event>
<event>
12    6  0.1705838E-008  0.3287200E+04  0.7818608E-02  0.8166160E-01
         -1   -1    0    0    0  501 -0.00000000000E+00  0.00000000000E+00  0.12643267008E+04  0.12643267008E+04  0.00000000000E+00 0.  1.
          2   -1    0    0  501    0  0.00000000000E+00 -0.00000000000E+00 -0.21366480111E+04  0.21366480111E+04  0.00000000000E+00 0. -1.
         24    2    1    2    0    0  0.14009993820E+04 -0.57272521140E+03 -0.56120016334E+03  0.16159816466E+04  0.75084102541E+02 0.  0.
        254    2    1    2    0    0 -0.14009993820E+04  0.57272521140E+03 -0.31112114693E+03  0.17849930653E+04  0.89363887488E+03 0.  0.
         23    2    4    4    0    0 -0.11651226994E+04  0.19949163410E+03  0.76466359512E+02  0.11906197165E+04  0.12008492127E+03 0.  0.
         23    2    4    4    0    0 -0.23587668261E+03  0.37323357730E+03 -0.38758750644E+03  0.59437334878E+03  0.90080463868E+02 0.  0.
          2    1    3    3  502    0  0.11449825608E+04 -0.45487654421E+03 -0.42802999534E+03  0.13042650850E+04  0.00000000000E+00 0. -1.
         -1    1    3    3    0  502  0.25601682124E+03 -0.11784866719E+03 -0.13317016801E+03  0.31171656158E+03  0.00000000000E+00 0.  1.
         11    1    5    5    0    0 -0.29608319005E+03  0.98542998131E+02 -0.36838796877E+01  0.31207298647E+03  0.00000000000E+00 0. -1.
        -11    1    5    5    0    0 -0.86903950938E+03  0.10094863597E+03  0.80150239200E+02  0.87854673001E+03  0.00000000000E+00 0.  1.
          3    1    6    6  503    0 -0.27275027639E+02  0.11181937789E+03 -0.81755256659E+02  0.14117868959E+03  0.00000000000E+00 0. -1.
         -3    1    6    6    0  503 -0.20860165497E+03  0.26141419941E+03 -0.30583224978E+03  0.45319465919E+03  0.00000000000E+00 0.  1.
<mgrwt>
<rscale>  0 0.32872001E+04</rscale>
<asrwt>0</asrwt>
<pdfrwt beam="1">  1        2 0.32871508E+00 0.32872001E+04</pdfrwt>
<pdfrwt beam="2">  1       -1 0.19451180E+00 0.32872001E+04</pdfrwt>
<totfact> 0.87549971E-01</totfact>
</mgrwt>
</event>
<event>
12    6  0.1705838E-008  0.2814738E+04  0.7818608E-02  0.8298707E-01
         -1   -1    0    0    0  501 -0.00000000000E+00  0.00000000000E+00  0.16005708235E+04  0.16005708235E+04  0.00000000000E+00 0.  1.
          2   -1    0    0  501    0  0.00000000000E+00 -0.00000000000E+00 -0.12374880334E+04  0.12374880334E+04  0.00000000000E+00 0. -1.
         24    2    1    2    0    0  0.44425232723E+03  0.70385875115E+02  0.13501201269E+04  0.14254978397E+04  0.83098930510E+02 0.  0.
        254    2    1    2    0    0 -0.44425232723E+03 -0.70385875115E+02 -0.98703733678E+03  0.14125610172E+04  0.90486000099E+03 0.  0.
         23    2    4    4    0    0  0.33551813534E+02  0.58247048565E+02  0.13264592288E+03  0.18480077101E+03  0.10971755215E+03 0.  0.
         23    2    4    4    0    0 -0.47780414076E+03 -0.12863292368E+03 -0.11196832597E+04  0.12277602462E+04  0.94134978284E+02 0.  0.
          4    1    3    3  502    0  0.26917506811E+02 -0.15456497796E+02  0.10530735828E+03  0.10978658936E+03  0.00000000000E+00 0. -1.
         -3    1    3    3    0  502  0.41733482041E+03  0.85842372911E+02  0.12448127686E+04  0.13157112503E+04  0.00000000000E+00 0.  1.
         11    1    5    5    0    0  0.23594077353E+02 -0.50128925957E+00  0.12201166591E+03  0.12427299946E+03  0.00000000000E+00 0.  1.
        -11    1    5    5    0    0  0.99577361803E+01  0.58748337825E+02  0.10634256976E+02  0.60527771547E+02  0.00000000000E+00 0. -1.
          3    1    6    6  503    0 -0.24527760486E+03 -0.17327196519E+02 -0.55017549289E+03  0.60262294029E+03  0.00000000000E+00 0. -1.
         -3    1    6    6    0  503 -0.23252653590E+03 -0.11130572716E+03 -0.56950776677E+03  0.62513730589E+03  0.00000000000E+00 0.  1.
<mgrwt>
<rscale>  0 0.28147378E+04</rscale>
<asrwt>0</asrwt>
<pdfrwt beam="1">  1        2 0.19038277E+00 0.28147378E+04</pdfrwt>
<pdfrwt beam="2">  1       -1 0.24624166E+00 0.28147378E+04</pdfrwt>
<totfact> 0.13143935E+00</totfact>
</mgrwt>
</event>
<event>
11    6  0.1705838E-008  0.1398431E+04  0.7818608E-02  0.8954955E-01
          2   -1    0    0  501    0  0.00000000000E+00  0.00000000000E+00  0.67000495641E+03  0.67000495641E+03  0.00000000000E+00 0. -1.
         -1   -1    0    0    0  501 -0.00000000000E+00 -0.00000000000E+00 -0.72969971461E+03  0.72969971461E+03  0.00000000000E+00 0.  1.
         24    2    1    2    0    0 -0.14364526445E+03  0.56844746691E+02  0.35731199054E+03  0.39779722755E+03  0.81887046840E+02 0.  0.
        254    2    1    2    0    0  0.14364526445E+03 -0.56844746691E+02 -0.41700674874E+03  0.10019074435E+04  0.89780766846E+03 0.  0.
         23    2    4    4    0    0  0.14809374919E+03 -0.36213438223E+03 -0.20738719657E+02  0.40222613563E+03  0.91009342115E+02 0.  0.
          2    1    3    3  502    0 -0.10427102081E+03  0.92327531783E+01  0.27937141579E+03  0.29833886349E+03  0.00000000000E+00 0. -1.
         -1    1    3    3    0  502 -0.39374243637E+02  0.47611993513E+02  0.77940574749E+02  0.99458364055E+02  0.00000000000E+00 0.  1.
         11    1    4    4    0    0  0.93993511444E+02  0.17108898087E+02  0.53193399198E+01  0.95685892191E+02  0.00000000000E+00 0. -1.
        -11    1    4    4    0    0 -0.98441996182E+02  0.28818073745E+03 -0.40158736900E+03  0.50399541564E+03  0.00000000000E+00 0.  1.
          2    1    5    5  503    0  0.54784837152E+01 -0.13074530180E+02 -0.20781400805E+02  0.25155988207E+02  0.00000000000E+00 0. -1.
         -2    1    5    5    0  503  0.14261526547E+03 -0.34905985205E+03  0.42681148328E-01  0.37707014742E+03  0.00000000000E+00 0.  1.
<mgrwt>
<rscale>  0 0.13984312E+04</rscale>
<asrwt>0</asrwt>
<pdfrwt beam="1">  1        2 0.10307769E+00 0.13984312E+04</pdfrwt>
<pdfrwt beam="2">  1       -1 0.11226149E+00 0.13984312E+04</pdfrwt>
<totfact> 0.35024459E+01</totfact>
</mgrwt>
</event>
<event>
11    6  0.1705838E-008  0.1893179E+04  0.7818608E-02  0.8658259E-01
          2   -1    0    0  501    0  0.00000000000E+00  0.00000000000E+00  0.28318561899E+04  0.28318561899E+04  0.00000000000E+00 0. -1.
         -1   -1    0    0    0  501 -0.00000000000E+00 -0.00000000000E+00 -0.31641127504E+03  0.31641127504E+03  0.00000000000E+00 0.  1.
         24    2    1    2    0    0  0.58924997701E+03 -0.40485013821E+03  0.11805062234E+04  0.13824052173E+04  0.79561745809E+02 0.  0.
        254    2    1    2    0    0 -0.58924997701E+03  0.40485013821E+03  0.13349386915E+04  0.17658622477E+04  0.90834409672E+03 0.  0.
         23    2    4    4    0    0 -0.79627376305E+03  0.40510019800E+03  0.11471627288E+04  0.14568740107E+04  0.91331705524E+02 0.  0.
          2    1    3    3  502    0  0.55498381700E+02 -0.56355305687E+02  0.95485639487E+02  0.12398991168E+03  0.00000000000E+00 0. -1.
         -1    1    3    3    0  502  0.53375159531E+03 -0.34849483252E+03  0.10850205839E+04  0.12584153056E+04  0.00000000000E+00 0.  1.
         11    1    4    4    0    0  0.12628455104E+03  0.61513977196E+02  0.13332937684E+03  0.19367106121E+03  0.00000000000E+00 0. -1.
        -11    1    4    4    0    0  0.80739235002E+02 -0.61764036984E+02  0.54446585826E+02  0.11531717583E+03  0.00000000000E+00 0.  1.
          3    1    5    5  503    0 -0.46565419215E+03  0.18605703604E+03  0.63764783082E+03  0.81120022404E+03  0.00000000000E+00 0. -1.
         -3    1    5    5    0  503 -0.33061957090E+03  0.21904316196E+03  0.50951489799E+03  0.64567378663E+03  0.00000000000E+00 0.  1.
<mgrwt>
<rscale>  0 0.18931785E+04</rscale>
<asrwt>0</asrwt>
<pdfrwt beam="1">  1        2 0.43567017E+00 0.18931785E+04</pdfrwt>
<pdfrwt beam="2">  1       -1 0.48678660E-01 0.18931785E+04</pdfrwt>
<totfact> 0.99868878E+00</totfact>
</mgrwt>
</event>
<event>
11    6  0.1705838E-008  0.2086569E+04  0.7818608E-02  0.8567183E-01
         -1   -1    0    0    0  501 -0.00000000000E+00  0.00000000000E+00  0.71325828339E+03  0.71325828339E+03  0.00000000000E+00 0.  1.
          2   -1    0    0  501    0  0.00000000000E+00 -0.00000000000E+00 -0.15260152270E+04  0.15260152270E+04  0.00000000000E+00 0. -1.
         24    2    1    2    0    0  0.16394531384E+03  0.19447811160E+02  0.55877515173E+03  0.58824077999E+03  0.80878067252E+02 0.  0.
        254    2    1    2    0    0 -0.16394531384E+03 -0.19447811160E+02 -0.13715320953E+04  0.16510327304E+04  0.90418610086E+03 0.  0.
         23    2    4    4    0    0  0.12024949255E+03 -0.17487906251E+03 -0.27712113880E+03  0.36007201568E+03  0.88391763969E+02 0.  0.
          4    1    3    3  502    0  0.24121009914E+02  0.24432328277E+02  0.20407940394E+03  0.20694725149E+03  0.00000000000E+00 0. -1.
         -3    1    3    3    0  502  0.13982430393E+03 -0.49845171169E+01  0.35469574779E+03  0.38129352850E+03  0.00000000000E+00 0.  1.
         11    1    4    4    0    0  0.13405964928E+03  0.25332026933E+02 -0.29641136254E+02  0.13961482053E+03  0.00000000000E+00 0. -1.
        -11    1    4    4    0    0 -0.41825445567E+03  0.13009922442E+03 -0.10647698203E+04  0.11513458942E+04  0.00000000000E+00 0.  1.
          2    1    5    5  503    0  0.63348525850E+02 -0.69545438762E+02 -0.58389714302E+02  0.11072019922E+03  0.00000000000E+00 0.  1.
         -2    1    5    5    0  503  0.56900966702E+02 -0.10533362375E+03 -0.21873142450E+03  0.24935181645E+03  0.00000000000E+00 0. -1.
<mgrwt>
<rscale>  0 0.20865694E+04</rscale>
<asrwt>0</asrwt>
<pdfrwt beam="1">  1        2 0.23477157E+00 0.20865694E+04</pdfrwt>
<pdfrwt beam="2">  1       -1 0.10973205E+00 0.20865694E+04</pdfrwt>
<totfact> 0.99006223E+00</totfact>
</mgrwt>
</event>
<event>
12    6  0.1705838E-008  0.1964847E+04  0.7818608E-02  0.8623234E-01
         -1   -1    0    0    0  501 -0.00000000000E+00  0.00000000000E+00  0.53994028536E+03  0.53994028536E+03  0.00000000000E+00 0.  1.
          2   -1    0    0  501    0  0.00000000000E+00 -0.00000000000E+00 -0.17875239278E+04  0.17875239278E+04  0.00000000000E+00 0. -1.
         24    2    1    2    0    0  0.56178274108E+03  0.33496345458E+03 -0.99223740171E+03  0.11912297607E+04  0.81810251566E+02 0.  0.
        254    2    1    2    0    0 -0.56178274108E+03 -0.33496345458E+03 -0.25534624072E+03  0.11362344525E+04  0.89332338170E+03 0.  0.
         23    2    4    4    0    0 -0.17491062967E+03  0.12290698423E+02 -0.50924851754E+03  0.55057610257E+03  0.11425936492E+03 0.  0.
         23    2    4    4    0    0 -0.38687211141E+03 -0.34725415301E+03  0.25390227682E+03  0.58565834991E+03  0.90960756829E+02 0.  0.
          2    1    3    3  502    0  0.54685446682E+03  0.33264920321E+03 -0.98442599541E+03  0.11742230796E+04  0.00000000000E+00 0. -1.
         -1    1    3    3    0  502  0.14928274258E+02  0.23142513733E+01 -0.78114063019E+01  0.17006681044E+02  0.00000000000E+00 0.  1.
         11    1    5    5    0    0 -0.15205166060E+03 -0.25036706987E+02 -0.45773403181E+03  0.48297721278E+03  0.00000000000E+00 0. -1.
        -11    1    5    5    0    0 -0.22858969069E+02  0.37327405410E+02 -0.51514485727E+02  0.67598889793E+02  0.00000000000E+00 0.  1.
          2    1    6    6  503    0 -0.25372927326E+03 -0.18071902100E+03  0.18126458932E+03  0.36040915638E+03  0.00000000000E+00 0. -1.
         -2    1    6    6    0  503 -0.13314283815E+03 -0.16653513201E+03  0.72637687505E+02  0.22524919354E+03  0.00000000000E+00 0.  1.
<mgrwt>
<rscale>  0 0.19648473E+04</rscale>
<asrwt>0</asrwt>
<pdfrwt beam="1">  1        2 0.27500368E+00 0.19648473E+04</pdfrwt>
<pdfrwt beam="2">  1       -1 0.83067737E-01 0.19648473E+04</pdfrwt>
<totfact> 0.13385722E+01</totfact>
</mgrwt>
</event>
<event>
12    6  0.1705838E-008  0.2558969E+04  0.7818608E-02  0.8382273E-01
         -1   -1    0    0    0  501 -0.00000000000E+00  0.00000000000E+00  0.15263309857E+04  0.15263309857E+04  0.00000000000E+00 0.  1.
          2   -1    0    0  501    0  0.00000000000E+00 -0.00000000000E+00 -0.10725596404E+04  0.10725596404E+04  0.00000000000E+00 0. -1.
         24    2    1    2    0    0 -0.25618328823E+03  0.51462254478E+03 -0.77739417830E+03  0.96979266492E+03  0.75431185212E+02 0.  0.
        254    2    1    2    0    0  0.25618328823E+03 -0.51462254478E+03  0.12311655236E+04  0.16290979612E+04  0.89873543383E+03 0.  0.
         23    2    4    4    0    0  0.11604374443E+03 -0.69910372261E+03  0.54802192603E+03  0.90199645411E+03  0.10515420214E+03 0.  0.
         23    2    4    4    0    0  0.14013954380E+03  0.18448117783E+03  0.68314359758E+03  0.72710150713E+03  0.91208716932E+02 0.  0.
          4    1    3    3  502    0 -0.92263675989E+02  0.22867060813E+03 -0.38681322700E+03  0.45872356111E+03  0.00000000000E+00 0. -1.
         -3    1    3    3    0  502 -0.16391961225E+03  0.28595193665E+03 -0.39058095130E+03  0.51106910381E+03  0.00000000000E+00 0.  1.
         11    1    5    5    0    0  0.91246210164E+02 -0.41643401823E+03  0.38681048630E+03  0.57564356569E+03  0.00000000000E+00 0.  1.
        -11    1    5    5    0    0  0.24797534268E+02 -0.28266970438E+03  0.16121143973E+03  0.32635288842E+03  0.00000000000E+00 0. -1.
          3    1    6    6  503    0 -0.72110597983E+01  0.41776113372E+02  0.14938753882E+03  0.15528644431E+03  0.00000000000E+00 0. -1.
         -3    1    6    6    0  503  0.14735060360E+03  0.14270506446E+03  0.53375605877E+03  0.57181506282E+03  0.00000000000E+00 0.  1.
<mgrwt>
<rscale>  0 0.25589693E+04</rscale>
<asrwt>0</asrwt>
<pdfrwt beam="1">  1        2 0.16500918E+00 0.25589693E+04</pdfrwt>
<pdfrwt beam="2">  1       -1 0.23482015E+00 0.25589693E+04</pdfrwt>
<totfact> 0.20104265E+00</totfact>
</mgrwt>
</event>
<event>
11    6  0.1705838E-008  0.1107227E+04  0.7818608E-02  0.9198177E-01
          2   -1    0    0  501    0  0.00000000000E+00  0.00000000000E+00  0.60006880086E+03  0.60006880086E+03  0.00000000000E+00 0. -1.
         -1   -1    0    0    0  501 -0.00000000000E+00 -0.00000000000E+00 -0.51075430887E+03  0.51075430887E+03  0.00000000000E+00 0.  1.
         24    2    1    2    0    0 -0.15786509626E+03 -0.41909345475E+02 -0.60304054312E+02  0.19296687535E+03  0.83197681211E+02 0.  0.
        254    2    1    2    0    0  0.15786509626E+03  0.41909345475E+02  0.14961854630E+03  0.91785623438E+03  0.89072811549E+03 0.  0.
         23    2    4    4    0    0  0.18438616782E+03 -0.31761286679E+03  0.16280998565E+02  0.37842847262E+03  0.89815621932E+02 0.  0.
          2    1    3    3  502    0 -0.37276921820E+02 -0.46199911293E+02 -0.31389694696E+01  0.59446226399E+02  0.00000000000E+00 0. -1.
         -1    1    3    3    0  502 -0.12058817444E+03  0.42905658181E+01 -0.57165084842E+02  0.13352064895E+03  0.00000000000E+00 0.  1.
         11    1    4    4    0    0  0.17309548863E+03  0.12213563908E+03  0.67670335510E+02  0.22239252871E+03  0.00000000000E+00 0.  1.
        -11    1    4    4    0    0 -0.19961656018E+03  0.23738657319E+03  0.65667212228E+02  0.31703523305E+03  0.00000000000E+00 0. -1.
          4    1    5    5  503    0  0.14362332564E+03 -0.19523495022E+03  0.44413526291E+02  0.24640800875E+03  0.00000000000E+00 0. -1.
         -4    1    5    5    0  503  0.40762842181E+02 -0.12237791657E+03 -0.28132527727E+02  0.13202046388E+03  0.00000000000E+00 0.  1.
<mgrwt>
<rscale>  0 0.11072267E+04</rscale>
<asrwt>0</asrwt>
<pdfrwt beam="1">  1        2 0.92318278E-01 0.11072267E+04</pdfrwt>
<pdfrwt beam="2">  1       -1 0.78577585E-01 0.11072267E+04</pdfrwt>
<totfact> 0.91194462E+01</totfact>
</mgrwt>
</event>
<event>
12    6  0.1705838E-008  0.5368704E+04  0.7818608E-02  0.7774018E-01
          2   -1    0    0  501    0  0.00000000000E+00  0.00000000000E+00  0.25735065484E+04  0.25735065484E+04  0.00000000000E+00 0. -1.
         -1   -1    0    0    0  501 -0.00000000000E+00 -0.00000000000E+00 -0.27999714660E+04  0.27999714660E+04  0.00000000000E+00 0.  1.
         24    2    1    2    0    0 -0.59299260433E+03  0.18746827435E+04 -0.18657463689E+04  0.27117686806E+04  0.81266517589E+02 0.  0.
        254    2    1    2    0    0  0.59299260433E+03 -0.18746827435E+04  0.16392814512E+04  0.26617093337E+04  0.72895629710E+03 0.  0.
         23    2    4    4    0    0  0.39997335448E+03 -0.71458138542E+03  0.10688737596E+04  0.13512539409E+04  0.11309667582E+03 0.  0.
         23    2    4    4    0    0  0.19301924985E+03 -0.11601013581E+04  0.57040769167E+03  0.13104553928E+04  0.94004308715E+02 0.  0.
          4    1    3    3  502    0 -0.19057087625E+02  0.11352519367E+03 -0.12366656065E+03  0.16895135515E+03  0.00000000000E+00 0. -1.
         -3    1    3    3    0  502 -0.57393551671E+03  0.17611575498E+04 -0.17420798082E+04  0.25428173255E+04  0.00000000000E+00 0.  1.
         11    1    5    5    0    0  0.85933941306E+02 -0.13668377929E+03  0.14384901445E+03  0.21623976681E+03  0.00000000000E+00 0.  1.
        -11    1    5    5    0    0  0.31403941318E+03 -0.57789760612E+03  0.92502474513E+03  0.11350141740E+04  0.00000000000E+00 0. -1.
          1    1    6    6  503    0  0.40419418849E+02 -0.52778482370E+03  0.25563845220E+03  0.58782783856E+03  0.00000000000E+00 0.  1.
         -1    1    6    6    0  503  0.15259983100E+03 -0.63231653438E+03  0.31476923947E+03  0.72262755427E+03  0.00000000000E+00 0. -1.
<mgrwt>
<rscale>  0 0.53687037E+04</rscale>
<asrwt>0</asrwt>
<pdfrwt beam="1">  1        2 0.39592409E+00 0.53687037E+04</pdfrwt>
<pdfrwt beam="2">  1       -1 0.43076484E+00 0.53687037E+04</pdfrwt>
<totfact> 0.11175281E-02</totfact>
</mgrwt>
</event>
<event>
11    6  0.1705838E-008  0.2860971E+04  0.7818608E-02  0.8284585E-01
         -1   -1    0    0    0  501 -0.00000000000E+00  0.00000000000E+00  0.65233146671E+03  0.65233146671E+03  0.00000000000E+00 0.  1.
          2   -1    0    0  501    0  0.00000000000E+00 -0.00000000000E+00 -0.31368856712E+04  0.31368856712E+04  0.00000000000E+00 0. -1.
         24    2    1    2    0    0 -0.84765363686E+03  0.45659270776E+03 -0.22473537555E+04  0.24462162537E+04  0.79884093802E+02 0.  0.
        254    2    1    2    0    0  0.84765363686E+03 -0.45659270776E+03 -0.23720044890E+03  0.13430008842E+04  0.90575589042E+03 0.  0.
         23    2    4    4    0    0  0.18942600221E+03 -0.23830104847E+03  0.28234972005E+03  0.42497139650E+03  0.90607524018E+02 0.  0.
          4    1    3    3  502    0 -0.23856821133E+03  0.10536651713E+03 -0.68403921508E+03  0.73207003911E+03  0.00000000000E+00 0. -1.
         -3    1    3    3    0  502 -0.60908542554E+03  0.35122619063E+03 -0.15633145405E+04  0.17141462146E+04  0.00000000000E+00 0.  1.
         11    1    4    4    0    0  0.59338730388E+03 -0.96966156321E+02 -0.33639037496E+03  0.68896256229E+03  0.00000000000E+00 0.  1.
        -11    1    4    4    0    0  0.64840330773E+02 -0.12132550297E+03 -0.18315979399E+03  0.22906692537E+03  0.00000000000E+00 0. -1.
          3    1    5    5  503    0  0.19678882228E+02  0.51319173106E+01  0.12596105843E+02  0.23921890883E+02  0.00000000000E+00 0. -1.
         -3    1    5    5    0  503  0.16974711999E+03 -0.24343296578E+03  0.26975361421E+03  0.40104950561E+03  0.00000000000E+00 0.  1.
<mgrwt>
<rscale>  0 0.28609713E+04</rscale>
<asrwt>0</asrwt>
<pdfrwt beam="1">  1        2 0.48259780E+00 0.28609713E+04</pdfrwt>
<pdfrwt beam="2">  1       -1 0.10035869E+00 0.28609713E+04</pdfrwt>
<totfact> 0.13247550E+00</totfact>
</mgrwt>
</event>
<event>
12    6  0.1705838E-008  0.1490094E+04  0.7818608E-02  0.8891067E-01
         -1   -1    0    0    0  501 -0.00000000000E+00  0.00000000000E+00  0.11185636093E+04  0.11185636093E+04  0.00000000000E+00 0.  1.
          2   -1    0    0  501    0  0.00000000000E+00 -0.00000000000E+00 -0.49625720761E+03  0.49625720761E+03  0.00000000000E+00 0. -1.
         24    2    1    2    0    0  0.40783766498E+03  0.86541232773E+02 -0.43373886743E+02  0.42675989494E+03  0.80135934068E+02 0.  0.
        254    2    1    2    0    0 -0.40783766498E+03 -0.86541232773E+02  0.66568028844E+03  0.11880609220E+04  0.89136836490E+03 0.  0.
         23    2    4    4    0    0 -0.29705854433E+03 -0.26223685850E+03  0.81998657727E+03  0.91406505320E+03  0.78262288949E+02 0.  0.
         23    2    4    4    0    0 -0.11077912065E+03  0.17569562573E+03 -0.15430628883E+03  0.27399586877E+03  0.90124019310E+02 0.  0.
          4    1    3    3  502    0  0.35260033276E+03  0.95264784389E+02 -0.55781738736E+02  0.36947797794E+03  0.00000000000E+00 0. -1.
         -3    1    3    3    0  502  0.55237332223E+02 -0.87235516166E+01  0.12407851992E+02  0.57281916999E+02  0.00000000000E+00 0.  1.
         11    1    5    5    0    0 -0.21128824825E+03 -0.22939704449E+03  0.64485118399E+03  0.71630913533E+03  0.00000000000E+00 0.  1.
        -11    1    5    5    0    0 -0.85770296080E+02 -0.32839814015E+02  0.17513539328E+03  0.19775591787E+03  0.00000000000E+00 0. -1.
          3    1    6    6  503    0  0.15512845516E+02  0.28289400396E+02 -0.23848122657E+02  0.40120711672E+02  0.00000000000E+00 0. -1.
         -3    1    6    6    0  503 -0.12629196617E+03  0.14740622533E+03 -0.13045816617E+03  0.23387515710E+03  0.00000000000E+00 0.  1.
<mgrwt>
<rscale>  0 0.14900943E+04</rscale>
<asrwt>0</asrwt>
<pdfrwt beam="1">  1        2 0.76347263E-01 0.14900943E+04</pdfrwt>
<pdfrwt beam="2">  1       -1 0.17208671E+00 0.14900943E+04</pdfrwt>
<totfact> 0.16311023E+01</totfact>
</mgrwt>
</event>
<event>
11    6  0.1705838E-008  0.3072379E+04  0.7818608E-02  0.8223359E-01
          2   -1    0    0  501    0  0.00000000000E+00  0.00000000000E+00  0.11315273602E+04  0.11315273602E+04  0.00000000000E+00 0. -1.
         -1   -1    0    0    0  501 -0.00000000000E+00 -0.00000000000E+00 -0.20855681767E+04  0.20855681767E+04  0.00000000000E+00 0.  1.
         24    2    1    2    0    0  0.86075292766E+03  0.53543652514E+03 -0.14502003364E+04  0.17711538605E+04  0.79480231188E+02 0.  0.
        254    2    1    2    0    0 -0.86075292766E+03 -0.53543652514E+03  0.49615951988E+03  0.14459416764E+04  0.90387232912E+03 0.  0.
         23    2    4    4    0    0 -0.97155798142E+03 -0.45224896517E+03  0.24760528150E+03  0.11037649413E+04  0.92383073915E+02 0.  0.
          2    1    3    3  502    0  0.18916800931E+03  0.15668914838E+03 -0.33727341887E+03  0.41724019946E+03  0.00000000000E+00 0. -1.
         -3    1    3    3    0  502  0.67158491835E+03  0.37874737676E+03 -0.11129269175E+04  0.13539136611E+04  0.00000000000E+00 0.  1.
         11    1    4    4    0    0 -0.29506736662E+02 -0.60541840155E+02  0.15352292010E+02  0.69077165459E+02  0.00000000000E+00 0. -1.
        -11    1    4    4    0    0  0.14031179042E+03 -0.22645719820E+02  0.23320194637E+03  0.27309956966E+03  0.00000000000E+00 0.  1.
          1    1    5    5  503    0 -0.16837096486E+03 -0.11520845295E+03  0.32821227827E+02  0.20663736941E+03  0.00000000000E+00 0. -1.
         -1    1    5    5    0  503 -0.80318701656E+03 -0.33704051221E+03  0.21478405368E+03  0.89712757184E+03  0.00000000000E+00 0.  1.
<mgrwt>
<rscale>  0 0.30723785E+04</rscale>
<asrwt>0</asrwt>
<pdfrwt beam="1">  1        2 0.17408113E+00 0.30723785E+04</pdfrwt>
<pdfrwt beam="2">  1       -1 0.32085664E+00 0.30723785E+04</pdfrwt>
<totfact> 0.48800022E-01</totfact>
</mgrwt>
</event>
<event>
11    6  0.1705838E-008  0.2111561E+04  0.7818608E-02  0.8556168E-01
         -1   -1    0    0    0  501 -0.00000000000E+00  0.00000000000E+00  0.24012347277E+03  0.24012347277E+03  0.00000000000E+00 0.  1.
          2   -1    0    0  501    0  0.00000000000E+00 -0.00000000000E+00 -0.46420801857E+04  0.46420801857E+04  0.00000000000E+00 0. -1.
         24    2    1    2    0    0  0.69301441441E+03  0.51048107522E+03 -0.17486898714E+04  0.19506734213E+04  0.79690799052E+02 0.  0.
        254    2    1    2    0    0 -0.69301441441E+03 -0.51048107522E+03 -0.26532668415E+04  0.29315302371E+04  0.90176753787E+03 0.  0.
         23    2    4    4    0    0 -0.34658397444E+03 -0.58658524023E+03 -0.21315657748E+04  0.22397015525E+04  0.92128695087E+02 0.  0.
          4    1    3    3  502    0  0.43067173810E+03  0.29780412631E+03 -0.11420961618E+04  0.12564032340E+04  0.00000000000E+00 0. -1.
         -1    1    3    3    0  502  0.26234267631E+03  0.21267694891E+03 -0.60659370956E+03  0.69427018724E+03  0.00000000000E+00 0.  1.
         11    1    4    4    0    0 -0.35532349863E+03  0.31697719823E+02 -0.30167737350E+03  0.46719243551E+03  0.00000000000E+00 0. -1.
        -11    1    4    4    0    0  0.88930586604E+01  0.44406445185E+02 -0.22002369315E+03  0.22463624911E+03  0.00000000000E+00 0.  1.
          4    1    5    5  503    0 -0.26113757556E+03 -0.38487148581E+03 -0.13420816354E+04  0.14203879787E+04  0.00000000000E+00 0. -1.
         -4    1    5    5    0  503 -0.85446398876E+02 -0.20171375442E+03 -0.78948413942E+03  0.81931357379E+03  0.00000000000E+00 0.  1.
<mgrwt>
<rscale>  0 0.21115610E+04</rscale>
<asrwt>0</asrwt>
<pdfrwt beam="1">  1        2 0.71416612E+00 0.21115610E+04</pdfrwt>
<pdfrwt beam="2">  1       -1 0.36942076E-01 0.21115610E+04</pdfrwt>
<totfact> 0.66229831E-01</totfact>
</mgrwt>
</event>
<event>
12    6  0.1705838E-008  0.1998087E+04  0.7818608E-02  0.8607516E-01
         -3   -1    0    0    0  501 -0.00000000000E+00  0.00000000000E+00  0.18776790396E+03  0.18776790396E+03  0.00000000000E+00 0.  1.
          2   -1    0    0  501    0  0.00000000000E+00 -0.00000000000E+00 -0.53155390594E+04  0.53155390594E+04  0.00000000000E+00 0. -1.
         24    2    1    2    0    0 -0.72673006728E+02 -0.70722605429E+03 -0.31961880989E+04  0.32755721346E+04  0.91128415748E+02 0.  0.
        254    2    1    2    0    0  0.72673006728E+02  0.70722605429E+03 -0.19315830565E+04  0.22277348287E+04  0.85225542232E+03 0.  0.
         23    2    4    4    0    0  0.38801140725E+02 -0.15581862508E+03 -0.66064407173E+03  0.68839040487E+03  0.10791565024E+03 0.  0.
         23    2    4    4    0    0  0.33871866002E+02  0.86304467937E+03 -0.12709389848E+04  0.15393444238E+04  0.91114928162E+02 0.  0.
          2    1    3    3  502    0 -0.86359988733E+02 -0.53869538055E+03 -0.23282498568E+04  0.23913172429E+04  0.00000000000E+00 0. -1.
         -1    1    3    3    0  502  0.13686982005E+02 -0.16853067374E+03 -0.86793824210E+03  0.88425489174E+03  0.00000000000E+00 0.  1.
         11    1    5    5    0    0  0.28145041074E+02 -0.17160066077E+03 -0.57865468179E+03  0.60421864493E+03  0.00000000000E+00 0. -1.
        -11    1    5    5    0    0  0.10656099652E+02  0.15782035693E+02 -0.81989389935E+02  0.84171759945E+02  0.00000000000E+00 0.  1.
          3    1    6    6  503    0  0.32649413687E+02  0.79823892865E+03 -0.12127214040E+04  0.14522205670E+04  0.00000000000E+00 0. -1.
         -3    1    6    6    0  503  0.12224523157E+01  0.64805750722E+02 -0.58217580822E+02  0.87123856854E+02  0.00000000000E+00 0.  1.
<mgrwt>
<rscale>  0 0.19980867E+04</rscale>
<asrwt>0</asrwt>
<pdfrwt beam="1">  1        2 0.81777535E+00 0.19980867E+04</pdfrwt>
<pdfrwt beam="2">  1       -3 0.28887366E-01 0.19980867E+04</pdfrwt>
<totfact> 0.90288439E-02</totfact>
</mgrwt>
</event>
<event>
12    6  0.1705838E-008  0.1312534E+04  0.7818608E-02  0.9019684E-01
          2   -1    0    0  501    0  0.00000000000E+00  0.00000000000E+00  0.99889169539E+03  0.99889169539E+03  0.00000000000E+00 0. -1.
         -1   -1    0    0    0  501 -0.00000000000E+00 -0.00000000000E+00 -0.43116424704E+03  0.43116424704E+03  0.00000000000E+00 0.  1.
         24    2    1    2    0    0 -0.33720100342E+02 -0.13746410024E+03  0.50808692619E+03  0.53319690754E+03  0.78186914633E+02 0.  0.
        254    2    1    2    0    0  0.33720100342E+02  0.13746410024E+03  0.59640522158E+02  0.89685903490E+03  0.88360947968E+03 0.  0.
         23    2    4    4    0    0 -0.39084786761E+03 -0.44874299635E+02 -0.56512130165E+02  0.41114519793E+03  0.10521879366E+03 0.  0.
         23    2    4    4    0    0  0.42456796795E+03  0.18233839987E+03  0.11615265232E+03  0.48571383697E+03  0.94452322938E+02 0.  0.
          2    1    3    3  502    0  0.21449238553E+02 -0.29752104224E+02  0.17511311897E+03  0.17891300114E+03  0.00000000000E+00 0. -1.
         -1    1    3    3    0  502 -0.55169338895E+02 -0.10771199601E+03  0.33297380722E+03  0.35428390640E+03  0.00000000000E+00 0.  1.
         11    1    5    5    0    0 -0.36345094016E+03 -0.56169180814E+02 -0.76187472917E+02  0.37557435190E+03  0.00000000000E+00 0.  1.
        -11    1    5    5    0    0 -0.27396927444E+02  0.11294881180E+02  0.19675342751E+02  0.35570846020E+02  0.00000000000E+00 0. -1.
          2    1    6    6  503    0  0.22028812731E+03  0.50624202612E+02  0.30888083005E+02  0.22813097684E+03  0.00000000000E+00 0. -1.
         -2    1    6    6    0  503  0.20427984064E+03  0.13171419726E+03  0.85264569318E+02  0.25758286013E+03  0.00000000000E+00 0.  1.
<mgrwt>
<rscale>  0 0.13125340E+04</rscale>
<asrwt>0</asrwt>
<pdfrwt beam="1">  1        2 0.15367565E+00 0.13125340E+04</pdfrwt>
<pdfrwt beam="2">  1       -1 0.66332961E-01 0.13125340E+04</pdfrwt>
<totfact> 0.64926908E+01</totfact>
</mgrwt>
</event>
<event>
12    6  0.1705838E-008  0.1568079E+04  0.7818608E-02  0.8840402E-01
         -1   -1    0    0    0  501 -0.00000000000E+00  0.00000000000E+00  0.81878175969E+03  0.81878175969E+03  0.00000000000E+00 0.  1.
          2   -1    0    0  501    0  0.00000000000E+00 -0.00000000000E+00 -0.75077132336E+03  0.75077132336E+03  0.00000000000E+00 0. -1.
         24    2    1    2    0    0 -0.30280500439E+03  0.34681920560E+03 -0.22820322287E+03  0.52011716001E+03  0.80440767983E+02 0.  0.
        254    2    1    2    0    0  0.30280500439E+03 -0.34681920560E+03  0.29621365919E+03  0.10494359230E+04  0.89532049715E+03 0.  0.
         23    2    4    4    0    0  0.61025325070E+03 -0.23521637133E+03  0.15467721728E+03  0.68176752907E+03  0.11465666493E+03 0.  0.
         23    2    4    4    0    0 -0.30744824631E+03 -0.11160283427E+03  0.14153644191E+03  0.36766839397E+03  0.90376251053E+02 0.  0.
          4    1    3    3  502    0 -0.20137988047E+03  0.22334641266E+03 -0.19034151288E+03  0.35590359345E+03  0.00000000000E+00 0. -1.
         -3    1    3    3    0  502 -0.10142512392E+03  0.12347279294E+03 -0.37861709984E+02  0.16421356656E+03  0.00000000000E+00 0.  1.
         11    1    5    5    0    0  0.34840592621E+03 -0.10073480719E+03  0.13414456061E+03  0.38668973860E+03  0.00000000000E+00 0. -1.
        -11    1    5    5    0    0  0.26184732449E+03 -0.13448156414E+03  0.20532656669E+02  0.29507779047E+03  0.00000000000E+00 0.  1.
          2    1    6    6  503    0 -0.15134567349E+02  0.14156807186E+02  0.45474705278E+01  0.21216734120E+02  0.00000000000E+00 0. -1.
         -2    1    6    6    0  503 -0.29231367897E+03 -0.12575964146E+03  0.13698897139E+03  0.34645165985E+03  0.00000000000E+00 0.  1.
<mgrwt>
<rscale>  0 0.15680789E+04</rscale>
<asrwt>0</asrwt>
<pdfrwt beam="1">  1        2 0.11550328E+00 0.15680789E+04</pdfrwt>
<pdfrwt beam="2">  1       -1 0.12596642E+00 0.15680789E+04</pdfrwt>
<totfact> 0.22572083E+01</totfact>
</mgrwt>
</event>
<event>
11    6  0.1705838E-008  0.1964883E+04  0.7818608E-02  0.8623217E-01
          2   -1    0    0  501    0  0.00000000000E+00  0.00000000000E+00  0.19442633586E+04  0.19442633586E+04  0.00000000000E+00 0. -1.
         -3   -1    0    0    0  501 -0.00000000000E+00 -0.00000000000E+00 -0.49643015261E+03  0.49643015261E+03  0.00000000000E+00 0.  1.
         24    2    1    2    0    0  0.13018265245E+03  0.37931070355E+03 -0.24672173301E+03  0.47653715942E+03  0.73429680283E+02 0.  0.
        254    2    1    2    0    0 -0.13018265245E+03 -0.37931070355E+03  0.16945549390E+04  0.19641563518E+04  0.90860860670E+03 0.  0.
         23    2    4    4    0    0  0.15616283821E+03  0.21704242248E+03  0.67228113485E+03  0.72927714763E+03  0.91591422047E+02 0.  0.
          4    1    3    3  502    0  0.43344484998E+02  0.68677871178E+02 -0.77684192327E+02  0.11238428763E+03  0.00000000000E+00 0. -1.
         -3    1    3    3    0  502  0.86838167450E+02  0.31063283237E+03 -0.16903754068E+03  0.36415287179E+03  0.00000000000E+00 0.  1.
         11    1    4    4    0    0 -0.11408856023E+03 -0.23498788003E+03  0.59258966645E+03  0.64760946265E+03  0.00000000000E+00 0. -1.
        -11    1    4    4    0    0 -0.17225693043E+03 -0.36136524600E+03  0.42968413771E+03  0.58726974151E+03  0.00000000000E+00 0.  1.
          1    1    5    5  503    0  0.15680975462E+03  0.18469657435E+03  0.52107733798E+03  0.57465095135E+03  0.00000000000E+00 0. -1.
         -1    1    5    5    0  503 -0.64691641053E+00  0.32345848123E+02  0.15120379686E+03  0.15462619628E+03  0.00000000000E+00 0.  1.
<mgrwt>
<rscale>  0 0.19648826E+04</rscale>
<asrwt>0</asrwt>
<pdfrwt beam="1">  1        2 0.29911744E+00 0.19648826E+04</pdfrwt>
<pdfrwt beam="2">  1       -3 0.76373870E-01 0.19648826E+04</pdfrwt>
<totfact> 0.68909113E+00</totfact>
</mgrwt>
</event>
<event>
12    6  0.1705838E-008  0.1055582E+04  0.7818608E-02  0.9249600E-01
         -1   -1    0    0    0  501 -0.00000000000E+00  0.00000000000E+00  0.17878293931E+03  0.17878293931E+03  0.00000000000E+00 0.  1.
          2   -1    0    0  501    0  0.00000000000E+00 -0.00000000000E+00 -0.15581095252E+04  0.15581095252E+04  0.00000000000E+00 0. -1.
         24    2    1    2    0    0 -0.92272175717E+02 -0.69328536131E+02 -0.31552459256E+03  0.34581490583E+03  0.81924234788E+02 0.  0.
        254    2    1    2    0    0  0.92272175717E+02  0.69328536131E+02 -0.10638019933E+04  0.13910775587E+04  0.88887653412E+03 0.  0.
         23    2    4    4    0    0  0.46949100592E+03  0.11913489142E+03 -0.69183415083E+03  0.85142903180E+03  0.10808319450E+03 0.  0.
         23    2    4    4    0    0 -0.37721883021E+03 -0.49806355287E+02 -0.37196784248E+03  0.53964852686E+03  0.89920730753E+02 0.  0.
          2    1    3    3  502    0 -0.42211900384E+02 -0.63236184482E+02 -0.25962787779E+03  0.27053150369E+03  0.00000000000E+00 0. -1.
         -1    1    3    3    0  502 -0.50060275333E+02 -0.60923516492E+01 -0.55896714774E+02  0.75283402139E+02  0.00000000000E+00 0.  1.
         11    1    5    5    0    0  0.33711157429E+03  0.99977849263E+02 -0.41471162975E+03  0.54371455720E+03  0.00000000000E+00 0. -1.
        -11    1    5    5    0    0  0.13237943163E+03  0.19157042156E+02 -0.27712252109E+03  0.30771447460E+03  0.00000000000E+00 0.  1.
          1    1    6    6  503    0 -0.11276066706E+03 -0.39226790578E+02 -0.16500297491E+03  0.20366563497E+03  0.00000000000E+00 0. -1.
         -1    1    6    6    0  503 -0.26445816314E+03 -0.10579564710E+02 -0.20696486756E+03  0.33598289190E+03  0.00000000000E+00 0.  1.
<mgrwt>
<rscale>  0 0.10555821E+04</rscale>
<asrwt>0</asrwt>
<pdfrwt beam="1">  1        2 0.23970915E+00 0.10555821E+04</pdfrwt>
<pdfrwt beam="2">  1       -1 0.27505068E-01 0.10555821E+04</pdfrwt>
<totfact> 0.15846262E+02</totfact>
</mgrwt>
</event>
<event>
12    6  0.1705838E-008  0.2866178E+04  0.7818608E-02  0.8283012E-01
         -1   -1    0    0    0  501 -0.00000000000E+00  0.00000000000E+00  0.57860431128E+03  0.57860431128E+03  0.00000000000E+00 0.  1.
          2   -1    0    0  501    0  0.00000000000E+00 -0.00000000000E+00 -0.35494802917E+04  0.35494802917E+04  0.00000000000E+00 0. -1.
         24    2    1    2    0    0 -0.18493998862E+03 -0.12302147170E+04 -0.85848252932E+03  0.15136580131E+04  0.80853435460E+02 0.  0.
        254    2    1    2    0    0  0.18493998862E+03  0.12302147170E+04 -0.21123934511E+04  0.26144265899E+04  0.90850935738E+03 0.  0.
         23    2    4    4    0    0  0.46382218798E+03  0.11031183661E+04 -0.14675623405E+04  0.18945076938E+04  0.58472446405E+02 0.  0.
         23    2    4    4    0    0 -0.27888219936E+03  0.12709635090E+03 -0.64483111054E+03  0.71991889604E+03  0.92451566916E+02 0.  0.
          4    1    3    3  502    0 -0.71612154087E+01 -0.14315161811E+02 -0.21748435289E+02  0.27003727544E+02  0.00000000000E+00 0. -1.
         -3    1    3    3    0  502 -0.17777877321E+03 -0.12158995552E+04 -0.83673409403E+03  0.14866542855E+04  0.00000000000E+00 0.  1.
         11    1    5    5    0    0  0.45988411896E+03  0.10959133861E+04 -0.14480010785E+04  0.18732930033E+04  0.00000000000E+00 0.  1.
        -11    1    5    5    0    0  0.39380690191E+01  0.72049799647E+01 -0.19561261978E+02  0.21214690525E+02  0.00000000000E+00 0. -1.
          4    1    6    6  503    0 -0.44757159960E+02  0.25005269136E+02 -0.45952175422E+02  0.68848161037E+02  0.00000000000E+00 0. -1.
         -4    1    6    6    0  503 -0.23412503940E+03  0.10209108176E+03 -0.59887893512E+03  0.65107073501E+03  0.00000000000E+00 0.  1.
<mgrwt>
<rscale>  0 0.28661784E+04</rscale>
<asrwt>0</asrwt>
<pdfrwt beam="1">  1        2 0.54607388E+00 0.28661784E+04</pdfrwt>
<pdfrwt beam="2">  1       -1 0.89016049E-01 0.28661784E+04</pdfrwt>
<totfact> 0.91279403E-01</totfact>
</mgrwt>
</event>
<event>
11    6  0.1705838E-008  0.2150471E+04  0.7818608E-02  0.8539331E-01
         -1   -1    0    0    0  501 -0.00000000000E+00  0.00000000000E+00  0.93814659222E+03  0.93814659222E+03  0.00000000000E+00 0.  1.
          2   -1    0    0  501    0  0.00000000000E+00 -0.00000000000E+00 -0.12323567499E+04  0.12323567499E+04  0.00000000000E+00 0. -1.
         24    2    1    2    0    0  0.62845112323E+03  0.50308841942E+03  0.24222046562E+03  0.84429638396E+03  0.78210344383E+02 0.  0.
        254    2    1    2    0    0 -0.62845112323E+03 -0.50308841942E+03 -0.53643062334E+03  0.13262069582E+04  0.90720356606E+03 0.  0.
         23    2    4    4    0    0  0.14402612384E+03  0.21732583439E+02  0.89803294012E+02  0.19188322445E+03  0.86825748924E+02 0.  0.
          4    1    3    3  502    0  0.28912077197E+03  0.21335851963E+03  0.14596809828E+03  0.38783935385E+03  0.00000000000E+00 0. -1.
         -3    1    3    3    0  502  0.33933035125E+03  0.28972989980E+03  0.96252367340E+02  0.45645703011E+03  0.00000000000E+00 0.  1.
         11    1    4    4    0    0 -0.41585037211E+03 -0.36501244058E+03 -0.40004705516E+03  0.68279078794E+03  0.00000000000E+00 0. -1.
        -11    1    4    4    0    0 -0.35662687496E+03 -0.15980856228E+03 -0.22618686220E+03  0.45153294581E+03  0.00000000000E+00 0.  1.
          1    1    5    5  503    0  0.17686720794E+02 -0.14200135261E+02  0.49564696399E+02  0.54508009164E+02  0.00000000000E+00 0. -1.
         -1    1    5    5    0  503  0.12633940305E+03  0.35932718700E+02  0.40238597613E+02  0.13737521528E+03  0.00000000000E+00 0.  1.
<mgrwt>
<rscale>  0 0.21504709E+04</rscale>
<asrwt>0</asrwt>
<pdfrwt beam="1">  1        2 0.18959335E+00 0.21504709E+04</pdfrwt>
<pdfrwt beam="2">  1       -1 0.14433024E+00 0.21504709E+04</pdfrwt>
<totfact> 0.73325943E+00</totfact>
</mgrwt>
</event>
<event>
12    6  0.1705838E-008  0.1524685E+04  0.7818608E-02  0.8868202E-01
          2   -1    0    0  501    0  0.00000000000E+00  0.00000000000E+00  0.18495310115E+04  0.18495310115E+04  0.00000000000E+00 0. -1.
         -3   -1    0    0    0  501 -0.00000000000E+00 -0.00000000000E+00 -0.31422333917E+03  0.31422333917E+03  0.00000000000E+00 0.  1.
         24    2    1    2    0    0  0.23418985573E+02  0.15530903096E+03 -0.14894742473E+03  0.23111245692E+03  0.80983260152E+02 0.  0.
        254    2    1    2    0    0 -0.23418985573E+02 -0.15530903096E+03  0.16842550971E+04  0.19326418937E+04  0.93472996822E+03 0.  0.
         23    2    4    4    0    0  0.15096230351E+03  0.31266882997E+03  0.10948996280E+04  0.11549389103E+04  0.12052915340E+03 0.  0.
         23    2    4    4    0    0 -0.17438128909E+03 -0.46797786094E+03  0.58935546904E+03  0.77770298343E+03  0.89832896120E+02 0.  0.
          4    1    3    3  502    0 -0.20315481016E+02  0.48245638078E+02 -0.82570823541E+02  0.97766565158E+02  0.00000000000E+00 0. -1.
         -3    1    3    3    0  502  0.43734466589E+02  0.10706339289E+03 -0.66376601191E+02  0.13334589176E+03  0.00000000000E+00 0.  1.
         11    1    5    5    0    0  0.83201609727E+02  0.27867978689E+03  0.89950614967E+03  0.94535508925E+03  0.00000000000E+00 0.  1.
        -11    1    5    5    0    0  0.67760693786E+02  0.33989043079E+02  0.19539347835E+03  0.20958382107E+03  0.00000000000E+00 0. -1.
          2    1    6    6  503    0 -0.26165360341E+02 -0.49218300691E+02  0.29632533733E+02  0.63128078223E+02  0.00000000000E+00 0. -1.
         -2    1    6    6    0  503 -0.14821592874E+03 -0.41875956025E+03  0.55972293531E+03  0.71457490520E+03  0.00000000000E+00 0.  1.
<mgrwt>
<rscale>  0 0.15246846E+04</rscale>
<asrwt>0</asrwt>
<pdfrwt beam="1">  1        2 0.28454323E+00 0.15246846E+04</pdfrwt>
<pdfrwt beam="2">  1       -3 0.48342053E-01 0.15246846E+04</pdfrwt>
<totfact> 0.21323651E+01</totfact>
</mgrwt>
</event>
<event>
11    6  0.1705838E-008  0.3022223E+04  0.7818608E-02  0.8237413E-01
          2   -1    0    0  501    0  0.00000000000E+00  0.00000000000E+00  0.12706274253E+04  0.12706274253E+04  0.00000000000E+00 0. -1.
         -1   -1    0    0    0  501 -0.00000000000E+00 -0.00000000000E+00 -0.17971103454E+04  0.17971103454E+04  0.00000000000E+00 0.  1.
         24    2    1    2    0    0 -0.91822848789E+03  0.58624128609E+03 -0.10946309060E+04  0.15464736681E+04  0.80880061580E+02 0.  0.
        254    2    1    2    0    0  0.91822848789E+03 -0.58624128609E+03  0.56814798592E+03  0.15212641026E+04  0.89701166907E+03 0.  0.
         23    2    4    4    0    0  0.92690688153E+03 -0.27631779277E+03  0.50084516842E+03  0.10931051467E+04  0.92331410468E+02 0.  0.
          2    1    3    3  502    0 -0.15115446665E+03  0.13317802707E+03 -0.19484230067E+03  0.28026341505E+03  0.00000000000E+00 0. -1.
         -1    1    3    3    0  502 -0.76707402124E+03  0.45306325902E+03 -0.89978860534E+03  0.12662102531E+04  0.00000000000E+00 0.  1.
         11    1    4    4    0    0 -0.11352751098E+03 -0.32792387193E+02 -0.18673908635E+02  0.11963507542E+03  0.00000000000E+00 0. -1.
        -11    1    4    4    0    0  0.10484911734E+03 -0.27713110613E+03  0.85976726133E+02  0.30852388048E+03  0.00000000000E+00 0.  1.
          3    1    5    5  503    0  0.78427089329E+03 -0.22942145096E+03  0.38409752825E+03  0.90290971167E+03  0.00000000000E+00 0. -1.
         -3    1    5    5    0  503  0.14263598824E+03 -0.46896341814E+02  0.11674764017E+03  0.19019543502E+03  0.00000000000E+00 0.  1.
<mgrwt>
<rscale>  0 0.30222228E+04</rscale>
<asrwt>0</asrwt>
<pdfrwt beam="1">  1        2 0.19548114E+00 0.30222228E+04</pdfrwt>
<pdfrwt beam="2">  1       -1 0.27647852E+00 0.30222228E+04</pdfrwt>
<totfact> 0.78519325E-01</totfact>
</mgrwt>
</event>
<event>
12    6  0.1705838E-008  0.1357628E+04  0.7818608E-02  0.8985074E-01
         -1   -1    0    0    0  501 -0.00000000000E+00  0.00000000000E+00  0.85124665608E+03  0.85124665608E+03  0.00000000000E+00 0.  1.
          2   -1    0    0  501    0  0.00000000000E+00 -0.00000000000E+00 -0.54131036729E+03  0.54131036729E+03  0.00000000000E+00 0. -1.
         24    2    1    2    0    0  0.15015800910E+02 -0.18657692459E+03 -0.25358032437E+03  0.32482921429E+03  0.78578715196E+02 0.  0.
        254    2    1    2    0    0 -0.15015800910E+02  0.18657692459E+03  0.56351661316E+03  0.10677278091E+04  0.88738676907E+03 0.  0.
         23    2    4    4    0    0 -0.40092535426E+02 -0.32809451257E+03  0.39014719372E+03  0.51656583640E+03  0.73293996994E+02 0.  0.
         23    2    4    4    0    0  0.25076734516E+02  0.51467143715E+03  0.17336941944E+03  0.55116197269E+03  0.90592680193E+02 0.  0.
          4    1    3    3  502    0 -0.18225826945E+02 -0.11383143411E+03 -0.19174835241E+03  0.22373467950E+03  0.00000000000E+00 0. -1.
         -1    1    3    3    0  502  0.33241627855E+02 -0.72745490476E+02 -0.61831971957E+02  0.10109453478E+03  0.00000000000E+00 0.  1.
         11    1    5    5    0    0 -0.45752130034E+02 -0.10332403260E+03  0.14667778506E+03  0.18515800211E+03  0.00000000000E+00 0. -1.
        -11    1    5    5    0    0  0.56595946073E+01 -0.22477047997E+03  0.24346940866E+03  0.33140783429E+03  0.00000000000E+00 0.  1.
          4    1    6    6  503    0  0.54152113702E+02  0.23473224939E+03  0.64393118431E+02  0.24935547722E+03  0.00000000000E+00 0. -1.
         -4    1    6    6    0  503 -0.29075379186E+02  0.27993918777E+03  0.10897630101E+03  0.30180649546E+03  0.00000000000E+00 0.  1.
<mgrwt>
<rscale>  0 0.13576283E+04</rscale>
<asrwt>0</asrwt>
<pdfrwt beam="1">  1        2 0.83278517E-01 0.13576283E+04</pdfrwt>
<pdfrwt beam="2">  1       -1 0.13096102E+00 0.13576283E+04</pdfrwt>
<totfact> 0.31173848E+01</totfact>
</mgrwt>
</event>
<event>
12    6  0.1705838E-008  0.1406586E+04  0.7818608E-02  0.8949065E-01
          2   -1    0    0  501    0  0.00000000000E+00  0.00000000000E+00  0.90781514634E+03  0.90781514634E+03  0.00000000000E+00 0. -1.
         -1   -1    0    0    0  501 -0.00000000000E+00 -0.00000000000E+00 -0.54484782663E+03  0.54484782663E+03  0.00000000000E+00 0.  1.
         24    2    1    2    0    0  0.21704611526E+03  0.67251209303E+02 -0.24230404806E+03  0.34180972731E+03  0.80566101300E+02 0.  0.
        254    2    1    2    0    0 -0.21704611526E+03 -0.67251209303E+02  0.60527136777E+03  0.11108532457E+04  0.90333258738E+03 0.  0.
         23    2    4    4    0    0 -0.15148906014E+03 -0.31108473753E+03 -0.89926616145E+02  0.36556845105E+03  0.76359981958E+02 0.  0.
         23    2    4    4    0    0 -0.65557055117E+02  0.24383352822E+03  0.69519798392E+03  0.74528479460E+03  0.91633352376E+02 0.  0.
          4    1    3    3  502    0  0.76659292536E+02  0.42615507629E+02 -0.45483913999E+02  0.98800379833E+02  0.00000000000E+00 0. -1.
         -3    1    3    3    0  502  0.14038682272E+03  0.24635701674E+02 -0.19682013406E+03  0.24300934748E+03  0.00000000000E+00 0.  1.
         11    1    5    5    0    0 -0.10460978802E+03 -0.12790260169E+03 -0.40221694487E+02  0.17005901322E+03  0.00000000000E+00 0.  1.
        -11    1    5    5    0    0 -0.46879272123E+02 -0.18318213583E+03 -0.49704921658E+02  0.19550943783E+03  0.00000000000E+00 0. -1.
          4    1    6    6  503    0 -0.75602633535E+02  0.23199666280E+03  0.58277608346E+03  0.63179599018E+03  0.00000000000E+00 0. -1.
         -4    1    6    6    0  503  0.10045578418E+02  0.11836865419E+02  0.11242190045E+03  0.11348880442E+03  0.00000000000E+00 0.  1.
<mgrwt>
<rscale>  0 0.14065861E+04</rscale>
<asrwt>0</asrwt>
<pdfrwt beam="1">  1        2 0.13966387E+00 0.14065861E+04</pdfrwt>
<pdfrwt beam="2">  1       -1 0.83822743E-01 0.14065861E+04</pdfrwt>
<totfact> 0.45397231E+01</totfact>
</mgrwt>
</event>
<event>
12    6  0.1705838E-008  0.1769921E+04  0.7818608E-02  0.8722461E-01
         -1   -1    0    0    0  501 -0.00000000000E+00  0.00000000000E+00  0.95760988585E+03  0.95760988585E+03  0.00000000000E+00 0.  1.
          2   -1    0    0  501    0  0.00000000000E+00 -0.00000000000E+00 -0.81782292291E+03  0.81782292291E+03  0.00000000000E+00 0. -1.
         24    2    1    2    0    0 -0.11811393468E+03 -0.19104266233E+03 -0.56889174081E+03  0.61708981629E+03  0.81937953449E+02 0.  0.
        254    2    1    2    0    0  0.11811393468E+03  0.19104266233E+03  0.70867870374E+03  0.11583429925E+04  0.88830444255E+03 0.  0.
         23    2    4    4    0    0 -0.36713612076E+03  0.10410334803E+03  0.44890481369E+03  0.59375216305E+03  0.73482386583E+02 0.  0.
         23    2    4    4    0    0  0.48525005544E+03  0.86939314292E+02  0.25977389005E+03  0.56459082941E+03  0.90853013314E+02 0.  0.
          4    1    3    3  502    0 -0.66586147243E+02 -0.16589163691E+03 -0.38517820191E+03  0.42463631195E+03  0.00000000000E+00 0. -1.
         -3    1    3    3    0  502 -0.51527787439E+02 -0.25151025417E+02 -0.18371353891E+03  0.19245350435E+03  0.00000000000E+00 0.  1.
         11    1    5    5    0    0  0.27841905567E+01  0.41083343347E+01  0.29388945823E+01  0.57677750847E+01  0.00000000000E+00 0.  1.
        -11    1    5    5    0    0 -0.36992031132E+03  0.99995013700E+02  0.44596591911E+03  0.58798438797E+03  0.00000000000E+00 0. -1.
          3    1    6    6  503    0  0.35084957325E+03  0.92098941150E+02  0.15669203924E+03  0.39513293101E+03  0.00000000000E+00 0. -1.
         -3    1    6    6    0  503  0.13440048219E+03 -0.51596268576E+01  0.10308185081E+03  0.16945789840E+03  0.00000000000E+00 0.  1.
<mgrwt>
<rscale>  0 0.17699213E+04</rscale>
<asrwt>0</asrwt>
<pdfrwt beam="1">  1        2 0.12581891E+00 0.17699213E+04</pdfrwt>
<pdfrwt beam="2">  1       -1 0.14732460E+00 0.17699213E+04</pdfrwt>
<totfact> 0.13230707E+01</totfact>
</mgrwt>
</event>
<event>
12    6  0.1705838E-008  0.3987095E+04  0.7818608E-02  0.8007155E-01
         -1   -1    0    0    0  501 -0.00000000000E+00  0.00000000000E+00  0.15023294799E+04  0.15023294799E+04  0.00000000000E+00 0.  1.
          2   -1    0    0  501    0  0.00000000000E+00 -0.00000000000E+00 -0.26453796117E+04  0.26453796117E+04  0.00000000000E+00 0. -1.
         24    2    1    2    0    0 -0.18705027660E+03 -0.81432658036E+03  0.12221257370E+04  0.14826366733E+04  0.80651114499E+02 0.  0.
        254    2    1    2    0    0  0.18705027660E+03  0.81432658036E+03 -0.23651758689E+04  0.26650724183E+04  0.90024358850E+03 0.  0.
         23    2    4    4    0    0 -0.89502652034E+02 -0.11585264609E+03 -0.12234127094E+03  0.21973113873E+03  0.10900379088E+03 0.  0.
         23    2    4    4    0    0  0.27655292863E+03  0.93017922645E+03 -0.22428345979E+04  0.24453412796E+04  0.87590092137E+02 0.  0.
          4    1    3    3  502    0 -0.10177396927E+03 -0.32912221539E+03  0.55721854107E+03  0.65511210949E+03  0.00000000000E+00 0. -1.
         -3    1    3    3    0  502 -0.85276307329E+02 -0.48520436497E+03  0.66490719598E+03  0.82752456376E+03  0.00000000000E+00 0.  1.
         11    1    5    5    0    0 -0.10498335903E+03 -0.70065133040E+02 -0.11517678545E+03  0.17086930810E+03  0.00000000000E+00 0. -1.
        -11    1    5    5    0    0  0.15480706999E+02 -0.45787513048E+02 -0.71644854826E+01  0.48861830631E+02  0.00000000000E+00 0.  1.
          1    1    6    6  503    0  0.24108362805E+03  0.79766773848E+03 -0.18430940641E+04  0.20227186818E+04  0.00000000000E+00 0. -1.
         -1    1    6    6    0  503  0.35469300579E+02  0.13251148797E+03 -0.39974053386E+03  0.42262259776E+03  0.00000000000E+00 0.  1.
<mgrwt>
<rscale>  0 0.39870951E+04</rscale>
<asrwt>0</asrwt>
<pdfrwt beam="1">  1        2 0.40698147E+00 0.39870951E+04</pdfrwt>
<pdfrwt beam="2">  1       -1 0.23112761E+00 0.39870951E+04</pdfrwt>
<totfact> 0.23820431E-01</totfact>
</mgrwt>
</event>
<event>
11    6  0.1705838E-008  0.1789583E+04  0.7818608E-02  0.8711859E-01
          2   -1    0    0  501    0  0.00000000000E+00  0.00000000000E+00  0.44204903045E+03  0.44204903045E+03  0.00000000000E+00 0. -1.
         -1   -1    0    0    0  501 -0.00000000000E+00 -0.00000000000E+00 -0.18112285235E+04  0.18112285235E+04  0.00000000000E+00 0.  1.
         24    2    1    2    0    0  0.11532609091E+03  0.61696934207E+03 -0.30303249151E+03  0.70154162523E+03  0.79879188246E+02 0.  0.
        254    2    1    2    0    0 -0.11532609091E+03 -0.61696934207E+03 -0.10661470015E+04  0.15517359287E+04  0.93662355686E+03 0.  0.
         23    2    4    4    0    0  0.23595728685E+03 -0.17164115596E+03 -0.64947609772E+03  0.71750568735E+03  0.88649208901E+02 0.  0.
          4    1    3    3  502    0  0.26828208486E+02  0.45422655070E+02 -0.12063463460E+02  0.54115594008E+02  0.00000000000E+00 0. -1.
         -3    1    3    3    0  502  0.88497882421E+02  0.57154668700E+03 -0.29096902805E+03  0.64742603122E+03  0.00000000000E+00 0.  1.
         11    1    4    4    0    0 -0.11873191032E+03 -0.34834998334E+03 -0.44860636662E+03  0.58025222929E+03  0.00000000000E+00 0. -1.
        -11    1    4    4    0    0 -0.23255146743E+03 -0.96978202773E+02  0.31935462831E+02  0.25397801205E+03  0.00000000000E+00 0.  1.
          4    1    5    5  503    0 -0.75388916106E+01 -0.85203864473E+01 -0.33012478862E+02  0.34917841178E+02  0.00000000000E+00 0. -1.
         -4    1    5    5    0  503  0.24349617846E+03 -0.16312076952E+03 -0.61646361886E+03  0.68258784617E+03  0.00000000000E+00 0.  1.
<mgrwt>
<rscale>  0 0.17895830E+04</rscale>
<asrwt>0</asrwt>
<pdfrwt beam="1">  1        2 0.68007543E-01 0.17895830E+04</pdfrwt>
<pdfrwt beam="2">  1       -1 0.27865054E+00 0.17895830E+04</pdfrwt>
<totfact> 0.34838087E+00</totfact>
</mgrwt>
</event>
<event>
12    6  0.1705838E-008  0.1223999E+04  0.7818608E-02  0.9092106E-01
         -1   -1    0    0    0  501 -0.00000000000E+00  0.00000000000E+00  0.17999587277E+03  0.17999587277E+03  0.00000000000E+00 0.  1.
          2   -1    0    0  501    0  0.00000000000E+00 -0.00000000000E+00 -0.20808445949E+04  0.20808445949E+04  0.00000000000E+00 0. -1.
         24    2    1    2    0    0  0.10826895373E+03 -0.21405675320E+03 -0.39994060949E+03  0.47335770637E+03  0.81071370607E+02 0.  0.
        254    2    1    2    0    0 -0.10826895373E+03  0.21405675320E+03 -0.15009081126E+04  0.17874827613E+04  0.94065243282E+03 0.  0.
         23    2    4    4    0    0  0.24194500741E+03  0.25778621181E+03 -0.13363735918E+04  0.13875057323E+04  0.11952682744E+03 0.  0.
         23    2    4    4    0    0 -0.35021396114E+03 -0.43729458606E+02 -0.16453452080E+03  0.39997702903E+03  0.91367013127E+02 0.  0.
          2    1    3    3  502    0  0.29506312230E+02 -0.12064488602E+03 -0.25609040923E+03  0.28461923457E+03  0.00000000000E+00 0. -1.
         -1    1    3    3    0  502  0.78762641502E+02 -0.93411867180E+02 -0.14385020026E+03  0.18873847181E+03  0.00000000000E+00 0.  1.
         11    1    5    5    0    0  0.14098929069E+03  0.65569311617E+02 -0.51947762638E+03  0.54224931445E+03  0.00000000000E+00 0. -1.
        -11    1    5    5    0    0  0.10095571671E+03  0.19221690019E+03 -0.81689596547E+03  0.84525641782E+03  0.00000000000E+00 0.  1.
          4    1    6    6  503    0 -0.20569314130E+03  0.17820547064E+02 -0.10821189436E+03  0.23310309813E+03  0.00000000000E+00 0. -1.
         -4    1    6    6    0  503 -0.14452081984E+03 -0.61550005670E+02 -0.56322626442E+02  0.16687393090E+03  0.00000000000E+00 0.  1.
<mgrwt>
<rscale>  0 0.12239991E+04</rscale>
<asrwt>0</asrwt>
<pdfrwt beam="1">  1        2 0.32012996E+00 0.12239991E+04</pdfrwt>
<pdfrwt beam="2">  1       -1 0.27691671E-01 0.12239991E+04</pdfrwt>
<totfact> 0.79472971E+01</totfact>
</mgrwt>
</event>
<event>
12    6  0.1705838E-008  0.1682674E+04  0.7818608E-02  0.8771308E-01
         -1   -1    0    0    0  501 -0.00000000000E+00  0.00000000000E+00  0.92227652967E+03  0.92227652967E+03  0.00000000000E+00 0.  1.
          2   -1    0    0  501    0  0.00000000000E+00 -0.00000000000E+00 -0.76750059156E+03  0.76750059156E+03  0.00000000000E+00 0. -1.
         24    2    1    2    0    0 -0.35630256902E+03 -0.65320416014E+02  0.52986462951E+03  0.64768482886E+03  0.86722744998E+02 0.  0.
        254    2    1    2    0    0  0.35630256902E+03  0.65320416014E+02 -0.37508869140E+03  0.10420922924E+04  0.90224527815E+03 0.  0.
         23    2    4    4    0    0  0.18093652235E+03  0.13887798658E+03  0.27119579061E+03  0.36216843152E+03  0.74791013279E+02 0.  0.
         23    2    4    4    0    0  0.17536604667E+03 -0.73557570565E+02 -0.64628448201E+03  0.67992386085E+03  0.91917671595E+02 0.  0.
          2    1    3    3  502    0 -0.83375496216E+02 -0.53953430293E+02  0.14004030566E+03  0.17167915779E+03  0.00000000000E+00 0. -1.
         -1    1    3    3    0  502 -0.27292707280E+03 -0.11366985722E+02  0.38982432385E+03  0.47600567108E+03  0.00000000000E+00 0.  1.
         11    1    5    5    0    0  0.29377452177E+02  0.37456980266E+02  0.10562133781E+03  0.11585304082E+03  0.00000000000E+00 0. -1.
        -11    1    5    5    0    0  0.15155907018E+03  0.10142100631E+03  0.16557445280E+03  0.24631539070E+03  0.00000000000E+00 0.  1.
          3    1    6    6  503    0  0.14363737486E+03 -0.43162859844E+02 -0.35556884403E+03  0.38590663478E+03  0.00000000000E+00 0. -1.
         -3    1    6    6    0  503  0.31728671805E+02 -0.30394710720E+02 -0.29071563798E+03  0.29401722607E+03  0.00000000000E+00 0.  1.
<mgrwt>
<rscale>  0 0.16826738E+04</rscale>
<asrwt>0</asrwt>
<pdfrwt beam="1">  1        2 0.11807701E+00 0.16826738E+04</pdfrwt>
<pdfrwt beam="2">  1       -1 0.14188870E+00 0.16826738E+04</pdfrwt>
<totfact> 0.16020639E+01</totfact>
</mgrwt>
</event>
<event>
12    6  0.1705838E-008  0.2209831E+04  0.7818608E-02  0.8514347E-01
         -3   -1    0    0    0  501 -0.00000000000E+00  0.00000000000E+00  0.11497311078E+04  0.11497311078E+04  0.00000000000E+00 0.  1.
          4   -1    0    0  501    0  0.00000000000E+00 -0.00000000000E+00 -0.10618470466E+04  0.10618470466E+04  0.00000000000E+00 0. -1.
         24    2    1    2    0    0  0.11900555341E+03  0.30567811011E+03 -0.84635788276E+03  0.91131266157E+03  0.81041179045E+02 0.  0.
        254    2    1    2    0    0 -0.11900555341E+03 -0.30567811011E+03  0.93424194394E+03  0.13002654928E+04  0.84278165209E+03 0.  0.
         23    2    4    4    0    0 -0.27172959868E+02 -0.82286721322E+02  0.10192472266E+04  0.10282765527E+04  0.10477731455E+03 0.  0.
         23    2    4    4    0    0 -0.91832593541E+02 -0.22339138879E+03 -0.85005282692E+02  0.27198894003E+03  0.91734113566E+02 0.  0.
          2    1    3    3  502    0  0.49092930513E+02  0.13898221058E+03 -0.49061453757E+03  0.51227804477E+03  0.00000000000E+00 0. -1.
         -1    1    3    3    0  502  0.69912622896E+02  0.16669589953E+03 -0.35574334519E+03  0.39903461680E+03  0.00000000000E+00 0.  1.
         11    1    5    5    0    0 -0.33654212550E+02  0.43753921790E+01  0.55025880203E+03  0.55130436176E+03  0.00000000000E+00 0.  1.
        -11    1    5    5    0    0  0.64812526820E+01 -0.86662113501E+02  0.46898842460E+03  0.47697219097E+03  0.00000000000E+00 0. -1.
          3    1    6    6  503    0 -0.67509971917E+01 -0.10619564031E+02  0.17006635406E+02  0.21156009811E+02  0.00000000000E+00 0. -1.
         -3    1    6    6    0  503 -0.85081596349E+02 -0.21277182476E+03 -0.10201191810E+03  0.25083293022E+03  0.00000000000E+00 0.  1.
<mgrwt>
<rscale>  0 0.22098313E+04</rscale>
<asrwt>0</asrwt>
<pdfrwt beam="1">  1        4 0.16336108E+00 0.22098313E+04</pdfrwt>
<pdfrwt beam="2">  1       -3 0.17688171E+00 0.22098313E+04</pdfrwt>
<totfact> 0.10222340E-01</totfact>
</mgrwt>
</event>
<event>
12    6  0.1705838E-008  0.1613733E+04  0.7818608E-02  0.8812155E-01
         -1   -1    0    0    0  501 -0.00000000000E+00  0.00000000000E+00  0.94928470418E+03  0.94928470418E+03  0.00000000000E+00 0.  1.
          2   -1    0    0  501    0  0.00000000000E+00 -0.00000000000E+00 -0.68581502704E+03  0.68581502704E+03  0.00000000000E+00 0. -1.
         24    2    1    2    0    0  0.35694168644E+03  0.25050438838E+03 -0.22535836243E+03  0.49720947045E+03  0.79189960645E+02 0.  0.
        254    2    1    2    0    0 -0.35694168644E+03 -0.25050438838E+03  0.48882803958E+03  0.11378902608E+04  0.93042010789E+03 0.  0.
         23    2    4    4    0    0 -0.51240846501E+03  0.14716226156E+03  0.43577915083E+03  0.69756555229E+03  0.11169183137E+03 0.  0.
         23    2    4    4    0    0  0.15546677857E+03 -0.39766664994E+03  0.53048888745E+02  0.44032470849E+03  0.93610793142E+02 0.  0.
          2    1    3    3  502    0  0.29810409340E+03  0.16923908594E+03 -0.17031043152E+03  0.38277089988E+03  0.00000000000E+00 0. -1.
         -1    1    3    3    0  502  0.58837593041E+02  0.81265302437E+02 -0.55047930912E+02  0.11443857056E+03  0.00000000000E+00 0.  1.
         11    1    5    5    0    0 -0.29313449967E+03  0.12362614291E+03  0.30740004766E+03  0.44238676224E+03  0.00000000000E+00 0. -1.
        -11    1    5    5    0    0 -0.21927396534E+03  0.23536118653E+02  0.12837910318E+03  0.25517879005E+03  0.00000000000E+00 0.  1.
          1    1    6    6  503    0  0.11302669935E+03 -0.18769424909E+03 -0.21488500743E+01  0.21910906751E+03  0.00000000000E+00 0. -1.
         -1    1    6    6    0  503  0.42440079222E+02 -0.20997240085E+03  0.55197738820E+02  0.22121564098E+03  0.00000000000E+00 0.  1.
<mgrwt>
<rscale>  0 0.16137332E+04</rscale>
<asrwt>0</asrwt>
<pdfrwt beam="1">  1        2 0.10551000E+00 0.16137332E+04</pdfrwt>
<pdfrwt beam="2">  1       -1 0.14604380E+00 0.16137332E+04</pdfrwt>
<totfact> 0.17245965E+01</totfact>
</mgrwt>
</event>
<event>
11    6  0.1705838E-008  0.3107192E+04  0.7818608E-02  0.8213767E-01
          2   -1    0    0  501    0  0.00000000000E+00  0.00000000000E+00  0.13609150999E+04  0.13609150999E+04  0.00000000000E+00 0. -1.
         -1   -1    0    0    0  501 -0.00000000000E+00 -0.00000000000E+00 -0.17735567109E+04  0.17735567109E+04  0.00000000000E+00 0.  1.
         24    2    1    2    0    0  0.11766201880E+04 -0.77417923829E+03 -0.25398735837E+02  0.14109246448E+04  0.79212989684E+02 0.  0.
        254    2    1    2    0    0 -0.11766201880E+04  0.77417923829E+03 -0.38724287509E+03  0.17235471660E+04  0.91480556918E+03 0.  0.
         23    2    4    4    0    0 -0.11250336313E+04  0.82012729602E+03 -0.15666554305E+03  0.14040373449E+04  0.92018043058E+02 0.  0.
          2    1    3    3  502    0  0.14993933993E+03 -0.13147934931E+03 -0.62797514798E+01  0.19951957356E+03  0.00000000000E+00 0. -1.
         -1    1    3    3    0  502  0.10266808480E+04 -0.64269988898E+03 -0.19118984357E+02  0.12114050712E+04  0.00000000000E+00 0.  1.
         11    1    4    4    0    0 -0.37764115275E+02 -0.12189846676E+03 -0.19834769361E+03  0.23585413324E+03  0.00000000000E+00 0.  1.
        -11    1    4    4    0    0 -0.13822441382E+02  0.75950409042E+02 -0.32229638429E+02  0.83655687868E+02  0.00000000000E+00 0. -1.
          4    1    5    5  503    0 -0.39333831068E+03  0.28364618563E+03 -0.10618098290E+02  0.48505971723E+03  0.00000000000E+00 0. -1.
         -4    1    5    5    0  503 -0.73169532062E+03  0.53648111039E+03 -0.14604744476E+03  0.91897762766E+03  0.00000000000E+00 0.  1.
<mgrwt>
<rscale>  0 0.31071917E+04</rscale>
<asrwt>0</asrwt>
<pdfrwt beam="1">  1        2 0.20937155E+00 0.31071917E+04</pdfrwt>
<pdfrwt beam="2">  1       -1 0.27285488E+00 0.31071917E+04</pdfrwt>
<totfact> 0.72909607E-01</totfact>
</mgrwt>
</event>
<event>
11    6  0.1705838E-008  0.3683181E+04  0.7818608E-02  0.8071699E-01
         -1   -1    0    0    0  501 -0.00000000000E+00  0.00000000000E+00  0.11758538958E+04  0.11758538958E+04  0.00000000000E+00 0.  1.
          2   -1    0    0  501    0  0.00000000000E+00 -0.00000000000E+00 -0.28842488712E+04  0.28842488712E+04  0.00000000000E+00 0. -1.
         24    2    1    2    0    0  0.15075665648E+04  0.82265509454E+03 -0.95351134416E+03  0.19659764910E+04  0.79757933847E+02 0.  0.
        254    2    1    2    0    0 -0.15075665648E+04 -0.82265509454E+03 -0.75488363125E+03  0.20941262760E+04  0.93058971154E+03 0.  0.
         23    2    4    4    0    0 -0.47768177783E+03 -0.68489073700E+03 -0.55546597967E+03  0.10074197614E+04  0.95377768273E+02 0.  0.
          2    1    3    3  502    0  0.88667327691E+03  0.45882926944E+03 -0.59132860475E+03  0.11603375876E+04  0.00000000000E+00 0. -1.
         -1    1    3    3    0  502  0.62089328789E+03  0.36382582510E+03 -0.36218273940E+03  0.80563890340E+03  0.00000000000E+00 0.  1.
         11    1    4    4    0    0 -0.32013662838E+02 -0.59147214231E+02 -0.14670745354E+02  0.68836751295E+02  0.00000000000E+00 0.  1.
        -11    1    4    4    0    0 -0.99787112413E+03 -0.78617143303E+02 -0.18474690623E+03  0.10178697633E+04  0.00000000000E+00 0. -1.
          1    1    5    5  503    0 -0.32698720912E+03 -0.40254982265E+03 -0.37512413972E+03  0.64006649252E+03  0.00000000000E+00 0. -1.
         -1    1    5    5    0  503 -0.15069456871E+03 -0.28234091435E+03 -0.18034183995E+03  0.36735326893E+03  0.00000000000E+00 0.  1.
<mgrwt>
<rscale>  0 0.36831808E+04</rscale>
<asrwt>0</asrwt>
<pdfrwt beam="1">  1        2 0.44373059E+00 0.36831808E+04</pdfrwt>
<pdfrwt beam="2">  1       -1 0.18090060E+00 0.36831808E+04</pdfrwt>
<totfact> 0.38708268E-01</totfact>
</mgrwt>
</event>
<event>
12    6  0.1705838E-008  0.1785904E+04  0.7818608E-02  0.8713832E-01
          2   -1    0    0  501    0  0.00000000000E+00  0.00000000000E+00  0.54381046928E+03  0.54381046928E+03  0.00000000000E+00 0. -1.
         -1   -1    0    0    0  501 -0.00000000000E+00 -0.00000000000E+00 -0.14662522843E+04  0.14662522843E+04  0.00000000000E+00 0.  1.
         24    2    1    2    0    0 -0.21154466567E+02  0.34256437941E+03 -0.97828201006E+03  0.10402792087E+04  0.85716249171E+02 0.  0.
        254    2    1    2    0    0  0.21154466567E+02 -0.34256437941E+03  0.55840195020E+02  0.96978354489E+03  0.90529781346E+03 0.  0.
         23    2    4    4    0    0 -0.30383041966E+03 -0.22209475618E+03  0.33964376424E+03  0.51288233137E+03  0.77790710314E+02 0.  0.
         23    2    4    4    0    0  0.32498488623E+03 -0.12046962323E+03 -0.28380356922E+03  0.45690121352E+03  0.89923003806E+02 0.  0.
          4    1    3    3  502    0  0.27849723389E+02  0.69349699754E+02 -0.17126320825E+03  0.18685843425E+03  0.00000000000E+00 0. -1.
         -3    1    3    3    0  502 -0.49004189955E+02  0.27321467965E+03 -0.80701880181E+03  0.85342077446E+03  0.00000000000E+00 0.  1.
         11    1    5    5    0    0 -0.21671792468E+03 -0.16052175479E+03  0.28732183970E+03  0.39406564454E+03  0.00000000000E+00 0.  1.
        -11    1    5    5    0    0 -0.87112494975E+02 -0.61573001390E+02  0.52321924540E+02  0.11881668683E+03  0.00000000000E+00 0. -1.
          3    1    6    6  503    0  0.16623442522E+03 -0.10625993227E+03 -0.13686490024E+03  0.24011884193E+03  0.00000000000E+00 0. -1.
         -3    1    6    6    0  503  0.15875046101E+03 -0.14209690961E+02 -0.14693866898E+03  0.21678237159E+03  0.00000000000E+00 0.  1.
<mgrwt>
<rscale>  0 0.17859041E+04</rscale>
<asrwt>0</asrwt>
<pdfrwt beam="1">  1        2 0.83663149E-01 0.17859041E+04</pdfrwt>
<pdfrwt beam="2">  1       -1 0.22557727E+00 0.17859041E+04</pdfrwt>
<totfact> 0.60847987E+00</totfact>
</mgrwt>
</event>
<event>
12    6  0.1705838E-008  0.1889974E+04  0.7818608E-02  0.8659863E-01
         -1   -1    0    0    0  501 -0.00000000000E+00  0.00000000000E+00  0.51258857900E+03  0.51258857900E+03  0.00000000000E+00 0.  1.
          2   -1    0    0  501    0  0.00000000000E+00 -0.00000000000E+00 -0.17421390524E+04  0.17421390524E+04  0.00000000000E+00 0. -1.
         24    2    1    2    0    0  0.35618477711E+02  0.55467080670E+03  0.86950888280E+02  0.56806327030E+03  0.78784784852E+02 0.  0.
        254    2    1    2    0    0 -0.35618477711E+02 -0.55467080670E+03 -0.13165013617E+04  0.16866643611E+04  0.89595337599E+03 0.  0.
         23    2    4    4    0    0  0.24823489095E+03 -0.62121664041E+03 -0.11574260604E+04  0.13411464449E+04  0.10727546782E+03 0.  0.
         23    2    4    4    0    0 -0.28385336866E+03  0.66545833707E+02 -0.15907530128E+03  0.34551791619E+03  0.95271171132E+02 0.  0.
          2    1    3    3  502    0  0.22655014846E+02  0.11305761159E+03 -0.10031058069E+02  0.11574063833E+03  0.00000000000E+00 0. -1.
         -1    1    3    3    0  502  0.12963462865E+02  0.44161319511E+03  0.96981946349E+02  0.45232263196E+03  0.00000000000E+00 0.  1.
         11    1    5    5    0    0  0.25025614930E+03 -0.59522412812E+03 -0.10681769579E+04  0.12481674232E+04  0.00000000000E+00 0.  1.
        -11    1    5    5    0    0 -0.20212583528E+01 -0.25992512289E+02 -0.89249102491E+02  0.92979021697E+02  0.00000000000E+00 0. -1.
          4    1    6    6  503    0 -0.18070890799E+03  0.87381917450E+02 -0.11583518954E+03  0.23175223852E+03  0.00000000000E+00 0.  1.
         -4    1    6    6    0  503 -0.10314446067E+03 -0.20836083743E+02 -0.43240111748E+02  0.11376567767E+03  0.00000000000E+00 0. -1.
<mgrwt>
<rscale>  0 0.18899742E+04</rscale>
<asrwt>0</asrwt>
<pdfrwt beam="1">  1        2 0.26802139E+00 0.18899742E+04</pdfrwt>
<pdfrwt beam="2">  1       -1 0.78859781E-01 0.18899742E+04</pdfrwt>
<totfact> 0.15952757E+01</totfact>
</mgrwt>
</event>
<event>
12    6  0.1705838E-008  0.2073813E+04  0.7818608E-02  0.8572867E-01
          2   -1    0    0  501    0  0.00000000000E+00  0.00000000000E+00  0.37376854277E+04  0.37376854277E+04  0.00000000000E+00 0. -1.
         -1   -1    0    0    0  501 -0.00000000000E+00 -0.00000000000E+00 -0.28765803379E+03  0.28765803379E+03  0.00000000000E+00 0.  1.
         24    2    1    2    0    0 -0.51585999460E+03 -0.66260771568E+03  0.14289050680E+04  0.16595432597E+04  0.84579067546E+02 0.  0.
        254    2    1    2    0    0  0.51585999460E+03  0.66260771568E+03  0.20211223259E+04  0.23658002017E+04  0.89828426426E+03 0.  0.
         23    2    4    4    0    0  0.29164630438E+03  0.17107867789E+03  0.10890979608E+03  0.37696800976E+03  0.12616677778E+03 0.  0.
         23    2    4    4    0    0  0.22421369022E+03  0.49152903779E+03  0.19122125298E+04  0.19888321920E+04  0.83810230958E+02 0.  0.
          2    1    3    3  502    0 -0.29521136750E+03 -0.35113489563E+03  0.85494566246E+03  0.97024612970E+03  0.00000000000E+00 0. -1.
         -1    1    3    3    0  502 -0.22064862710E+03 -0.31147282006E+03  0.57395940554E+03  0.68929713004E+03  0.00000000000E+00 0.  1.
         11    1    5    5    0    0  0.11812289121E+02  0.12629648309E+02  0.46201600129E+02  0.49331795479E+02  0.00000000000E+00 0. -1.
        -11    1    5    5    0    0  0.27983401526E+03  0.15844902958E+03  0.62708195954E+02  0.32763621429E+03  0.00000000000E+00 0.  1.
          2    1    6    6  503    0  0.32632204045E+02  0.21847253680E+02  0.12434524641E+03  0.13039901663E+03  0.00000000000E+00 0. -1.
         -2    1    6    6    0  503  0.19158148618E+03  0.46968178411E+03  0.17878672834E+04  0.18584331753E+04  0.00000000000E+00 0.  1.
<mgrwt>
<rscale>  0 0.20738131E+04</rscale>
<asrwt>0</asrwt>
<pdfrwt beam="1">  1        2 0.57502849E+00 0.20738131E+04</pdfrwt>
<pdfrwt beam="2">  1       -1 0.44255085E-01 0.20738131E+04</pdfrwt>
<totfact> 0.29256443E+00</totfact>
</mgrwt>
</event>
<event>
12    6  0.1705838E-008  0.4448703E+04  0.7818608E-02  0.7919679E-01
         -1   -1    0    0    0  501 -0.00000000000E+00  0.00000000000E+00  0.21731591540E+04  0.21731591540E+04  0.00000000000E+00 0.  1.
          2   -1    0    0  501    0  0.00000000000E+00 -0.00000000000E+00 -0.22767496460E+04  0.22767496460E+04  0.00000000000E+00 0. -1.
         24    2    1    2    0    0 -0.42660180439E+03 -0.20844924056E+04 -0.17766220431E+03  0.21366150230E+04  0.80387865906E+02 0.  0.
        254    2    1    2    0    0  0.42660180439E+03  0.20844924056E+04  0.74071712296E+02  0.23132937770E+04  0.90484462276E+03 0.  0.
         23    2    4    4    0    0  0.69603055718E+02  0.16959079496E+04 -0.19893082847E+03  0.17122103524E+04  0.10555783932E+03 0.  0.
         23    2    4    4    0    0  0.35699874868E+03  0.38858445601E+03  0.27300254077E+03  0.60108342455E+03  0.91240944718E+02 0.  0.
          4    1    3    3  502    0 -0.38985960307E+03 -0.19776580169E+04 -0.15758724028E+03  0.20218693034E+04  0.00000000000E+00 0. -1.
         -3    1    3    3    0  502 -0.36742201320E+02 -0.10683438876E+03 -0.20074964034E+02  0.11474571958E+03  0.00000000000E+00 0.  1.
         11    1    5    5    0    0  0.13294315241E+02  0.13005625328E+04 -0.13210422212E+03  0.13073221355E+04  0.00000000000E+00 0.  1.
        -11    1    5    5    0    0  0.56308740478E+02  0.39534541684E+03 -0.66826606359E+02  0.40488821690E+03  0.00000000000E+00 0. -1.
          1    1    6    6  503    0  0.98909714660E+02  0.17095949100E+03  0.11209252843E+03  0.22710133013E+03  0.00000000000E+00 0. -1.
         -1    1    6    6    0  503  0.25808903402E+03  0.21762496500E+03  0.16091001234E+03  0.37398209442E+03  0.00000000000E+00 0.  1.
<mgrwt>
<rscale>  0 0.44487029E+04</rscale>
<asrwt>0</asrwt>
<pdfrwt beam="1">  1        2 0.35026918E+00 0.44487029E+04</pdfrwt>
<pdfrwt beam="2">  1       -1 0.33433218E+00 0.44487029E+04</pdfrwt>
<totfact> 0.79748090E-02</totfact>
</mgrwt>
</event>
<event>
12    6  0.1705838E-008  0.1315938E+04  0.7818608E-02  0.9017021E-01
         -1   -1    0    0    0  501 -0.00000000000E+00  0.00000000000E+00  0.48099015951E+03  0.48099015951E+03  0.00000000000E+00 0.  1.
          2   -1    0    0  501    0  0.00000000000E+00 -0.00000000000E+00 -0.90006600755E+03  0.90006600755E+03  0.00000000000E+00 0. -1.
         24    2    1    2    0    0  0.23167550994E+03  0.24091048935E+03 -0.17358734161E+03  0.38525790470E+03  0.81115240151E+02 0.  0.
        254    2    1    2    0    0 -0.23167550994E+03 -0.24091048935E+03 -0.24548850643E+03  0.99579826235E+03  0.90533870277E+03 0.  0.
         23    2    4    4    0    0  0.58657413855E+02 -0.44587032550E+03 -0.38612165325E+03  0.60266736590E+03  0.10898157393E+03 0.  0.
         23    2    4    4    0    0 -0.29033292379E+03  0.20495983615E+03  0.14063314682E+03  0.39313089645E+03  0.92046068292E+02 0.  0.
          4    1    3    3  502    0  0.62260450729E+02  0.27941964060E+02 -0.58127221264E+02  0.89643130983E+02  0.00000000000E+00 0. -1.
         -3    1    3    3    0  502  0.16941505921E+03  0.21296852529E+03 -0.11546012034E+03  0.29561477372E+03  0.00000000000E+00 0.  1.
         11    1    5    5    0    0  0.25184471202E+02 -0.32378980175E+03 -0.33371832447E+03  0.46566298263E+03  0.00000000000E+00 0.  1.
        -11    1    5    5    0    0  0.33472942653E+02 -0.12208052375E+03 -0.52403328783E+02  0.13700438327E+03  0.00000000000E+00 0. -1.
          1    1    6    6  503    0 -0.51237163437E+02  0.36935132175E+02  0.66349367558E+02  0.91606165083E+02  0.00000000000E+00 0. -1.
         -1    1    6    6    0  503 -0.23909576036E+03  0.16802470397E+03  0.74283779262E+02  0.30152473137E+03  0.00000000000E+00 0.  1.
<mgrwt>
<rscale>  0 0.13159375E+04</rscale>
<asrwt>0</asrwt>
<pdfrwt beam="1">  1        2 0.13847169E+00 0.13159375E+04</pdfrwt>
<pdfrwt beam="2">  1       -1 0.73998485E-01 0.13159375E+04</pdfrwt>
<totfact> 0.60259453E+01</totfact>
</mgrwt>
</event>
<event>
12    6  0.1705838E-008  0.1108721E+04  0.7818608E-02  0.9196734E-01
          2   -1    0    0  501    0  0.00000000000E+00  0.00000000000E+00  0.16337804941E+04  0.16337804941E+04  0.00000000000E+00 0. -1.
         -1   -1    0    0    0  501 -0.00000000000E+00 -0.00000000000E+00 -0.18810073576E+03  0.18810073576E+03  0.00000000000E+00 0.  1.
         24    2    1    2    0    0 -0.71869073496E+02  0.57250023312E+02  0.40358604466E+02  0.12793833090E+03  0.79351563715E+02 0.  0.
        254    2    1    2    0    0  0.71869073496E+02 -0.57250023312E+02  0.14053211539E+04  0.16939428990E+04  0.94131411893E+03 0.  0.
         23    2    4    4    0    0  0.43519612190E+03  0.88992998473E+02  0.10888432434E+04  0.11825147944E+04  0.12428279055E+03 0.  0.
         23    2    4    4    0    0 -0.36332704840E+03 -0.14624302178E+03  0.31647791051E+03  0.51142810457E+03  0.89481130864E+02 0.  0.
          4    1    3    3  502    0  0.99206969838E+01  0.18194284961E+02  0.30351469527E+02  0.36751380060E+02  0.00000000000E+00 0. -1.
         -3    1    3    3    0  502 -0.81789770480E+02  0.39055738351E+02  0.10007134939E+02  0.91186950837E+02  0.00000000000E+00 0.  1.
         11    1    5    5    0    0  0.14509026411E+03  0.38344852319E+02  0.52983948932E+03  0.55068266441E+03  0.00000000000E+00 0.  1.
        -11    1    5    5    0    0  0.29010585779E+03  0.50648146154E+02  0.55900375404E+03  0.63183212997E+03  0.00000000000E+00 0. -1.
          4    1    6    6  503    0 -0.12808018348E+03 -0.24206408307E+02  0.14881064824E+03  0.19782591497E+03  0.00000000000E+00 0. -1.
         -4    1    6    6    0  503 -0.23524686492E+03 -0.12203661348E+03  0.16766726226E+03  0.31360218959E+03  0.00000000000E+00 0.  1.
<mgrwt>
<rscale>  0 0.11087205E+04</rscale>
<asrwt>0</asrwt>
<pdfrwt beam="1">  1        2 0.25135083E+00 0.11087205E+04</pdfrwt>
<pdfrwt beam="2">  1       -1 0.28938576E-01 0.11087205E+04</pdfrwt>
<totfact> 0.13116884E+02</totfact>
</mgrwt>
</event>
<event>
12    6  0.1705838E-008  0.3058347E+04  0.7818608E-02  0.8227263E-01
         -1   -1    0    0    0  501 -0.00000000000E+00  0.00000000000E+00  0.14867293045E+04  0.14867293045E+04  0.00000000000E+00 0.  1.
          2   -1    0    0  501    0  0.00000000000E+00 -0.00000000000E+00 -0.15728292746E+04  0.15728292746E+04  0.00000000000E+00 0. -1.
         24    2    1    2    0    0 -0.53343751241E+03 -0.12961717818E+04  0.12070441730E+02  0.14038729541E+04  0.78081418165E+02 0.  0.
        254    2    1    2    0    0  0.53343751241E+03  0.12961717818E+04 -0.98170411823E+02  0.16556856251E+04  0.87580853603E+03 0.  0.
         23    2    4    4    0    0  0.73997503744E+03  0.74355196272E+03 -0.70281208657E+02  0.10580679846E+04  0.11889421500E+03 0.  0.
         23    2    4    4    0    0 -0.20653752502E+03  0.55261981912E+03 -0.27889203165E+02  0.59761764056E+03  0.91228410759E+02 0.  0.
          2    1    3    3  502    0 -0.17555611212E+03 -0.38534369304E+03  0.35892960611E+02  0.42496825163E+03  0.00000000000E+00 0. -1.
         -1    1    3    3    0  502 -0.35788140029E+03 -0.91082808880E+03 -0.23822518882E+02  0.97890470243E+03  0.00000000000E+00 0.  1.
         11    1    5    5    0    0  0.60411166217E+03  0.64975744421E+03 -0.90181579497E+02  0.89177819773E+03  0.00000000000E+00 0. -1.
        -11    1    5    5    0    0  0.13586337527E+03  0.93794518514E+02  0.19900370840E+02  0.16628978683E+03  0.00000000000E+00 0.  1.
          2    1    6    6  503    0  0.49013521465E+01  0.60123724060E+02  0.57570862633E+01  0.60597272958E+02  0.00000000000E+00 0.  1.
         -2    1    6    6    0  503 -0.21143887717E+03  0.49249609506E+03 -0.33646289429E+02  0.53702036761E+03  0.00000000000E+00 0. -1.
<mgrwt>
<rscale>  0 0.30583469E+04</rscale>
<asrwt>0</asrwt>
<pdfrwt beam="1">  1        2 0.24197373E+00 0.30583469E+04</pdfrwt>
<pdfrwt beam="2">  1       -1 0.22872759E+00 0.30583469E+04</pdfrwt>
<totfact> 0.10781886E+00</totfact>
</mgrwt>
</event>
<event>
11    6  0.1705838E-008  0.3359208E+04  0.7818608E-02  0.8147991E-01
         -1   -1    0    0    0  501 -0.00000000000E+00  0.00000000000E+00  0.13362564650E+04  0.13362564650E+04  0.00000000000E+00 0.  1.
          2   -1    0    0  501    0  0.00000000000E+00 -0.00000000000E+00 -0.21111739913E+04  0.21111739913E+04  0.00000000000E+00 0. -1.
         24    2    1    2    0    0  0.99753018824E+03 -0.95019115790E+03 -0.11145832801E+04  0.17738433615E+04  0.79338956578E+02 0.  0.
        254    2    1    2    0    0 -0.99753018824E+03  0.95019115790E+03  0.33966575370E+03  0.16735870948E+04  0.88746336634E+03 0.  0.
         23    2    4    4    0    0 -0.96748263068E+03  0.92359690837E+03  0.11243854769E+03  0.13454115158E+04  0.91846775167E+02 0.  0.
          4    1    3    3  502    0  0.56722503225E+03 -0.56495934119E+03 -0.69202945493E+03  0.10582192877E+04  0.00000000000E+00 0. -1.
         -3    1    3    3    0  502  0.43030515599E+03 -0.38523181671E+03 -0.42255382513E+03  0.71562407380E+03  0.00000000000E+00 0.  1.
         11    1    4    4    0    0  0.55782298733E+02  0.18109074537E+02 -0.23384209769E+02  0.63138139813E+02  0.00000000000E+00 0. -1.
        -11    1    4    4    0    0 -0.85829856290E+02  0.84851749929E+01  0.25061141578E+03  0.26503743914E+03  0.00000000000E+00 0.  1.
          1    1    5    5  503    0 -0.36201142917E+03  0.28550071858E+03  0.35009297738E+02  0.46237277827E+03  0.00000000000E+00 0. -1.
         -1    1    5    5    0  503 -0.60547120151E+03  0.63809618979E+03  0.77429249951E+02  0.88303873756E+03  0.00000000000E+00 0.  1.
<mgrwt>
<rscale>  0 0.33592082E+04</rscale>
<asrwt>0</asrwt>
<pdfrwt beam="1">  1        2 0.32479600E+00 0.33592082E+04</pdfrwt>
<pdfrwt beam="2">  1       -1 0.20557792E+00 0.33592082E+04</pdfrwt>
<totfact> 0.75438463E-01</totfact>
</mgrwt>
</event>
<event>
12    6  0.1705838E-008  0.2691682E+04  0.7818608E-02  0.8337709E-01
          2   -1    0    0  501    0  0.00000000000E+00  0.00000000000E+00  0.18146687550E+04  0.18146687550E+04  0.00000000000E+00 0. -1.
         -1   -1    0    0    0  501 -0.00000000000E+00 -0.00000000000E+00 -0.99813707371E+03  0.99813707371E+03  0.00000000000E+00 0.  1.
         24    2    1    2    0    0 -0.12120715878E+03 -0.11645774468E+04  0.61588404076E+03  0.13254429945E+04  0.80957860020E+02 0.  0.
        254    2    1    2    0    0  0.12120715878E+03  0.11645774468E+04  0.20064764054E+03  0.14873628342E+04  0.89501783214E+03 0.  0.
         23    2    4    4    0    0  0.58073660908E+02  0.12783735328E+04  0.78292453836E+02  0.12867332264E+04  0.10927601818E+03 0.  0.
         23    2    4    4    0    0  0.63133497868E+02 -0.11379608597E+03  0.12235518670E+03  0.20062960778E+03  0.91356773520E+02 0.  0.
          4    1    3    3  502    0 -0.11556420106E+03 -0.11613282637E+04  0.61121206466E+03  0.13174287869E+04  0.00000000000E+00 0. -1.
         -3    1    3    3    0  502 -0.56429577204E+01 -0.32491831171E+01  0.46719761031E+01  0.80142076009E+01  0.00000000000E+00 0.  1.
         11    1    5    5    0    0  0.23105788555E+02  0.48145636935E+03 -0.23486329952E+02  0.48258234607E+03  0.00000000000E+00 0. -1.
        -11    1    5    5    0    0  0.34967872353E+02  0.79691716346E+03  0.10177878379E+03  0.80415088033E+03  0.00000000000E+00 0.  1.
          3    1    6    6  503    0  0.57890635377E+02 -0.15604454813E+02  0.37269561357E+02  0.70596351734E+02  0.00000000000E+00 0. -1.
         -3    1    6    6    0  503  0.52428624918E+01 -0.98191631159E+02  0.85085625344E+02  0.13003325604E+03  0.00000000000E+00 0.  1.
<mgrwt>
<rscale>  0 0.26916821E+04</rscale>
<asrwt>0</asrwt>
<pdfrwt beam="1">  1        2 0.27917981E+00 0.26916821E+04</pdfrwt>
<pdfrwt beam="2">  1       -1 0.15355955E+00 0.26916821E+04</pdfrwt>
<totfact> 0.27700900E+00</totfact>
</mgrwt>
</event>
<event>
12    6  0.1705838E-008  0.1523802E+04  0.7818608E-02  0.8868778E-01
          2   -1    0    0  501    0  0.00000000000E+00  0.00000000000E+00  0.35921047446E+04  0.35921047446E+04  0.00000000000E+00 0. -1.
         -1   -1    0    0    0  501 -0.00000000000E+00 -0.00000000000E+00 -0.16160240532E+03  0.16160240532E+03  0.00000000000E+00 0.  1.
         24    2    1    2    0    0  0.88252587530E+02 -0.44803095408E+03  0.11846487198E+04  0.12718657423E+04  0.75694267800E+02 0.  0.
        254    2    1    2    0    0 -0.88252587530E+02  0.44803095408E+03  0.22458536195E+04  0.24818414076E+04  0.95244844334E+03 0.  0.
         23    2    4    4    0    0  0.93193244049E+02  0.71214168424E+03  0.15657977792E+04  0.17235266039E+04  0.54685551917E+02 0.  0.
         23    2    4    4    0    0 -0.18144583158E+03 -0.26411073015E+03  0.68005584028E+03  0.75831480375E+03  0.99440072958E+02 0.  0.
          2    1    3    3  502    0  0.78665180403E+01 -0.15384143603E+03  0.47821085830E+03  0.50240889179E+03  0.00000000000E+00 0. -1.
         -1    1    3    3    0  502  0.80386069490E+02 -0.29418951805E+03  0.70643786147E+03  0.76945685052E+03  0.00000000000E+00 0.  1.
         11    1    5    5    0    0  0.86706064181E+02  0.48494692931E+03  0.10455630640E+04  0.11558086289E+04  0.00000000000E+00 0.  1.
        -11    1    5    5    0    0  0.64871798679E+01  0.22719475493E+03  0.52023471520E+03  0.56771797494E+03  0.00000000000E+00 0. -1.
          1    1    6    6  503    0  0.10917417286E+02 -0.27981437105E+02  0.46546937033E+02  0.55396463514E+02  0.00000000000E+00 0. -1.
         -1    1    6    6    0  503 -0.19236324886E+03 -0.23612929305E+03  0.63350890324E+03  0.70291834023E+03  0.00000000000E+00 0.  1.
<mgrwt>
<rscale>  0 0.15238015E+04</rscale>
<asrwt>0</asrwt>
<pdfrwt beam="1">  1        2 0.55263144E+00 0.15238015E+04</pdfrwt>
<pdfrwt beam="2">  1       -1 0.24861911E-01 0.15238015E+04</pdfrwt>
<totfact> 0.11027955E+01</totfact>
</mgrwt>
</event>
<event>
12    6  0.1705838E-008  0.1875472E+04  0.7818608E-02  0.8667163E-01
         -1   -1    0    0    0  501 -0.00000000000E+00  0.00000000000E+00  0.25530370902E+03  0.25530370902E+03  0.00000000000E+00 0.  1.
          2   -1    0    0  501    0  0.00000000000E+00 -0.00000000000E+00 -0.34443231072E+04  0.34443231072E+04  0.00000000000E+00 0. -1.
         24    2    1    2    0    0 -0.34891650451E+03 -0.41392199622E+03 -0.21878781393E+04  0.22550832001E+04  0.74265340843E+02 0.  0.
        254    2    1    2    0    0  0.34891650451E+03  0.41392199622E+03 -0.10011412589E+04  0.14445436161E+04  0.88957759223E+03 0.  0.
         23    2    4    4    0    0 -0.26943404995E+03  0.99020556400E+02 -0.50623590688E+03  0.58720496600E+03  0.78326884396E+02 0.  0.
         23    2    4    4    0    0  0.61835055446E+03  0.31490143982E+03 -0.49490535202E+03  0.85733865014E+03  0.92617107354E+02 0.  0.
          2    1    3    3  502    0 -0.35249820214E+03 -0.41124654048E+03 -0.21616598213E+04  0.22284864555E+04  0.00000000000E+00 0. -1.
         -1    1    3    3    0  502  0.35816976304E+01 -0.26754557372E+01 -0.26218318055E+02  0.26596744593E+02  0.00000000000E+00 0.  1.
         11    1    5    5    0    0 -0.22864422151E+03  0.52353209292E+02 -0.41907978720E+03  0.48025712550E+03  0.00000000000E+00 0.  1.
        -11    1    5    5    0    0 -0.40789828439E+02  0.46667347108E+02 -0.87156119681E+02  0.10694784050E+03  0.00000000000E+00 0. -1.
          4    1    6    6  503    0  0.71222935619E+02  0.37208608339E+02 -0.23901824377E+02  0.83836056094E+02  0.00000000000E+00 0. -1.
         -4    1    6    6    0  503  0.54712761884E+03  0.27769283148E+03 -0.47100352764E+03  0.77350259405E+03  0.00000000000E+00 0.  1.
<mgrwt>
<rscale>  0 0.18754716E+04</rscale>
<asrwt>0</asrwt>
<pdfrwt beam="1">  1        2 0.52989584E+00 0.18754716E+04</pdfrwt>
<pdfrwt beam="2">  1       -1 0.39277496E-01 0.18754716E+04</pdfrwt>
<totfact> 0.60191789E+00</totfact>
</mgrwt>
</event>
<event>
11    6  0.1705838E-008  0.1994674E+04  0.7818608E-02  0.8609115E-01
         -1   -1    0    0    0  501 -0.00000000000E+00  0.00000000000E+00  0.34187587960E+03  0.34187587960E+03  0.00000000000E+00 0.  1.
          2   -1    0    0  501    0  0.00000000000E+00 -0.00000000000E+00 -0.29094805499E+04  0.29094805499E+04  0.00000000000E+00 0. -1.
         24    2    1    2    0    0 -0.12305199665E+03 -0.65644453192E+02 -0.22865106866E+04  0.22922234357E+04  0.81891215318E+02 0.  0.
        254    2    1    2    0    0  0.12305199665E+03  0.65644453192E+02 -0.28109398366E+03  0.95913299375E+03  0.90635053039E+03 0.  0.
         23    2    4    4    0    0 -0.51437150161E+02 -0.31369456889E+03  0.10817234952E+03  0.34760627128E+03  0.89882143226E+02 0.  0.
          4    1    3    3  502    0 -0.41344019131E+02 -0.63308294211E+02 -0.13657717218E+04  0.13678631745E+04  0.00000000000E+00 0. -1.
         -1    1    3    3    0  502 -0.81707977518E+02 -0.23361589806E+01 -0.92073896483E+03  0.92436026126E+03  0.00000000000E+00 0.  1.
         11    1    4    4    0    0  0.17638756002E+03  0.34546187297E+03 -0.41566496141E+03  0.56853657503E+03  0.00000000000E+00 0. -1.
        -11    1    4    4    0    0 -0.18984132060E+01  0.33877149106E+02  0.26398628226E+02  0.42990147435E+02  0.00000000000E+00 0.  1.
          2    1    5    5  503    0  0.23398760054E+02 -0.91891845339E+02  0.16709329150E+02  0.96285070974E+02  0.00000000000E+00 0.  1.
         -2    1    5    5    0  503 -0.74835910215E+02 -0.22180272355E+03  0.91463020368E+02  0.25132120031E+03  0.00000000000E+00 0. -1.
<mgrwt>
<rscale>  0 0.19946741E+04</rscale>
<asrwt>0</asrwt>
<pdfrwt beam="1">  1        2 0.44761240E+00 0.19946741E+04</pdfrwt>
<pdfrwt beam="2">  1       -1 0.52596289E-01 0.19946741E+04</pdfrwt>
<totfact> 0.76544535E+00</totfact>
</mgrwt>
</event>
<event>
11    6  0.1705838E-008  0.1717444E+04  0.7818608E-02  0.8751477E-01
         -1   -1    0    0    0  501 -0.00000000000E+00  0.00000000000E+00  0.11685011051E+04  0.11685011051E+04  0.00000000000E+00 0.  1.
          2   -1    0    0  501    0  0.00000000000E+00 -0.00000000000E+00 -0.63106797582E+03  0.63106797582E+03  0.00000000000E+00 0. -1.
         24    2    1    2    0    0  0.17397894506E+03 -0.48395011959E+03  0.56998715196E+03  0.77178325580E+03  0.79294696866E+02 0.  0.
        254    2    1    2    0    0 -0.17397894506E+03  0.48395011959E+03 -0.32554022719E+02  0.10277858251E+04  0.88927360597E+03 0.  0.
         23    2    4    4    0    0  0.19499610535E+03  0.15567452203E+03  0.31245000029E+03  0.41030881673E+03  0.92034148550E+02 0.  0.
          4    1    3    3  502    0  0.33068319377E+02 -0.90306917315E+02  0.15692251870E+03  0.18404762954E+03  0.00000000000E+00 0. -1.
         -3    1    3    3    0  502  0.14091062568E+03 -0.39364320228E+03  0.41306463326E+03  0.58773562626E+03  0.00000000000E+00 0.  1.
         11    1    4    4    0    0 -0.29201989076E+03  0.32200234343E+03 -0.29899937884E+03  0.52759999462E+03  0.00000000000E+00 0.  1.
        -11    1    4    4    0    0 -0.76955159640E+02  0.62732541325E+01 -0.46004644170E+02  0.89877013735E+02  0.00000000000E+00 0. -1.
          2    1    5    5  503    0  0.47879784747E+02  0.14582880351E+02  0.11981039094E+03  0.12984476872E+03  0.00000000000E+00 0. -1.
         -2    1    5    5    0  503  0.14711632060E+03  0.14109164168E+03  0.19263960935E+03  0.28046404801E+03  0.00000000000E+00 0.  1.
<mgrwt>
<rscale>  0 0.17174442E+04</rscale>
<asrwt>0</asrwt>
<pdfrwt beam="1">  1        2 0.97087381E-01 0.17174442E+04</pdfrwt>
<pdfrwt beam="2">  1       -1 0.17976940E+00 0.17174442E+04</pdfrwt>
<totfact> 0.10572896E+01</totfact>
</mgrwt>
</event>
<event>
11    6  0.1705838E-008  0.1582151E+04  0.7818608E-02  0.8831589E-01
         -1   -1    0    0    0  501 -0.00000000000E+00  0.00000000000E+00  0.14669847602E+04  0.14669847602E+04  0.00000000000E+00 0.  1.
          2   -1    0    0  501    0  0.00000000000E+00 -0.00000000000E+00 -0.42658940282E+03  0.42658940282E+03  0.00000000000E+00 0. -1.
         24    2    1    2    0    0 -0.41468955087E+03 -0.84562453309E+02  0.74287225741E+03  0.85867651611E+03  0.79673937865E+02 0.  0.
        254    2    1    2    0    0  0.41468955087E+03  0.84562453309E+02  0.29752309992E+03  0.10348976469E+04  0.89631183881E+03 0.  0.
         23    2    4    4    0    0  0.40738164172E+03 -0.30180889576E+03  0.38122863899E+02  0.51646838785E+03  0.90762499572E+02 0.  0.
          2    1    3    3  502    0 -0.72233541644E+01 -0.35625875076E+01  0.62751775407E+00  0.80785304149E+01  0.00000000000E+00 0. -1.
         -1    1    3    3    0  502 -0.40746619671E+03 -0.80999865802E+02  0.74224473966E+03  0.85059798570E+03  0.00000000000E+00 0.  1.
         11    1    4    4    0    0 -0.91270389764E+02  0.63544913795E+02  0.69299037144E+02  0.13103662338E+03  0.00000000000E+00 0.  1.
        -11    1    4    4    0    0  0.98578298922E+02  0.32282643527E+03  0.19010119888E+03  0.38739263564E+03  0.00000000000E+00 0. -1.
          4    1    5    5  503    0  0.75597012238E+02 -0.89137073370E+02 -0.18481936368E+02  0.11832965850E+03  0.00000000000E+00 0.  1.
         -4    1    5    5    0  503  0.33178462948E+03 -0.21267182239E+03  0.56604800266E+02  0.39813872935E+03  0.00000000000E+00 0. -1.
<mgrwt>
<rscale>  0 0.15821506E+04</rscale>
<asrwt>0</asrwt>
<pdfrwt beam="1">  1        2 0.65629140E-01 0.15821506E+04</pdfrwt>
<pdfrwt beam="2">  1       -1 0.22568996E+00 0.15821506E+04</pdfrwt>
<totfact> 0.81852447E+00</totfact>
</mgrwt>
</event>
<event>
12    6  0.1705838E-008  0.1291878E+04  0.7818608E-02  0.9036031E-01
         -1   -1    0    0    0  501 -0.00000000000E+00  0.00000000000E+00  0.47008986686E+03  0.47008986686E+03  0.00000000000E+00 0.  1.
          2   -1    0    0  501    0  0.00000000000E+00 -0.00000000000E+00 -0.88756951047E+03  0.88756951047E+03  0.00000000000E+00 0. -1.
         24    2    1    2    0    0 -0.32259200309E+02  0.28554398344E+03  0.54393731209E+02  0.30315568465E+03  0.79803938876E+02 0.  0.
        254    2    1    2    0    0  0.32259200309E+02 -0.28554398344E+03 -0.47187337482E+03  0.10545036927E+04  0.89818568990E+03 0.  0.
         23    2    4    4    0    0  0.29460852623E+03  0.17834794706E+02  0.12596118059E+03  0.32863170345E+03  0.70854173265E+02 0.  0.
         23    2    4    4    0    0 -0.26234932592E+03 -0.30337877814E+03 -0.59783455541E+03  0.72587198923E+03  0.92833923108E+02 0.  0.
          2    1    3    3  502    0 -0.25894927760E+01  0.83221408175E+01  0.20527723868E+02  0.22301366501E+02  0.00000000000E+00 0. -1.
         -1    1    3    3    0  502 -0.29669707533E+02  0.27722184262E+03  0.33866007341E+02  0.28085431815E+03  0.00000000000E+00 0.  1.
         11    1    5    5    0    0  0.22212424519E+03  0.38779140531E+02  0.75189017265E+02  0.23768969342E+03  0.00000000000E+00 0.  1.
        -11    1    5    5    0    0  0.72484281040E+02 -0.20944345825E+02  0.50772163323E+02  0.90942010030E+02  0.00000000000E+00 0. -1.
          2    1    6    6  503    0 -0.39063683379E+02 -0.49009848058E+02 -0.43203252010E+02  0.76121334395E+02  0.00000000000E+00 0. -1.
         -2    1    6    6    0  503 -0.22328564254E+03 -0.25436893008E+03 -0.55463130340E+03  0.64975065484E+03  0.00000000000E+00 0.  1.
<mgrwt>
<rscale>  0 0.12918784E+04</rscale>
<asrwt>0</asrwt>
<pdfrwt beam="1">  1        2 0.13654916E+00 0.12918784E+04</pdfrwt>
<pdfrwt beam="2">  1       -1 0.72321518E-01 0.12918784E+04</pdfrwt>
<totfact> 0.64561430E+01</totfact>
</mgrwt>
</event>
<event>
11    6  0.1705838E-008  0.1713264E+04  0.7818608E-02  0.8753835E-01
          2   -1    0    0  501    0  0.00000000000E+00  0.00000000000E+00  0.90576570279E+03  0.90576570279E+03  0.00000000000E+00 0. -1.
         -1   -1    0    0    0  501 -0.00000000000E+00 -0.00000000000E+00 -0.81016363811E+03  0.81016363811E+03  0.00000000000E+00 0.  1.
         24    2    1    2    0    0 -0.14703559152E+03  0.11330985687E+03 -0.55598644204E+03  0.59192491150E+03  0.82435358199E+02 0.  0.
        254    2    1    2    0    0  0.14703559152E+03 -0.11330985687E+03  0.65158850672E+03  0.11240044294E+04  0.89686107418E+03 0.  0.
         23    2    4    4    0    0  0.25257686185E+03  0.20751473074E+03 -0.35600765670E+02  0.34114843656E+03  0.90870273653E+02 0.  0.
          2    1    3    3  502    0 -0.37632748982E+02 -0.80761818948E+01 -0.13346169229E+03  0.13890094247E+03  0.00000000000E+00 0. -1.
         -1    1    3    3    0  502 -0.10940284254E+03  0.12138603877E+03 -0.42252474975E+03  0.45302396903E+03  0.00000000000E+00 0.  1.
         11    1    4    4    0    0 -0.13457437884E+03 -0.28857798818E+03  0.51670223403E+03  0.60693386571E+03  0.00000000000E+00 0.  1.
        -11    1    4    4    0    0  0.29033108512E+02 -0.32246599430E+02  0.17048703836E+03  0.17592212713E+03  0.00000000000E+00 0. -1.
          4    1    5    5  503    0  0.82826702638E+02  0.28246530820E+02 -0.35033456873E+02  0.94262783078E+02  0.00000000000E+00 0. -1.
         -4    1    5    5    0  503  0.16975015921E+03  0.17926819992E+03 -0.56730879717E+00  0.24688565348E+03  0.00000000000E+00 0.  1.
<mgrwt>
<rscale>  0 0.17132641E+04</rscale>
<asrwt>0</asrwt>
<pdfrwt beam="1">  1        2 0.13934857E+00 0.17132641E+04</pdfrwt>
<pdfrwt beam="2">  1       -1 0.12464056E+00 0.17132641E+04</pdfrwt>
<totfact> 0.17771503E+01</totfact>
</mgrwt>
</event>
<event>
12    6  0.1705838E-008  0.1825893E+04  0.7818608E-02  0.8692650E-01
         -3   -1    0    0    0  501 -0.00000000000E+00  0.00000000000E+00  0.49664060062E+03  0.49664060062E+03  0.00000000000E+00 0.  1.
          2   -1    0    0  501    0  0.00000000000E+00 -0.00000000000E+00 -0.16782186232E+04  0.16782186232E+04  0.00000000000E+00 0. -1.
         24    2    1    2    0    0 -0.62870302950E+03 -0.12807709353E+03 -0.18026372348E+03  0.67234597634E+03  0.88785475843E+02 0.  0.
        254    2    1    2    0    0  0.62870302950E+03  0.12807709353E+03 -0.10013142991E+04  0.15025132475E+04  0.91828344865E+03 0.  0.
         23    2    4    4    0    0  0.75311378018E+03  0.34233278331E+03 -0.60649807201E+03  0.10274743761E+04  0.59089608304E+02 0.  0.
         23    2    4    4    0    0 -0.12441075069E+03 -0.21425568978E+03 -0.39481622709E+03  0.47503887135E+03  0.91643552059E+02 0.  0.
          4    1    3    3  502    0 -0.36309294176E+02 -0.17766278587E+02  0.76666458511E+01  0.41143443670E+02  0.00000000000E+00 0. -1.
         -3    1    3    3    0  502 -0.59239373532E+03 -0.11031081494E+03 -0.18793036933E+03  0.63120253268E+03  0.00000000000E+00 0.  1.
         11    1    5    5    0    0  0.34005868729E+03  0.13382632588E+03 -0.23992890331E+03  0.43716733060E+03  0.00000000000E+00 0.  1.
        -11    1    5    5    0    0  0.41305509290E+03  0.20850645743E+03 -0.36656916870E+03  0.59030704552E+03  0.00000000000E+00 0. -1.
          1    1    6    6  503    0 -0.11770714773E+03 -0.19536325371E+03 -0.29321676423E+03  0.37148061101E+03  0.00000000000E+00 0. -1.
         -1    1    6    6    0  503 -0.67036029588E+01 -0.18892436066E+02 -0.10159946285E+03  0.10355826034E+03  0.00000000000E+00 0.  1.
<mgrwt>
<rscale>  0 0.18258932E+04</rscale>
<asrwt>0</asrwt>
<pdfrwt beam="1">  1        2 0.25818748E+00 0.18258932E+04</pdfrwt>
<pdfrwt beam="2">  1       -3 0.76406247E-01 0.18258932E+04</pdfrwt>
<totfact> 0.97699163E+00</totfact>
</mgrwt>
</event>
<event>
12    6  0.1705838E-008  0.1389883E+04  0.7818608E-02  0.8961174E-01
          2   -1    0    0  501    0  0.00000000000E+00  0.00000000000E+00  0.23414828561E+04  0.23414828561E+04  0.00000000000E+00 0. -1.
         -1   -1    0    0    0  501 -0.00000000000E+00 -0.00000000000E+00 -0.20625560720E+03  0.20625560720E+03  0.00000000000E+00 0.  1.
         24    2    1    2    0    0  0.63697589263E+02 -0.98395486001E+01  0.13421624711E+04  0.13461264987E+04  0.80636542617E+02 0.  0.
        254    2    1    2    0    0 -0.63697589263E+02  0.98395486001E+01  0.79306477778E+03  0.12016119646E+04  0.90042510634E+03 0.  0.
         23    2    4    4    0    0 -0.12984809061E+03 -0.33116576933E+03  0.55195696056E+02  0.38006838701E+03  0.12195950366E+03 0.  0.
         23    2    4    4    0    0  0.66150501348E+02  0.34100531793E+03  0.73786908173E+03  0.82154357759E+03  0.99108790906E+02 0.  0.
          4    1    3    3  502    0  0.80507940502E+02 -0.19169618807E+02  0.11612690183E+04  0.11642142138E+04  0.00000000000E+00 0. -1.
         -3    1    3    3    0  502 -0.16810351239E+02  0.93300702067E+01  0.18089345283E+03  0.18191228489E+03  0.00000000000E+00 0.  1.
         11    1    5    5    0    0 -0.41682183620E+02 -0.32544275829E+02  0.43515605672E+02  0.68484613290E+02  0.00000000000E+00 0. -1.
        -11    1    5    5    0    0 -0.88165906991E+02 -0.29862149350E+03  0.11680090384E+02  0.31158377372E+03  0.00000000000E+00 0.  1.
          4    1    6    6  503    0 -0.12521578615E+02  0.22533976915E+02  0.11183581887E+03  0.11476855157E+03  0.00000000000E+00 0. -1.
         -4    1    6    6    0  503  0.78672079963E+02  0.31847134101E+03  0.62603326286E+03  0.70677502602E+03  0.00000000000E+00 0.  1.
<mgrwt>
<rscale>  0 0.13898834E+04</rscale>
<asrwt>0</asrwt>
<pdfrwt beam="1">  1        2 0.36022811E+00 0.13898834E+04</pdfrwt>
<pdfrwt beam="2">  1       -1 0.31731633E-01 0.13898834E+04</pdfrwt>
<totfact> 0.44134216E+01</totfact>
</mgrwt>
</event>
<event>
12    6  0.1705838E-008  0.1938833E+04  0.7818608E-02  0.8635764E-01
          2   -1    0    0  501    0  0.00000000000E+00  0.00000000000E+00  0.74392127285E+03  0.74392127285E+03  0.00000000000E+00 0. -1.
         -1   -1    0    0    0  501 -0.00000000000E+00 -0.00000000000E+00 -0.12632634015E+04  0.12632634015E+04  0.00000000000E+00 0.  1.
         24    2    1    2    0    0 -0.10967940560E+03  0.61785746704E+03 -0.64864702592E+03  0.90582012967E+03  0.77393290974E+02 0.  0.
        254    2    1    2    0    0  0.10967940560E+03 -0.61785746704E+03  0.12930489724E+03  0.11013645447E+04  0.89582737305E+03 0.  0.
         23    2    4    4    0    0 -0.24785714192E+03 -0.10898113283E+03  0.33114776332E+03  0.44113577807E+03  0.10785120966E+03 0.  0.
         23    2    4    4    0    0  0.35753654752E+03 -0.50887633421E+03 -0.20184286608E+03  0.66022876664E+03  0.91509427866E+02 0.  0.
          4    1    3    3  502    0 -0.67382195347E+02  0.28771886101E+03 -0.25495821719E+03  0.39028988681E+03  0.00000000000E+00 0. -1.
         -3    1    3    3    0  502 -0.42297210254E+02  0.33013860603E+03 -0.39368880872E+03  0.51553024286E+03  0.00000000000E+00 0.  1.
         11    1    5    5    0    0 -0.73510414011E+02 -0.22936601233E+02  0.17697752213E+03  0.19300495326E+03  0.00000000000E+00 0.  1.
        -11    1    5    5    0    0 -0.17434672790E+03 -0.86044531601E+02  0.15417024119E+03  0.24813082480E+03  0.00000000000E+00 0. -1.
          1    1    6    6  503    0  0.89774926305E+02 -0.10923411707E+03 -0.80852265166E+01  0.14162274045E+03  0.00000000000E+00 0. -1.
         -1    1    6    6    0  503  0.26776162121E+03 -0.39964221714E+03 -0.19375763957E+03  0.51860602619E+03  0.00000000000E+00 0.  1.
<mgrwt>
<rscale>  0 0.19388332E+04</rscale>
<asrwt>0</asrwt>
<pdfrwt beam="1">  1        2 0.11444943E+00 0.19388332E+04</pdfrwt>
<pdfrwt beam="2">  1       -1 0.19434821E+00 0.19388332E+04</pdfrwt>
<totfact> 0.66529644E+00</totfact>
</mgrwt>
</event>
<event>
12    6  0.1705838E-008  0.1193812E+04  0.7818608E-02  0.9118291E-01
         -1   -1    0    0    0  501 -0.00000000000E+00  0.00000000000E+00  0.45388439879E+03  0.45388439879E+03  0.00000000000E+00 0.  1.
          2   -1    0    0  501    0  0.00000000000E+00 -0.00000000000E+00 -0.78499395453E+03  0.78499395453E+03  0.00000000000E+00 0. -1.
         24    2    1    2    0    0  0.21538174256E+03 -0.28333505899E+02 -0.19425104138E+03  0.30251588572E+03  0.81180733256E+02 0.  0.
        254    2    1    2    0    0 -0.21538174256E+03  0.28333505899E+02 -0.13685851436E+03  0.93636246759E+03  0.90047339504E+03 0.  0.
         23    2    4    4    0    0  0.10103526549E+03 -0.37480711147E+03 -0.79759227040E+02  0.41284322105E+03  0.11571298626E+03 0.  0.
         23    2    4    4    0    0 -0.31641700805E+03  0.40314061737E+03 -0.57099287319E+02  0.52351924654E+03  0.90388011005E+02 0.  0.
          2    1    3    3  502    0 -0.16490478876E+01  0.77853230787E+01  0.14122999307E+01  0.80824009718E+01  0.00000000000E+00 0. -1.
         -1    1    3    3    0  502  0.21703079045E+03 -0.36118828978E+02 -0.19566334131E+03  0.29443348475E+03  0.00000000000E+00 0.  1.
         11    1    5    5    0    0  0.99641820885E+02 -0.34791581701E+03 -0.10406558522E+03  0.37656812693E+03  0.00000000000E+00 0. -1.
        -11    1    5    5    0    0  0.13934446072E+01 -0.26891294455E+02  0.24306358176E+02  0.36275094116E+02  0.00000000000E+00 0.  1.
          4    1    6    6  503    0 -0.18049674021E+03  0.17319816151E+03  0.10376944542E+01  0.25015545804E+03  0.00000000000E+00 0. -1.
         -4    1    6    6    0  503 -0.13592026784E+03  0.22994245585E+03 -0.58136981773E+02  0.27336378850E+03  0.00000000000E+00 0.  1.
<mgrwt>
<rscale>  0 0.11938116E+04</rscale>
<asrwt>0</asrwt>
<pdfrwt beam="1">  1        2 0.12076830E+00 0.11938116E+04</pdfrwt>
<pdfrwt beam="2">  1       -1 0.69828369E-01 0.11938116E+04</pdfrwt>
<totfact> 0.82579040E+01</totfact>
</mgrwt>
</event>
<event>
11    6  0.1705838E-008  0.2167953E+04  0.7818608E-02  0.8531886E-01
          2   -1    0    0  501    0  0.00000000000E+00  0.00000000000E+00  0.71724184677E+03  0.71724184677E+03  0.00000000000E+00 0. -1.
         -1   -1    0    0    0  501 -0.00000000000E+00 -0.00000000000E+00 -0.16382278143E+04  0.16382278143E+04  0.00000000000E+00 0.  1.
         24    2    1    2    0    0  0.70497381796E+03 -0.48525429495E+03 -0.70888522698E+03  0.11144580959E+04  0.83897364407E+02 0.  0.
        254    2    1    2    0    0 -0.70497381796E+03  0.48525429495E+03 -0.21210074061E+03  0.12410115652E+04  0.87330588342E+03 0.  0.
         23    2    4    4    0    0 -0.41579744091E+03  0.64509571042E+03 -0.28546658429E+03  0.82378533194E+03  0.89972856494E+02 0.  0.
          4    1    3    3  502    0  0.10491321944E+03 -0.89871023860E+02 -0.15144335098E+03  0.20498456795E+03  0.00000000000E+00 0. -1.
         -3    1    3    3    0  502  0.60006059852E+03 -0.39538327109E+03 -0.55744187600E+03  0.90947352797E+03  0.00000000000E+00 0.  1.
         11    1    4    4    0    0 -0.72595900047E+02 -0.82699810268E+02  0.13979768317E+03  0.17791238164E+03  0.00000000000E+00 0. -1.
        -11    1    4    4    0    0 -0.21658047701E+03 -0.77141605207E+02 -0.66431839491E+02  0.23931385161E+03  0.00000000000E+00 0.  1.
          1    1    5    5  503    0 -0.31586081218E+03  0.47045836061E+03 -0.25051587449E+03  0.61956220439E+03  0.00000000000E+00 0. -1.
         -1    1    5    5    0  503 -0.99936628733E+02  0.17463734981E+03 -0.34950709797E+02  0.20422312755E+03  0.00000000000E+00 0.  1.
<mgrwt>
<rscale>  0 0.21679535E+04</rscale>
<asrwt>0</asrwt>
<pdfrwt beam="1">  1        2 0.11034490E+00 0.21679535E+04</pdfrwt>
<pdfrwt beam="2">  1       -1 0.25203504E+00 0.21679535E+04</pdfrwt>
<totfact> 0.28091198E+00</totfact>
</mgrwt>
</event>
<event>
12    6  0.1705838E-008  0.2889909E+04  0.7818608E-02  0.8275886E-01
         -1   -1    0    0    0  501 -0.00000000000E+00  0.00000000000E+00  0.25857711775E+04  0.25857711775E+04  0.00000000000E+00 0.  1.
          2   -1    0    0  501    0  0.00000000000E+00 -0.00000000000E+00 -0.80745485128E+03  0.80745485128E+03  0.00000000000E+00 0. -1.
         24    2    1    2    0    0 -0.94834430945E+03  0.83283905184E+03  0.43998343557E+03  0.13392123140E+04  0.83224893955E+02 0.  0.
        254    2    1    2    0    0  0.94834430945E+03 -0.83283905184E+03  0.13383328906E+04  0.20540137147E+04  0.91370651664E+03 0.  0.
         23    2    4    4    0    0 -0.32923710906E+01 -0.20568909732E+03  0.71560857310E+03  0.75207399734E+03  0.10583394122E+03 0.  0.
         23    2    4    4    0    0  0.95163668054E+03 -0.62714995452E+03  0.62272431751E+03  0.13019397174E+04  0.91279870870E+02 0.  0.
          2    1    3    3  502    0 -0.88533279959E+03  0.80225597996E+03  0.41906940605E+03  0.12661153148E+04  0.00000000000E+00 0. -1.
         -1    1    3    3    0  502 -0.63011509865E+02  0.30583071889E+02  0.20914029523E+02  0.73096999203E+02  0.00000000000E+00 0.  1.
         11    1    5    5    0    0 -0.33484659536E+02 -0.19677798287E+03  0.62971211105E+03  0.66059075060E+03  0.00000000000E+00 0. -1.
        -11    1    5    5    0    0  0.30192288446E+02 -0.89111144524E+01  0.85896462048E+02  0.91483246743E+02  0.00000000000E+00 0.  1.
          4    1    6    6  503    0  0.60192481392E+03 -0.43578462266E+03  0.43778920552E+03  0.86248542447E+03  0.00000000000E+00 0. -1.
         -4    1    6    6    0  503  0.34971186663E+03 -0.19136533187E+03  0.18493511200E+03  0.43945429290E+03  0.00000000000E+00 0.  1.
<mgrwt>
<rscale>  0 0.28899090E+04</rscale>
<asrwt>0</asrwt>
<pdfrwt beam="1">  1        2 0.12422382E+00 0.28899090E+04</pdfrwt>
<pdfrwt beam="2">  1       -1 0.39781095E+00 0.28899090E+04</pdfrwt>
<totfact> 0.24794107E-01</totfact>
</mgrwt>
</event>
<event>
12    6  0.1705838E-008  0.1793397E+04  0.7818608E-02  0.8709819E-01
          2   -1    0    0  501    0  0.00000000000E+00  0.00000000000E+00  0.17032280678E+04  0.17032280678E+04  0.00000000000E+00 0. -1.
         -1   -1    0    0    0  501 -0.00000000000E+00 -0.00000000000E+00 -0.47208500708E+03  0.47208500708E+03  0.00000000000E+00 0.  1.
         24    2    1    2    0    0 -0.43898183796E+03  0.24391286719E+03  0.99173129922E+03  0.11144983229E+04  0.79856127271E+02 0.  0.
        254    2    1    2    0    0  0.43898183796E+03 -0.24391286719E+03  0.23941176151E+03  0.10608147520E+04  0.90322278849E+03 0.  0.
         23    2    4    4    0    0 -0.19893051457E+03 -0.16643089883E+03 -0.13638160211E+03  0.31089731158E+03  0.10384894435E+03 0.  0.
         23    2    4    4    0    0  0.63791235253E+03 -0.77481968357E+02  0.37579336362E+03  0.74991744041E+03  0.90663610994E+02 0.  0.
          4    1    3    3  502    0 -0.27670804859E+03  0.18685108063E+03  0.59953629315E+03  0.68623934403E+03  0.00000000000E+00 0. -1.
         -3    1    3    3    0  502 -0.16227378936E+03  0.57061786558E+02  0.39219500606E+03  0.42825897887E+03  0.00000000000E+00 0.  1.
         11    1    5    5    0    0 -0.61140546544E+02 -0.99517779498E+02 -0.99275594180E+02  0.15328926403E+03  0.00000000000E+00 0. -1.
        -11    1    5    5    0    0 -0.13778996803E+03 -0.66913119330E+02 -0.37106007931E+02  0.15760804755E+03  0.00000000000E+00 0.  1.
          3    1    6    6  503    0  0.50066336616E+03 -0.98074250459E+02  0.29488235452E+03  0.58926901142E+03  0.00000000000E+00 0. -1.
         -3    1    6    6    0  503  0.13724898637E+03  0.20592282102E+02  0.80911009102E+02  0.16064842899E+03  0.00000000000E+00 0.  1.
<mgrwt>
<rscale>  0 0.17933973E+04</rscale>
<asrwt>0</asrwt>
<pdfrwt beam="1">  1        2 0.26203508E+00 0.17933973E+04</pdfrwt>
<pdfrwt beam="2">  1       -1 0.72628464E-01 0.17933973E+04</pdfrwt>
<totfact> 0.20089226E+01</totfact>
</mgrwt>
</event>
<event>
11    6  0.1705838E-008  0.1004040E+04  0.7818608E-02  0.9304125E-01
          2   -1    0    0  501    0  0.00000000000E+00  0.00000000000E+00  0.14002826025E+04  0.14002826025E+04  0.00000000000E+00 0. -1.
         -1   -1    0    0    0  501 -0.00000000000E+00 -0.00000000000E+00 -0.17998075816E+03  0.17998075816E+03  0.00000000000E+00 0.  1.
         24    2    1    2    0    0  0.65407314482E+02  0.69076867072E+01  0.85942255572E+02  0.13431493261E+03  0.79552478934E+02 0.  0.
        254    2    1    2    0    0 -0.65407314482E+02 -0.69076867072E+01  0.11343595888E+04  0.14459484281E+04  0.89424233127E+03 0.  0.
         23    2    4    4    0    0  0.82961869425E+02  0.39514221172E+03  0.54893063509E+03  0.68708348098E+03  0.87970611182E+02 0.  0.
          2    1    3    3  502    0  0.79119513514E+02  0.97991654380E+01  0.46129521727E+02  0.92107838085E+02  0.00000000000E+00 0. -1.
         -1    1    3    3    0  502 -0.13712199033E+02 -0.28914787308E+01  0.39812733846E+02  0.42207094520E+02  0.00000000000E+00 0.  1.
         11    1    4    4    0    0 -0.85533798147E+02 -0.31477386537E+03  0.26310548498E+03  0.41907411417E+03  0.00000000000E+00 0. -1.
        -11    1    4    4    0    0 -0.62835385759E+02 -0.87276033057E+02  0.32232346870E+03  0.33979083290E+03  0.00000000000E+00 0.  1.
          1    1    5    5  503    0  0.21059546485E+02  0.20646140844E+03  0.34380082610E+03  0.40158290016E+03  0.00000000000E+00 0. -1.
         -1    1    5    5    0  503  0.61902322940E+02  0.18868080328E+03  0.20512980899E+03  0.28550058081E+03  0.00000000000E+00 0.  1.
<mgrwt>
<rscale>  0 0.10040397E+04</rscale>
<asrwt>0</asrwt>
<pdfrwt beam="1">  1        2 0.21542809E+00 0.10040397E+04</pdfrwt>
<pdfrwt beam="2">  1       -1 0.27689348E-01 0.10040397E+04</pdfrwt>
<totfact> 0.19291448E+02</totfact>
</mgrwt>
</event>
<event>
11    6  0.1705838E-008  0.3015596E+04  0.7818608E-02  0.8239291E-01
          2   -1    0    0  501    0  0.00000000000E+00  0.00000000000E+00  0.18139009391E+04  0.18139009391E+04  0.00000000000E+00 0. -1.
         -1   -1    0    0    0  501 -0.00000000000E+00 -0.00000000000E+00 -0.12533513261E+04  0.12533513261E+04  0.00000000000E+00 0.  1.
         24    2    1    2    0    0 -0.15420337279E+03  0.13636601064E+04  0.24697797515E+03  0.13967469947E+04  0.80972101863E+02 0.  0.
        254    2    1    2    0    0  0.15420337279E+03 -0.13636601064E+04  0.31357163786E+03  0.16705052704E+04  0.89939597541E+03 0.  0.
         23    2    4    4    0    0  0.25957931178E+03 -0.87573863814E+02  0.24355787391E+03  0.37809314681E+03  0.92646581123E+02 0.  0.
          2    1    3    3  502    0 -0.15454434259E+03  0.12517830991E+04  0.24494309111E+03  0.12848509637E+04  0.00000000000E+00 0. -1.
         -1    1    3    3    0  502  0.34096980227E+00  0.11187700722E+03  0.20348840402E+01  0.11189603102E+03  0.00000000000E+00 0.  1.
         11    1    4    4    0    0 -0.11338366645E+03 -0.44497246543E+03  0.34990522769E+02  0.46052219001E+03  0.00000000000E+00 0. -1.
        -11    1    4    4    0    0  0.80077274616E+01 -0.83111377710E+03  0.35023241183E+02  0.83188993359E+03  0.00000000000E+00 0.  1.
          2    1    5    5  503    0  0.38731538542E+02  0.51236000954E+01  0.77048872712E+02  0.86388148156E+02  0.00000000000E+00 0. -1.
         -2    1    5    5    0  503  0.22084777324E+03 -0.92697463910E+02  0.16650900120E+03  0.29170499865E+03  0.00000000000E+00 0.  1.
<mgrwt>
<rscale>  0 0.30155962E+04</rscale>
<asrwt>0</asrwt>
<pdfrwt beam="1">  1        2 0.27906168E+00 0.30155962E+04</pdfrwt>
<pdfrwt beam="2">  1       -1 0.19282328E+00 0.30155962E+04</pdfrwt>
<totfact> 0.13923081E+00</totfact>
</mgrwt>
</event>
<event>
12    6  0.1705838E-008  0.2172058E+04  0.7818608E-02  0.8530149E-01
          2   -1    0    0  501    0  0.00000000000E+00  0.00000000000E+00  0.11000072285E+04  0.11000072285E+04  0.00000000000E+00 0. -1.
         -1   -1    0    0    0  501 -0.00000000000E+00 -0.00000000000E+00 -0.10722282016E+04  0.10722282016E+04  0.00000000000E+00 0.  1.
         24    2    1    2    0    0 -0.14397499465E+03  0.74634154491E+03 -0.46918895138E+03  0.89673608817E+03  0.79011638265E+02 0.  0.
        254    2    1    2    0    0  0.14397499465E+03 -0.74634154491E+03  0.49696797826E+03  0.12754993420E+04  0.89563770535E+03 0.  0.
         23    2    4    4    0    0 -0.24625337195E+03  0.32073009475E+02  0.23195747791E+03  0.36081588611E+03  0.12130305428E+03 0.  0.
         23    2    4    4    0    0  0.39022836660E+03 -0.77841455439E+03  0.26501050035E+03  0.91468345588E+03  0.90597254786E+02 0.  0.
          4    1    3    3  502    0 -0.14754707584E+02  0.13835838082E+03 -0.53978369894E+02  0.14924613012E+03  0.00000000000E+00 0. -1.
         -3    1    3    3    0  502 -0.12922028707E+03  0.60798316410E+03 -0.41521058148E+03  0.74748995805E+03  0.00000000000E+00 0.  1.
         11    1    5    5    0    0 -0.63742707028E+02 -0.29019657587E+02  0.11778559307E+03  0.13703546680E+03  0.00000000000E+00 0. -1.
        -11    1    5    5    0    0 -0.18251066492E+03  0.61092667062E+02  0.11417188484E+03  0.22378041931E+03  0.00000000000E+00 0.  1.
          1    1    6    6  503    0  0.92185363871E+02 -0.19655999383E+03  0.26175297984E+02  0.21867583019E+03  0.00000000000E+00 0. -1.
         -1    1    6    6    0  503  0.29804300273E+03 -0.58185456056E+03  0.23883520237E+03  0.69600762569E+03  0.00000000000E+00 0.  1.
<mgrwt>
<rscale>  0 0.21720578E+04</rscale>
<asrwt>0</asrwt>
<pdfrwt beam="1">  1        2 0.16923188E+00 0.21720578E+04</pdfrwt>
<pdfrwt beam="2">  1       -1 0.16495818E+00 0.21720578E+04</pdfrwt>
<totfact> 0.61035428E+00</totfact>
</mgrwt>
</event>
<event>
11    6  0.1705838E-008  0.1369115E+04  0.7818608E-02  0.8976483E-01
          2   -1    0    0  501    0  0.00000000000E+00  0.00000000000E+00  0.35489702777E+03  0.35489702777E+03  0.00000000000E+00 0. -1.
         -1   -1    0    0    0  501 -0.00000000000E+00 -0.00000000000E+00 -0.13204363297E+04  0.13204363297E+04  0.00000000000E+00 0.  1.
         24    2    1    2    0    0 -0.31674122053E+03  0.62929933385E+02 -0.53115157285E+03  0.62691678652E+03  0.81347935363E+02 0.  0.
        254    2    1    2    0    0  0.31674122053E+03 -0.62929933385E+02 -0.43438772910E+03  0.10484165710E+04  0.89788608952E+03 0.  0.
         23    2    4    4    0    0  0.11641304226E+03  0.37015981490E+03 -0.11211876067E+03  0.41400810611E+03  0.90894501776E+02 0.  0.
          4    1    3    3  502    0 -0.19428222165E+02  0.67828734464E+01 -0.70591527446E+01  0.21755340176E+02  0.00000000000E+00 0. -1.
         -3    1    3    3    0  502 -0.29731299836E+03  0.56147059939E+02 -0.52409242010E+03  0.60516144635E+03  0.00000000000E+00 0.  1.
         11    1    4    4    0    0  0.48954554360E+02 -0.37505356758E+03 -0.26757909718E+03  0.46331447224E+03  0.00000000000E+00 0.  1.
        -11    1    4    4    0    0  0.15137362390E+03 -0.58036180713E+02 -0.54689871251E+02  0.17109399260E+03  0.00000000000E+00 0. -1.
          4    1    5    5  503    0 -0.87091849840E+01  0.53287818121E+02  0.38453622944E+01  0.54131582965E+02  0.00000000000E+00 0. -1.
         -4    1    5    5    0  503  0.12512222725E+03  0.31687199678E+03 -0.11596412297E+03  0.35987652315E+03  0.00000000000E+00 0.  1.
<mgrwt>
<rscale>  0 0.13691149E+04</rscale>
<asrwt>0</asrwt>
<pdfrwt beam="1">  1        2 0.54599543E-01 0.13691149E+04</pdfrwt>
<pdfrwt beam="2">  1       -1 0.20314405E+00 0.13691149E+04</pdfrwt>
<totfact> 0.14546964E+01</totfact>
</mgrwt>
</event>
<event>
12    6  0.1705838E-008  0.1757331E+04  0.7818608E-02  0.8729325E-01
          2   -1    0    0  501    0  0.00000000000E+00  0.00000000000E+00  0.21694770592E+04  0.21694770592E+04  0.00000000000E+00 0. -1.
         -1   -1    0    0    0  501 -0.00000000000E+00 -0.00000000000E+00 -0.35587075510E+03  0.35587075510E+03  0.00000000000E+00 0.  1.
         24    2    1    2    0    0 -0.63801359950E+02 -0.24217795393E+03 -0.18526824147E+03  0.32171258531E+03  0.80336114823E+02 0.  0.
        254    2    1    2    0    0  0.63801359950E+02  0.24217795393E+03  0.19988745456E+04  0.22036352290E+04  0.89318978869E+03 0.  0.
         23    2    4    4    0    0 -0.11436146300E+03 -0.30306489557E+03  0.54634696213E+03  0.63911188750E+03  0.71007933093E+02 0.  0.
         23    2    4    4    0    0  0.17816282295E+03  0.54524284950E+03  0.14525275835E+04  0.15645233415E+04  0.94154920273E+02 0.  0.
          4    1    3    3  502    0 -0.65361027469E+02 -0.12980710524E+03 -0.72144385337E+02  0.16225523357E+03  0.00000000000E+00 0. -1.
         -3    1    3    3    0  502  0.15596675189E+01 -0.11237084869E+03 -0.11312385614E+03  0.15945735174E+03  0.00000000000E+00 0.  1.
         11    1    5    5    0    0 -0.11407836190E+03 -0.23530636206E+03  0.40078308252E+03  0.47854993043E+03  0.00000000000E+00 0.  1.
        -11    1    5    5    0    0 -0.28310110200E+00 -0.67758533510E+02  0.14556387962E+03  0.16056195707E+03  0.00000000000E+00 0. -1.
          3    1    6    6  503    0  0.45921979451E+02  0.90944371368E+02  0.17932816381E+03  0.20624814475E+03  0.00000000000E+00 0. -1.
         -3    1    6    6    0  503  0.13224084350E+03  0.45429847813E+03  0.12731994196E+04  0.13582751968E+04  0.00000000000E+00 0.  1.
<mgrwt>
<rscale>  0 0.17573314E+04</rscale>
<asrwt>0</asrwt>
<pdfrwt beam="1">  1        2 0.33376569E+00 0.17573314E+04</pdfrwt>
<pdfrwt beam="2">  1       -1 0.54749349E-01 0.17573314E+04</pdfrwt>
<totfact> 0.19540379E+01</totfact>
</mgrwt>
</event>
<event>
12    6  0.1705838E-008  0.1649625E+04  0.7818608E-02  0.8790629E-01
          2   -1    0    0  501    0  0.00000000000E+00  0.00000000000E+00  0.30600562620E+04  0.30600562620E+04  0.00000000000E+00 0. -1.
         -1   -1    0    0    0  501 -0.00000000000E+00 -0.00000000000E+00 -0.22232119754E+03  0.22232119754E+03  0.00000000000E+00 0.  1.
         24    2    1    2    0    0 -0.62413911024E+02  0.48520535876E+02  0.21197782554E+04  0.21230537522E+04  0.87450808902E+02 0.  0.
        254    2    1    2    0    0  0.62413911024E+02 -0.48520535876E+02  0.71795680901E+03  0.11593237073E+04  0.90681847136E+03 0.  0.
         23    2    4    4    0    0 -0.68536684504E+02 -0.45082830649E+03  0.44129242742E+03  0.64612746502E+03  0.12164808054E+03 0.  0.
         23    2    4    4    0    0  0.13095059553E+03  0.40230777062E+03  0.27666438160E+03  0.51319624227E+03  0.88473737739E+02 0.  0.
          4    1    3    3  502    0 -0.82372104729E+02  0.32705604969E+02  0.18350817232E+04  0.18372206593E+04  0.00000000000E+00 0. -1.
         -3    1    3    3    0  502  0.19958193705E+02  0.15814930907E+02  0.28469653223E+03  0.28583309291E+03  0.00000000000E+00 0.  1.
         11    1    5    5    0    0 -0.82025935782E+02 -0.25706954869E+03  0.31346560552E+03  0.41361055699E+03  0.00000000000E+00 0. -1.
        -11    1    5    5    0    0  0.13489251278E+02 -0.19375875781E+03  0.12782682189E+03  0.23251690804E+03  0.00000000000E+00 0.  1.
          1    1    6    6  503    0  0.48314327406E+02  0.28251284425E+03  0.18838915745E+03  0.34298433789E+03  0.00000000000E+00 0.  1.
         -1    1    6    6    0  503  0.82636268122E+02  0.11979492637E+03  0.88275224147E+02  0.17021190438E+03  0.00000000000E+00 0. -1.
<mgrwt>
<rscale>  0 0.16496247E+04</rscale>
<asrwt>0</asrwt>
<pdfrwt beam="1">  1        2 0.47077786E+00 0.16496247E+04</pdfrwt>
<pdfrwt beam="2">  1       -1 0.34203263E-01 0.16496247E+04</pdfrwt>
<totfact> 0.14119373E+01</totfact>
</mgrwt>
</event>
<event>
11    6  0.1705838E-008  0.2875748E+04  0.7818608E-02  0.8280130E-01
         -1   -1    0    0    0  501 -0.00000000000E+00  0.00000000000E+00  0.88246245777E+03  0.88246245777E+03  0.00000000000E+00 0.  1.
          2   -1    0    0  501    0  0.00000000000E+00 -0.00000000000E+00 -0.23428553162E+04  0.23428553162E+04  0.00000000000E+00 0. -1.
         24    2    1    2    0    0  0.19762959580E+03 -0.11163648118E+04  0.45585252890E+02  0.11373736017E+04  0.78821599319E+02 0.  0.
        254    2    1    2    0    0 -0.19762959580E+03  0.11163648118E+04 -0.15059781113E+04  0.20879441722E+04  0.89789361538E+03 0.  0.
         23    2    4    4    0    0  0.19723333832E+03  0.89023586905E+03 -0.70806297487E+03  0.11580753727E+04  0.91457641136E+02 0.  0.
          2    1    3    3  502    0  0.72263773960E+02 -0.59433767853E+03  0.17479040084E+01  0.59871728246E+03  0.00000000000E+00 0. -1.
         -1    1    3    3    0  502  0.12536582184E+03 -0.52202713324E+03  0.43837348881E+02  0.53865631926E+03  0.00000000000E+00 0.  1.
         11    1    4    4    0    0 -0.33135251048E+03  0.20810423996E+03 -0.56133942222E+03  0.68425419826E+03  0.00000000000E+00 0. -1.
        -11    1    4    4    0    0 -0.63510423641E+02  0.18024702760E+02 -0.23657571420E+03  0.24561460130E+03  0.00000000000E+00 0.  1.
          1    1    5    5  503    0  0.18235474485E+03  0.78702984720E+03 -0.66026549170E+03  0.10433694230E+04  0.00000000000E+00 0. -1.
         -1    1    5    5    0  503  0.14878593470E+02  0.10320602185E+03 -0.47797483174E+02  0.11470594966E+03  0.00000000000E+00 0.  1.
<mgrwt>
<rscale>  0 0.28757482E+04</rscale>
<asrwt>0</asrwt>
<pdfrwt beam="1">  1        2 0.36043928E+00 0.28757482E+04</pdfrwt>
<pdfrwt beam="2">  1       -1 0.13576346E+00 0.28757482E+04</pdfrwt>
<totfact> 0.19130065E+00</totfact>
</mgrwt>
</event>
<event>
12    6  0.1705838E-008  0.3148174E+04  0.7818608E-02  0.8202640E-01
         -1   -1    0    0    0  501 -0.00000000000E+00  0.00000000000E+00  0.17029469233E+04  0.17029469233E+04  0.00000000000E+00 0.  1.
          2   -1    0    0  501    0  0.00000000000E+00 -0.00000000000E+00 -0.14549774533E+04  0.14549774533E+04  0.00000000000E+00 0. -1.
         24    2    1    2    0    0  0.11739947363E+03  0.12423884118E+04 -0.61117770059E+03  0.13918246369E+04  0.79536382232E+02 0.  0.
        254    2    1    2    0    0 -0.11739947363E+03 -0.12423884118E+04  0.85914717067E+03  0.17660997397E+04  0.90755871843E+03 0.  0.
         23    2    4    4    0    0  0.12787001486E+03 -0.57531382087E+03 -0.58158366533E+02  0.60195461287E+03  0.10784353101E+03 0.  0.
         23    2    4    4    0    0 -0.24526948848E+03 -0.66707459092E+03  0.91730553721E+03  0.11641451268E+04  0.92945122525E+02 0.  0.
          2    1    3    3  502    0  0.95543463638E+02  0.11780373935E+04 -0.58738513790E+03  0.13198189096E+04  0.00000000000E+00 0. -1.
         -1    1    3    3    0  502  0.21856009989E+02  0.64351018334E+02 -0.23792562693E+02  0.72005727361E+02  0.00000000000E+00 0.  1.
         11    1    5    5    0    0  0.10364797953E+03 -0.54167787423E+03 -0.76207924781E+02  0.55674542736E+03  0.00000000000E+00 0. -1.
        -11    1    5    5    0    0  0.24222035324E+02 -0.33635946638E+02  0.18049558248E+02  0.45209185509E+02  0.00000000000E+00 0.  1.
          1    1    6    6  503    0 -0.22297034040E+03 -0.60824453754E+03  0.87337838921E+03  0.10874129854E+04  0.00000000000E+00 0. -1.
         -1    1    6    6    0  503 -0.22299148077E+02 -0.58830053385E+02  0.43927147997E+02  0.76732141358E+02  0.00000000000E+00 0.  1.
<mgrwt>
<rscale>  0 0.31481737E+04</rscale>
<asrwt>0</asrwt>
<pdfrwt beam="1">  1        2 0.22384269E+00 0.31481737E+04</pdfrwt>
<pdfrwt beam="2">  1       -1 0.26199183E+00 0.31481737E+04</pdfrwt>
<totfact> 0.75492854E-01</totfact>
</mgrwt>
</event>
<event>
12    6  0.1705838E-008  0.1684771E+04  0.7818608E-02  0.8770098E-01
          2   -1    0    0  501    0  0.00000000000E+00  0.00000000000E+00  0.65412135146E+03  0.65412135146E+03  0.00000000000E+00 0. -1.
         -1   -1    0    0    0  501 -0.00000000000E+00 -0.00000000000E+00 -0.10848344793E+04  0.10848344793E+04  0.00000000000E+00 0.  1.
         24    2    1    2    0    0 -0.44919009848E+03  0.45182061767E+02  0.27757456049E+03  0.53501416537E+03  0.73344101543E+02 0.  0.
        254    2    1    2    0    0  0.44919009848E+03 -0.45182061767E+02 -0.70828768831E+03  0.12039416654E+04  0.86254908319E+03 0.  0.
         23    2    4    4    0    0  0.37531229857E+03 -0.41398327477E+03 -0.53325542303E+03  0.77951247193E+03  0.10505652978E+03 0.  0.
         23    2    4    4    0    0  0.73877799911E+02  0.36880121300E+03 -0.17503226527E+03  0.42442919344E+03  0.89619095756E+02 0.  0.
          2    1    3    3  502    0 -0.39662600227E+03  0.51204887816E+02  0.26755693514E+03  0.48116612490E+03  0.00000000000E+00 0. -1.
         -1    1    3    3    0  502 -0.52564096212E+02 -0.60228260493E+01  0.10017625356E+02  0.53848040465E+02  0.00000000000E+00 0.  1.
         11    1    5    5    0    0  0.17419693919E+03 -0.15354210774E+03 -0.28320308597E+03  0.36622908183E+03  0.00000000000E+00 0.  1.
        -11    1    5    5    0    0  0.20111535938E+03 -0.26044116703E+03 -0.25005233706E+03  0.41328339010E+03  0.00000000000E+00 0. -1.
          2    1    6    6  503    0  0.71367673333E+01  0.20384606686E+03 -0.12638950647E+03  0.23995512032E+03  0.00000000000E+00 0. -1.
         -2    1    6    6    0  503  0.66741032578E+02  0.16495514614E+03 -0.48642758801E+02  0.18447407311E+03  0.00000000000E+00 0.  1.
<mgrwt>
<rscale>  0 0.16847711E+04</rscale>
<asrwt>0</asrwt>
<pdfrwt beam="1">  1        2 0.10063405E+00 0.16847711E+04</pdfrwt>
<pdfrwt beam="2">  1       -1 0.16689761E+00 0.16847711E+04</pdfrwt>
<totfact> 0.12591935E+01</totfact>
</mgrwt>
</event>
<event>
11    6  0.1705838E-008  0.1219067E+04  0.7818608E-02  0.9096329E-01
          2   -1    0    0  501    0  0.00000000000E+00  0.00000000000E+00  0.17195027400E+04  0.17195027400E+04  0.00000000000E+00 0. -1.
         -1   -1    0    0    0  501 -0.00000000000E+00 -0.00000000000E+00 -0.21606890509E+03  0.21606890509E+03  0.00000000000E+00 0.  1.
         24    2    1    2    0    0 -0.43796435443E+02  0.38336679245E+02  0.75175554681E+03  0.75814129245E+03  0.79082162493E+02 0.  0.
        254    2    1    2    0    0  0.43796435443E+02 -0.38336679245E+02  0.75167828811E+03  0.11774303526E+04  0.90439712393E+03 0.  0.
         23    2    4    4    0    0 -0.13212483449E+03  0.22479533369E+03  0.78217280669E+03  0.82949443491E+03  0.90976942673E+02 0.  0.
          4    1    3    3  502    0 -0.15615376675E+02  0.65554190551E+01  0.60814549443E+03  0.60838125867E+03  0.00000000000E+00 0. -1.
         -3    1    3    3    0  502 -0.28181058768E+02  0.31781260190E+02  0.14361005238E+03  0.14976003378E+03  0.00000000000E+00 0.  1.
         11    1    4    4    0    0  0.15594496441E+03 -0.19172300589E+03 -0.78851183640E+02  0.25941097138E+03  0.00000000000E+00 0.  1.
        -11    1    4    4    0    0  0.19976305521E+02 -0.71409007043E+02  0.48356665059E+02  0.88524946342E+02  0.00000000000E+00 0. -1.
          4    1    5    5  503    0 -0.59123877675E+02  0.50328083071E+02  0.33672580622E+03  0.34556159716E+03  0.00000000000E+00 0. -1.
         -4    1    5    5    0  503 -0.73000956815E+02  0.17446725061E+03  0.44544700047E+03  0.48393283776E+03  0.00000000000E+00 0.  1.
<mgrwt>
<rscale>  0 0.12190670E+04</rscale>
<asrwt>0</asrwt>
<pdfrwt beam="1">  1        2 0.26453887E+00 0.12190670E+04</pdfrwt>
<pdfrwt beam="2">  1       -1 0.33241371E-01 0.12190670E+04</pdfrwt>
<totfact> 0.91377857E+01</totfact>
</mgrwt>
</event>
<event>
12    6  0.1705838E-008  0.1810106E+04  0.7818608E-02  0.8700943E-01
         -1   -1    0    0    0  501 -0.00000000000E+00  0.00000000000E+00  0.26405744159E+03  0.26405744159E+03  0.00000000000E+00 0.  1.
          2   -1    0    0  501    0  0.00000000000E+00 -0.00000000000E+00 -0.31020566412E+04  0.31020566412E+04  0.00000000000E+00 0. -1.
         24    2    1    2    0    0 -0.25047751855E+03  0.34297585661E+03 -0.20562027377E+04  0.21010722259E+04  0.78507160518E+02 0.  0.
        254    2    1    2    0    0  0.25047751855E+03 -0.34297585661E+03 -0.78179646193E+03  0.12650418569E+04  0.89930738151E+03 0.  0.
         23    2    4    4    0    0 -0.17283675400E+02 -0.60087055080E+03 -0.41115924393E+03  0.73201083379E+03  0.73782061920E+02 0.  0.
         23    2    4    4    0    0  0.26776119395E+03  0.25789469419E+03 -0.37063721799E+03  0.53303102316E+03  0.92435891388E+02 0.  0.
          2    1    3    3  502    0 -0.23533306681E+03  0.30890241034E+03 -0.17476437032E+04  0.17902683779E+04  0.00000000000E+00 0. -1.
         -1    1    3    3    0  502 -0.15144451740E+02  0.34073446267E+02 -0.30855903448E+03  0.31080384797E+03  0.00000000000E+00 0.  1.
         11    1    5    5    0    0  0.86699502123E+01 -0.18843904496E+03 -0.92068946061E+02  0.20990743801E+03  0.00000000000E+00 0. -1.
        -11    1    5    5    0    0 -0.25953625613E+02 -0.41243150583E+03 -0.31909029787E+03  0.52210339578E+03  0.00000000000E+00 0.  1.
          4    1    6    6  503    0  0.70589160798E+02  0.12887559609E+03 -0.15578965806E+03  0.21415453870E+03  0.00000000000E+00 0. -1.
         -4    1    6    6    0  503  0.19717203315E+03  0.12901909810E+03 -0.21484755994E+03  0.31887648446E+03  0.00000000000E+00 0.  1.
<mgrwt>
<rscale>  0 0.18101062E+04</rscale>
<asrwt>0</asrwt>
<pdfrwt beam="1">  1        2 0.47723948E+00 0.18101062E+04</pdfrwt>
<pdfrwt beam="2">  1       -1 0.40624222E-01 0.18101062E+04</pdfrwt>
<totfact> 0.95817262E+00</totfact>
</mgrwt>
</event>
<event>
11    6  0.1705838E-008  0.2729444E+04  0.7818608E-02  0.8325514E-01
          2   -1    0    0  501    0  0.00000000000E+00  0.00000000000E+00  0.21050956674E+04  0.21050956674E+04  0.00000000000E+00 0. -1.
         -1   -1    0    0    0  501 -0.00000000000E+00 -0.00000000000E+00 -0.88474186876E+03  0.88474186876E+03  0.00000000000E+00 0.  1.
         24    2    1    2    0    0 -0.48104550867E+03 -0.35161202396E+03 -0.61801418153E+03  0.86219494599E+03  0.80017495024E+02 0.  0.
        254    2    1    2    0    0  0.48104550867E+03  0.35161202396E+03  0.18383679801E+04  0.21276425901E+04  0.89007323525E+03 0.  0.
         23    2    4    4    0    0  0.60814771312E+03  0.29860210944E+01  0.14081196313E+04  0.15365466774E+04  0.91226302963E+02 0.  0.
          2    1    3    3  502    0 -0.35955455133E+03 -0.22642599701E+03 -0.46799756980E+03  0.63211544265E+03  0.00000000000E+00 0. -1.
         -1    1    3    3    0  502 -0.12149095734E+03 -0.12518602695E+03 -0.15001661174E+03  0.23007950334E+03  0.00000000000E+00 0.  1.
         11    1    4    4    0    0  0.22776491920E+01 -0.16134773836E+00 -0.12557354956E+02  0.12763263000E+02  0.00000000000E+00 0.  1.
        -11    1    4    4    0    0 -0.12937985365E+03  0.34878735061E+03  0.44280570380E+03  0.57833264977E+03  0.00000000000E+00 0. -1.
          1    1    5    5  503    0  0.31626321179E+03 -0.32628311500E+02  0.65594759911E+03  0.72894051789E+03  0.00000000000E+00 0. -1.
         -1    1    5    5    0  503  0.29188450133E+03  0.35614332594E+02  0.75217203218E+03  0.80760615946E+03  0.00000000000E+00 0.  1.
<mgrwt>
<rscale>  0 0.27294441E+04</rscale>
<asrwt>0</asrwt>
<pdfrwt beam="1">  1        2 0.32386087E+00 0.27294441E+04</pdfrwt>
<pdfrwt beam="2">  1       -1 0.13611413E+00 0.27294441E+04</pdfrwt>
<totfact> 0.26207271E+00</totfact>
</mgrwt>
</event>
<event>
12    6  0.1705838E-008  0.1438476E+04  0.7818608E-02  0.8926429E-01
         -1   -1    0    0    0  501 -0.00000000000E+00  0.00000000000E+00  0.18106902721E+03  0.18106902721E+03  0.00000000000E+00 0.  1.
          2   -1    0    0  501    0  0.00000000000E+00 -0.00000000000E+00 -0.28569417254E+04  0.28569417254E+04  0.00000000000E+00 0. -1.
         24    2    1    2    0    0 -0.15415671527E+03  0.34197604215E+03 -0.12730849490E+04  0.13295814068E+04  0.79558304480E+02 0.  0.
        254    2    1    2    0    0  0.15415671527E+03 -0.34197604215E+03 -0.14027877492E+04  0.17084293458E+04  0.90011413381E+03 0.  0.
         23    2    4    4    0    0  0.42930141284E+03 -0.47482940873E+03 -0.81026977821E+03  0.10354846570E+04  0.76997992525E+02 0.  0.
         23    2    4    4    0    0 -0.27514469757E+03  0.13285336658E+03 -0.59251797098E+03  0.67294468880E+03  0.91773561733E+02 0.  0.
          4    1    3    3  502    0 -0.60412086009E+01  0.49650954449E+02 -0.26146612038E+03  0.26620714788E+03  0.00000000000E+00 0. -1.
         -3    1    3    3    0  502 -0.14811550667E+03  0.29232508770E+03 -0.10116188286E+04  0.10633742589E+04  0.00000000000E+00 0.  1.
         11    1    5    5    0    0  0.28115683282E+03 -0.35823414014E+03 -0.54875406449E+03  0.71310019429E+03  0.00000000000E+00 0.  1.
        -11    1    5    5    0    0  0.14814458001E+03 -0.11659526859E+03 -0.26151571372E+03  0.32238446267E+03  0.00000000000E+00 0. -1.
          3    1    6    6  503    0 -0.27255415354E+03  0.10715341128E+03 -0.55239464478E+03  0.62522593016E+03  0.00000000000E+00 0. -1.
         -3    1    6    6    0  503 -0.25905440308E+01  0.25699955297E+02 -0.40123326200E+02  0.47718758639E+02  0.00000000000E+00 0.  1.
<mgrwt>
<rscale>  0 0.14384765E+04</rscale>
<asrwt>0</asrwt>
<pdfrwt beam="1">  1        2 0.43952950E+00 0.14384765E+04</pdfrwt>
<pdfrwt beam="2">  1       -1 0.27856773E-01 0.14384765E+04</pdfrwt>
<totfact> 0.27600350E+01</totfact>
</mgrwt>
</event>
<event>
12    6  0.1705838E-008  0.2029070E+04  0.7818608E-02  0.8593149E-01
         -1   -1    0    0    0  501 -0.00000000000E+00  0.00000000000E+00  0.42398602837E+03  0.42398602837E+03  0.00000000000E+00 0.  1.
          2   -1    0    0  501    0  0.00000000000E+00 -0.00000000000E+00 -0.24276306862E+04  0.24276306862E+04  0.00000000000E+00 0. -1.
         24    2    1    2    0    0 -0.62733118051E+03 -0.48017710841E+03 -0.10380722621E+04  0.13069145167E+04  0.79479980487E+02 0.  0.
        254    2    1    2    0    0  0.62733118051E+03  0.48017710841E+03 -0.96557239574E+03  0.15447021978E+04  0.91085693886E+03 0.  0.
         23    2    4    4    0    0  0.35631359907E+03  0.11445811473E+03  0.79519435738E+02  0.40132477295E+03  0.12115358770E+03 0.  0.
         23    2    4    4    0    0  0.27101758144E+03  0.36571899368E+03 -0.10450918315E+04  0.11433774249E+04  0.88848678648E+02 0.  0.
          4    1    3    3  502    0 -0.57766245836E+03 -0.46267457501E+03 -0.98588744886E+03  0.12327756243E+04  0.00000000000E+00 0. -1.
         -3    1    3    3    0  502 -0.49668722147E+02 -0.17502533393E+02 -0.52184813216E+02  0.74138892393E+02  0.00000000000E+00 0.  1.
         11    1    5    5    0    0  0.34272619537E+03  0.73990162153E+02  0.73018537128E+02  0.35814451811E+03  0.00000000000E+00 0. -1.
        -11    1    5    5    0    0  0.13587403698E+02  0.40467952578E+02  0.65008986098E+01  0.43180254838E+02  0.00000000000E+00 0.  1.
          1    1    6    6  503    0  0.18852526052E+03  0.31383574911E+03 -0.81060912759E+03  0.88945028473E+03  0.00000000000E+00 0. -1.
         -1    1    6    6    0  503  0.82492320923E+02  0.51883244565E+02 -0.23448270389E+03  0.25392714014E+03  0.00000000000E+00 0.  1.
<mgrwt>
<rscale>  0 0.20290702E+04</rscale>
<asrwt>0</asrwt>
<pdfrwt beam="1">  1        2 0.37348164E+00 0.20290702E+04</pdfrwt>
<pdfrwt beam="2">  1       -1 0.65228620E-01 0.20290702E+04</pdfrwt>
<totfact> 0.96386486E+00</totfact>
</mgrwt>
</event>
<event>
11    6  0.1705838E-008  0.2205150E+04  0.7818608E-02  0.8516288E-01
         -1   -1    0    0    0  501 -0.00000000000E+00  0.00000000000E+00  0.53247227413E+03  0.53247227413E+03  0.00000000000E+00 0.  1.
          2   -1    0    0  501    0  0.00000000000E+00 -0.00000000000E+00 -0.22830693427E+04  0.22830693427E+04  0.00000000000E+00 0. -1.
         24    2    1    2    0    0 -0.10688746448E+03  0.87909325030E+03 -0.47388115287E+03  0.10092105896E+04  0.98553510276E+02 0.  0.
        254    2    1    2    0    0  0.10688746448E+03 -0.87909325030E+03 -0.12767159157E+04  0.18063310272E+04  0.92119399566E+03 0.  0.
         23    2    4    4    0    0 -0.89236032687E+02 -0.25597130423E+03  0.67678813885E+02  0.29408611826E+03  0.91770610676E+02 0.  0.
          4    1    3    3  502    0 -0.26742488450E+02  0.56760218735E+03 -0.32723217921E+03  0.65571968315E+03  0.00000000000E+00 0. -1.
         -3    1    3    3    0  502 -0.80144976031E+02  0.31149106295E+03 -0.14664897366E+03  0.35349090647E+03  0.00000000000E+00 0.  1.
         11    1    4    4    0    0  0.87326059337E+02 -0.43970163656E+02 -0.13241499775E+03  0.16459935468E+03  0.00000000000E+00 0. -1.
        -11    1    4    4    0    0  0.10879743783E+03 -0.57915178241E+03 -0.12119797318E+04  0.13476455543E+04  0.00000000000E+00 0.  1.
          4    1    5    5  503    0 -0.46414635146E+02 -0.35893353049E+02 -0.37060505399E+01  0.58791036387E+02  0.00000000000E+00 0. -1.
         -4    1    5    5    0  503 -0.42821397540E+02 -0.22007795118E+03  0.71384864425E+02  0.23529508187E+03  0.00000000000E+00 0.  1.
<mgrwt>
<rscale>  0 0.22051495E+04</rscale>
<asrwt>0</asrwt>
<pdfrwt beam="1">  1        2 0.35124144E+00 0.22051495E+04</pdfrwt>
<pdfrwt beam="2">  1       -1 0.81918811E-01 0.22051495E+04</pdfrwt>
<totfact> 0.71452357E+00</totfact>
</mgrwt>
</event>
<event>
12    6  0.1705838E-008  0.1709351E+04  0.7818608E-02  0.8756049E-01
          2   -1    0    0  501    0  0.00000000000E+00  0.00000000000E+00  0.16092352973E+04  0.16092352973E+04  0.00000000000E+00 0. -1.
         -1   -1    0    0    0  501 -0.00000000000E+00 -0.00000000000E+00 -0.45392356126E+03  0.45392356126E+03  0.00000000000E+00 0.  1.
         24    2    1    2    0    0  0.45933713583E+03  0.33902749838E+03  0.70608050798E+03  0.91156276482E+03  0.80416052128E+02 0.  0.
        254    2    1    2    0    0 -0.45933713583E+03 -0.33902749838E+03  0.44923122800E+03  0.11515960937E+04  0.89355168725E+03 0.  0.
         23    2    4    4    0    0 -0.15846674328E+03 -0.51300390402E+03  0.55386642126E+03  0.77928226554E+03  0.11058084152E+03 0.  0.
         23    2    4    4    0    0 -0.30087039255E+03  0.17397640564E+03 -0.10463519326E+03  0.37231382815E+03  0.82935397347E+02 0.  0.
          4    1    3    3  502    0  0.38890693425E+03  0.31712276247E+03  0.59702428322E+03  0.77990604866E+03  0.00000000000E+00 0. -1.
         -3    1    3    3    0  502  0.70430201584E+02  0.21904735912E+02  0.10905622476E+03  0.13165671616E+03  0.00000000000E+00 0.  1.
         11    1    5    5    0    0 -0.11090456779E+03 -0.22530763308E+03  0.20195724117E+03  0.32225778492E+03  0.00000000000E+00 0. -1.
        -11    1    5    5    0    0 -0.47562175496E+02 -0.28769627094E+03  0.35190918010E+03  0.45702448062E+03  0.00000000000E+00 0.  1.
          4    1    6    6  503    0 -0.20826370313E+03  0.11110428145E+03 -0.10964538543E+03  0.26026917210E+03  0.00000000000E+00 0.  1.
         -4    1    6    6    0  503 -0.92606689416E+02  0.62872124193E+02  0.50101921670E+01  0.11204465606E+03  0.00000000000E+00 0. -1.
<mgrwt>
<rscale>  0 0.17093505E+04</rscale>
<asrwt>0</asrwt>
<pdfrwt beam="1">  1        2 0.24757466E+00 0.17093505E+04</pdfrwt>
<pdfrwt beam="2">  1       -1 0.69834395E-01 0.17093505E+04</pdfrwt>
<totfact> 0.24750170E+01</totfact>
</mgrwt>
</event>
<event>
11    6  0.1705838E-008  0.1299402E+04  0.7818608E-02  0.9030039E-01
         -1   -1    0    0    0  501 -0.00000000000E+00  0.00000000000E+00  0.19034834841E+03  0.19034834841E+03  0.00000000000E+00 0.  1.
          2   -1    0    0  501    0  0.00000000000E+00 -0.00000000000E+00 -0.22175746100E+04  0.22175746100E+04  0.00000000000E+00 0. -1.
         24    2    1    2    0    0 -0.27224690944E+03  0.13012103432E+03 -0.28146897679E+03  0.42025810132E+03  0.79638078602E+02 0.  0.
        254    2    1    2    0    0  0.27224690944E+03 -0.13012103432E+03 -0.17457572848E+04  0.19876648571E+04  0.90116215154E+03 0.  0.
         23    2    4    4    0    0  0.17860103762E+03 -0.40272727786E+03 -0.14244682752E+04  0.14938609350E+04  0.91777095069E+02 0.  0.
          4    1    3    3  502    0 -0.47913768096E+02  0.59801738434E+02 -0.60755298551E+02  0.97791530282E+02  0.00000000000E+00 0. -1.
         -3    1    3    3    0  502 -0.22433314135E+03  0.70319295882E+02 -0.22071367823E+03  0.32246657104E+03  0.00000000000E+00 0.  1.
         11    1    4    4    0    0  0.98540492072E+02  0.41932658256E+01 -0.13437078404E+03  0.16668329148E+03  0.00000000000E+00 0.  1.
        -11    1    4    4    0    0 -0.48946202491E+01  0.26841297772E+03 -0.18691822564E+03  0.32712063064E+03  0.00000000000E+00 0. -1.
          2    1    5    5  503    0  0.15446615257E+03 -0.37914550361E+03 -0.13692828286E+04  0.14291768855E+04  0.00000000000E+00 0. -1.
         -2    1    5    5    0  503  0.24134885047E+02 -0.23581774251E+02 -0.55185446550E+02  0.64684049533E+02  0.00000000000E+00 0.  1.
<mgrwt>
<rscale>  0 0.12994024E+04</rscale>
<asrwt>0</asrwt>
<pdfrwt beam="1">  1        2 0.34116532E+00 0.12994024E+04</pdfrwt>
<pdfrwt beam="2">  1       -1 0.29284362E-01 0.12994024E+04</pdfrwt>
<totfact> 0.60127607E+01</totfact>
</mgrwt>
</event>
<event>
12    6  0.1705838E-008  0.2090403E+04  0.7818608E-02  0.8565483E-01
         -1   -1    0    0    0  501 -0.00000000000E+00  0.00000000000E+00  0.55049342492E+03  0.55049342492E+03  0.00000000000E+00 0.  1.
          2   -1    0    0  501    0  0.00000000000E+00 -0.00000000000E+00 -0.19844846152E+04  0.19844846152E+04  0.00000000000E+00 0. -1.
         24    2    1    2    0    0  0.27240540672E+03  0.66980005681E+02 -0.15736424193E+04  0.16004365099E+04  0.79721589299E+02 0.  0.
        254    2    1    2    0    0 -0.27240540672E+03 -0.66980005681E+02  0.13965122897E+03  0.93454153022E+03  0.88043987823E+03 0.  0.
         23    2    4    4    0    0  0.26756298137E+03 -0.10507058942E+03 -0.11765865071E+03  0.32818579742E+03  0.10598387512E+03 0.  0.
         23    2    4    4    0    0 -0.53996838808E+03  0.38090583734E+02  0.25730987967E+03  0.60635573279E+03  0.91881161378E+02 0.  0.
          4    1    3    3  502    0  0.19717489881E+03  0.25351087960E+02 -0.12430463570E+04  0.12588426685E+04  0.00000000000E+00 0. -1.
         -3    1    3    3    0  502  0.75230507906E+02  0.41628917722E+02 -0.33059606224E+03  0.34159384139E+03  0.00000000000E+00 0.  1.
         11    1    5    5    0    0  0.13991810710E+03 -0.15980800599E+02 -0.14782541860E+02  0.14160150502E+03  0.00000000000E+00 0. -1.
        -11    1    5    5    0    0  0.12764487427E+03 -0.89089788817E+02 -0.10287610884E+03  0.18658429240E+03  0.00000000000E+00 0.  1.
          1    1    6    6  503    0 -0.88339954456E+02  0.33696829163E+02  0.68865411290E+02  0.11696952048E+03  0.00000000000E+00 0. -1.
         -1    1    6    6    0  503 -0.45162843363E+03  0.43937545712E+01  0.18844446838E+03  0.48938621231E+03  0.00000000000E+00 0.  1.
<mgrwt>
<rscale>  0 0.20904026E+04</rscale>
<asrwt>0</asrwt>
<pdfrwt beam="1">  1        2 0.30530533E+00 0.20904026E+04</pdfrwt>
<pdfrwt beam="2">  1       -1 0.84691295E-01 0.20904026E+04</pdfrwt>
<totfact> 0.98739632E+00</totfact>
</mgrwt>
</event>
<event>
12    6  0.1705838E-008  0.1565759E+04  0.7818608E-02  0.8841864E-01
         -3   -1    0    0    0  501 -0.00000000000E+00  0.00000000000E+00  0.64821218513E+03  0.64821218513E+03  0.00000000000E+00 0.  1.
          2   -1    0    0  501    0  0.00000000000E+00 -0.00000000000E+00 -0.94552374580E+03  0.94552374580E+03  0.00000000000E+00 0. -1.
         24    2    1    2    0    0 -0.15254712637E+03  0.20775841115E+03 -0.56056084056E+03  0.62236920237E+03  0.81736068632E+02 0.  0.
        254    2    1    2    0    0  0.15254712637E+03 -0.20775841115E+03  0.26324927989E+03  0.97136672856E+03  0.89878749147E+03 0.  0.
         23    2    4    4    0    0 -0.93173127509E+02 -0.51298559515E+03  0.13458460749E+03  0.54870431373E+03  0.10548912177E+03 0.  0.
         23    2    4    4    0    0  0.24572025388E+03  0.30522718400E+03  0.12866467239E+03  0.42266241483E+03  0.92449131815E+02 0.  0.
          4    1    3    3  502    0 -0.11160846467E+03  0.17029155146E+03 -0.50185510096E+03  0.54158490031E+03  0.00000000000E+00 0. -1.
         -3    1    3    3    0  502 -0.40938661697E+02  0.37466859683E+02 -0.58705739603E+02  0.80784302054E+02  0.00000000000E+00 0.  1.
         11    1    5    5    0    0  0.29529721452E+01 -0.26815997056E+03  0.82470193340E+02  0.28057053060E+03  0.00000000000E+00 0. -1.
        -11    1    5    5    0    0 -0.96126099655E+02 -0.24482562459E+03  0.52114414153E+02  0.26813378312E+03  0.00000000000E+00 0.  1.
          3    1    6    6  503    0  0.32348766146E+02  0.43682434287E+02 -0.14127099923E+02  0.56162021764E+02  0.00000000000E+00 0. -1.
         -3    1    6    6    0  503  0.21337148773E+03  0.26154474971E+03  0.14279177232E+03  0.36650039307E+03  0.00000000000E+00 0.  1.
<mgrwt>
<rscale>  0 0.15657586E+04</rscale>
<asrwt>0</asrwt>
<pdfrwt beam="1">  1        2 0.14546519E+00 0.15657586E+04</pdfrwt>
<pdfrwt beam="2">  1       -3 0.99724951E-01 0.15657586E+04</pdfrwt>
<totfact> 0.14645809E+01</totfact>
</mgrwt>
</event>
<event>
11    6  0.1705838E-008  0.2652926E+04  0.7818608E-02  0.8350442E-01
         -1   -1    0    0    0  501 -0.00000000000E+00  0.00000000000E+00  0.58198922439E+03  0.58198922439E+03  0.00000000000E+00 0.  1.
          2   -1    0    0  501    0  0.00000000000E+00 -0.00000000000E+00 -0.30232589204E+04  0.30232589204E+04  0.00000000000E+00 0. -1.
         24    2    1    2    0    0 -0.66663124185E+03 -0.92677623639E+03 -0.14419050397E+04  0.18408171593E+04  0.78779855452E+02 0.  0.
        254    2    1    2    0    0  0.66663124185E+03  0.92677623639E+03 -0.99936465629E+03  0.17644309854E+04  0.90065286384E+03 0.  0.
         23    2    4    4    0    0 -0.10840339329E+03 -0.93953723410E+02 -0.15346580243E+03  0.22841319184E+03  0.89678513974E+02 0.  0.
          4    1    3    3  502    0 -0.57102082197E+03 -0.78177621471E+03 -0.12645059802E+04  0.15925495920E+04  0.00000000000E+00 0. -1.
         -3    1    3    3    0  502 -0.95610419877E+02 -0.14500002168E+03 -0.17739905947E+03  0.24826756731E+03  0.00000000000E+00 0.  1.
         11    1    4    4    0    0  0.66608334182E+03  0.85684305517E+03 -0.71253972236E+03  0.12982911443E+04  0.00000000000E+00 0.  1.
        -11    1    4    4    0    0  0.10895129333E+03  0.16388690464E+03 -0.13335913150E+03  0.23772664929E+03  0.00000000000E+00 0. -1.
          2    1    5    5  503    0 -0.26583889608E+01 -0.48697253357E+02 -0.73941107158E+02  0.88576389880E+02  0.00000000000E+00 0. -1.
         -2    1    5    5    0  503 -0.10574500433E+03 -0.45256470053E+02 -0.79524695274E+02  0.13983680196E+03  0.00000000000E+00 0.  1.
<mgrwt>
<rscale>  0 0.26529260E+04</rscale>
<asrwt>0</asrwt>
<pdfrwt beam="1">  1        2 0.46511676E+00 0.26529260E+04</pdfrwt>
<pdfrwt beam="2">  1       -1 0.89536802E-01 0.26529260E+04</pdfrwt>
<totfact> 0.20590641E+00</totfact>
</mgrwt>
</event>
<event>
11    6  0.1705838E-008  0.1377553E+04  0.7818608E-02  0.8970229E-01
         -1   -1    0    0    0  501 -0.00000000000E+00  0.00000000000E+00  0.12351104898E+03  0.12351104898E+03  0.00000000000E+00 0.  1.
          2   -1    0    0  501    0  0.00000000000E+00 -0.00000000000E+00 -0.38410559061E+04  0.38410559061E+04  0.00000000000E+00 0. -1.
         24    2    1    2    0    0  0.20285420995E+03 -0.14263143669E+03 -0.21520097486E+03  0.33800780709E+03  0.80276153678E+02 0.  0.
        254    2    1    2    0    0 -0.20285420995E+03  0.14263143669E+03 -0.35023438823E+04  0.36265591480E+04  0.90775824262E+03 0.  0.
         23    2    4    4    0    0  0.16453930039E+03  0.25672858772E+03 -0.27374821913E+04  0.27558369771E+04  0.88577352817E+02 0.  0.
          4    1    3    3  502    0  0.12757134547E+03 -0.72384841425E+02 -0.17278635822E+03  0.22664760983E+03  0.00000000000E+00 0. -1.
         -3    1    3    3    0  502  0.75282864476E+02 -0.70246595268E+02 -0.42414616638E+02  0.11136019727E+03  0.00000000000E+00 0.  1.
         11    1    4    4    0    0 -0.68373562530E+02 -0.74067421915E+02 -0.10710729063E+03  0.14708126580E+03  0.00000000000E+00 0. -1.
        -11    1    4    4    0    0 -0.29901994781E+03 -0.40029729111E+02 -0.65775440032E+03  0.72364090510E+03  0.00000000000E+00 0.  1.
          3    1    5    5  503    0  0.10855741504E+03  0.23236372218E+03 -0.22195361416E+04  0.22343048797E+04  0.00000000000E+00 0. -1.
         -3    1    5    5    0  503  0.55981885345E+02  0.24364865539E+02 -0.51794604977E+03  0.52153209742E+03  0.00000000000E+00 0.  1.
<mgrwt>
<rscale>  0 0.13775527E+04</rscale>
<asrwt>0</asrwt>
<pdfrwt beam="1">  1        2 0.59093150E+00 0.13775527E+04</pdfrwt>
<pdfrwt beam="2">  1       -1 0.19001705E-01 0.13775527E+04</pdfrwt>
<totfact> 0.11592021E+01</totfact>
</mgrwt>
</event>
<event>
12    6  0.1705838E-008  0.1334469E+04  0.7818608E-02  0.9002669E-01
         -3   -1    0    0    0  501 -0.00000000000E+00  0.00000000000E+00  0.40646380486E+03  0.40646380486E+03  0.00000000000E+00 0.  1.
          2   -1    0    0  501    0  0.00000000000E+00 -0.00000000000E+00 -0.10953045173E+04  0.10953045173E+04  0.00000000000E+00 0. -1.
         24    2    1    2    0    0  0.76441677022E+02  0.71399334915E+02 -0.57158526383E+03  0.58614638789E+03  0.76919953211E+02 0.  0.
        254    2    1    2    0    0 -0.76441677022E+02 -0.71399334915E+02 -0.11725544859E+03  0.91562193424E+03  0.90203851981E+03 0.  0.
         23    2    4    4    0    0 -0.41150207900E+03 -0.17315405886E+03  0.13820859554E+03  0.47376553977E+03  0.77690936835E+02 0.  0.
         23    2    4    4    0    0  0.33506040198E+03  0.10175472395E+03 -0.25546404413E+03  0.44185639447E+03  0.85765369901E+02 0.  0.
          2    1    3    3  502    0  0.92055766725E+02  0.64294015575E+02 -0.47894538534E+03  0.49193156716E+03  0.00000000000E+00 0. -1.
         -1    1    3    3    0  502 -0.15614089703E+02  0.71053193402E+01 -0.92639878482E+02  0.94214820731E+02  0.00000000000E+00 0.  1.
         11    1    5    5    0    0 -0.40271565260E+03 -0.17979281446E+03  0.13976383866E+03  0.46264379773E+03  0.00000000000E+00 0. -1.
        -11    1    5    5    0    0 -0.87864264071E+01  0.66387555971E+01 -0.15552431211E+01  0.11121742042E+02  0.00000000000E+00 0.  1.
          2    1    6    6  503    0  0.28423266998E+03  0.59511845607E+02 -0.23211691823E+03  0.37176354606E+03  0.00000000000E+00 0. -1.
         -2    1    6    6    0  503  0.50827732005E+02  0.42242878342E+02 -0.23347125897E+02  0.70092848416E+02  0.00000000000E+00 0.  1.
<mgrwt>
<rscale>  0 0.13344686E+04</rscale>
<asrwt>0</asrwt>
<pdfrwt beam="1">  1        2 0.16850839E+00 0.13344686E+04</pdfrwt>
<pdfrwt beam="2">  1       -3 0.62532894E-01 0.13344686E+04</pdfrwt>
<totfact> 0.33975527E+01</totfact>
</mgrwt>
</event>
<event>
11    6  0.1705838E-008  0.1223487E+04  0.7818608E-02  0.9092543E-01
          2   -1    0    0  501    0  0.00000000000E+00  0.00000000000E+00  0.24775167322E+03  0.24775167322E+03  0.00000000000E+00 0. -1.
         -1   -1    0    0    0  501 -0.00000000000E+00 -0.00000000000E+00 -0.15105044930E+04  0.15105044930E+04  0.00000000000E+00 0.  1.
         24    2    1    2    0    0 -0.68492887703E+02  0.71258900509E+02  0.69171980482E+02  0.14425573660E+03  0.79093919429E+02 0.  0.
        254    2    1    2    0    0  0.68492887703E+02 -0.71258900509E+02 -0.13319248002E+04  0.16140004296E+04  0.90620340250E+03 0.  0.
         23    2    4    4    0    0  0.28411189966E+03 -0.38619105500E+03 -0.55687437485E+03  0.74046032059E+03  0.91155441510E+02 0.  0.
          2    1    3    3  502    0 -0.62360780947E+02  0.71596687623E+02  0.84901132422E+02  0.12737014943E+03  0.00000000000E+00 0. -1.
         -1    1    3    3    0  502 -0.61321067560E+01 -0.33778711397E+00 -0.15729151940E+02  0.16885587172E+02  0.00000000000E+00 0.  1.
         11    1    4    4    0    0 -0.15814781147E+02  0.31579147306E+02 -0.15442818077E+02  0.38546471660E+02  0.00000000000E+00 0. -1.
        -11    1    4    4    0    0 -0.19980423081E+03  0.28335300718E+03 -0.75960760732E+03  0.83499363735E+03  0.00000000000E+00 0.  1.
          3    1    5    5  503    0  0.51732200508E+02 -0.37881856407E+02 -0.11531344485E+03  0.13194107085E+03  0.00000000000E+00 0. -1.
         -3    1    5    5    0  503  0.23237969916E+03 -0.34830919859E+03 -0.44156093000E+03  0.60851924974E+03  0.00000000000E+00 0.  1.
<mgrwt>
<rscale>  0 0.12234868E+04</rscale>
<asrwt>0</asrwt>
<pdfrwt beam="1">  1        2 0.38115643E-01 0.12234868E+04</pdfrwt>
<pdfrwt beam="2">  1       -1 0.23238530E+00 0.12234868E+04</pdfrwt>
<totfact> 0.13996678E+01</totfact>
</mgrwt>
</event>
<event>
12    6  0.1705838E-008  0.1425667E+04  0.7818608E-02  0.8935446E-01
         -1   -1    0    0    0  501 -0.00000000000E+00  0.00000000000E+00  0.58142136616E+03  0.58142136616E+03  0.00000000000E+00 0.  1.
          2   -1    0    0  501    0  0.00000000000E+00 -0.00000000000E+00 -0.87394717782E+03  0.87394717782E+03  0.00000000000E+00 0. -1.
         24    2    1    2    0    0  0.34764065095E+03  0.25189122207E+03 -0.49039179470E+02  0.43957236175E+03  0.80720568274E+02 0.  0.
        254    2    1    2    0    0 -0.34764065095E+03 -0.25189122207E+03 -0.24348663218E+03  0.10157961822E+04  0.88783609626E+03 0.  0.
         23    2    4    4    0    0  0.16736600623E+03  0.12988687843E+03 -0.27797460886E+03  0.36705951042E+03  0.11216425362E+03 0.  0.
         23    2    4    4    0    0 -0.51500665719E+03 -0.38177810050E+03  0.34487976676E+02  0.64873667180E+03  0.93185158892E+02 0.  0.
          4    1    3    3  502    0  0.22372107848E+02  0.30901149303E+02  0.15304270200E+02  0.41104901461E+02  0.00000000000E+00 0. -1.
         -3    1    3    3    0  502  0.32526854311E+03  0.22099007277E+03 -0.64343449669E+02  0.39846746029E+03  0.00000000000E+00 0.  1.
         11    1    5    5    0    0  0.14714599600E+03  0.47110680912E+02 -0.17884956160E+03  0.23634408408E+03  0.00000000000E+00 0.  1.
        -11    1    5    5    0    0  0.20220010233E+02  0.82776197523E+02 -0.99125047259E+02  0.13071542634E+03  0.00000000000E+00 0. -1.
          1    1    6    6  503    0 -0.13643708371E+03 -0.12862266764E+03 -0.26079800084E+02  0.18931197641E+03  0.00000000000E+00 0. -1.
         -1    1    6    6    0  503 -0.37856957348E+03 -0.25315543286E+03  0.60567776761E+02  0.45942469539E+03  0.00000000000E+00 0.  1.
<mgrwt>
<rscale>  0 0.14256669E+04</rscale>
<asrwt>0</asrwt>
<pdfrwt beam="1">  1        2 0.13445341E+00 0.14256669E+04</pdfrwt>
<pdfrwt beam="2">  1       -1 0.89449441E-01 0.14256669E+04</pdfrwt>
<totfact> 0.41490388E+01</totfact>
</mgrwt>
</event>
<event>
11    6  0.1705838E-008  0.1549797E+04  0.7818608E-02  0.8851998E-01
         -1   -1    0    0    0  501 -0.00000000000E+00  0.00000000000E+00  0.37836452865E+03  0.37836452865E+03  0.00000000000E+00 0.  1.
          2   -1    0    0  501    0  0.00000000000E+00 -0.00000000000E+00 -0.15870081269E+04  0.15870081269E+04  0.00000000000E+00 0. -1.
         24    2    1    2    0    0 -0.34935502066E+03 -0.17675045932E+03 -0.81311293659E+03  0.90593978864E+03  0.79275454412E+02 0.  0.
        254    2    1    2    0    0  0.34935502066E+03  0.17675045932E+03 -0.39553066167E+03  0.10594328669E+04  0.90147869629E+03 0.  0.
         23    2    4    4    0    0  0.47401027476E+03  0.44252324664E+02 -0.25004570184E+03  0.54563000742E+03  0.92440484491E+02 0.  0.
          4    1    3    3  502    0 -0.34179547090E+03 -0.16017266945E+03 -0.79591079323E+03  0.88088218210E+03  0.00000000000E+00 0. -1.
         -3    1    3    3    0  502 -0.75595497600E+01 -0.16577789868E+02 -0.17202143360E+02  0.25057606543E+02  0.00000000000E+00 0.  1.
         11    1    4    4    0    0  0.72624397641E+02 -0.50579254189E+02 -0.21781863233E+03  0.23511171956E+03  0.00000000000E+00 0.  1.
        -11    1    4    4    0    0 -0.19727965175E+03  0.18307738885E+03  0.72333672499E+02  0.27869113993E+03  0.00000000000E+00 0. -1.
          3    1    5    5  503    0  0.23674563295E+03  0.63609158112E+02 -0.15011656751E+03  0.28745365462E+03  0.00000000000E+00 0. -1.
         -3    1    5    5    0  503  0.23726464181E+03 -0.19356833448E+02 -0.99929134327E+02  0.25817635280E+03  0.00000000000E+00 0.  1.
<mgrwt>
<rscale>  0 0.15497969E+04</rscale>
<asrwt>0</asrwt>
<pdfrwt beam="1">  1        2 0.24415510E+00 0.15497969E+04</pdfrwt>
<pdfrwt beam="2">  1       -1 0.58209926E-01 0.15497969E+04</pdfrwt>
<totfact> 0.37188796E+01</totfact>
</mgrwt>
</event>
<event>
12    6  0.1705838E-008  0.1411555E+04  0.7818608E-02  0.8945496E-01
         -1   -1    0    0    0  501 -0.00000000000E+00  0.00000000000E+00  0.27464558487E+03  0.27464558487E+03  0.00000000000E+00 0.  1.
          2   -1    0    0  501    0  0.00000000000E+00 -0.00000000000E+00 -0.18136908679E+04  0.18136908679E+04  0.00000000000E+00 0. -1.
         24    2    1    2    0    0 -0.10967068415E+03  0.28357949697E+03 -0.87696848855E+03  0.93168791428E+03  0.80769113215E+02 0.  0.
        254    2    1    2    0    0  0.10967068415E+03 -0.28357949697E+03 -0.66207679450E+03  0.11566485385E+04  0.89835692782E+03 0.  0.
         23    2    4    4    0    0 -0.15963810357E+03 -0.51921076378E+02  0.15446929733E+03  0.26132850629E+03  0.12748216383E+03 0.  0.
         23    2    4    4    0    0  0.26930878772E+03 -0.23165842059E+03 -0.81654609184E+03  0.89532003222E+03  0.93046187641E+02 0.  0.
          4    1    3    3  502    0 -0.11167255304E+03  0.26856323424E+03 -0.76021418811E+03  0.81395490151E+03  0.00000000000E+00 0. -1.
         -3    1    3    3    0  502  0.20018688936E+01  0.15016262726E+02 -0.11675430044E+03  0.11773301277E+03  0.00000000000E+00 0.  1.
         11    1    5    5    0    0 -0.14339242356E+03 -0.85692860467E+02  0.98357468302E+02  0.19385263744E+03  0.00000000000E+00 0.  1.
        -11    1    5    5    0    0 -0.16245680005E+02  0.33771784089E+02  0.56111829032E+02  0.67475868847E+02  0.00000000000E+00 0. -1.
          4    1    6    6  503    0  0.23961272180E+03 -0.21373854140E+03 -0.78617930120E+03  0.84922100431E+03  0.00000000000E+00 0.  1.
         -4    1    6    6    0  503  0.29696065913E+02 -0.17919879189E+02 -0.30366790642E+02  0.46099027915E+02  0.00000000000E+00 0. -1.
<mgrwt>
<rscale>  0 0.14115554E+04</rscale>
<asrwt>0</asrwt>
<pdfrwt beam="1">  1        2 0.27902935E+00 0.14115554E+04</pdfrwt>
<pdfrwt beam="2">  1       -1 0.42253169E-01 0.14115554E+04</pdfrwt>
<totfact> 0.51728622E+01</totfact>
</mgrwt>
</event>
<event>
11    6  0.1705838E-008  0.3695919E+04  0.7818608E-02  0.8068867E-01
          2   -1    0    0  501    0  0.00000000000E+00  0.00000000000E+00  0.26876552212E+04  0.26876552212E+04  0.00000000000E+00 0. -1.
         -1   -1    0    0    0  501 -0.00000000000E+00 -0.00000000000E+00 -0.12706072176E+04  0.12706072176E+04  0.00000000000E+00 0.  1.
         24    2    1    2    0    0 -0.43644807763E+03 -0.14462877583E+04  0.15829267204E+04  0.21896776329E+04  0.82437429933E+02 0.  0.
        254    2    1    2    0    0  0.43644807763E+03  0.14462877583E+04 -0.16587871677E+03  0.17685848058E+04  0.90451161546E+03 0.  0.
         23    2    4    4    0    0  0.58416738073E+03  0.12219940220E+04  0.11014884549E+03  0.13619467449E+04  0.90803354751E+02 0.  0.
          2    1    3    3  502    0 -0.32572196841E+03 -0.10973813632E+04  0.12487904859E+04  0.16940538169E+04  0.00000000000E+00 0. -1.
         -3    1    3    3    0  502 -0.11072610921E+03 -0.34890639506E+03  0.33413623448E+03  0.49562381598E+03  0.00000000000E+00 0.  1.
         11    1    4    4    0    0 -0.10402211273E+03  0.10612898122E+03 -0.22727789528E+03  0.27154963133E+03  0.00000000000E+00 0. -1.
        -11    1    4    4    0    0 -0.43697190373E+02  0.11816475505E+03 -0.48749666975E+02  0.13508842960E+03  0.00000000000E+00 0.  1.
          3    1    5    5  503    0  0.51375929278E+03  0.10415889019E+04  0.12279758256E+03  0.11678764052E+04  0.00000000000E+00 0. -1.
         -3    1    5    5    0  503  0.70408087955E+02  0.18040512008E+03 -0.12648737077E+02  0.19407033970E+03  0.00000000000E+00 0.  1.
<mgrwt>
<rscale>  0 0.36959189E+04</rscale>
<asrwt>0</asrwt>
<pdfrwt beam="1">  1        2 0.41348542E+00 0.36959189E+04</pdfrwt>
<pdfrwt beam="2">  1       -1 0.19547803E+00 0.36959189E+04</pdfrwt>
<totfact> 0.40131901E-01</totfact>
</mgrwt>
</event>
<event>
11    6  0.1705838E-008  0.2320584E+04  0.7818608E-02  0.8469849E-01
          2   -1    0    0  501    0  0.00000000000E+00  0.00000000000E+00  0.20287119022E+04  0.20287119022E+04  0.00000000000E+00 0. -1.
         -1   -1    0    0    0  501 -0.00000000000E+00 -0.00000000000E+00 -0.66361182276E+03  0.66361182276E+03  0.00000000000E+00 0.  1.
         24    2    1    2    0    0  0.36768257200E+03 -0.64442935540E+03 -0.17469689839E+03  0.76635062258E+03  0.79338531442E+02 0.  0.
        254    2    1    2    0    0 -0.36768257200E+03  0.64442935540E+03  0.15397969778E+04  0.19259731024E+04  0.88764744708E+03 0.  0.
         23    2    4    4    0    0 -0.58432588441E+03  0.18560737676E+03  0.84742118605E+03  0.10499409375E+04  0.91468400119E+02 0.  0.
          4    1    3    3  502    0 -0.27967923269E+01 -0.14488282115E+02 -0.79478582618E+01  0.16760095970E+02  0.00000000000E+00 0. -1.
         -3    1    3    3    0  502  0.37047936433E+03 -0.62994107328E+03 -0.16674904013E+03  0.74959052661E+03  0.00000000000E+00 0.  1.
         11    1    4    4    0    0  0.23016426918E+03  0.45454753718E+03  0.62100374563E+03  0.80326502878E+03  0.00000000000E+00 0. -1.
        -11    1    4    4    0    0 -0.13520956775E+02  0.42744414530E+01  0.71372046147E+02  0.72767136078E+02  0.00000000000E+00 0.  1.
          3    1    5    5  503    0 -0.43488809035E+03  0.10273988157E+03  0.57261799892E+03  0.72634324329E+03  0.00000000000E+00 0. -1.
         -3    1    5    5    0  503 -0.14943779406E+03  0.82867495193E+02  0.27480318713E+03  0.32359769423E+03  0.00000000000E+00 0.  1.
<mgrwt>
<rscale>  0 0.23205837E+04</rscale>
<asrwt>0</asrwt>
<pdfrwt beam="1">  1        2 0.31210952E+00 0.23205837E+04</pdfrwt>
<pdfrwt beam="2">  1       -1 0.10209413E+00 0.23205837E+04</pdfrwt>
<totfact> 0.60270241E+00</totfact>
</mgrwt>
</event>
<event>
12    6  0.1705838E-008  0.2413600E+04  0.7818608E-02  0.8434430E-01
          2   -1    0    0  501    0  0.00000000000E+00  0.00000000000E+00  0.28850599304E+04  0.28850599304E+04  0.00000000000E+00 0. -1.
         -1   -1    0    0    0  501 -0.00000000000E+00 -0.00000000000E+00 -0.50479564963E+03  0.50479564963E+03  0.00000000000E+00 0.  1.
         24    2    1    2    0    0  0.42945733391E+03  0.86033354563E+03  0.15756304893E+04  0.18476769812E+04  0.81800835051E+02 0.  0.
        254    2    1    2    0    0 -0.42945733391E+03 -0.86033354563E+03  0.80463379154E+03  0.15421785989E+04  0.89792643411E+03 0.  0.
         23    2    4    4    0    0  0.20571262030E+02 -0.84622714380E+01  0.52176791966E+03  0.53435171937E+03  0.11311591905E+03 0.  0.
         23    2    4    4    0    0 -0.45002859594E+03 -0.85187127419E+03  0.28286587188E+03  0.10078268795E+04  0.86553525134E+02 0.  0.
          4    1    3    3  502    0  0.91914749935E+02  0.17521791598E+03  0.39045615407E+03  0.43772782364E+03  0.00000000000E+00 0. -1.
         -3    1    3    3    0  502  0.33754258397E+03  0.68511562965E+03  0.11851743352E+04  0.14099491575E+04  0.00000000000E+00 0.  1.
         11    1    5    5    0    0 -0.20837690451E+02 -0.27356919904E+02  0.51745278417E+02  0.62130381042E+02  0.00000000000E+00 0. -1.
        -11    1    5    5    0    0  0.41408952481E+02  0.18894648466E+02  0.47002264124E+03  0.47222133832E+03  0.00000000000E+00 0.  1.
          4    1    6    6  503    0 -0.13113513621E+03 -0.23773291874E+03  0.39911561034E+02  0.27441992876E+03  0.00000000000E+00 0. -1.
         -4    1    6    6    0  503 -0.31889345973E+03 -0.61413835546E+03  0.24295431085E+03  0.73340695078E+03  0.00000000000E+00 0.  1.
<mgrwt>
<rscale>  0 0.24135996E+04</rscale>
<asrwt>0</asrwt>
<pdfrwt beam="1">  1        2 0.44385537E+00 0.24135996E+04</pdfrwt>
<pdfrwt beam="2">  1       -1 0.77660870E-01 0.24135996E+04</pdfrwt>
<totfact> 0.34839344E+00</totfact>
</mgrwt>
</event>
<event>
11    6  0.1705838E-008  0.2499420E+04  0.7818608E-02  0.8403192E-01
         -1   -1    0    0    0  501 -0.00000000000E+00  0.00000000000E+00  0.62950716811E+03  0.62950716811E+03  0.00000000000E+00 0.  1.
          2   -1    0    0  501    0  0.00000000000E+00 -0.00000000000E+00 -0.24809497904E+04  0.24809497904E+04  0.00000000000E+00 0. -1.
         24    2    1    2    0    0  0.85875425109E+03 -0.13566212263E+03  0.18300254343E+01  0.87364472898E+03  0.85957478961E+02 0.  0.
        254    2    1    2    0    0 -0.85875425109E+03  0.13566212263E+03 -0.18532726477E+04  0.22368122295E+04  0.90157992886E+03 0.  0.
         23    2    4    4    0    0 -0.39592480150E+03 -0.10006767204E+03 -0.13984795511E+03  0.44136967154E+03  0.92085552486E+02 0.  0.
          4    1    3    3  502    0  0.40300265657E+03 -0.78876579224E+02 -0.39331198159E+02  0.41252830097E+03  0.00000000000E+00 0. -1.
         -3    1    3    3    0  502  0.45575159452E+03 -0.56785543405E+02  0.41161223593E+02  0.46111642801E+03  0.00000000000E+00 0.  1.
         11    1    4    4    0    0 -0.36741553486E+03  0.17192294440E+03 -0.11243342824E+04  0.11952737145E+04  0.00000000000E+00 0.  1.
        -11    1    4    4    0    0 -0.95413914731E+02  0.63806850269E+02 -0.58909041019E+03  0.60016884345E+03  0.00000000000E+00 0. -1.
          3    1    5    5  503    0 -0.85814023855E+02 -0.11220230343E+02 -0.69992796411E+02  0.11130557852E+03  0.00000000000E+00 0. -1.
         -3    1    5    5    0  503 -0.31011077765E+03 -0.88847441697E+02 -0.69855158701E+02  0.33006409303E+03  0.00000000000E+00 0.  1.
<mgrwt>
<rscale>  0 0.24994205E+04</rscale>
<asrwt>0</asrwt>
<pdfrwt beam="1">  1        2 0.38168458E+00 0.24994205E+04</pdfrwt>
<pdfrwt beam="2">  1       -1 0.96847258E-01 0.24994205E+04</pdfrwt>
<totfact> 0.37130686E+00</totfact>
</mgrwt>
</event>
<event>
12    6  0.1705838E-008  0.1471742E+04  0.7818608E-02  0.8903465E-01
          2   -1    0    0  501    0  0.00000000000E+00  0.00000000000E+00  0.87807446023E+03  0.87807446023E+03  0.00000000000E+00 0. -1.
         -1   -1    0    0    0  501 -0.00000000000E+00 -0.00000000000E+00 -0.61669729682E+03  0.61669729682E+03  0.00000000000E+00 0.  1.
         24    2    1    2    0    0 -0.66828484478E+02  0.16820078734E+03  0.50578703545E+03  0.54334329576E+03  0.81509880488E+02 0.  0.
        254    2    1    2    0    0  0.66828484478E+02 -0.16820078734E+03 -0.24440987204E+03  0.95142846129E+03  0.90151116477E+03 0.  0.
         23    2    4    4    0    0  0.41081551818E+03 -0.28296162818E+03 -0.27449985397E+03  0.57393164297E+03  0.72185095212E+02 0.  0.
         23    2    4    4    0    0 -0.34398703370E+03  0.11476084084E+03  0.30089981928E+02  0.37749681833E+03  0.10050527792E+03 0.  0.
          4    1    3    3  502    0 -0.29808382433E+02  0.68915416591E+02  0.32703901178E+03  0.33554789454E+03  0.00000000000E+00 0. -1.
         -3    1    3    3    0  502 -0.37020102045E+02  0.99285370746E+02  0.17874802367E+03  0.20779540121E+03  0.00000000000E+00 0.  1.
         11    1    5    5    0    0  0.77431319117E+02 -0.53384677602E+02 -0.85866657062E+02  0.12735232930E+03  0.00000000000E+00 0.  1.
        -11    1    5    5    0    0  0.33338419906E+03 -0.22957695058E+03 -0.18863319691E+03  0.44657931367E+03  0.00000000000E+00 0. -1.
          3    1    6    6  503    0 -0.30263161937E+03  0.85045956529E+02  0.57644621177E+02  0.31959601705E+03  0.00000000000E+00 0. -1.
         -3    1    6    6    0  503 -0.41355414327E+02  0.29714884314E+02 -0.27554639249E+02  0.57900801273E+02  0.00000000000E+00 0.  1.
<mgrwt>
<rscale>  0 0.14717420E+04</rscale>
<asrwt>0</asrwt>
<pdfrwt beam="1">  1        2 0.13508838E+00 0.14717420E+04</pdfrwt>
<pdfrwt beam="2">  1       -1 0.94876507E-01 0.14717420E+04</pdfrwt>
<totfact> 0.36029725E+01</totfact>
</mgrwt>
</event>
<event>
12    6  0.1705838E-008  0.3255779E+04  0.7818608E-02  0.8174240E-01
         -1   -1    0    0    0  501 -0.00000000000E+00  0.00000000000E+00  0.11706262310E+04  0.11706262310E+04  0.00000000000E+00 0.  1.
          2   -1    0    0  501    0  0.00000000000E+00 -0.00000000000E+00 -0.22637658201E+04  0.22637658201E+04  0.00000000000E+00 0. -1.
         24    2    1    2    0    0 -0.17993868406E+03 -0.10714901147E+04  0.58917155493E+03  0.12384296848E+04  0.78204650076E+02 0.  0.
        254    2    1    2    0    0  0.17993868406E+03  0.10714901147E+04 -0.16823111440E+04  0.21959623664E+04  0.90089451837E+03 0.  0.
         23    2    4    4    0    0  0.30477233131E+03  0.90888904724E+03 -0.17168274586E+04  0.19690683476E+04  0.10376974884E+03 0.  0.
         23    2    4    4    0    0 -0.12483364725E+03  0.16260106741E+03  0.34516314513E+02  0.22689401879E+03  0.90922896933E+02 0.  0.
          4    1    3    3  502    0 -0.15882504725E+02 -0.11335731465E+03  0.90424903678E+02  0.14587254007E+03  0.00000000000E+00 0. -1.
         -3    1    3    3    0  502 -0.16405617934E+03 -0.95813280000E+03  0.49874665125E+03  0.10925571448E+04  0.00000000000E+00 0.  1.
         11    1    5    5    0    0  0.26757326841E+03  0.85683845407E+03 -0.15622560312E+04  0.18017800913E+04  0.00000000000E+00 0. -1.
        -11    1    5    5    0    0  0.37199062905E+02  0.52050593172E+02 -0.15457142739E+03  0.16728825630E+03  0.00000000000E+00 0.  1.
          3    1    6    6  503    0 -0.68926626874E+02  0.21774871549E+02  0.17901882201E+02  0.74468129488E+02  0.00000000000E+00 0. -1.
         -3    1    6    6    0  503 -0.55907020373E+02  0.14082619586E+03  0.16614432312E+02  0.15242588930E+03  0.00000000000E+00 0.  1.
<mgrwt>
<rscale>  0 0.32557786E+04</rscale>
<asrwt>0</asrwt>
<pdfrwt beam="1">  1        2 0.34827166E+00 0.32557786E+04</pdfrwt>
<pdfrwt beam="2">  1       -1 0.18009634E+00 0.32557786E+04</pdfrwt>
<totfact> 0.94108578E-01</totfact>
</mgrwt>
</event>
<event>
12    6  0.1705838E-008  0.1546428E+04  0.7818608E-02  0.8854153E-01
          2   -1    0    0  501    0  0.00000000000E+00  0.00000000000E+00  0.81887173071E+03  0.81887173071E+03  0.00000000000E+00 0. -1.
         -1   -1    0    0    0  501 -0.00000000000E+00 -0.00000000000E+00 -0.73010172670E+03  0.73010172670E+03  0.00000000000E+00 0.  1.
         24    2    1    2    0    0  0.27653433675E+03  0.20389819785E+03  0.41056004486E+03  0.54107582189E+03  0.78471524203E+02 0.  0.
        254    2    1    2    0    0 -0.27653433675E+03 -0.20389819785E+03 -0.32179004085E+03  0.10078976355E+04  0.89121439554E+03 0.  0.
         23    2    4    4    0    0 -0.51562953358E+03 -0.33252045010E+03 -0.35570155972E+03  0.71906340877E+03  0.11867990820E+03 0.  0.
         23    2    4    4    0    0  0.23909519682E+03  0.12862225225E+03  0.33911518871E+02  0.28883422675E+03  0.92547406837E+02 0.  0.
          2    1    3    3  502    0  0.15012322270E+03  0.12042974707E+03  0.28717959575E+03  0.34570569303E+03  0.00000000000E+00 0. -1.
         -1    1    3    3    0  502  0.12641111405E+03  0.83468450781E+02  0.12338044911E+03  0.19537012887E+03  0.00000000000E+00 0.  1.
         11    1    5    5    0    0 -0.13133108916E+03 -0.84069194883E+02 -0.33762446123E+02  0.15954744522E+03  0.00000000000E+00 0.  1.
        -11    1    5    5    0    0 -0.38429844442E+03 -0.24845125522E+03 -0.32193911360E+03  0.55951596355E+03  0.00000000000E+00 0. -1.
          2    1    6    6  503    0  0.16579238698E+03  0.79656915648E+02 -0.20761327418E+02  0.18510368042E+03  0.00000000000E+00 0. -1.
         -2    1    6    6    0  503  0.73302809847E+02  0.48965336605E+02  0.54672846289E+02  0.10373054633E+03  0.00000000000E+00 0.  1.
<mgrwt>
<rscale>  0 0.15464277E+04</rscale>
<asrwt>0</asrwt>
<pdfrwt beam="1">  1        2 0.12598027E+00 0.15464277E+04</pdfrwt>
<pdfrwt beam="2">  1       -1 0.11232334E+00 0.15464277E+04</pdfrwt>
<totfact> 0.26658499E+01</totfact>
</mgrwt>
</event>
<event>
12    6  0.1705838E-008  0.1434768E+04  0.7818608E-02  0.8929029E-01
         -1   -1    0    0    0  501 -0.00000000000E+00  0.00000000000E+00  0.67463366117E+03  0.67463366117E+03  0.00000000000E+00 0.  1.
          2   -1    0    0  501    0  0.00000000000E+00 -0.00000000000E+00 -0.76284344652E+03  0.76284344652E+03  0.00000000000E+00 0. -1.
         24    2    1    2    0    0 -0.22796733978E+03  0.31685159785E+03 -0.23771514422E+03  0.46432573390E+03  0.82011305978E+02 0.  0.
        254    2    1    2    0    0  0.22796733978E+03 -0.31685159785E+03  0.14950535886E+03  0.97315137378E+03  0.87881038962E+03 0.  0.
         23    2    4    4    0    0 -0.20073569683E+03 -0.44765983703E+03  0.65805362190E+02  0.50835785428E+03  0.11577224471E+03 0.  0.
         23    2    4    4    0    0  0.42870303661E+03  0.13080823918E+03  0.83699996672E+02  0.46479351950E+03  0.90167828469E+02 0.  0.
          4    1    3    3  502    0 -0.16899479949E+03  0.27959644430E+03 -0.21443581867E+03  0.39078911736E+03  0.00000000000E+00 0. -1.
         -3    1    3    3    0  502 -0.58972540292E+02  0.37255153554E+02 -0.23279325543E+02  0.73536616542E+02  0.00000000000E+00 0.  1.
         11    1    5    5    0    0 -0.21043171159E+03 -0.43812957166E+03  0.75206801616E+02  0.49182831335E+03  0.00000000000E+00 0. -1.
        -11    1    5    5    0    0  0.96960147544E+01 -0.95302653702E+01 -0.94014394260E+01  0.16529540932E+02  0.00000000000E+00 0.  1.
          1    1    6    6  503    0  0.92575635444E+02 -0.90128428611E+01  0.21559646505E+02  0.95479306510E+02  0.00000000000E+00 0.  1.
         -1    1    6    6    0  503  0.33612740117E+03  0.13982108204E+03  0.62140350167E+02  0.36931421299E+03  0.00000000000E+00 0. -1.
<mgrwt>
<rscale>  0 0.14347681E+04</rscale>
<asrwt>0</asrwt>
<pdfrwt beam="1">  1        2 0.11736053E+00 0.14347681E+04</pdfrwt>
<pdfrwt beam="2">  1       -1 0.10378979E+00 0.14347681E+04</pdfrwt>
<totfact> 0.35580284E+01</totfact>
</mgrwt>
</event>
<event>
12    6  0.1705838E-008  0.2047111E+04  0.7818608E-02  0.8584906E-01
          2   -1    0    0  501    0  0.00000000000E+00  0.00000000000E+00  0.14791232999E+04  0.14791232999E+04  0.00000000000E+00 0. -1.
         -1   -1    0    0    0  501 -0.00000000000E+00 -0.00000000000E+00 -0.70830208852E+03  0.70830208852E+03  0.00000000000E+00 0.  1.
         24    2    1    2    0    0  0.10233473280E+03  0.31491204050E+03  0.11168338015E+04  0.11675623797E+04  0.79007465505E+02 0.  0.
        254    2    1    2    0    0 -0.10233473280E+03 -0.31491204050E+03 -0.34601259005E+03  0.10198630088E+04  0.90041871002E+03 0.  0.
         23    2    4    4    0    0  0.25455057202E+03 -0.37413785840E+03 -0.44052273857E+03  0.63467849957E+03  0.63098207690E+02 0.  0.
         23    2    4    4    0    0 -0.35688530482E+03  0.59225817905E+02  0.94510148511E+02  0.38518450918E+03  0.92520914611E+02 0.  0.
          2    1    3    3  502    0  0.96599752657E+02  0.24905621603E+03  0.78498712709E+03  0.82919557443E+03  0.00000000000E+00 0. -1.
         -1    1    3    3    0  502  0.57349801418E+01  0.65855824462E+02  0.33184667440E+03  0.33836680529E+03  0.00000000000E+00 0.  1.
         11    1    5    5    0    0  0.34315347424E+02 -0.97067742101E+02 -0.10073802465E+03  0.14404110259E+03  0.00000000000E+00 0.  1.
        -11    1    5    5    0    0  0.22023522460E+03 -0.27707011630E+03 -0.33978471392E+03  0.49063739698E+03  0.00000000000E+00 0. -1.
          3    1    6    6  503    0 -0.25907791040E+03  0.47449540213E+02  0.24905580606E+02  0.26456211080E+03  0.00000000000E+00 0. -1.
         -3    1    6    6    0  503 -0.97807394422E+02  0.11776277692E+02  0.69604567905E+02  0.12062239839E+03  0.00000000000E+00 0.  1.
<mgrwt>
<rscale>  0 0.20471113E+04</rscale>
<asrwt>0</asrwt>
<pdfrwt beam="1">  1        2 0.22755743E+00 0.20471113E+04</pdfrwt>
<pdfrwt beam="2">  1       -1 0.10896955E+00 0.20471113E+04</pdfrwt>
<totfact> 0.10734235E+01</totfact>
</mgrwt>
</event>
<event>
11    6  0.1705838E-008  0.1167645E+04  0.7818608E-02  0.9141658E-01
         -1   -1    0    0    0  501 -0.00000000000E+00  0.00000000000E+00  0.43670255991E+03  0.43670255991E+03  0.00000000000E+00 0.  1.
          2   -1    0    0  501    0  0.00000000000E+00 -0.00000000000E+00 -0.78050548188E+03  0.78050548188E+03  0.00000000000E+00 0. -1.
         24    2    1    2    0    0  0.10397814685E+03  0.18070619364E+03  0.17868713134E+02  0.22424467323E+03  0.80623812374E+02 0.  0.
        254    2    1    2    0    0 -0.10397814685E+03 -0.18070619364E+03 -0.36167163510E+03  0.99296336857E+03  0.90094600073E+03 0.  0.
         23    2    4    4    0    0 -0.20793117096E+03  0.31028028275E+03 -0.14174424806E+03  0.41023044600E+03  0.93211379374E+02 0.  0.
          4    1    3    3  502    0  0.73375719584E+02  0.17260062021E+03 -0.68404719809E+00  0.18755116166E+03  0.00000000000E+00 0. -1.
         -3    1    3    3    0  502  0.30602427264E+02  0.81055734290E+01  0.18552760332E+02  0.36693511566E+02  0.00000000000E+00 0.  1.
         11    1    4    4    0    0  0.91786253632E+02 -0.47771689293E+03 -0.25056776644E+03  0.54719498511E+03  0.00000000000E+00 0. -1.
        -11    1    4    4    0    0  0.12166770483E+02 -0.13269583465E+02  0.30640379398E+02  0.35537937461E+02  0.00000000000E+00 0.  1.
          2    1    5    5  503    0 -0.19898762835E+03  0.29179067120E+03 -0.10555448837E+03  0.36861853189E+03  0.00000000000E+00 0. -1.
         -2    1    5    5    0  503 -0.89435426076E+01  0.18489611555E+02 -0.36189759687E+02  0.41611914111E+02  0.00000000000E+00 0.  1.
<mgrwt>
<rscale>  0 0.11676451E+04</rscale>
<asrwt>0</asrwt>
<pdfrwt beam="1">  1        2 0.12007777E+00 0.11676451E+04</pdfrwt>
<pdfrwt beam="2">  1       -1 0.67185009E-01 0.11676451E+04</pdfrwt>
<totfact> 0.90189429E+01</totfact>
</mgrwt>
</event>
<event>
11    6  0.1705838E-008  0.1335788E+04  0.7818608E-02  0.9001657E-01
         -1   -1    0    0    0  501 -0.00000000000E+00  0.00000000000E+00  0.47333521405E+03  0.47333521405E+03  0.00000000000E+00 0.  1.
          2   -1    0    0  501    0  0.00000000000E+00 -0.00000000000E+00 -0.94242357655E+03  0.94242357655E+03  0.00000000000E+00 0. -1.
         24    2    1    2    0    0 -0.18163591680E+03  0.30317516068E+03 -0.16402582870E+03  0.39790548148E+03  0.80731130192E+02 0.  0.
        254    2    1    2    0    0  0.18163591680E+03 -0.30317516068E+03 -0.30506253380E+03  0.10178533091E+04  0.90446416459E+03 0.  0.
         23    2    4    4    0    0 -0.33867801646E+03 -0.18216921089E+03 -0.24390298528E+03  0.46456398330E+03  0.91883666230E+02 0.  0.
          2    1    3    3  502    0 -0.43942777587E+02  0.43373128376E+02 -0.59771967147E+02  0.85935347930E+02  0.00000000000E+00 0. -1.
         -1    1    3    3    0  502 -0.13769313921E+03  0.25980203231E+03 -0.10425386156E+03  0.31197013355E+03  0.00000000000E+00 0.  1.
         11    1    4    4    0    0  0.44186890139E+03 -0.99914008567E+02 -0.23944956104E+01  0.45303053841E+03  0.00000000000E+00 0. -1.
        -11    1    4    4    0    0  0.78445031868E+02 -0.21091941227E+02 -0.58765052912E+02  0.10025878741E+03  0.00000000000E+00 0.  1.
          2    1    5    5  503    0 -0.24661991291E+03 -0.11069094702E+03 -0.21253275916E+03  0.34386631256E+03  0.00000000000E+00 0. -1.
         -2    1    5    5    0  503 -0.92058103548E+02 -0.71478263874E+02 -0.31370226119E+02  0.12069767074E+03  0.00000000000E+00 0.  1.
<mgrwt>
<rscale>  0 0.13357878E+04</rscale>
<asrwt>0</asrwt>
<pdfrwt beam="1">  1        2 0.14498824E+00 0.13357878E+04</pdfrwt>
<pdfrwt beam="2">  1       -1 0.72820802E-01 0.13357878E+04</pdfrwt>
<totfact> 0.58276065E+01</totfact>
</mgrwt>
</event>
<event>
11    6  0.1705838E-008  0.1943222E+04  0.7818608E-02  0.8633636E-01
         -1   -1    0    0    0  501 -0.00000000000E+00  0.00000000000E+00  0.95379638885E+03  0.95379638885E+03  0.00000000000E+00 0.  1.
          2   -1    0    0  501    0  0.00000000000E+00 -0.00000000000E+00 -0.98975801434E+03  0.98975801434E+03  0.00000000000E+00 0. -1.
         24    2    1    2    0    0 -0.64019598032E+03  0.33182382370E+03 -0.25955964269E+03  0.77030114484E+03  0.77683347272E+02 0.  0.
        254    2    1    2    0    0  0.64019598032E+03 -0.33182382370E+03  0.22359801719E+03  0.11732532584E+04  0.89809197288E+03 0.  0.
         23    2    4    4    0    0  0.72205450736E+03 -0.80293340908E+02  0.38989443738E+03  0.82949350753E+03  0.90730780514E+02 0.  0.
          2    1    3    3  502    0 -0.13151306749E+03  0.54484164420E+02 -0.82229499485E+02  0.16439556466E+03  0.00000000000E+00 0. -1.
         -1    1    3    3    0  502 -0.50868291283E+03  0.27733965928E+03 -0.17733014320E+03  0.60590558018E+03  0.00000000000E+00 0.  1.
         11    1    4    4    0    0 -0.10035862995E+03 -0.20343205214E+03 -0.18096338189E+03  0.29017959961E+03  0.00000000000E+00 0. -1.
        -11    1    4    4    0    0  0.18500102910E+02 -0.48098430647E+02  0.14666961702E+02  0.53580151213E+02  0.00000000000E+00 0.  1.
          3    1    5    5  503    0  0.35730994381E+03 -0.84942395824E+02  0.18852694363E+03  0.41282928073E+03  0.00000000000E+00 0. -1.
         -3    1    5    5    0  503  0.36474456355E+03  0.46490549167E+01  0.20136749375E+03  0.41666422680E+03  0.00000000000E+00 0.  1.
<mgrwt>
<rscale>  0 0.19432217E+04</rscale>
<asrwt>0</asrwt>
<pdfrwt beam="1">  1        2 0.15227046E+00 0.19432217E+04</pdfrwt>
<pdfrwt beam="2">  1       -1 0.14673791E+00 0.19432217E+04</pdfrwt>
<totfact> 0.10079298E+01</totfact>
</mgrwt>
</event>
<event>
11    6  0.1705838E-008  0.2020000E+04  0.7818608E-02  0.8597327E-01
          2   -1    0    0  501    0  0.00000000000E+00  0.00000000000E+00  0.26780529006E+04  0.26780529006E+04  0.00000000000E+00 0. -1.
         -1   -1    0    0    0  501 -0.00000000000E+00 -0.00000000000E+00 -0.38091099126E+03  0.38091099126E+03  0.00000000000E+00 0.  1.
         24    2    1    2    0    0  0.43557776519E+03 -0.17399833009E+03  0.19191774769E+04  0.19772706320E+04  0.79709197386E+02 0.  0.
        254    2    1    2    0    0 -0.43557776519E+03  0.17399833009E+03  0.37796443242E+03  0.10816932598E+04  0.89844297966E+03 0.  0.
         23    2    4    4    0    0 -0.60029432559E+03  0.22857178661E+03  0.19354305166E+02  0.64978460455E+03  0.96161864623E+02 0.  0.
          2    1    3    3  502    0  0.25995339352E+03 -0.82147302593E+02  0.12486716844E+04  0.12780864296E+04  0.00000000000E+00 0. -1.
         -1    1    3    3    0  502  0.17562437168E+03 -0.91851027498E+02  0.67050579252E+03  0.69918420247E+03  0.00000000000E+00 0.  1.
         11    1    4    4    0    0  0.19566791646E+03 -0.57417050570E+02  0.27243169747E+03  0.34029646048E+03  0.00000000000E+00 0.  1.
        -11    1    4    4    0    0 -0.30951356066E+02  0.28435940466E+01  0.86178429782E+02  0.91612194763E+02  0.00000000000E+00 0. -1.
          4    1    5    5  503    0 -0.16570422369E+03  0.71067821049E+02 -0.37162917464E+02  0.18409130173E+03  0.00000000000E+00 0. -1.
         -4    1    5    5    0  503 -0.43459010190E+03  0.15750396557E+03  0.56517222630E+02  0.46569330282E+03  0.00000000000E+00 0.  1.
<mgrwt>
<rscale>  0 0.20199998E+04</rscale>
<asrwt>0</asrwt>
<pdfrwt beam="1">  1        2 0.41200813E+00 0.20199998E+04</pdfrwt>
<pdfrwt beam="2">  1       -1 0.58601693E-01 0.20199998E+04</pdfrwt>
<totfact> 0.85345535E+00</totfact>
</mgrwt>
</event>
<event>
12    6  0.1705838E-008  0.2948937E+04  0.7818608E-02  0.8258465E-01
          2   -1    0    0  501    0  0.00000000000E+00  0.00000000000E+00  0.29401207261E+04  0.29401207261E+04  0.00000000000E+00 0. -1.
         -1   -1    0    0    0  501 -0.00000000000E+00 -0.00000000000E+00 -0.73944468241E+03  0.73944468241E+03  0.00000000000E+00 0.  1.
         24    2    1    2    0    0 -0.15438017948E+03  0.72310331810E+03 -0.38868283048E+03  0.83929350400E+03  0.81410040415E+02 0.  0.
        254    2    1    2    0    0  0.15438017948E+03 -0.72310331810E+03  0.25893588741E+04  0.28402719045E+04  0.90313535193E+03 0.  0.
         23    2    4    4    0    0 -0.32541899010E+02  0.19095084588E+03  0.43085074459E+03  0.48690197234E+03  0.11798290477E+03 0.  0.
         23    2    4    4    0    0  0.18692207849E+03 -0.91405416398E+03  0.21585081295E+04  0.23533699321E+04  0.93583193629E+02 0.  0.
          2    1    3    3  502    0 -0.29187165182E+02  0.44557562010E+02 -0.36862639758E+02  0.64777474121E+02  0.00000000000E+00 0. -1.
         -1    1    3    3    0  502 -0.12519301430E+03  0.67854575609E+03 -0.35182019072E+03  0.77451602987E+03  0.00000000000E+00 0.  1.
         11    1    5    5    0    0 -0.70607270541E+02  0.16368367874E+03  0.36370699208E+03  0.40504383643E+03  0.00000000000E+00 0. -1.
        -11    1    5    5    0    0  0.38065371531E+02  0.27267167137E+02  0.67143752508E+02  0.81858135908E+02  0.00000000000E+00 0.  1.
          1    1    6    6  503    0  0.44641558993E+02 -0.31303826348E+03  0.63325317362E+03  0.70781028891E+03  0.00000000000E+00 0.  1.
         -1    1    6    6    0  503  0.14228051950E+03 -0.60101590050E+03  0.15252549559E+04  0.16455596432E+04  0.00000000000E+00 0. -1.
<mgrwt>
<rscale>  0 0.29489365E+04</rscale>
<asrwt>0</asrwt>
<pdfrwt beam="1">  1        2 0.45232626E+00 0.29489365E+04</pdfrwt>
<pdfrwt beam="2">  1       -1 0.11376072E+00 0.29489365E+04</pdfrwt>
<totfact> 0.13050298E+00</totfact>
</mgrwt>
</event>
<event>
12    6  0.1705838E-008  0.2257020E+04  0.7818608E-02  0.8495063E-01
          2   -1    0    0  501    0  0.00000000000E+00  0.00000000000E+00  0.25148173268E+04  0.25148173268E+04  0.00000000000E+00 0. -1.
         -1   -1    0    0    0  501 -0.00000000000E+00 -0.00000000000E+00 -0.50641262765E+03  0.50641262765E+03  0.00000000000E+00 0.  1.
         24    2    1    2    0    0 -0.46898216667E+03 -0.65124673332E+03  0.17517380489E+03  0.82536916631E+03  0.80509741413E+02 0.  0.
        254    2    1    2    0    0  0.46898216667E+03  0.65124673332E+03  0.18332308943E+04  0.21958607882E+04  0.90388191094E+03 0.  0.
         23    2    4    4    0    0 -0.20845520942E+03 -0.22818466895E+02  0.46211820966E+03  0.52201381481E+03  0.12235573707E+03 0.  0.
         23    2    4    4    0    0  0.67743737609E+03  0.67406520021E+03  0.13711126846E+04  0.16738469733E+04  0.92349356188E+02 0.  0.
          4    1    3    3  502    0 -0.26737215005E+02 -0.17099126702E+02 -0.33062055916E+01  0.31909086412E+02  0.00000000000E+00 0. -1.
         -3    1    3    3    0  502 -0.44224495166E+03 -0.63414760661E+03  0.17848001048E+03  0.79346007990E+03  0.00000000000E+00 0.  1.
         11    1    5    5    0    0 -0.45840488325E+02  0.12541738486E+02  0.23894409746E+03  0.24362456215E+03  0.00000000000E+00 0.  1.
        -11    1    5    5    0    0 -0.16261472109E+03 -0.35360205380E+02  0.22317411220E+03  0.27838925266E+03  0.00000000000E+00 0. -1.
          1    1    6    6  503    0  0.68003657263E+03  0.66769242946E+03  0.13580927489E+04  0.16591198977E+04  0.00000000000E+00 0. -1.
         -1    1    6    6    0  503 -0.25991965356E+01  0.63727707511E+01  0.13019935710E+02  0.14727075595E+02  0.00000000000E+00 0.  1.
<mgrwt>
<rscale>  0 0.22570204E+04</rscale>
<asrwt>0</asrwt>
<pdfrwt beam="1">  1        2 0.38689497E+00 0.22570204E+04</pdfrwt>
<pdfrwt beam="2">  1       -1 0.77909637E-01 0.22570204E+04</pdfrwt>
<totfact> 0.58303029E+00</totfact>
</mgrwt>
</event>
<event>
11    6  0.1705838E-008  0.2062302E+04  0.7818608E-02  0.8578034E-01
          2   -1    0    0  501    0  0.00000000000E+00  0.00000000000E+00  0.11197888164E+04  0.11197888164E+04  0.00000000000E+00 0. -1.
         -1   -1    0    0    0  501 -0.00000000000E+00 -0.00000000000E+00 -0.94952939169E+03  0.94952939169E+03  0.00000000000E+00 0.  1.
         24    2    1    2    0    0 -0.49100930347E+03  0.62555489036E+03 -0.18472627155E+03  0.82267431326E+03  0.10129251382E+03 0.  0.
        254    2    1    2    0    0  0.49100930347E+03 -0.62555489036E+03  0.35498569625E+03  0.12466438948E+04  0.89201855307E+03 0.  0.
         23    2    4    4    0    0  0.78620202157E+02 -0.48486881878E+01 -0.54934913931E+02  0.13220832047E+03  0.90865556003E+02 0.  0.
          4    1    3    3  502    0 -0.43476396647E+02  0.86664203249E+02 -0.50924954043E+02  0.10951818175E+03  0.00000000000E+00 0. -1.
         -3    1    3    3    0  502 -0.44753290682E+03  0.53889068711E+03 -0.13380131751E+03  0.71315613150E+03  0.00000000000E+00 0.  1.
         11    1    4    4    0    0  0.69146821934E+02  0.14348263856E+03 -0.39026367835E+02  0.16398660902E+03  0.00000000000E+00 0. -1.
        -11    1    4    4    0    0  0.34324227937E+03 -0.76418884073E+03  0.44894697801E+03  0.95044896534E+03  0.00000000000E+00 0.  1.
          1    1    5    5  503    0  0.79281149837E+02 -0.37307783125E+02 -0.43154232211E+02  0.97671178753E+02  0.00000000000E+00 0. -1.
         -1    1    5    5    0  503 -0.66094768007E+00  0.32459094937E+02 -0.11780681720E+02  0.34537141714E+02  0.00000000000E+00 0.  1.
<mgrwt>
<rscale>  0 0.20623020E+04</rscale>
<asrwt>0</asrwt>
<pdfrwt beam="1">  1        2 0.17227520E+00 0.20623020E+04</pdfrwt>
<pdfrwt beam="2">  1       -1 0.14608144E+00 0.20623020E+04</pdfrwt>
<totfact> 0.83649068E+00</totfact>
</mgrwt>
</event>
<event>
12    6  0.1705838E-008  0.1412230E+04  0.7818608E-02  0.8945013E-01
          2   -1    0    0  501    0  0.00000000000E+00  0.00000000000E+00  0.20509777699E+04  0.20509777699E+04  0.00000000000E+00 0. -1.
         -1   -1    0    0    0  501 -0.00000000000E+00 -0.00000000000E+00 -0.24310293010E+03  0.24310293010E+03  0.00000000000E+00 0.  1.
         24    2    1    2    0    0 -0.12914341316E+03 -0.82202836394E+02 -0.84521254414E+02  0.19480516958E+03  0.85848029531E+02 0.  0.
        254    2    1    2    0    0  0.12914341316E+03  0.82202836394E+02  0.18923960942E+04  0.20992755305E+04  0.89574519133E+03 0.  0.
         23    2    4    4    0    0  0.28698448645E+03 -0.96504770177E+02  0.17981108892E+04  0.18270735966E+04  0.11542049823E+03 0.  0.
         23    2    4    4    0    0 -0.15784107329E+03  0.17870760657E+03  0.94285205087E+02  0.27220193390E+03  0.91400108620E+02 0.  0.
          2    1    3    3  502    0 -0.47595046798E+02 -0.23448327956E+02  0.13142187209E+02  0.54661043242E+02  0.00000000000E+00 0. -1.
         -1    1    3    3    0  502 -0.81548366362E+02 -0.58754508437E+02 -0.97663441623E+02  0.14014412634E+03  0.00000000000E+00 0.  1.
         11    1    5    5    0    0  0.14190804035E+03 -0.21727901992E+01  0.10285964098E+04  0.10383415562E+04  0.00000000000E+00 0. -1.
        -11    1    5    5    0    0  0.14507644610E+03 -0.94331979978E+02  0.76951447932E+03  0.78873204039E+03  0.00000000000E+00 0.  1.
          1    1    6    6  503    0 -0.55762394599E+02  0.58706027784E+02 -0.12429617146E+02  0.81916651127E+02  0.00000000000E+00 0. -1.
         -1    1    6    6    0  503 -0.10207867869E+03  0.12000157879E+03  0.10671482223E+03  0.19028528277E+03  0.00000000000E+00 0.  1.
<mgrwt>
<rscale>  0 0.14122304E+04</rscale>
<asrwt>0</asrwt>
<pdfrwt beam="1">  1        2 0.31553503E+00 0.14122304E+04</pdfrwt>
<pdfrwt beam="2">  1       -1 0.37400452E-01 0.14122304E+04</pdfrwt>
<totfact> 0.47762686E+01</totfact>
</mgrwt>
</event>
<event>
11    6  0.1705838E-008  0.1336268E+04  0.7818608E-02  0.9001289E-01
         -1   -1    0    0    0  501 -0.00000000000E+00  0.00000000000E+00  0.35492949128E+03  0.35492949128E+03  0.00000000000E+00 0.  1.
          2   -1    0    0  501    0  0.00000000000E+00 -0.00000000000E+00 -0.12577223166E+04  0.12577223166E+04  0.00000000000E+00 0. -1.
         24    2    1    2    0    0 -0.54276038879E+02  0.34077028923E+03 -0.22480344225E+02  0.35488057236E+03  0.79778294937E+02 0.  0.
        254    2    1    2    0    0  0.54276038879E+02 -0.34077028923E+03 -0.88031248111E+03  0.12577712355E+04  0.82943844747E+03 0.  0.
         23    2    4    4    0    0  0.30794064078E+03  0.11189553257E+03 -0.25276094961E+03  0.42409256351E+03  0.92835102842E+02 0.  0.
          4    1    3    3  502    0  0.16496675952E+01  0.14046774577E+02 -0.18620348818E+02  0.23382700214E+02  0.00000000000E+00 0. -1.
         -1    1    3    3    0  502 -0.55925706474E+02  0.32672351465E+03 -0.38599954065E+01  0.33149787214E+03  0.00000000000E+00 0.  1.
         11    1    4    4    0    0 -0.19297626192E+03 -0.19352483064E+03 -0.24111736694E+03  0.36445751793E+03  0.00000000000E+00 0. -1.
        -11    1    4    4    0    0 -0.60688339983E+02 -0.25914099116E+03 -0.38643416457E+03  0.46922115410E+03  0.00000000000E+00 0.  1.
          3    1    5    5  503    0  0.10554035174E+03 -0.68857952754E+01 -0.73956888547E+02  0.12905735696E+03  0.00000000000E+00 0. -1.
         -3    1    5    5    0  503  0.20240028904E+03  0.11878132785E+03 -0.17880406106E+03  0.29503520654E+03  0.00000000000E+00 0.  1.
<mgrwt>
<rscale>  0 0.13362676E+04</rscale>
<asrwt>0</asrwt>
<pdfrwt beam="1">  1        2 0.19349574E+00 0.13362676E+04</pdfrwt>
<pdfrwt beam="2">  1       -1 0.54604538E-01 0.13362676E+04</pdfrwt>
<totfact> 0.66091332E+01</totfact>
</mgrwt>
</event>
<event>
11    6  0.1705838E-008  0.1570597E+04  0.7818608E-02  0.8838818E-01
          2   -1    0    0  501    0  0.00000000000E+00  0.00000000000E+00  0.14073479393E+04  0.14073479393E+04  0.00000000000E+00 0. -1.
         -1   -1    0    0    0  501 -0.00000000000E+00 -0.00000000000E+00 -0.43819571020E+03  0.43819571020E+03  0.00000000000E+00 0.  1.
         24    2    1    2    0    0 -0.14186965528E+03 -0.35421601026E+03 -0.92103663903E+02  0.40235809096E+03  0.88390991833E+02 0.  0.
        254    2    1    2    0    0  0.14186965528E+03  0.35421601026E+03  0.10612558930E+04  0.14431855585E+04  0.90051346737E+03 0.  0.
         23    2    4    4    0    0  0.29131874943E+03 -0.14883741652E+03  0.14153660651E+03  0.36796901975E+03  0.91375041362E+02 0.  0.
          4    1    3    3  502    0 -0.84961057657E+02 -0.25975024308E+03 -0.27813198204E+02  0.27470373877E+03  0.00000000000E+00 0. -1.
         -3    1    3    3    0  502 -0.56908597623E+02 -0.94465767183E+02 -0.64290465699E+02  0.12765435219E+03  0.00000000000E+00 0.  1.
         11    1    4    4    0    0 -0.26506428196E+02  0.12581128722E+03  0.40748880273E+03  0.42729169788E+03  0.00000000000E+00 0.  1.
        -11    1    4    4    0    0 -0.12294266595E+03  0.37724213957E+03  0.51223048375E+03  0.64792484090E+03  0.00000000000E+00 0. -1.
          3    1    5    5  503    0  0.25752979195E+03 -0.14179846666E+03  0.92872087856E+02  0.30830767683E+03  0.00000000000E+00 0. -1.
         -3    1    5    5    0  503  0.33788957479E+02 -0.70389498651E+01  0.48664518657E+02  0.59661342919E+02  0.00000000000E+00 0.  1.
<mgrwt>
<rscale>  0 0.15705971E+04</rscale>
<asrwt>0</asrwt>
<pdfrwt beam="1">  1        2 0.21651506E+00 0.15705971E+04</pdfrwt>
<pdfrwt beam="2">  1       -1 0.67414726E-01 0.15705971E+04</pdfrwt>
<totfact> 0.34981819E+01</totfact>
</mgrwt>
</event>
<event>
11    6  0.1705838E-008  0.1679570E+04  0.7818608E-02  0.8773103E-01
          2   -1    0    0  501    0  0.00000000000E+00  0.00000000000E+00  0.17580848051E+04  0.17580848051E+04  0.00000000000E+00 0. -1.
         -1   -1    0    0    0  501 -0.00000000000E+00 -0.00000000000E+00 -0.40114036144E+03  0.40114036144E+03  0.00000000000E+00 0.  1.
         24    2    1    2    0    0  0.42429679068E+03 -0.35187400748E+03  0.75558950392E+03  0.93932957404E+03  0.87071617130E+02 0.  0.
        254    2    1    2    0    0 -0.42429679068E+03  0.35187400748E+03  0.60135493977E+03  0.12198955925E+04  0.90701400727E+03 0.  0.
         23    2    4    4    0    0 -0.32599093323E+03 -0.52479969171E+02 -0.84655551495E+02  0.35278898068E+03  0.90935508894E+02 0.  0.
          2    1    3    3  502    0  0.17350367644E+03 -0.13550328450E+03  0.37447930339E+03  0.43439545867E+03  0.00000000000E+00 0. -1.
         -1    1    3    3    0  502  0.25079311423E+03 -0.21637072299E+03  0.38111020053E+03  0.50493411537E+03  0.00000000000E+00 0.  1.
         11    1    4    4    0    0 -0.87416816169E+00  0.29208978551E+03  0.65226060122E+03  0.71467551999E+03  0.00000000000E+00 0. -1.
        -11    1    4    4    0    0 -0.97431689283E+02  0.11226419114E+03  0.33749890053E+02  0.15243109187E+03  0.00000000000E+00 0.  1.
          4    1    5    5  503    0 -0.14986789294E+03  0.20260450756E+02 -0.48652098193E+02  0.15886440085E+03  0.00000000000E+00 0. -1.
         -4    1    5    5    0  503 -0.17612304029E+03 -0.72740419927E+02 -0.36003453302E+02  0.19392457983E+03  0.00000000000E+00 0.  1.
<mgrwt>
<rscale>  0 0.16795699E+04</rscale>
<asrwt>0</asrwt>
<pdfrwt beam="1">  1        2 0.27047458E+00 0.16795699E+04</pdfrwt>
<pdfrwt beam="2">  1       -1 0.61713903E-01 0.16795699E+04</pdfrwt>
<totfact> 0.26320472E+01</totfact>
</mgrwt>
</event>
<event>
12    6  0.1884309E-008  0.1623314E+04  0.7818608E-02  0.8806352E-01
         -1   -1    0    0    0  501 -0.00000000000E+00  0.00000000000E+00  0.35299493544E+03  0.35299493544E+03  0.00000000000E+00 0.  1.
          2   -1    0    0  501    0  0.00000000000E+00 -0.00000000000E+00 -0.18662780282E+04  0.18662780282E+04  0.00000000000E+00 0. -1.
         24    2    1    2    0    0 -0.31242162768E+03  0.43885206953E+03 -0.74395386669E+03  0.92159809966E+03  0.75347788030E+02 0.  0.
        254    2    1    2    0    0  0.31242162768E+03 -0.43885206953E+03 -0.76932922611E+03  0.12976748640E+04  0.89548544499E+03 0.  0.
         23    2    4    4    0    0  0.48179205977E+03 -0.13938615002E+03 -0.78929493753E+02  0.52088598895E+03  0.11636262639E+03 0.  0.
         23    2    4    4    0    0 -0.16937043210E+03 -0.29946591951E+03 -0.69039973236E+03  0.77678887507E+03  0.91558646633E+02 0.  0.
          2    1    3    3  502    0 -0.27248907281E+03  0.35429849684E+03 -0.57264253962E+03  0.72642769623E+03  0.00000000000E+00 0. -1.
         -1    1    3    3    0  502 -0.39932554864E+02  0.84553572687E+02 -0.17131132707E+03  0.19517040343E+03  0.00000000000E+00 0.  1.
         11    1    5    5    0    0  0.18332552235E+02 -0.30299699261E+01 -0.30032022474E+02  0.35315514481E+02  0.00000000000E+00 0. -1.
        -11    1    5    5    0    0  0.46345950754E+03 -0.13635618009E+03 -0.48897471279E+02  0.48557047447E+03  0.00000000000E+00 0.  1.
          1    1    6    6  503    0  0.97508666658E+01 -0.45527269933E+01 -0.25839148062E+02  0.27990503682E+02  0.00000000000E+00 0. -1.
         -1    1    6    6    0  503 -0.17912129876E+03 -0.29491319252E+03 -0.66456058429E+03  0.74879837139E+03  0.00000000000E+00 0.  1.
<mgrwt>
<rscale>  0 0.16233135E+04</rscale>
<asrwt>0</asrwt>
<pdfrwt beam="1">  1        2 0.28711969E+00 0.16233135E+04</pdfrwt>
<pdfrwt beam="2">  1       -1 0.54306914E-01 0.16233135E+04</pdfrwt>
<totfact> 0.29601848E+01</totfact>
</mgrwt>
</event>
<event>
12    6  0.1705838E-008  0.1732364E+04  0.7818608E-02  0.8743118E-01
         -1   -1    0    0    0  501 -0.00000000000E+00  0.00000000000E+00  0.59264315340E+03  0.59264315340E+03  0.00000000000E+00 0.  1.
          2   -1    0    0  501    0  0.00000000000E+00 -0.00000000000E+00 -0.12659741010E+04  0.12659741010E+04  0.00000000000E+00 0. -1.
         24    2    1    2    0    0 -0.34036979425E+03  0.98077251229E+02 -0.80249443506E+03  0.88089898005E+03  0.80715244576E+02 0.  0.
        254    2    1    2    0    0  0.34036979425E+03 -0.98077251229E+02  0.12916348748E+03  0.97771827432E+03  0.90209704211E+03 0.  0.
         23    2    4    4    0    0  0.24393625494E+02 -0.44332172905E+03  0.19073253736E+03  0.49858797494E+03  0.12280823887E+03 0.  0.
         23    2    4    4    0    0  0.31597616876E+03  0.34524447782E+03 -0.61569049876E+02  0.47913029938E+03  0.82099982873E+02 0.  0.
          2    1    3    3  502    0 -0.27195654600E+03  0.11036279060E+03 -0.63448362174E+03  0.69907780305E+03  0.00000000000E+00 0. -1.
         -1    1    3    3    0  502 -0.68413248256E+02 -0.12285539370E+02 -0.16801081331E+03  0.18182117700E+03  0.00000000000E+00 0.  1.
         11    1    5    5    0    0  0.64155408351E+02 -0.21628321700E+03  0.12939606001E+03  0.26007246437E+03  0.00000000000E+00 0. -1.
        -11    1    5    5    0    0 -0.39761782857E+02 -0.22703851205E+03  0.61336477347E+02  0.23851551057E+03  0.00000000000E+00 0.  1.
          3    1    6    6  503    0  0.10858444729E+03  0.89518071710E+02  0.13673438858E+02  0.14138963995E+03  0.00000000000E+00 0. -1.
         -3    1    6    6    0  503  0.20739172147E+03  0.25572640611E+03 -0.75242488734E+02  0.33774065943E+03  0.00000000000E+00 0.  1.
<mgrwt>
<rscale>  0 0.17323636E+04</rscale>
<asrwt>0</asrwt>
<pdfrwt beam="1">  1        2 0.19476525E+00 0.17323636E+04</pdfrwt>
<pdfrwt beam="2">  1       -1 0.91175869E-01 0.17323636E+04</pdfrwt>
<totfact> 0.21984530E+01</totfact>
</mgrwt>
</event>
<event>
12    6  0.1705838E-008  0.1536415E+04  0.7818608E-02  0.8860592E-01
         -1   -1    0    0    0  501 -0.00000000000E+00  0.00000000000E+00  0.12232481041E+04  0.12232481041E+04  0.00000000000E+00 0.  1.
          2   -1    0    0  501    0  0.00000000000E+00 -0.00000000000E+00 -0.48243912551E+03  0.48243912551E+03  0.00000000000E+00 0. -1.
         24    2    1    2    0    0  0.37313771605E+03 -0.26186949135E+03  0.47092681482E+03  0.65960429706E+03  0.74151049504E+02 0.  0.
        254    2    1    2    0    0 -0.37313771605E+03  0.26186949135E+03  0.26988216377E+03  0.10460829325E+04  0.90202313374E+03 0.  0.
         23    2    4    4    0    0  0.50965087968E+02  0.23975150906E+03  0.49584585137E+03  0.55680591078E+03  0.63964737785E+02 0.  0.
         23    2    4    4    0    0 -0.42410280402E+03  0.22117982287E+02 -0.22596368760E+03  0.48927702176E+03  0.89330971041E+02 0.  0.
          2    1    3    3  502    0  0.19407876605E+02 -0.34955621566E+02  0.26639032225E+02  0.48043721664E+02  0.00000000000E+00 0. -1.
         -1    1    3    3    0  502  0.35372983945E+03 -0.22691386978E+03  0.44428778260E+03  0.61156057540E+03  0.00000000000E+00 0.  1.
         11    1    5    5    0    0  0.15514643847E+02  0.17666335502E+02  0.21559411151E+02  0.31900028102E+02  0.00000000000E+00 0. -1.
        -11    1    5    5    0    0  0.35450444121E+02  0.22208517356E+03  0.47428644021E+03  0.52490588268E+03  0.00000000000E+00 0.  1.
          1    1    6    6  503    0 -0.70962636746E+02 -0.29241244889E+02 -0.32444750095E+02  0.83327114586E+02  0.00000000000E+00 0. -1.
         -1    1    6    6    0  503 -0.35314016728E+03  0.51359227175E+02 -0.19351893750E+03  0.40594990717E+03  0.00000000000E+00 0.  1.
<mgrwt>
<rscale>  0 0.15364150E+04</rscale>
<asrwt>0</asrwt>
<pdfrwt beam="1">  1        2 0.74221404E-01 0.15364150E+04</pdfrwt>
<pdfrwt beam="2">  1       -1 0.18819202E+00 0.15364150E+04</pdfrwt>
<totfact> 0.12865109E+01</totfact>
</mgrwt>
</event>
<event>
11    6  0.1705838E-008  0.1552563E+04  0.7818608E-02  0.8850232E-01
          2   -1    0    0  501    0  0.00000000000E+00  0.00000000000E+00  0.95375481396E+03  0.95375481396E+03  0.00000000000E+00 0. -1.
         -1   -1    0    0    0  501 -0.00000000000E+00 -0.00000000000E+00 -0.63183219534E+03  0.63183219534E+03  0.00000000000E+00 0.  1.
         24    2    1    2    0    0  0.14065867463E+03 -0.13619947615E+03  0.59802536987E+03  0.63441168781E+03  0.80676431291E+02 0.  0.
        254    2    1    2    0    0 -0.14065867463E+03  0.13619947615E+03 -0.27610275125E+03  0.95117532150E+03  0.88891315826E+03 0.  0.
         23    2    4    4    0    0  0.13550483267E+03  0.22169410908E+03  0.81255600592E+02  0.28645536634E+03  0.89131176364E+02 0.  0.
          4    1    3    3  502    0  0.11397686057E+03 -0.14177496399E+03  0.54853353370E+03  0.57790994346E+03  0.00000000000E+00 0. -1.
         -3    1    3    3    0  502  0.26681814063E+02  0.55754878460E+01  0.49491836173E+02  0.56501744346E+02  0.00000000000E+00 0.  1.
         11    1    4    4    0    0 -0.35076631600E+03 -0.35079481801E+02 -0.42495026513E+03  0.55213250793E+03  0.00000000000E+00 0. -1.
        -11    1    4    4    0    0  0.74602808702E+02 -0.50415151133E+02  0.67591913291E+02  0.11258744722E+03  0.00000000000E+00 0.  1.
          4    1    5    5  503    0  0.12211547695E+03  0.20198762902E+03  0.99800071309E+02  0.25626401664E+03  0.00000000000E+00 0. -1.
         -4    1    5    5    0  503  0.13389355715E+02  0.19706480057E+02 -0.18544470716E+02  0.30191349702E+02  0.00000000000E+00 0.  1.
<mgrwt>
<rscale>  0 0.15525630E+04</rscale>
<asrwt>0</asrwt>
<pdfrwt beam="1">  1        2 0.14673151E+00 0.15525630E+04</pdfrwt>
<pdfrwt beam="2">  1       -1 0.97204953E-01 0.15525630E+04</pdfrwt>
<totfact> 0.30148992E+01</totfact>
</mgrwt>
</event>
<event>
12    6  0.1705838E-008  0.3862776E+04  0.7818608E-02  0.8032816E-01
         -1   -1    0    0    0  501 -0.00000000000E+00  0.00000000000E+00  0.25230512850E+04  0.25230512850E+04  0.00000000000E+00 0.  1.
          2   -1    0    0  501    0  0.00000000000E+00 -0.00000000000E+00 -0.14784714841E+04  0.14784714841E+04  0.00000000000E+00 0. -1.
         24    2    1    2    0    0 -0.11918779000E+04  0.71039110055E+03 -0.73369267241E+03  0.15715282242E+04  0.78533926143E+02 0.  0.
        254    2    1    2    0    0  0.11918779000E+04 -0.71039110055E+03  0.17782724733E+04  0.24299945450E+04  0.90409737045E+03 0.  0.
         23    2    4    4    0    0  0.44675604007E+03 -0.76692284320E+03  0.83426070852E+03  0.12228553080E+04  0.10780801352E+03 0.  0.
         23    2    4    4    0    0  0.74512185991E+03  0.56531742651E+02  0.94401176480E+03  0.12071392370E+04  0.87318391004E+02 0.  0.
          2    1    3    3  502    0 -0.57834242865E+03  0.34831154491E+03 -0.31277257696E+03  0.74406154449E+03  0.00000000000E+00 0. -1.
         -1    1    3    3    0  502 -0.61353547134E+03  0.36207955564E+03 -0.42092009545E+03  0.82746667966E+03  0.00000000000E+00 0.  1.
         11    1    5    5    0    0  0.19645828758E+03 -0.31467443054E+03  0.42057963241E+03  0.56080574462E+03  0.00000000000E+00 0. -1.
        -11    1    5    5    0    0  0.25029775249E+03 -0.45224841266E+03  0.41368107611E+03  0.66204956339E+03  0.00000000000E+00 0.  1.
          1    1    6    6  503    0  0.28449015552E+03  0.31042308277E+02  0.29639887606E+03  0.41200796985E+03  0.00000000000E+00 0. -1.
         -1    1    6    6    0  503  0.46063170439E+03  0.25489434374E+02  0.64761288874E+03  0.79513126716E+03  0.00000000000E+00 0.  1.
<mgrwt>
<rscale>  0 0.38627759E+04</rscale>
<asrwt>0</asrwt>
<pdfrwt beam="1">  1        2 0.22745715E+00 0.38627759E+04</pdfrwt>
<pdfrwt beam="2">  1       -1 0.38816174E+00 0.38627759E+04</pdfrwt>
<totfact> 0.10209336E-01</totfact>
</mgrwt>
</event>
<event>
11    6  0.1705838E-008  0.1641386E+04  0.7818608E-02  0.8795519E-01
          2   -1    0    0  501    0  0.00000000000E+00  0.00000000000E+00  0.10794362796E+04  0.10794362796E+04  0.00000000000E+00 0. -1.
         -1   -1    0    0    0  501 -0.00000000000E+00 -0.00000000000E+00 -0.62397127306E+03  0.62397127306E+03  0.00000000000E+00 0.  1.
         24    2    1    2    0    0 -0.15236954570E+02  0.51975450208E+03 -0.73908455540E+02  0.53117663430E+03  0.79430786272E+02 0.  0.
        254    2    1    2    0    0  0.15236954570E+02 -0.51975450208E+03  0.52937346206E+03  0.11722309183E+04  0.90747570565E+03 0.  0.
         23    2    4    4    0    0  0.11953511932E+03  0.19267188744E+02  0.53952547362E+03  0.56224881843E+03  0.10186328006E+03 0.  0.
          4    1    3    3  502    0 -0.10865049819E+01  0.49376608736E+03 -0.56872006209E+02  0.49703174407E+03  0.00000000000E+00 0. -1.
         -3    1    3    3    0  502 -0.14150449588E+02  0.25988414723E+02 -0.17036449331E+02  0.34144890235E+02  0.00000000000E+00 0.  1.
         11    1    4    4    0    0 -0.17814714651E+02 -0.51512119213E+03  0.18594246593E+02  0.51576443523E+03  0.00000000000E+00 0.  1.
        -11    1    4    4    0    0 -0.86483450096E+02 -0.23900498692E+02 -0.28746258160E+02  0.94217664673E+02  0.00000000000E+00 0. -1.
          2    1    5    5  503    0  0.48926318300E+02  0.59443280039E+02  0.26286931199E+03  0.27391159769E+03  0.00000000000E+00 0. -1.
         -2    1    5    5    0  503  0.70608801017E+02 -0.40176091295E+02  0.27665616164E+03  0.28833722074E+03  0.00000000000E+00 0.  1.
<mgrwt>
<rscale>  0 0.16413863E+04</rscale>
<asrwt>0</asrwt>
<pdfrwt beam="1">  1        2 0.16606712E+00 0.16413863E+04</pdfrwt>
<pdfrwt beam="2">  1       -1 0.95995580E-01 0.16413863E+04</pdfrwt>
<totfact> 0.25589883E+01</totfact>
</mgrwt>
</event>
<event>
11    6  0.1705838E-008  0.2195458E+04  0.7818608E-02  0.8520321E-01
          2   -1    0    0  501    0  0.00000000000E+00  0.00000000000E+00  0.81255270472E+03  0.81255270472E+03  0.00000000000E+00 0. -1.
         -1   -1    0    0    0  501 -0.00000000000E+00 -0.00000000000E+00 -0.14829923458E+04  0.14829923458E+04  0.00000000000E+00 0.  1.
         24    2    1    2    0    0 -0.41771642378E+03 -0.70644136609E+03 -0.69736270828E+03  0.10802252207E+04  0.83817457098E+02 0.  0.
        254    2    1    2    0    0  0.41771642378E+03  0.70644136609E+03  0.26923067214E+02  0.12153198298E+04  0.89595257840E+03 0.  0.
         23    2    4    4    0    0 -0.85677788921E+02  0.67225437887E+03  0.90510359577E+01  0.68385065535E+03  0.91121699632E+02 0.  0.
          4    1    3    3  502    0 -0.15275480806E+03 -0.18374594382E+03 -0.20079835352E+03  0.31211629569E+03  0.00000000000E+00 0. -1.
         -3    1    3    3    0  502 -0.26496161572E+03 -0.52269542227E+03 -0.49656435476E+03  0.76810892501E+03  0.00000000000E+00 0.  1.
         11    1    4    4    0    0  0.49642930279E+02  0.47993512316E+02 -0.29411207149E+02  0.75052094289E+02  0.00000000000E+00 0.  1.
        -11    1    4    4    0    0  0.45375128242E+03 -0.13806525093E+02  0.47283238405E+02  0.45641708017E+03  0.00000000000E+00 0. -1.
          2    1    5    5  503    0 -0.55293974467E+02  0.60919344483E+03  0.24417549085E+02  0.61218485243E+03  0.00000000000E+00 0. -1.
         -2    1    5    5    0  503 -0.30383814455E+02  0.63060934039E+02 -0.15366513127E+02  0.71665802922E+02  0.00000000000E+00 0.  1.
<mgrwt>
<rscale>  0 0.21954584E+04</rscale>
<asrwt>0</asrwt>
<pdfrwt beam="1">  1        2 0.12500811E+00 0.21954584E+04</pdfrwt>
<pdfrwt beam="2">  1       -1 0.22815267E+00 0.21954584E+04</pdfrwt>
<totfact> 0.34170746E+00</totfact>
</mgrwt>
</event>
<event>
11    6  0.1705838E-008  0.2050371E+04  0.7818608E-02  0.8583426E-01
         -1   -1    0    0    0  501 -0.00000000000E+00  0.00000000000E+00  0.90213908228E+03  0.90213908228E+03  0.00000000000E+00 0.  1.
          2   -1    0    0  501    0  0.00000000000E+00 -0.00000000000E+00 -0.11650144276E+04  0.11650144276E+04  0.00000000000E+00 0. -1.
         24    2    1    2    0    0  0.60013541073E+03 -0.81241284596E+01 -0.67910558133E+03  0.90980274972E+03  0.79549607912E+02 0.  0.
        254    2    1    2    0    0 -0.60013541073E+03  0.81241284596E+01  0.41623023601E+03  0.11573507602E+04  0.89776648410E+03 0.  0.
         23    2    4    4    0    0 -0.26301875364E+03  0.14690429282E+03  0.78458135938E+02  0.32621567288E+03  0.97474356224E+02 0.  0.
          4    1    3    3  502    0  0.45629299377E+03 -0.28549719159E+02 -0.55218249288E+03  0.71688484994E+03  0.00000000000E+00 0. -1.
         -3    1    3    3    0  502  0.14384241696E+03  0.20425590700E+02 -0.12692308845E+03  0.19291789977E+03  0.00000000000E+00 0.  1.
         11    1    4    4    0    0  0.14722023773E+01  0.21105433091E+03 -0.40111964687E+02  0.21483730516E+03  0.00000000000E+00 0. -1.
        -11    1    4    4    0    0 -0.33858885947E+03 -0.34983449527E+03  0.37788406476E+03  0.61629778212E+03  0.00000000000E+00 0.  1.
          2    1    5    5  503    0 -0.17566363662E+03  0.14460302027E+03  0.41230266056E+02  0.23123079713E+03  0.00000000000E+00 0.  1.
         -2    1    5    5    0  503 -0.87355117016E+02  0.23012725459E+01  0.37227869882E+02  0.94984875744E+02  0.00000000000E+00 0. -1.
<mgrwt>
<rscale>  0 0.20503707E+04</rscale>
<asrwt>0</asrwt>
<pdfrwt beam="1">  1        2 0.17923299E+00 0.20503707E+04</pdfrwt>
<pdfrwt beam="2">  1       -1 0.13879063E+00 0.20503707E+04</pdfrwt>
<totfact> 0.89943433E+00</totfact>
</mgrwt>
</event>
<event>
12    6  0.1705838E-008  0.1663083E+04  0.7818608E-02  0.8782704E-01
          4   -1    0    0  501    0  0.00000000000E+00  0.00000000000E+00  0.57915132132E+03  0.57915132132E+03  0.00000000000E+00 0. -1.
         -3   -1    0    0    0  501 -0.00000000000E+00 -0.00000000000E+00 -0.11939221137E+04  0.11939221137E+04  0.00000000000E+00 0.  1.
         24    2    1    2    0    0  0.52962062638E+03  0.15017884564E+03 -0.35311683622E+03  0.65905497600E+03  0.81303553425E+02 0.  0.
        254    2    1    2    0    0 -0.52962062638E+03 -0.15017884564E+03 -0.26165395611E+03  0.11140184590E+04  0.93248197872E+03 0.  0.
         23    2    4    4    0    0 -0.72202748741E+03  0.73230645886E+02 -0.31431590478E+03  0.80067917310E+03  0.12492489810E+03 0.  0.
         23    2    4    4    0    0  0.19240686104E+03 -0.22340949152E+03  0.52661948670E+02  0.31333928588E+03  0.92065336361E+02 0.  0.
          2    1    3    3  502    0  0.45964901184E+03  0.13686507245E+03 -0.27298251802E+03  0.55184120658E+03  0.00000000000E+00 0. -1.
         -1    1    3    3    0  502  0.69971614542E+02  0.13313773189E+02 -0.80134318201E+02  0.10721376941E+03  0.00000000000E+00 0.  1.
         11    1    5    5    0    0 -0.10498487356E+03  0.56061350081E+02 -0.55891647109E+02  0.13148602537E+03  0.00000000000E+00 0. -1.
        -11    1    5    5    0    0 -0.61704261385E+03  0.17169295805E+02 -0.25842425767E+03  0.66919314774E+03  0.00000000000E+00 0.  1.
          3    1    6    6  503    0  0.89523028577E+02 -0.17190385966E+03  0.34160095492E+02  0.19680503483E+03  0.00000000000E+00 0. -1.
         -3    1    6    6    0  503  0.10288383246E+03 -0.51505631863E+02  0.18501853177E+02  0.11653425104E+03  0.00000000000E+00 0.  1.
<mgrwt>
<rscale>  0 0.16630834E+04</rscale>
<asrwt>0</asrwt>
<pdfrwt beam="1">  1        4 0.89100203E-01 0.16630834E+04</pdfrwt>
<pdfrwt beam="2">  1       -3 0.18368033E+00 0.16630834E+04</pdfrwt>
<totfact> 0.44206570E-01</totfact>
</mgrwt>
</event>
<event>
11    6  0.1705838E-008  0.1551517E+04  0.7818608E-02  0.8850900E-01
          2   -1    0    0  501    0  0.00000000000E+00  0.00000000000E+00  0.25419151344E+03  0.25419151344E+03  0.00000000000E+00 0. -1.
         -1   -1    0    0    0  501 -0.00000000000E+00 -0.00000000000E+00 -0.23675099929E+04  0.23675099929E+04  0.00000000000E+00 0.  1.
         24    2    1    2    0    0  0.33143509006E+03 -0.19298958716E+03 -0.13392702503E+03  0.41433347398E+03  0.81495889185E+02 0.  0.
        254    2    1    2    0    0 -0.33143509006E+03  0.19298958716E+03 -0.19793914544E+04  0.22073680323E+04  0.89854821836E+03 0.  0.
         23    2    4    4    0    0  0.25772930182E+02  0.38803903622E+03 -0.15369544150E+04  0.15879680875E+04  0.90417010092E+02 0.  0.
          4    1    3    3  502    0  0.29528707896E+03 -0.19766954160E+03 -0.12609951503E+03  0.37705277398E+03  0.00000000000E+00 0. -1.
         -3    1    3    3    0  502  0.36148011095E+02  0.46799544358E+01 -0.78275100076E+01  0.37280700001E+02  0.00000000000E+00 0.  1.
         11    1    4    4    0    0 -0.14475528360E+02  0.21987069844E+02 -0.15898792027E+02  0.30752947005E+02  0.00000000000E+00 0. -1.
        -11    1    4    4    0    0 -0.34273249188E+03 -0.21703651890E+03 -0.42653824739E+03  0.58864699779E+03  0.00000000000E+00 0.  1.
          1    1    5    5  503    0  0.13201899479E+02  0.34223759864E+03 -0.14377489149E+04  0.14779792984E+04  0.00000000000E+00 0.  1.
         -1    1    5    5    0  503  0.12571030703E+02  0.45801437574E+02 -0.99205500090E+02  0.10998878918E+03  0.00000000000E+00 0. -1.
<mgrwt>
<rscale>  0 0.15515166E+04</rscale>
<asrwt>0</asrwt>
<pdfrwt beam="1">  1        2 0.39106388E-01 0.15515166E+04</pdfrwt>
<pdfrwt beam="2">  1       -1 0.36423229E+00 0.15515166E+04</pdfrwt>
<totfact> 0.18283117E+00</totfact>
</mgrwt>
</event>
<event>
12    6  0.1705838E-008  0.1834398E+04  0.7818608E-02  0.8688218E-01
          2   -1    0    0  501    0  0.00000000000E+00  0.00000000000E+00  0.12003619411E+04  0.12003619411E+04  0.00000000000E+00 0. -1.
         -1   -1    0    0    0  501 -0.00000000000E+00 -0.00000000000E+00 -0.70083339080E+03  0.70083339080E+03  0.00000000000E+00 0.  1.
         24    2    1    2    0    0 -0.18968093381E+03 -0.67392752589E+02  0.88596227202E+03  0.91210177093E+03  0.80497536252E+02 0.  0.
        254    2    1    2    0    0  0.18968093381E+03  0.67392752589E+02 -0.38643372167E+03  0.98909356100E+03  0.88794955455E+03 0.  0.
         23    2    4    4    0    0  0.26061422745E+03  0.96178941274E+02  0.22054090383E+03  0.36993547494E+03  0.10508949074E+03 0.  0.
         23    2    4    4    0    0 -0.70933293639E+02 -0.28786188685E+02 -0.60697462551E+03  0.61915808606E+03  0.95280442470E+02 0.  0.
          4    1    3    3  502    0 -0.10924371547E+03 -0.18430463690E+02  0.62330782599E+03  0.63307702319E+03  0.00000000000E+00 0. -1.
         -3    1    3    3    0  502 -0.80437218346E+02 -0.48962288898E+02  0.26265444603E+03  0.27902474774E+03  0.00000000000E+00 0.  1.
         11    1    5    5    0    0  0.10789666878E+03  0.95678988327E+02  0.10278763564E+03  0.17709166548E+03  0.00000000000E+00 0.  1.
        -11    1    5    5    0    0  0.15271755867E+03  0.49995294675E+00  0.11775326820E+03  0.19284380947E+03  0.00000000000E+00 0. -1.
          3    1    6    6  503    0 -0.49374813460E+02  0.95955409197E+01 -0.51214083774E+03  0.51460488172E+03  0.00000000000E+00 0. -1.
         -3    1    6    6    0  503 -0.21558480179E+02 -0.38381729605E+02 -0.94833787764E+02  0.10455320434E+03  0.00000000000E+00 0.  1.
<mgrwt>
<rscale>  0 0.18343977E+04</rscale>
<asrwt>0</asrwt>
<pdfrwt beam="1">  1        2 0.18467107E+00 0.18343977E+04</pdfrwt>
<pdfrwt beam="2">  1       -1 0.10782052E+00 0.18343977E+04</pdfrwt>
<totfact> 0.16262103E+01</totfact>
</mgrwt>
</event>
<event>
12    6  0.1705838E-008  0.2508080E+04  0.7818608E-02  0.8400113E-01
         -1   -1    0    0    0  501 -0.00000000000E+00  0.00000000000E+00  0.39392408557E+03  0.39392408557E+03  0.00000000000E+00 0.  1.
          2   -1    0    0  501    0  0.00000000000E+00 -0.00000000000E+00 -0.39921805984E+04  0.39921805984E+04  0.00000000000E+00 0. -1.
         24    2    1    2    0    0 -0.92491837715E+02 -0.90998935676E+03 -0.26091473043E+04  0.27657372864E+04  0.70835812544E+02 0.  0.
        254    2    1    2    0    0  0.92491837715E+02  0.90998935676E+03 -0.98910920855E+03  0.16203673976E+04  0.90034332746E+03 0.  0.
         23    2    4    4    0    0 -0.21774560805E+03  0.70346314411E+03 -0.98781789704E+03  0.12368842820E+04  0.10874274401E+03 0.  0.
         23    2    4    4    0    0  0.31023744577E+03  0.20652621265E+03 -0.12913115113E+01  0.38348311561E+03  0.90317679353E+02 0.  0.
          2    1    3    3  502    0 -0.97707164490E+02 -0.89909498050E+03 -0.25867481352E+04  0.27402891068E+04  0.00000000000E+00 0. -1.
         -1    1    3    3    0  502  0.52153267751E+01 -0.10894376264E+02 -0.22399169090E+02  0.25448179571E+02  0.00000000000E+00 0.  1.
         11    1    5    5    0    0 -0.67663398808E+02  0.39487302689E+03 -0.50728956691E+03  0.64640989132E+03  0.00000000000E+00 0. -1.
        -11    1    5    5    0    0 -0.15008220924E+03  0.30859011722E+03 -0.48052833013E+03  0.59047439067E+03  0.00000000000E+00 0.  1.
          1    1    6    6  503    0  0.52696770315E+01  0.36424641955E+01  0.15539663546E+02  0.16808277263E+02  0.00000000000E+00 0. -1.
         -1    1    6    6    0  503  0.30496776873E+03  0.20288374846E+03 -0.16830975057E+02  0.36667483835E+03  0.00000000000E+00 0.  1.
<mgrwt>
<rscale>  0 0.25080798E+04</rscale>
<asrwt>0</asrwt>
<pdfrwt beam="1">  1        2 0.61418169E+00 0.25080798E+04</pdfrwt>
<pdfrwt beam="2">  1       -1 0.60603700E-01 0.25080798E+04</pdfrwt>
<totfact> 0.97479849E-01</totfact>
</mgrwt>
</event>
<event>
11    6  0.1705838E-008  0.4281763E+04  0.7818608E-02  0.7949999E-01
          2   -1    0    0  501    0  0.00000000000E+00  0.00000000000E+00  0.27904086233E+04  0.27904086233E+04  0.00000000000E+00 0. -1.
         -1   -1    0    0    0  501 -0.00000000000E+00 -0.00000000000E+00 -0.16425456969E+04  0.16425456969E+04  0.00000000000E+00 0.  1.
         24    2    1    2    0    0 -0.39834007667E+03 -0.12571723171E+04 -0.10691048431E+04  0.16995774128E+04  0.80132172896E+02 0.  0.
        254    2    1    2    0    0  0.39834007667E+03  0.12571723171E+04  0.22169677695E+04  0.27333769073E+04  0.90401668961E+03 0.  0.
         23    2    4    4    0    0  0.36670326835E+03  0.21727633508E+03  0.24395668821E+03  0.49888179315E+03  0.87680585171E+02 0.  0.
          4    1    3    3  502    0 -0.18555573270E+03 -0.63593509953E+03 -0.58457735106E+03  0.88350159034E+03  0.00000000000E+00 0. -1.
         -3    1    3    3    0  502 -0.21278434397E+03 -0.62123721756E+03 -0.48452749199E+03  0.81607582247E+03  0.00000000000E+00 0.  1.
         11    1    4    4    0    0  0.32873446675E+02  0.10429044374E+04  0.19533510671E+04  0.22145678405E+04  0.00000000000E+00 0.  1.
        -11    1    4    4    0    0 -0.12366383582E+01 -0.30084553397E+01  0.19660014187E+02  0.19927273667E+02  0.00000000000E+00 0. -1.
          2    1    5    5  503    0  0.26302687788E+03  0.16805975254E+03  0.21937468302E+03  0.38151339486E+03  0.00000000000E+00 0. -1.
         -2    1    5    5    0  503  0.10367639047E+03  0.49216582538E+02  0.24582005185E+02  0.11736839829E+03  0.00000000000E+00 0.  1.
<mgrwt>
<rscale>  0 0.42817630E+04</rscale>
<asrwt>0</asrwt>
<pdfrwt beam="1">  1        2 0.42929363E+00 0.42817630E+04</pdfrwt>
<pdfrwt beam="2">  1       -1 0.25269934E+00 0.42817630E+04</pdfrwt>
<totfact> 0.13744007E-01</totfact>
</mgrwt>
</event>
<event>
12    6  0.1705838E-008  0.1996785E+04  0.7818608E-02  0.8608125E-01
          2   -1    0    0  501    0  0.00000000000E+00  0.00000000000E+00  0.13957215368E+04  0.13957215368E+04  0.00000000000E+00 0. -1.
         -1   -1    0    0    0  501 -0.00000000000E+00 -0.00000000000E+00 -0.71417401806E+03  0.71417401806E+03  0.00000000000E+00 0.  1.
         24    2    1    2    0    0 -0.33948446747E+03  0.10070339653E+03 -0.43836717862E+03  0.56896273008E+03  0.78497943958E+02 0.  0.
        254    2    1    2    0    0  0.33948446747E+03 -0.10070339653E+03  0.11199146973E+04  0.15409328248E+04  0.99743378898E+03 0.  0.
         23    2    4    4    0    0  0.13005049130E+03 -0.13595308379E+03  0.12544309790E+04  0.12738248381E+04  0.11677442238E+03 0.  0.
         23    2    4    4    0    0  0.20943397616E+03  0.35249687261E+02 -0.13451628171E+03  0.26710798666E+03  0.90260266264E+02 0.  0.
          2    1    3    3  502    0 -0.11811218270E+03  0.33985403126E+02 -0.96546443512E+02  0.15629047022E+03  0.00000000000E+00 0. -1.
         -1    1    3    3    0  502 -0.22137228477E+03  0.66717993401E+02 -0.34182073510E+03  0.41267225986E+03  0.00000000000E+00 0.  1.
         11    1    5    5    0    0  0.13759096751E+03 -0.14561332586E+03  0.12327308855E+04  0.12489034995E+04  0.00000000000E+00 0.  1.
        -11    1    5    5    0    0 -0.75404762037E+01  0.96602420707E+01  0.21700093560E+02  0.24921338623E+02  0.00000000000E+00 0. -1.
          2    1    6    6  503    0 -0.89302227834E+01 -0.40901176830E-01 -0.16740134635E+01  0.90858611559E+01  0.00000000000E+00 0. -1.
         -2    1    6    6    0  503  0.21836419895E+03  0.35290588438E+02 -0.13284226825E+03  0.25802212550E+03  0.00000000000E+00 0.  1.
<mgrwt>
<rscale>  0 0.19967855E+04</rscale>
<asrwt>0</asrwt>
<pdfrwt beam="1">  1        2 0.21472639E+00 0.19967855E+04</pdfrwt>
<pdfrwt beam="2">  1       -1 0.10987293E+00 0.19967855E+04</pdfrwt>
<totfact> 0.11795025E+01</totfact>
</mgrwt>
</event>
<event>
12    6  0.1705838E-008  0.2128547E+04  0.7818608E-02  0.8548772E-01
          2   -1    0    0  501    0  0.00000000000E+00  0.00000000000E+00  0.36220101912E+04  0.36220101912E+04  0.00000000000E+00 0. -1.
         -1   -1    0    0    0  501 -0.00000000000E+00 -0.00000000000E+00 -0.31272071269E+03  0.31272071269E+03  0.00000000000E+00 0.  1.
         24    2    1    2    0    0 -0.42574506969E+03  0.44067646512E+03  0.21156245476E+03  0.65314025134E+03  0.79868043561E+02 0.  0.
        254    2    1    2    0    0  0.42574506969E+03 -0.44067646512E+03  0.30977270238E+04  0.32815906526E+04  0.89301169421E+03 0.  0.
         23    2    4    4    0    0 -0.25198860217E+03 -0.14185820952E+03  0.12774410322E+04  0.13144151395E+04  0.11049688120E+03 0.  0.
         23    2    4    4    0    0  0.67773367187E+03 -0.29881825559E+03  0.18202859915E+04  0.19671755131E+04  0.87881332391E+02 0.  0.
          2    1    3    3  502    0 -0.72098760952E+01 -0.25329265571E+01 -0.63526187169E+00  0.76682193433E+01  0.00000000000E+00 0. -1.
         -1    1    3    3    0  502 -0.41853519360E+03  0.44320939167E+03  0.21219771663E+03  0.64547203200E+03  0.00000000000E+00 0.  1.
         11    1    5    5    0    0 -0.54614870217E+02  0.14966884368E+02  0.27417821180E+03  0.27996514694E+03  0.00000000000E+00 0. -1.
        -11    1    5    5    0    0 -0.19737373196E+03 -0.15682509389E+03  0.10032628204E+04  0.10344499925E+04  0.00000000000E+00 0.  1.
          1    1    6    6  503    0  0.61379953389E+03 -0.24637762543E+03  0.15716448850E+04  0.17051449928E+04  0.00000000000E+00 0. -1.
         -1    1    6    6    0  503  0.63934137976E+02 -0.52440630158E+02  0.24864110654E+03  0.26203052027E+03  0.00000000000E+00 0.  1.
<mgrwt>
<rscale>  0 0.21285466E+04</rscale>
<asrwt>0</asrwt>
<pdfrwt beam="1">  1        2 0.55723231E+00 0.21285466E+04</pdfrwt>
<pdfrwt beam="2">  1       -1 0.48110882E-01 0.21285466E+04</pdfrwt>
<totfact> 0.30228698E+00</totfact>
</mgrwt>
</event>
<event>
12    6  0.1705838E-008  0.1246600E+04  0.7818608E-02  0.9073018E-01
          2   -1    0    0  501    0  0.00000000000E+00  0.00000000000E+00  0.17648837029E+04  0.17648837029E+04  0.00000000000E+00 0. -1.
         -1   -1    0    0    0  501 -0.00000000000E+00 -0.00000000000E+00 -0.22012940278E+03  0.22012940278E+03  0.00000000000E+00 0.  1.
         24    2    1    2    0    0 -0.27437902016E+02  0.11683780114E+03 -0.50708912329E+02  0.15279463968E+03  0.79817904519E+02 0.  0.
        254    2    1    2    0    0  0.27437902016E+02 -0.11683780114E+03  0.15954632125E+04  0.18322184660E+04  0.89281450182E+03 0.  0.
         23    2    4    4    0    0  0.31502542972E+03 -0.37351251271E+03  0.90147401081E+03  0.10328120309E+04  0.12366357815E+03 0.  0.
         23    2    4    4    0    0 -0.28758752770E+03  0.25667471157E+03  0.69398920166E+03  0.79940643509E+03  0.94027351304E+02 0.  0.
          2    1    3    3  502    0  0.16229667247E+02  0.40882174058E+02  0.11352652964E+02  0.45427271368E+02  0.00000000000E+00 0. -1.
         -1    1    3    3    0  502 -0.43667569263E+02  0.75955627084E+02 -0.62061565292E+02  0.10736736831E+03  0.00000000000E+00 0.  1.
         11    1    5    5    0    0 -0.33714109833E+01 -0.33963771287E+02  0.10368151171E+03  0.10915475273E+03  0.00000000000E+00 0. -1.
        -11    1    5    5    0    0  0.31839684070E+03 -0.33954874142E+03  0.79779249909E+03  0.92365727820E+03  0.00000000000E+00 0.  1.
          1    1    6    6  503    0  0.50234732843E+01 -0.21058823539E+01  0.16435593514E+02  0.17314697759E+02  0.00000000000E+00 0. -1.
         -1    1    6    6    0  503 -0.29261100099E+03  0.25878059392E+03  0.67755360815E+03  0.78209173733E+03  0.00000000000E+00 0.  1.
<mgrwt>
<rscale>  0 0.12465998E+04</rscale>
<asrwt>0</asrwt>
<pdfrwt beam="1">  1        2 0.27152056E+00 0.12465998E+04</pdfrwt>
<pdfrwt beam="2">  1       -1 0.33866063E-01 0.12465998E+04</pdfrwt>
<totfact> 0.83259703E+01</totfact>
</mgrwt>
</event>
<event>
11    6  0.1705838E-008  0.1187025E+04  0.7818608E-02  0.9124290E-01
         -1   -1    0    0    0  501 -0.00000000000E+00  0.00000000000E+00  0.11848571562E+03  0.11848571562E+03  0.00000000000E+00 0.  1.
          2   -1    0    0  501    0  0.00000000000E+00 -0.00000000000E+00 -0.29729896750E+04  0.29729896750E+04  0.00000000000E+00 0. -1.
         24    2    1    2    0    0  0.16799065400E+03  0.26194753352E+02 -0.16744493687E+03  0.24893638713E+03  0.70883658346E+02 0.  0.
        254    2    1    2    0    0 -0.16799065400E+03 -0.26194753352E+02 -0.26870590225E+04  0.28425390034E+04  0.91150138289E+03 0.  0.
         23    2    4    4    0    0 -0.15744180428E+03  0.38781689741E+03 -0.10347884062E+04  0.11198062584E+04  0.89382006692E+02 0.  0.
          4    1    3    3  502    0  0.53353053028E+01  0.82150859419E+01 -0.40937288441E+02  0.42092929390E+02  0.00000000000E+00 0. -1.
         -3    1    3    3    0  502  0.16265534869E+03  0.17979667411E+02 -0.12650764843E+03  0.20684345774E+03  0.00000000000E+00 0.  1.
         11    1    4    4    0    0  0.10230769781E+03 -0.16508416321E+03 -0.93932619922E+03  0.95919411722E+03  0.00000000000E+00 0. -1.
        -11    1    4    4    0    0 -0.11285654753E+03 -0.24892748754E+03 -0.71294441709E+03  0.76353862786E+03  0.00000000000E+00 0.  1.
          3    1    5    5  503    0 -0.15652188706E+00  0.15351463422E+02 -0.10219877582E+03  0.10334544841E+03  0.00000000000E+00 0. -1.
         -3    1    5    5    0  503 -0.15728528240E+03  0.37246543398E+03 -0.93258963033E+03  0.10164608100E+04  0.00000000000E+00 0.  1.
<mgrwt>
<rscale>  0 0.11870245E+04</rscale>
<asrwt>0</asrwt>
<pdfrwt beam="1">  1        2 0.45738301E+00 0.11870245E+04</pdfrwt>
<pdfrwt beam="2">  1       -1 0.18228572E-01 0.11870245E+04</pdfrwt>
<totfact> 0.49329946E+01</totfact>
</mgrwt>
</event>
<event>
11    6  0.1705838E-008  0.1922915E+04  0.7818608E-02  0.8643534E-01
         -1   -1    0    0    0  501 -0.00000000000E+00  0.00000000000E+00  0.72026132930E+03  0.72026132930E+03  0.00000000000E+00 0.  1.
          2   -1    0    0  501    0  0.00000000000E+00 -0.00000000000E+00 -0.12834235256E+04  0.12834235256E+04  0.00000000000E+00 0. -1.
         24    2    1    2    0    0  0.66184517102E+03 -0.33142292336E+03 -0.27062815573E+03  0.79211541864E+03  0.79542776188E+02 0.  0.
        254    2    1    2    0    0 -0.66184517102E+03  0.33142292336E+03 -0.29253404061E+03  0.12115694363E+04  0.91347914565E+03 0.  0.
         23    2    4    4    0    0  0.79324506613E+02  0.36254376690E+03 -0.11120478760E+02  0.38215189031E+03  0.90476748147E+02 0.  0.
          4    1    3    3  502    0  0.17883753156E+03 -0.97994862454E+02 -0.38205090334E+02  0.20747405787E+03  0.00000000000E+00 0. -1.
         -3    1    3    3    0  502  0.48300763947E+03 -0.23342806091E+03 -0.23242306540E+03  0.58464136078E+03  0.00000000000E+00 0.  1.
         11    1    4    4    0    0 -0.11500268083E+03 -0.14364948310E+02  0.43477386551E+02  0.12378308237E+03  0.00000000000E+00 0.  1.
        -11    1    4    4    0    0 -0.62616699680E+03 -0.16755895224E+02 -0.32489094840E+03  0.70563446363E+03  0.00000000000E+00 0. -1.
          3    1    5    5  503    0  0.66175655460E+02  0.17918600152E+03  0.31117239993E+02  0.19353326107E+03  0.00000000000E+00 0. -1.
         -3    1    5    5    0  503  0.13148851153E+02  0.18335776538E+03 -0.42237718752E+02  0.18861862924E+03  0.00000000000E+00 0.  1.
<mgrwt>
<rscale>  0 0.19229148E+04</rscale>
<asrwt>0</asrwt>
<pdfrwt beam="1">  1        2 0.19744977E+00 0.19229148E+04</pdfrwt>
<pdfrwt beam="2">  1       -1 0.11080944E+00 0.19229148E+04</pdfrwt>
<totfact> 0.13513043E+01</totfact>
</mgrwt>
</event>
<event>
12    6  0.1705838E-008  0.1580673E+04  0.7818608E-02  0.8832510E-01
         -1   -1    0    0    0  501 -0.00000000000E+00  0.00000000000E+00  0.36332732732E+03  0.36332732732E+03  0.00000000000E+00 0.  1.
          2   -1    0    0  501    0  0.00000000000E+00 -0.00000000000E+00 -0.17191983946E+04  0.17191983946E+04  0.00000000000E+00 0. -1.
         24    2    1    2    0    0 -0.12914442006E+03  0.44063968475E+03 -0.11499696036E+03  0.48048188972E+03  0.82443510635E+02 0.  0.
        254    2    1    2    0    0  0.12914442006E+03 -0.44063968475E+03 -0.12408741069E+04  0.16020438322E+04  0.90329080485E+03 0.  0.
         23    2    4    4    0    0 -0.22856075407E+03 -0.22044132480E+03 -0.10994185949E+04  0.11491050375E+04  0.10433956347E+03 0.  0.
         23    2    4    4    0    0  0.35770517412E+03 -0.22019835995E+03 -0.14145551210E+03  0.45293879475E+03  0.93292982424E+02 0.  0.
          4    1    3    3  502    0 -0.88006778952E+02  0.24570407502E+03 -0.26009871513E+02  0.26228267011E+03  0.00000000000E+00 0. -1.
         -3    1    3    3    0  502 -0.41137641105E+02  0.19493560973E+03 -0.88987088848E+02  0.21819921961E+03  0.00000000000E+00 0.  1.
         11    1    5    5    0    0 -0.37602394118E+02 -0.20463279573E+01 -0.68774052309E+02  0.78409168931E+02  0.00000000000E+00 0.  1.
        -11    1    5    5    0    0 -0.19095835995E+03 -0.21839499684E+03 -0.10306445425E+04  0.10706958686E+04  0.00000000000E+00 0. -1.
          3    1    6    6  503    0  0.35930529404E+03 -0.22287724260E+03 -0.13194072484E+03  0.44292540508E+03  0.00000000000E+00 0. -1.
         -3    1    6    6    0  503 -0.16001199186E+01  0.26788826529E+01 -0.95147872641E+01  0.10013389671E+02  0.00000000000E+00 0.  1.
<mgrwt>
<rscale>  0 0.15806730E+04</rscale>
<asrwt>0</asrwt>
<pdfrwt beam="1">  1        2 0.26449206E+00 0.15806730E+04</pdfrwt>
<pdfrwt beam="2">  1       -1 0.55896511E-01 0.15806730E+04</pdfrwt>
<totfact> 0.33890497E+01</totfact>
</mgrwt>
</event>
<event>
12    6  0.1705838E-008  0.1586573E+04  0.7818608E-02  0.8828840E-01
         -1   -1    0    0    0  501 -0.00000000000E+00  0.00000000000E+00  0.28585363345E+03  0.28585363345E+03  0.00000000000E+00 0.  1.
          2   -1    0    0  501    0  0.00000000000E+00 -0.00000000000E+00 -0.22014880382E+04  0.22014880382E+04  0.00000000000E+00 0. -1.
         24    2    1    2    0    0 -0.49722527693E+03 -0.30609034938E+02 -0.96419711274E+03  0.10882080259E+04  0.79691570508E+02 0.  0.
        254    2    1    2    0    0  0.49722527693E+03  0.30609034938E+02 -0.95143729202E+03  0.13991336457E+04  0.89675646023E+03 0.  0.
         23    2    4    4    0    0  0.39913108535E+03 -0.30157376357E+03 -0.90734074971E+03  0.10382182792E+04  0.66163441483E+02 0.  0.
         23    2    4    4    0    0  0.98094191581E+02  0.33218279851E+03 -0.44096542311E+02  0.36091536655E+03  0.91364734566E+02 0.  0.
          4    1    3    3  502    0 -0.26451017598E+03 -0.14176326159E+02 -0.59757152354E+03  0.65365000357E+03  0.00000000000E+00 0. -1.
         -3    1    3    3    0  502 -0.23271510095E+03 -0.16432708779E+02 -0.36662558920E+03  0.43455802235E+03  0.00000000000E+00 0.  1.
         11    1    5    5    0    0  0.88276302972E+01  0.30246529156E+01 -0.13305097178E+02  0.16251190505E+02  0.00000000000E+00 0.  1.
        -11    1    5    5    0    0  0.39030345505E+03 -0.30459841649E+03 -0.89403565253E+03  0.10219670887E+04  0.00000000000E+00 0. -1.
          4    1    6    6  503    0  0.92617310697E+01  0.18762348774E+03 -0.34324962175E+02  0.19096218433E+03  0.00000000000E+00 0. -1.
         -4    1    6    6    0  503  0.88832460511E+02  0.14455931077E+03 -0.97715801365E+01  0.16995318223E+03  0.00000000000E+00 0.  1.
<mgrwt>
<rscale>  0 0.15865729E+04</rscale>
<asrwt>0</asrwt>
<pdfrwt beam="1">  1        2 0.33869047E+00 0.15865729E+04</pdfrwt>
<pdfrwt beam="2">  1       -1 0.43977481E-01 0.15865729E+04</pdfrwt>
<totfact> 0.28827905E+01</totfact>
</mgrwt>
</event>
<event>
12    6  0.1705838E-008  0.1423250E+04  0.7818608E-02  0.8937159E-01
         -1   -1    0    0    0  501 -0.00000000000E+00  0.00000000000E+00  0.13111034659E+03  0.13111034659E+03  0.00000000000E+00 0.  1.
          2   -1    0    0  501    0  0.00000000000E+00 -0.00000000000E+00 -0.38624740302E+04  0.38624740302E+04  0.00000000000E+00 0. -1.
         24    2    1    2    0    0  0.33430257773E+03 -0.99530578684E+02 -0.47048185137E+03  0.59102213997E+03  0.79306039494E+02 0.  0.
        254    2    1    2    0    0 -0.33430257773E+03  0.99530578684E+02 -0.32608818322E+04  0.34025622368E+04  0.90687094011E+03 0.  0.
         23    2    4    4    0    0  0.17456064459E+03  0.12879073144E+03 -0.25634834727E+03  0.35375311033E+03  0.11121293441E+03 0.  0.
         23    2    4    4    0    0 -0.50886322232E+03 -0.29260152761E+02 -0.30045334849E+04  0.30488091265E+04  0.90651485546E+02 0.  0.
          2    1    3    3  502    0  0.58189848184E+02 -0.34099266681E+02 -0.14024054233E+03  0.15561564231E+03  0.00000000000E+00 0. -1.
         -1    1    3    3    0  502  0.27611272954E+03 -0.65431312003E+02 -0.33024130904E+03  0.43540649766E+03  0.00000000000E+00 0.  1.
         11    1    5    5    0    0  0.88434229488E+02  0.57408273580E+02 -0.45017704113E+02  0.11464255974E+03  0.00000000000E+00 0. -1.
        -11    1    5    5    0    0  0.86126415103E+02  0.71382457864E+02 -0.21133064315E+03  0.23911055059E+03  0.00000000000E+00 0.  1.
          2    1    6    6  503    0 -0.25815206127E+03 -0.55822993042E+02 -0.16517334613E+04  0.16727169875E+04  0.00000000000E+00 0. -1.
         -2    1    6    6    0  503 -0.25071116105E+03  0.26562840281E+02 -0.13528000237E+04  0.13760921389E+04  0.00000000000E+00 0.  1.
<mgrwt>
<rscale>  0 0.14232502E+04</rscale>
<asrwt>0</asrwt>
<pdfrwt beam="1">  1        2 0.59422676E+00 0.14232502E+04</pdfrwt>
<pdfrwt beam="2">  1       -1 0.20170823E-01 0.14232502E+04</pdfrwt>
<totfact> 0.10049142E+01</totfact>
</mgrwt>
</event>
<event>
11    6  0.1705838E-008  0.1282456E+04  0.7818608E-02  0.9043594E-01
         -1   -1    0    0    0  501 -0.00000000000E+00  0.00000000000E+00  0.19407839826E+03  0.19407839826E+03  0.00000000000E+00 0.  1.
          2   -1    0    0  501    0  0.00000000000E+00 -0.00000000000E+00 -0.21185948155E+04  0.21185948155E+04  0.00000000000E+00 0. -1.
         24    2    1    2    0    0  0.17185308574E+03 -0.27924145092E+03 -0.32571795079E+03  0.46985204727E+03  0.84613780608E+02 0.  0.
        254    2    1    2    0    0 -0.17185308574E+03  0.27924145092E+03 -0.15987984664E+04  0.18428211664E+04  0.85575933785E+03 0.  0.
         23    2    4    4    0    0 -0.39755269280E+03  0.27293548390E+03 -0.47219127052E+03  0.68115444831E+03  0.92004698631E+02 0.  0.
          4    1    3    3  502    0  0.12872597516E+03 -0.24282652758E+03 -0.30280876516E+03  0.40893550522E+03  0.00000000000E+00 0. -1.
         -3    1    3    3    0  502  0.43127110580E+02 -0.36414923338E+02 -0.22909185637E+02  0.60916542049E+02  0.00000000000E+00 0.  1.
         11    1    4    4    0    0 -0.19201506155E+02  0.12405655516E+02 -0.28348861999E+02  0.36417799276E+02  0.00000000000E+00 0. -1.
        -11    1    4    4    0    0  0.24490111321E+03 -0.60996884970E+01 -0.10982583339E+04  0.11252489189E+04  0.00000000000E+00 0.  1.
          4    1    5    5  503    0 -0.83064675039E+02  0.10142702428E+03 -0.15166068342E+03  0.20046980917E+03  0.00000000000E+00 0. -1.
         -4    1    5    5    0  503 -0.31448801776E+03  0.17150845962E+03 -0.32053058710E+03  0.48068463914E+03  0.00000000000E+00 0.  1.
<mgrwt>
<rscale>  0 0.12824562E+04</rscale>
<asrwt>0</asrwt>
<pdfrwt beam="1">  1        2 0.32593766E+00 0.12824562E+04</pdfrwt>
<pdfrwt beam="2">  1       -1 0.29858215E-01 0.12824562E+04</pdfrwt>
<totfact> 0.66091360E+01</totfact>
</mgrwt>
</event>
<event>
11    6  0.2823563E-008  0.1687064E+04  0.7818608E-02  0.8768777E-01
          2   -1    0    0  501    0  0.00000000000E+00  0.00000000000E+00  0.13866795932E+04  0.13866795932E+04  0.00000000000E+00 0. -1.
         -1   -1    0    0    0  501 -0.00000000000E+00 -0.00000000000E+00 -0.51312939655E+03  0.51312939655E+03  0.00000000000E+00 0.  1.
         24    2    1    2    0    0  0.27947296259E+03 -0.16306955593E+03 -0.25496038629E+03  0.42013682299E+03  0.82542925624E+02 0.  0.
        254    2    1    2    0    0 -0.27947296259E+03  0.16306955593E+03  0.11285105829E+04  0.14796721667E+04  0.90066462591E+03 0.  0.
         23    2    4    4    0    0  0.15694755766E+02 -0.23032511434E+03  0.86605202912E+03  0.90173373356E+03  0.98902100245E+02 0.  0.
          2    1    3    3  502    0  0.14788291458E+00 -0.75914029516E+01 -0.25561449611E+02  0.26665314068E+02  0.00000000000E+00 0. -1.
         -1    1    3    3    0  502  0.27932507967E+03 -0.15547815298E+03 -0.22939893668E+03  0.39347150893E+03  0.00000000000E+00 0.  1.
         11    1    4    4    0    0  0.64648030100E+01 -0.41695002660E+01  0.23329320881E+02  0.24564926688E+02  0.00000000000E+00 0. -1.
        -11    1    4    4    0    0 -0.30163252136E+03  0.39756417054E+03  0.23912923290E+03  0.55337350647E+03  0.00000000000E+00 0.  1.
          1    1    5    5  503    0 -0.73534802935E+01 -0.32977746721E+02  0.41167165410E+02  0.53257308973E+02  0.00000000000E+00 0. -1.
         -1    1    5    5    0  503  0.23048236060E+02 -0.19734736762E+03  0.82488486371E+03  0.84847642458E+03  0.00000000000E+00 0.  1.
<mgrwt>
<rscale>  0 0.16870638E+04</rscale>
<asrwt>0</asrwt>
<pdfrwt beam="1">  1        2 0.21333532E+00 0.16870638E+04</pdfrwt>
<pdfrwt beam="2">  1       -1 0.78942985E-01 0.16870638E+04</pdfrwt>
<totfact> 0.25657956E+01</totfact>
</mgrwt>
</event>
<event>
11    6  0.1705838E-008  0.1862472E+04  0.7818608E-02  0.8673765E-01
          2   -1    0    0  501    0  0.00000000000E+00  0.00000000000E+00  0.17952620949E+04  0.17952620949E+04  0.00000000000E+00 0. -1.
         -1   -1    0    0    0  501 -0.00000000000E+00 -0.00000000000E+00 -0.48304966764E+03  0.48304966764E+03  0.00000000000E+00 0.  1.
         24    2    1    2    0    0  0.40128846712E+03  0.17596849066E+02 -0.21333754800E+03  0.46170956291E+03  0.79503007179E+02 0.  0.
        254    2    1    2    0    0 -0.40128846712E+03 -0.17596849066E+02  0.15255499753E+04  0.18166021996E+04  0.90077674358E+03 0.  0.
         23    2    4    4    0    0 -0.60144575102E+03 -0.97683888239E+02  0.61600232217E+03  0.87116020440E+03  0.90455001941E+02 0.  0.
          4    1    3    3  502    0  0.83027507721E+02 -0.18302815700E+02 -0.19120747684E+02  0.87144495483E+02  0.00000000000E+00 0. -1.
         -3    1    3    3    0  502  0.31826095940E+03  0.35899664766E+02 -0.19421680032E+03  0.37456506743E+03  0.00000000000E+00 0.  1.
         11    1    4    4    0    0  0.16489029801E+03 -0.53495794896E+01  0.61404470687E+03  0.63582098929E+03  0.00000000000E+00 0. -1.
        -11    1    4    4    0    0  0.35266985880E+02  0.85436618663E+02  0.29550294622E+03  0.30962100595E+03  0.00000000000E+00 0.  1.
          1    1    5    5  503    0 -0.52794865883E+03 -0.55357693462E+02  0.52079529802E+03  0.74365449170E+03  0.00000000000E+00 0. -1.
         -1    1    5    5    0  503 -0.73497092190E+02 -0.42326194777E+02  0.95207024144E+02  0.12750571270E+03  0.00000000000E+00 0.  1.
<mgrwt>
<rscale>  0 0.18624723E+04</rscale>
<asrwt>0</asrwt>
<pdfrwt beam="1">  1        2 0.27619417E+00 0.18624723E+04</pdfrwt>
<pdfrwt beam="2">  1       -1 0.74315334E-01 0.18624723E+04</pdfrwt>
<totfact> 0.16926509E+01</totfact>
</mgrwt>
</event>
<event>
12    6  0.1705838E-008  0.1260162E+04  0.7818608E-02  0.9061767E-01
          2   -1    0    0  501    0  0.00000000000E+00  0.00000000000E+00  0.32273896122E+04  0.32273896122E+04  0.00000000000E+00 0. -1.
         -1   -1    0    0    0  501 -0.00000000000E+00 -0.00000000000E+00 -0.12301034288E+03  0.12301034288E+03  0.00000000000E+00 0.  1.
         24    2    1    2    0    0 -0.19817469860E+03  0.92136880076E+02  0.11834633361E+04  0.12061555733E+04  0.80395169623E+02 0.  0.
        254    2    1    2    0    0  0.19817469860E+03 -0.92136880076E+02  0.19209159333E+04  0.21442443818E+04  0.92741766772E+03 0.  0.
         23    2    4    4    0    0 -0.26497670066E+03 -0.44678875942E+02  0.18454798113E+03  0.34442736919E+03  0.11119083352E+03 0.  0.
         23    2    4    4    0    0  0.46315139926E+03 -0.47458004134E+02  0.17363679521E+04  0.17998170126E+04  0.87213146477E+02 0.  0.
          4    1    3    3  502    0 -0.84738883889E+02  0.38231660344E+02  0.71999677473E+03  0.72597361792E+03  0.00000000000E+00 0. -1.
         -3    1    3    3    0  502 -0.11343581471E+03  0.53905219732E+02  0.46346656137E+03  0.48018195539E+03  0.00000000000E+00 0.  1.
         11    1    5    5    0    0 -0.21286967114E+03 -0.35619183654E+02  0.19458440060E+03  0.29059475579E+03  0.00000000000E+00 0.  1.
        -11    1    5    5    0    0 -0.52107029517E+02 -0.90596922882E+01 -0.10036419471E+02  0.53832613398E+02  0.00000000000E+00 0. -1.
          1    1    6    6  503    0  0.57721112831E+02 -0.17525392250E+02  0.34658710970E+03  0.35179751399E+03  0.00000000000E+00 0. -1.
         -1    1    6    6    0  503  0.40543028642E+03 -0.29932611884E+02  0.13897808424E+04  0.14480194986E+04  0.00000000000E+00 0.  1.
<mgrwt>
<rscale>  0 0.12601624E+04</rscale>
<asrwt>0</asrwt>
<pdfrwt beam="1">  1        2 0.49652141E+00 0.12601624E+04</pdfrwt>
<pdfrwt beam="2">  1       -1 0.18924671E-01 0.12601624E+04</pdfrwt>
<totfact> 0.31774622E+01</totfact>
</mgrwt>
</event>
<event>
12    6  0.1705838E-008  0.3230677E+04  0.7818608E-02  0.8180762E-01
         -1   -1    0    0    0  501 -0.00000000000E+00  0.00000000000E+00  0.13606763366E+04  0.13606763366E+04  0.00000000000E+00 0.  1.
          2   -1    0    0  501    0  0.00000000000E+00 -0.00000000000E+00 -0.19176623423E+04  0.19176623423E+04  0.00000000000E+00 0. -1.
         24    2    1    2    0    0  0.50285123444E+03  0.96678716727E+03  0.77277225617E+03  0.13383495550E+04  0.80410078360E+02 0.  0.
        254    2    1    2    0    0 -0.50285123444E+03 -0.96678716727E+03 -0.13297582619E+04  0.19399891239E+04  0.89875690536E+03 0.  0.
         23    2    4    4    0    0 -0.58128682452E+03 -0.18110188315E+03 -0.66820645927E+03  0.90579934817E+03  0.57274099756E+02 0.  0.
         23    2    4    4    0    0  0.78435590084E+02 -0.78568528412E+03 -0.66155180264E+03  0.10341897757E+04  0.91892312806E+02 0.  0.
          2    1    3    3  502    0  0.55571536535E+02  0.13921119230E+03  0.13588724558E+03  0.20231978461E+03  0.00000000000E+00 0. -1.
         -1    1    3    3    0  502  0.44727969791E+03  0.82757597497E+03  0.63688501060E+03  0.11360297704E+04  0.00000000000E+00 0.  1.
         11    1    5    5    0    0 -0.55708476633E+03 -0.16560990600E+03 -0.64924238096E+03  0.87137004027E+03  0.00000000000E+00 0. -1.
        -11    1    5    5    0    0 -0.24202058196E+02 -0.15491977151E+02 -0.18964078302E+02  0.34429307905E+02  0.00000000000E+00 0.  1.
          2    1    6    6  503    0  0.94343284455E+02 -0.53054974684E+03 -0.43293896619E+03  0.69124513571E+03  0.00000000000E+00 0. -1.
         -2    1    6    6    0  503 -0.15907694372E+02 -0.25513553727E+03 -0.22861283645E+03  0.34294464001E+03  0.00000000000E+00 0.  1.
<mgrwt>
<rscale>  0 0.32306766E+04</rscale>
<asrwt>0</asrwt>
<pdfrwt beam="1">  1        2 0.29502497E+00 0.32306766E+04</pdfrwt>
<pdfrwt beam="2">  1       -1 0.20933482E+00 0.32306766E+04</pdfrwt>
<totfact> 0.92154589E-01</totfact>
</mgrwt>
</event>
<event>
12    6  0.1705838E-008  0.3012916E+04  0.7818608E-02  0.8240052E-01
          2   -1    0    0  501    0  0.00000000000E+00  0.00000000000E+00  0.46401333216E+04  0.46401333216E+04  0.00000000000E+00 0. -1.
         -1   -1    0    0    0  501 -0.00000000000E+00 -0.00000000000E+00 -0.48908415053E+03  0.48908415053E+03  0.00000000000E+00 0.  1.
         24    2    1    2    0    0  0.39462098446E+03  0.12446513397E+04  0.25856428460E+04  0.28978989340E+04  0.85945483453E+02 0.  0.
        254    2    1    2    0    0 -0.39462098446E+03 -0.12446513397E+04  0.15654063251E+04  0.22313185380E+04  0.90741543780E+03 0.  0.
         23    2    4    4    0    0  0.17804195729E+03 -0.81949039631E+03  0.10395825071E+04  0.13404000835E+04  0.11259283599E+03 0.  0.
         23    2    4    4    0    0 -0.57266294176E+03 -0.42516094344E+03  0.52582381801E+03  0.89091845453E+03  0.92413918572E+02 0.  0.
          2    1    3    3  502    0  0.25915379618E+03  0.75862073398E+03  0.15019203541E+04  0.17024778583E+04  0.00000000000E+00 0. -1.
         -1    1    3    3    0  502  0.13546718828E+03  0.48603060577E+03  0.10837224919E+04  0.11954210757E+04  0.00000000000E+00 0.  1.
         11    1    5    5    0    0  0.13608709257E+03 -0.44888914576E+03  0.64400950997E+03  0.79672417490E+03  0.00000000000E+00 0. -1.
        -11    1    5    5    0    0  0.41954864726E+02 -0.37060125055E+03  0.39557299709E+03  0.54367590862E+03  0.00000000000E+00 0.  1.
          2    1    6    6  503    0 -0.91988685229E+02 -0.37694388335E+02  0.99353238414E+02  0.14054839418E+03  0.00000000000E+00 0. -1.
         -2    1    6    6    0  503 -0.48067425653E+03 -0.38746655511E+03  0.42647057959E+03  0.75037006035E+03  0.00000000000E+00 0.  1.
<mgrwt>
<rscale>  0 0.30129160E+04</rscale>
<asrwt>0</asrwt>
<pdfrwt beam="1">  1        2 0.71386664E+00 0.30129160E+04</pdfrwt>
<pdfrwt beam="2">  1       -1 0.75243719E-01 0.30129160E+04</pdfrwt>
<totfact> 0.15307784E-01</totfact>
</mgrwt>
</event>
<event>
12    6  0.1705838E-008  0.1422138E+04  0.7818608E-02  0.8937948E-01
          2   -1    0    0  501    0  0.00000000000E+00  0.00000000000E+00  0.18493145031E+04  0.18493145031E+04  0.00000000000E+00 0. -1.
         -1   -1    0    0    0  501 -0.00000000000E+00 -0.00000000000E+00 -0.27340889458E+03  0.27340889458E+03  0.00000000000E+00 0.  1.
         24    2    1    2    0    0 -0.36641579154E+03 -0.20408273677E+02  0.57594715444E+03  0.68764519299E+03  0.80397492498E+02 0.  0.
        254    2    1    2    0    0  0.36641579154E+03  0.20408273677E+02  0.99995845406E+03  0.14350782047E+04  0.96169408533E+03 0.  0.
         23    2    4    4    0    0 -0.28680878281E+03  0.11689334575E+03  0.50739244936E+03  0.60635965979E+03  0.11958932717E+03 0.  0.
         23    2    4    4    0    0  0.65322457436E+03 -0.96485072075E+02  0.49256600470E+03  0.82871854489E+03  0.90229950555E+02 0.  0.
          4    1    3    3  502    0 -0.35985620141E+03 -0.61032623494E+01  0.55381750207E+03  0.66049039440E+03  0.00000000000E+00 0. -1.
         -3    1    3    3    0  502 -0.65595901354E+01 -0.14305011328E+02  0.22129652376E+02  0.27154798583E+02  0.00000000000E+00 0.  1.
         11    1    5    5    0    0 -0.12093770452E+02  0.17078808482E+02  0.11600167007E+03  0.11787422297E+03  0.00000000000E+00 0.  1.
        -11    1    5    5    0    0 -0.27471501236E+03  0.99814537270E+02  0.39139077929E+03  0.48848543682E+03  0.00000000000E+00 0. -1.
          4    1    6    6  503    0 -0.29613220251E+01  0.76878058405E+00  0.17120082669E+01  0.35059127240E+01  0.00000000000E+00 0.  1.
         -4    1    6    6    0  503  0.65618589638E+03 -0.97253852659E+02  0.49085399643E+03  0.82521263216E+03  0.00000000000E+00 0. -1.
<mgrwt>
<rscale>  0 0.14221379E+04</rscale>
<asrwt>0</asrwt>
<pdfrwt beam="1">  1        2 0.28450992E+00 0.14221379E+04</pdfrwt>
<pdfrwt beam="2">  1       -1 0.42062908E-01 0.14221379E+04</pdfrwt>
<totfact> 0.49804239E+01</totfact>
</mgrwt>
</event>
<event>
11    6  0.1705838E-008  0.1522773E+04  0.7818608E-02  0.8869449E-01
         -1   -1    0    0    0  501 -0.00000000000E+00  0.00000000000E+00  0.74196667413E+03  0.74196667413E+03  0.00000000000E+00 0.  1.
          2   -1    0    0  501    0  0.00000000000E+00 -0.00000000000E+00 -0.78131414019E+03  0.78131414019E+03  0.00000000000E+00 0. -1.
         24    2    1    2    0    0  0.48693770404E+03  0.57267963537E+02  0.36573198829E+02  0.49803534459E+03  0.79458532097E+02 0.  0.
        254    2    1    2    0    0 -0.48693770404E+03 -0.57267963537E+02 -0.75920664890E+02  0.10252454697E+04  0.89720475845E+03 0.  0.
         23    2    4    4    0    0 -0.23417043713E+03  0.20049037066E+03 -0.68949187305E+02  0.32935363099E+03  0.93207518245E+02 0.  0.
          2    1    3    3  502    0  0.33751115545E+03  0.18461803837E+02 -0.53609171603E+01  0.33805821641E+03  0.00000000000E+00 0. -1.
         -1    1    3    3    0  502  0.14942654859E+03  0.38806159700E+02  0.41934115989E+02  0.15997712817E+03  0.00000000000E+00 0.  1.
         11    1    4    4    0    0 -0.39193250111E+03 -0.23677719161E+02  0.96904826619E+02  0.40442831903E+03  0.00000000000E+00 0.  1.
        -11    1    4    4    0    0  0.13916523421E+03 -0.23408061504E+03 -0.10387630420E+03  0.29146351971E+03  0.00000000000E+00 0. -1.
          3    1    5    5  503    0 -0.96766072241E+02  0.28361557145E+02 -0.98521498434E+01  0.10131690637E+03  0.00000000000E+00 0. -1.
         -3    1    5    5    0  503 -0.13740436489E+03  0.17212881352E+03 -0.59097037461E+02  0.22803672461E+03  0.00000000000E+00 0.  1.
<mgrwt>
<rscale>  0 0.15227725E+04</rscale>
<asrwt>0</asrwt>
<pdfrwt beam="1">  1        2 0.12020217E+00 0.15227725E+04</pdfrwt>
<pdfrwt beam="2">  1       -1 0.11414872E+00 0.15227725E+04</pdfrwt>
<totfact> 0.27360516E+01</totfact>
</mgrwt>
</event>
<event>
12    6  0.1705838E-008  0.1714114E+04  0.7818608E-02  0.8753356E-01
          2   -1    0    0  501    0  0.00000000000E+00  0.00000000000E+00  0.10337153618E+04  0.10337153618E+04  0.00000000000E+00 0. -1.
         -1   -1    0    0    0  501 -0.00000000000E+00 -0.00000000000E+00 -0.71058855698E+03  0.71058855698E+03  0.00000000000E+00 0.  1.
         24    2    1    2    0    0 -0.32692385985E+02 -0.27017664247E+02  0.74646360594E+03  0.75171981474E+03  0.77948820385E+02 0.  0.
        254    2    1    2    0    0  0.32692385985E+02  0.27017664247E+02 -0.42333680116E+03  0.99258410400E+03  0.89677779300E+03 0.  0.
         23    2    4    4    0    0  0.20603357349E+03  0.52716022299E+02  0.21287795060E+03  0.32648605197E+03  0.12667796916E+03 0.  0.
         23    2    4    4    0    0 -0.17334118751E+03 -0.25698358052E+02 -0.63621475175E+03  0.66609805203E+03  0.90608121431E+02 0.  0.
          4    1    3    3  502    0 -0.60047977388E+01 -0.13883063483E+02  0.66198268035E+03  0.66215546976E+03  0.00000000000E+00 0. -1.
         -3    1    3    3    0  502 -0.26687588247E+02 -0.13134600764E+02  0.84480925582E+02  0.89564344976E+02  0.00000000000E+00 0.  1.
         11    1    5    5    0    0  0.51168282150E+02 -0.24731380421E+01  0.13534537849E+03  0.14471586294E+03  0.00000000000E+00 0.  1.
        -11    1    5    5    0    0  0.15486529134E+03  0.55189160341E+02  0.77532572111E+02  0.18177018903E+03  0.00000000000E+00 0. -1.
          1    1    6    6  503    0 -0.17781807502E+03 -0.26580862552E+02 -0.63661566475E+03  0.66151743338E+03  0.00000000000E+00 0. -1.
         -1    1    6    6    0  503  0.44768875097E+01  0.88250449941E+00  0.40091299626E+00  0.45806186478E+01  0.00000000000E+00 0.  1.
<mgrwt>
<rscale>  0 0.17141135E+04</rscale>
<asrwt>0</asrwt>
<pdfrwt beam="1">  1        2 0.15903313E+00 0.17141135E+04</pdfrwt>
<pdfrwt beam="2">  1       -1 0.10932132E+00 0.17141135E+04</pdfrwt>
<totfact> 0.20131788E+01</totfact>
</mgrwt>
</event>
<event>
11    6  0.1705838E-008  0.1785912E+04  0.7818608E-02  0.8713827E-01
         -1   -1    0    0    0  501 -0.00000000000E+00  0.00000000000E+00  0.41471272425E+03  0.41471272425E+03  0.00000000000E+00 0.  1.
          2   -1    0    0  501    0  0.00000000000E+00 -0.00000000000E+00 -0.19227052903E+04  0.19227052903E+04  0.00000000000E+00 0. -1.
         24    2    1    2    0    0 -0.32172640652E+03  0.38313913552E+03 -0.11260871186E+04  0.12347885732E+04  0.79543347338E+02 0.  0.
        254    2    1    2    0    0  0.32172640652E+03 -0.38313913552E+03 -0.38190544747E+03  0.11026294413E+04  0.90533774706E+03 0.  0.
         23    2    4    4    0    0  0.12243888976E+03 -0.37524889100E+02 -0.58566344376E+03  0.60739508937E+03  0.97610072273E+02 0.  0.
          2    1    3    3  502    0 -0.29657917473E+03  0.33956639059E+03 -0.10586456588E+04  0.11506498909E+04  0.00000000000E+00 0. -1.
         -1    1    3    3    0  502 -0.25147231785E+02  0.43572744928E+02 -0.67441459763E+02  0.84138682317E+02  0.00000000000E+00 0.  1.
         11    1    4    4    0    0  0.55232402155E+02  0.14231297299E+02  0.57385547320E+02  0.80908893898E+02  0.00000000000E+00 0. -1.
        -11    1    4    4    0    0  0.14405511460E+03 -0.35984554372E+03  0.14637244897E+03  0.41432545806E+03  0.00000000000E+00 0.  1.
          3    1    5    5  503    0 -0.10642850751E+02  0.14493145767E+02 -0.57588064877E+02  0.60329982286E+02  0.00000000000E+00 0. -1.
         -3    1    5    5    0  503  0.13308174051E+03 -0.52018034868E+02 -0.52807537888E+03  0.54706510708E+03  0.00000000000E+00 0.  1.
<mgrwt>
<rscale>  0 0.17859119E+04</rscale>
<asrwt>0</asrwt>
<pdfrwt beam="1">  1        2 0.29580082E+00 0.17859119E+04</pdfrwt>
<pdfrwt beam="2">  1       -1 0.63801957E-01 0.17859119E+04</pdfrwt>
<totfact> 0.19780366E+01</totfact>
</mgrwt>
</event>
<event>
12    6  0.1705838E-008  0.1929488E+04  0.7818608E-02  0.8640316E-01
          2   -1    0    0  501    0  0.00000000000E+00  0.00000000000E+00  0.23554351012E+04  0.23554351012E+04  0.00000000000E+00 0. -1.
         -1   -1    0    0    0  501 -0.00000000000E+00 -0.00000000000E+00 -0.39514200629E+03  0.39514200629E+03  0.00000000000E+00 0.  1.
         24    2    1    2    0    0 -0.21116143110E+03 -0.57250657970E+03  0.14896438838E+03  0.63400700888E+03  0.86148502703E+02 0.  0.
        254    2    1    2    0    0  0.21116143110E+03  0.57250657970E+03  0.18113287065E+04  0.21165700986E+04  0.90917785138E+03 0.  0.
         23    2    4    4    0    0  0.48729397294E+03  0.57094114439E+02  0.80215190134E+03  0.94667473984E+03  0.10968243366E+03 0.  0.
         23    2    4    4    0    0 -0.27613254184E+03  0.51541246526E+03  0.10091768052E+04  0.11698953588E+04  0.91203817549E+02 0.  0.
          4    1    3    3  502    0 -0.20928112640E+03 -0.54764705186E+03  0.12504990651E+03  0.59946089314E+03  0.00000000000E+00 0. -1.
         -3    1    3    3    0  502 -0.18803047032E+01 -0.24859527836E+02  0.23914481864E+02  0.34546115742E+02  0.00000000000E+00 0.  1.
         11    1    5    5    0    0  0.49144987685E+03  0.57034557536E+02  0.80222430821E+03  0.94251777856E+03  0.00000000000E+00 0.  1.
        -11    1    5    5    0    0 -0.41559039090E+01  0.59556903496E-01 -0.72406872968E-01  0.41569612797E+01  0.00000000000E+00 0. -1.
          3    1    6    6  503    0 -0.42040805533E+02  0.35033342364E+02  0.13007479998E+03  0.14111774515E+03  0.00000000000E+00 0. -1.
         -3    1    6    6    0  503 -0.23409173630E+03  0.48037912289E+03  0.87910200522E+03  0.10287776136E+04  0.00000000000E+00 0.  1.
<mgrwt>
<rscale>  0 0.19294884E+04</rscale>
<asrwt>0</asrwt>
<pdfrwt beam="1">  1        2 0.36237462E+00 0.19294884E+04</pdfrwt>
<pdfrwt beam="2">  1       -1 0.60791079E-01 0.19294884E+04</pdfrwt>
<totfact> 0.12311450E+01</totfact>
</mgrwt>
</event>
<event>
12    6  0.1705838E-008  0.1505232E+04  0.7818608E-02  0.8880981E-01
          2   -1    0    0  501    0  0.00000000000E+00  0.00000000000E+00  0.75983070012E+03  0.75983070012E+03  0.00000000000E+00 0. -1.
         -3   -1    0    0    0  501 -0.00000000000E+00 -0.00000000000E+00 -0.74546932469E+03  0.74546932469E+03  0.00000000000E+00 0.  1.
         24    2    1    2    0    0  0.64828786754E+02  0.37941480727E+03  0.28081722958E+03  0.48491137038E+03  0.90124098470E+02 0.  0.
        254    2    1    2    0    0 -0.64828786754E+02 -0.37941480727E+03 -0.26645585415E+03  0.10203886544E+04  0.90666196365E+03 0.  0.
         23    2    4    4    0    0  0.25430844865E+03 -0.48686495969E+03  0.33210575838E+02  0.56045251607E+03  0.10627231247E+03 0.  0.
         23    2    4    4    0    0 -0.31913723540E+03  0.10745015242E+03 -0.29966642999E+03  0.45993613836E+03  0.91362858061E+02 0.  0.
          4    1    3    3  502    0  0.16106917374E+02  0.28700686267E+03  0.17671964320E+03  0.33743474080E+03  0.00000000000E+00 0. -1.
         -3    1    3    3    0  502  0.48721869380E+02  0.92407944602E+02  0.10409758638E+03  0.14747662958E+03  0.00000000000E+00 0.  1.
         11    1    5    5    0    0  0.39170972159E+02 -0.57117387322E+02  0.39676873735E+02  0.79818640077E+02  0.00000000000E+00 0.  1.
        -11    1    5    5    0    0  0.21513747649E+03 -0.42974757237E+03 -0.64662978966E+01  0.48063387600E+03  0.00000000000E+00 0. -1.
          3    1    6    6  503    0 -0.10121717331E+03 -0.38144172674E+01 -0.11595365283E+03  0.15396335784E+03  0.00000000000E+00 0.  1.
         -3    1    6    6    0  503 -0.21792006210E+03  0.11126456968E+03 -0.18371277716E+03  0.30597278053E+03  0.00000000000E+00 0. -1.
<mgrwt>
<rscale>  0 0.15052315E+04</rscale>
<asrwt>0</asrwt>
<pdfrwt beam="1">  1        2 0.11689703E+00 0.15052315E+04</pdfrwt>
<pdfrwt beam="2">  1       -3 0.11468759E+00 0.15052315E+04</pdfrwt>
<totfact> 0.14187650E+01</totfact>
</mgrwt>
</event>
<event>
12    6  0.1705838E-008  0.2795938E+04  0.7818608E-02  0.8304531E-01
         -1   -1    0    0    0  501 -0.00000000000E+00  0.00000000000E+00  0.70666626375E+03  0.70666626375E+03  0.00000000000E+00 0.  1.
          2   -1    0    0  501    0  0.00000000000E+00 -0.00000000000E+00 -0.27655448088E+04  0.27655448088E+04  0.00000000000E+00 0. -1.
         24    2    1    2    0    0 -0.49030454995E+02  0.39267728237E+03  0.55423073555E+03  0.68580895303E+03  0.81010975896E+02 0.  0.
        254    2    1    2    0    0  0.49030454995E+02 -0.39267728237E+03 -0.26131092806E+04  0.27864021196E+04  0.88266484340E+03 0.  0.
         23    2    4    4    0    0 -0.39878670476E+03 -0.85456549109E+02 -0.99576200958E+03  0.10779454107E+04  0.63958353732E+02 0.  0.
         23    2    4    4    0    0  0.44781715976E+03 -0.30722073326E+03 -0.16173472710E+04  0.17084567089E+04  0.89929658143E+02 0.  0.
          2    1    3    3  502    0  0.10078578812E+02  0.10710535498E+02  0.39261174032E+02  0.41925327761E+02  0.00000000000E+00 0. -1.
         -1    1    3    3    0  502 -0.59109033807E+02  0.38196674688E+03  0.51496956152E+03  0.64388362527E+03  0.00000000000E+00 0.  1.
         11    1    5    5    0    0 -0.16258918206E+03 -0.11539693660E+02 -0.45256380442E+03  0.48102224868E+03  0.00000000000E+00 0. -1.
        -11    1    5    5    0    0 -0.23619752270E+03 -0.73916855449E+02 -0.54319820516E+03  0.59692316201E+03  0.00000000000E+00 0.  1.
          3    1    6    6  503    0 -0.22508279643E+01 -0.94551037246E+01 -0.46264649833E+02  0.47274549571E+02  0.00000000000E+00 0. -1.
         -3    1    6    6    0  503  0.45006798772E+03 -0.29776562954E+03 -0.15710826212E+04  0.16611821593E+04  0.00000000000E+00 0.  1.
<mgrwt>
<rscale>  0 0.27959379E+04</rscale>
<asrwt>0</asrwt>
<pdfrwt beam="1">  1        2 0.42546844E+00 0.27959379E+04</pdfrwt>
<pdfrwt beam="2">  1       -1 0.10871789E+00 0.27959379E+04</pdfrwt>
<totfact> 0.18825576E+00</totfact>
</mgrwt>
</event>
<event>
11    6  0.1705838E-008  0.1620329E+04  0.7818608E-02  0.8808156E-01
         -1   -1    0    0    0  501 -0.00000000000E+00  0.00000000000E+00  0.43109035962E+03  0.43109035962E+03  0.00000000000E+00 0.  1.
          2   -1    0    0  501    0  0.00000000000E+00 -0.00000000000E+00 -0.15225726554E+04  0.15225726554E+04  0.00000000000E+00 0. -1.
         24    2    1    2    0    0 -0.26251964463E+03  0.74455144742E+02 -0.95627495506E+03  0.99762058857E+03  0.79529344743E+02 0.  0.
        254    2    1    2    0    0  0.26251964463E+03 -0.74455144742E+02 -0.13520734074E+03  0.95604242646E+03  0.90624277311E+03 0.  0.
         23    2    4    4    0    0  0.26129619952E+02  0.23024325113E+03 -0.30298845404E+03  0.39214076897E+03  0.90981688698E+02 0.  0.
          4    1    3    3  502    0 -0.16166838372E+03  0.83091421834E+02 -0.65760517612E+03  0.68226491800E+03  0.00000000000E+00 0. -1.
         -3    1    3    3    0  502 -0.10085126091E+03 -0.86362770918E+01 -0.29866977894E+03  0.31535567058E+03  0.00000000000E+00 0.  1.
         11    1    4    4    0    0  0.16301866085E+02  0.67566139613E+02  0.10642794914E+03  0.12711350211E+03  0.00000000000E+00 0. -1.
        -11    1    4    4    0    0  0.22008815859E+03 -0.37226453548E+03  0.61353164163E+02  0.43678815539E+03  0.00000000000E+00 0.  1.
          4    1    5    5  503    0 -0.29804100177E+02  0.38620111546E+02 -0.49636147106E+02  0.69595578183E+02  0.00000000000E+00 0. -1.
         -4    1    5    5    0  503  0.55933720129E+02  0.19162313958E+03 -0.25335230693E+03  0.32254519079E+03  0.00000000000E+00 0.  1.
<mgrwt>
<rscale>  0 0.16203288E+04</rscale>
<asrwt>0</asrwt>
<pdfrwt beam="1">  1        2 0.23424195E+00 0.16203288E+04</pdfrwt>
<pdfrwt beam="2">  1       -1 0.66321594E-01 0.16203288E+04</pdfrwt>
<totfact> 0.30981655E+01</totfact>
</mgrwt>
</event>
<event>
12    6  0.1705838E-008  0.1576212E+04  0.7818608E-02  0.8835296E-01
         -1   -1    0    0    0  501 -0.00000000000E+00  0.00000000000E+00  0.84551579150E+03  0.84551579150E+03  0.00000000000E+00 0.  1.
          2   -1    0    0  501    0  0.00000000000E+00 -0.00000000000E+00 -0.73459455580E+03  0.73459455580E+03  0.00000000000E+00 0. -1.
         24    2    1    2    0    0 -0.19730906124E+03  0.55013665452E+02  0.51566187349E+03  0.55798038323E+03  0.58970935748E+02 0.  0.
        254    2    1    2    0    0  0.19730906124E+03 -0.55013665452E+02 -0.40474063780E+03  0.10221299641E+04  0.91595704622E+03 0.  0.
         23    2    4    4    0    0  0.36928727329E+03 -0.90206151452E+02  0.15814457769E+03  0.42522164943E+03  0.10627089779E+03 0.  0.
         23    2    4    4    0    0 -0.17197821206E+03  0.35192486000E+02 -0.56288521548E+03  0.59690831463E+03  0.92977168015E+02 0.  0.
          4    1    3    3  502    0 -0.25917577687E+02  0.51242998159E+00  0.27736448068E+02  0.37964377633E+02  0.00000000000E+00 0. -1.
         -3    1    3    3    0  502 -0.17139148355E+03  0.54501235470E+02  0.48792542543E+03  0.52001600560E+03  0.00000000000E+00 0.  1.
         11    1    5    5    0    0  0.30042492808E+03 -0.10744445411E+03  0.15354919291E+03  0.35408586921E+03  0.00000000000E+00 0. -1.
        -11    1    5    5    0    0  0.68862345214E+02  0.17238302655E+02  0.45953847790E+01  0.71135780224E+02  0.00000000000E+00 0.  1.
          1    1    6    6  503    0 -0.50450851721E+02 -0.24879714664E+02 -0.24406619153E+03  0.25046475698E+03  0.00000000000E+00 0. -1.
         -1    1    6    6    0  503 -0.12152736033E+03  0.60072200664E+02 -0.31881902395E+03  0.34644355765E+03  0.00000000000E+00 0.  1.
<mgrwt>
<rscale>  0 0.15762123E+04</rscale>
<asrwt>0</asrwt>
<pdfrwt beam="1">  1        2 0.11301455E+00 0.15762123E+04</pdfrwt>
<pdfrwt beam="2">  1       -1 0.13007935E+00 0.15762123E+04</pdfrwt>
<totfact> 0.21403107E+01</totfact>
</mgrwt>
</event>
<event>
12    6  0.1705838E-008  0.1147220E+04  0.7818608E-02  0.9160352E-01
         -1   -1    0    0    0  501 -0.00000000000E+00  0.00000000000E+00  0.25649706822E+03  0.25649706822E+03  0.00000000000E+00 0.  1.
          2   -1    0    0  501    0  0.00000000000E+00 -0.00000000000E+00 -0.12827758895E+04  0.12827758895E+04  0.00000000000E+00 0. -1.
         24    2    1    2    0    0 -0.70582353077E+02  0.20738762723E+03 -0.25086218339E+03  0.34239376201E+03  0.79436494856E+02 0.  0.
        254    2    1    2    0    0  0.70582353077E+02 -0.20738762723E+03 -0.77541663785E+03  0.11968791957E+04  0.88501827681E+03 0.  0.
         23    2    4    4    0    0  0.16869235794E+03  0.23984487595E+03 -0.32202568843E+02  0.31865630705E+03  0.12050792685E+03 0.  0.
         23    2    4    4    0    0 -0.98110004863E+02 -0.44723250318E+03 -0.74321406901E+03  0.87822288863E+03  0.96259050413E+02 0.  0.
          2    1    3    3  502    0 -0.71417027747E+02  0.16671945339E+03 -0.15619999365E+03  0.23936208139E+03  0.00000000000E+00 0. -1.
         -1    1    3    3    0  502  0.83467466957E+00  0.40668173839E+02 -0.94662189739E+02  0.10303168062E+03  0.00000000000E+00 0.  1.
         11    1    5    5    0    0  0.95755121453E+02  0.70252844690E+02  0.32341545832E+02  0.12308729040E+03  0.00000000000E+00 0. -1.
        -11    1    5    5    0    0  0.72937236487E+02  0.16959203126E+03 -0.64544114675E+02  0.19556901665E+03  0.00000000000E+00 0.  1.
          3    1    6    6  503    0 -0.71781666980E+02 -0.27088087148E+03 -0.53614727563E+03  0.60496525141E+03  0.00000000000E+00 0. -1.
         -3    1    6    6    0  503 -0.26328337883E+02 -0.17635163170E+03 -0.20706679338E+03  0.27325763722E+03  0.00000000000E+00 0.  1.
<mgrwt>
<rscale>  0 0.11472197E+04</rscale>
<asrwt>0</asrwt>
<pdfrwt beam="1">  1        2 0.19735013E+00 0.11472197E+04</pdfrwt>
<pdfrwt beam="2">  1       -1 0.39461088E-01 0.11472197E+04</pdfrwt>
<totfact> 0.11912711E+02</totfact>
</mgrwt>
</event>
<event>
11    6  0.1705838E-008  0.1112340E+04  0.7818608E-02  0.9193247E-01
         -1   -1    0    0    0  501 -0.00000000000E+00  0.00000000000E+00  0.43459193298E+03  0.43459193298E+03  0.00000000000E+00 0.  1.
          2   -1    0    0  501    0  0.00000000000E+00 -0.00000000000E+00 -0.71175991936E+03  0.71175991936E+03  0.00000000000E+00 0. -1.
         24    2    1    2    0    0 -0.70921094968E+02 -0.28663964932E+01  0.13152083440E+03  0.16924798356E+03  0.79430045437E+02 0.  0.
        254    2    1    2    0    0  0.70921094968E+02  0.28663964932E+01 -0.40868882079E+03  0.97710386878E+03  0.88468491578E+03 0.  0.
         23    2    4    4    0    0  0.27414259050E+03  0.16971182466E+03 -0.53323217210E+03  0.63016572428E+03  0.93893702343E+02 0.  0.
          4    1    3    3  502    0 -0.11118559223E+02 -0.33699597231E+02  0.25572034906E+02  0.43740303862E+02  0.00000000000E+00 0. -1.
         -3    1    3    3    0  502 -0.59802535745E+02  0.30833200738E+02  0.10594879950E+03  0.12550767970E+03  0.00000000000E+00 0.  1.
         11    1    4    4    0    0 -0.12218738787E+03 -0.19421295549E+03  0.12523551817E+03  0.26140459990E+03  0.00000000000E+00 0.  1.
        -11    1    4    4    0    0 -0.81034107666E+02  0.27367527325E+02 -0.69216686063E+00  0.85533544602E+02  0.00000000000E+00 0. -1.
          1    1    5    5  503    0  0.39253308502E+02  0.68352988567E+02 -0.14889140864E+03  0.16846840903E+03  0.00000000000E+00 0. -1.
         -1    1    5    5    0  503  0.23488928200E+03  0.10135883609E+03 -0.38434076346E+03  0.46169731525E+03  0.00000000000E+00 0.  1.
<mgrwt>
<rscale>  0 0.11123401E+04</rscale>
<asrwt>0</asrwt>
<pdfrwt beam="1">  1        2 0.10950152E+00 0.11123401E+04</pdfrwt>
<pdfrwt beam="2">  1       -1 0.66860298E-01 0.11123401E+04</pdfrwt>
<totfact> 0.10303684E+02</totfact>
</mgrwt>
</event>
<event>
12    6  0.2005712E-008  0.3363859E+04  0.7818608E-02  0.8146834E-01
          2   -1    0    0  501    0  0.00000000000E+00  0.00000000000E+00  0.24388765584E+04  0.24388765584E+04  0.00000000000E+00 0. -1.
         -1   -1    0    0    0  501 -0.00000000000E+00 -0.00000000000E+00 -0.11599139399E+04  0.11599139399E+04  0.00000000000E+00 0.  1.
         24    2    1    2    0    0 -0.68416003158E+03  0.11511601289E+04 -0.25843990105E+03  0.13666368508E+04  0.87524329831E+02 0.  0.
        254    2    1    2    0    0  0.68416003158E+03 -0.11511601289E+04  0.15374025196E+04  0.22321536476E+04  0.90865769579E+03 0.  0.
         23    2    4    4    0    0  0.30799192640E+03 -0.62493045988E+02  0.78770262282E+03  0.85482590978E+03  0.10717978593E+03 0.  0.
         23    2    4    4    0    0  0.37616810519E+03 -0.10886670829E+04  0.74969989675E+03  0.13773277378E+04  0.91012644262E+02 0.  0.
          2    1    3    3  502    0 -0.10438043076E+03  0.12753673487E+03 -0.46962647489E+02  0.17136622575E+03  0.00000000000E+00 0. -1.
         -1    1    3    3    0  502 -0.57977960083E+03  0.10236233940E+04 -0.21147725356E+03  0.11952706250E+04  0.00000000000E+00 0.  1.
         11    1    5    5    0    0  0.26340831267E+03 -0.27627949370E+02  0.71640267940E+03  0.76379319309E+03  0.00000000000E+00 0. -1.
        -11    1    5    5    0    0  0.44583613727E+02 -0.34865096617E+02  0.71299943425E+02  0.91032716687E+02  0.00000000000E+00 0.  1.
          3    1    6    6  503    0  0.36846993289E+03 -0.10664664010E+04  0.74805016250E+03  0.13537724039E+04  0.00000000000E+00 0. -1.
         -3    1    6    6    0  503  0.76981722972E+01 -0.22200681889E+02  0.16497342529E+01  0.23555333922E+02  0.00000000000E+00 0.  1.
<mgrwt>
<rscale>  0 0.33638590E+04</rscale>
<asrwt>0</asrwt>
<pdfrwt beam="1">  1        2 0.37521178E+00 0.33638590E+04</pdfrwt>
<pdfrwt beam="2">  1       -1 0.17844830E+00 0.33638590E+04</pdfrwt>
<totfact> 0.76135101E-01</totfact>
</mgrwt>
</event>
<event>
12    6  0.1705838E-008  0.1225234E+04  0.7818608E-02  0.9091052E-01
          2   -1    0    0  501    0  0.00000000000E+00  0.00000000000E+00  0.31658568780E+03  0.31658568780E+03  0.00000000000E+00 0. -1.
         -1   -1    0    0    0  501 -0.00000000000E+00 -0.00000000000E+00 -0.11854593686E+04  0.11854593686E+04  0.00000000000E+00 0.  1.
         24    2    1    2    0    0  0.20888887737E+03  0.81109032154E+02 -0.38769066828E+01  0.23791724990E+03  0.79852045718E+02 0.  0.
        254    2    1    2    0    0 -0.20888887737E+03 -0.81109032154E+02 -0.86499677408E+03  0.12641278065E+04  0.89419598173E+03 0.  0.
         23    2    4    4    0    0 -0.52048300455E+03  0.12347846983E+03 -0.50282045506E+03  0.73654787098E+03  0.59370579321E+02 0.  0.
         23    2    4    4    0    0  0.31159412718E+03 -0.20458750199E+03 -0.36217631902E+03  0.52757993549E+03  0.90675003220E+02 0.  0.
          2    1    3    3  502    0  0.86395358592E+02  0.16733733334E+02  0.34170985519E+02  0.94402500332E+02  0.00000000000E+00 0. -1.
         -1    1    3    3    0  502  0.12249351878E+03  0.64375298820E+02 -0.38047892201E+02  0.14351474957E+03  0.00000000000E+00 0.  1.
         11    1    5    5    0    0 -0.44266690254E+03  0.11337820346E+03 -0.45391496449E+03  0.64408648380E+03  0.00000000000E+00 0.  1.
        -11    1    5    5    0    0 -0.77816102006E+02  0.10100266376E+02 -0.48905490571E+02  0.92461387185E+02  0.00000000000E+00 0. -1.
          3    1    6    6  503    0  0.94740868309E+01 -0.55814147960E+01 -0.45420521177E+02  0.46732582385E+02  0.00000000000E+00 0. -1.
         -3    1    6    6    0  503  0.30212004034E+03 -0.19900608719E+03 -0.31675579784E+03  0.48084735310E+03  0.00000000000E+00 0.  1.
<mgrwt>
<rscale>  0 0.12252338E+04</rscale>
<asrwt>0</asrwt>
<pdfrwt beam="1">  1        2 0.48705491E-01 0.12252338E+04</pdfrwt>
<pdfrwt beam="2">  1       -1 0.18237836E+00 0.12252338E+04</pdfrwt>
<totfact> 0.23345900E+01</totfact>
</mgrwt>
</event>
<event>
12    6  0.1705838E-008  0.3100648E+04  0.7818608E-02  0.8215560E-01
         -1   -1    0    0    0  501 -0.00000000000E+00  0.00000000000E+00  0.69318857777E+03  0.69318857777E+03  0.00000000000E+00 0.  1.
          2   -1    0    0  501    0  0.00000000000E+00 -0.00000000000E+00 -0.34673179947E+04  0.34673179947E+04  0.00000000000E+00 0. -1.
         24    2    1    2    0    0  0.41525375863E+03 -0.10647011052E+04 -0.14304857623E+03  0.11545404199E+04  0.80477068593E+02 0.  0.
        254    2    1    2    0    0 -0.41525375863E+03  0.10647011052E+04 -0.26310808407E+04  0.30059661526E+04  0.89845533704E+03 0.  0.
         23    2    4    4    0    0 -0.43249554227E+03  0.61683514735E+03 -0.23464096243E+04  0.24665673029E+04  0.10381783057E+03 0.  0.
         23    2    4    4    0    0  0.17241783645E+02  0.44786595784E+03 -0.28467121643E+03  0.53939884964E+03  0.95038004146E+02 0.  0.
          2    1    3    3  502    0  0.23221005881E+03 -0.57156105051E+03 -0.11665768772E+03  0.62786348992E+03  0.00000000000E+00 0. -1.
         -1    1    3    3    0  502  0.18304369982E+03 -0.49314005468E+03 -0.26390888512E+02  0.52667692997E+03  0.00000000000E+00 0.  1.
         11    1    5    5    0    0 -0.32499062962E+03  0.38233822761E+03 -0.14986472015E+04  0.15804255326E+04  0.00000000000E+00 0. -1.
        -11    1    5    5    0    0 -0.10750491265E+03  0.23449691974E+03 -0.84776242281E+03  0.88614177034E+03  0.00000000000E+00 0.  1.
          1    1    6    6  503    0  0.75657180898E+01  0.10931827651E+03 -0.12098160146E+03  0.16323073719E+03  0.00000000000E+00 0. -1.
         -1    1    6    6    0  503  0.96760655556E+01  0.33854768133E+03 -0.16368961497E+03  0.37616811245E+03  0.00000000000E+00 0.  1.
<mgrwt>
<rscale>  0 0.31006485E+04</rscale>
<asrwt>0</asrwt>
<pdfrwt beam="1">  1        2 0.53343352E+00 0.31006485E+04</pdfrwt>
<pdfrwt beam="2">  1       -1 0.10664440E+00 0.31006485E+04</pdfrwt>
<totfact> 0.67758267E-01</totfact>
</mgrwt>
</event>
<event>
11    6  0.1705838E-008  0.2132708E+04  0.7818608E-02  0.8546970E-01
         -1   -1    0    0    0  501 -0.00000000000E+00  0.00000000000E+00  0.67276716759E+03  0.67276716759E+03  0.00000000000E+00 0.  1.
          2   -1    0    0  501    0  0.00000000000E+00 -0.00000000000E+00 -0.16902001411E+04  0.16902001411E+04  0.00000000000E+00 0. -1.
         24    2    1    2    0    0 -0.13877037723E+03  0.67886454105E+03 -0.10040522270E+04  0.12226059099E+04  0.80808747308E+02 0.  0.
        254    2    1    2    0    0  0.13877037723E+03 -0.67886454105E+03 -0.13380746513E+02  0.11403613988E+04  0.90561072919E+03 0.  0.
         23    2    4    4    0    0 -0.35541636225E+03 -0.27529536717E+03 -0.25316299514E+02  0.45909923514E+03  0.89570435662E+02 0.  0.
          2    1    3    3  502    0 -0.24098657497E+02  0.25823262092E+03 -0.32774522018E+03  0.41794947201E+03  0.00000000000E+00 0. -1.
         -1    1    3    3    0  502 -0.11467171973E+03  0.42063192012E+03 -0.67630700679E+03  0.80465643785E+03  0.00000000000E+00 0.  1.
         11    1    4    4    0    0  0.21646756486E+03 -0.31388178829E+03 -0.44950241977E+02  0.38392773787E+03  0.00000000000E+00 0. -1.
        -11    1    4    4    0    0  0.27771917462E+03 -0.89687385584E+02  0.56885794978E+02  0.29733442579E+03  0.00000000000E+00 0.  1.
          3    1    5    5  503    0 -0.14209553330E+03 -0.76926151192E+02  0.24938707702E+02  0.16349529798E+03  0.00000000000E+00 0. -1.
         -3    1    5    5    0  503 -0.21332082895E+03 -0.19836921598E+03 -0.50255007217E+02  0.29560393716E+03  0.00000000000E+00 0.  1.
<mgrwt>
<rscale>  0 0.21327083E+04</rscale>
<asrwt>0</asrwt>
<pdfrwt beam="1">  1        2 0.26003079E+00 0.21327083E+04</pdfrwt>
<pdfrwt beam="2">  1       -1 0.10350264E+00 0.21327083E+04</pdfrwt>
<totfact> 0.91503168E+00</totfact>
</mgrwt>
</event>
<event>
12    6  0.1705838E-008  0.2100725E+04  0.7818608E-02  0.8560924E-01
         -1   -1    0    0    0  501 -0.00000000000E+00  0.00000000000E+00  0.63253372712E+03  0.63253372712E+03  0.00000000000E+00 0.  1.
          2   -1    0    0  501    0  0.00000000000E+00 -0.00000000000E+00 -0.17441937583E+04  0.17441937583E+04  0.00000000000E+00 0. -1.
         24    2    1    2    0    0 -0.88175536941E+02  0.19383416246E+03 -0.13899905809E+04  0.14089712136E+04  0.88201234921E+02 0.  0.
        254    2    1    2    0    0  0.88175536941E+02 -0.19383416246E+03  0.27833054968E+03  0.96775627188E+03  0.90207410950E+03 0.  0.
         23    2    4    4    0    0 -0.32393273525E+03 -0.22069078595E+03 -0.78624771485E+02  0.41314592312E+03  0.10426341224E+03 0.  0.
         23    2    4    4    0    0  0.41210827219E+03  0.26856623492E+02  0.35695532117E+03  0.55461034876E+03  0.98086856445E+02 0.  0.
          2    1    3    3  502    0 -0.75134940381E+02  0.19558320653E+03 -0.13622541341E+04  0.13782722429E+04  0.00000000000E+00 0. -1.
         -1    1    3    3    0  502 -0.13040596560E+02 -0.17490440676E+01 -0.27736446852E+02  0.30698970630E+02  0.00000000000E+00 0.  1.
         11    1    5    5    0    0 -0.29676116925E+03 -0.16690041966E+03 -0.89191065859E+02  0.35196304904E+03  0.00000000000E+00 0. -1.
        -11    1    5    5    0    0 -0.27171565993E+02 -0.53790366292E+02  0.10566294373E+02  0.61182874084E+02  0.00000000000E+00 0.  1.
          3    1    6    6  503    0  0.40543786843E+03  0.29261610186E+02  0.32097845688E+03  0.51794138352E+03  0.00000000000E+00 0. -1.
         -3    1    6    6    0  503  0.66704037622E+01 -0.24049866936E+01  0.35976864289E+02  0.36668965235E+02  0.00000000000E+00 0.  1.
<mgrwt>
<rscale>  0 0.21007250E+04</rscale>
<asrwt>0</asrwt>
<pdfrwt beam="1">  1        2 0.26833750E+00 0.21007250E+04</pdfrwt>
<pdfrwt beam="2">  1       -1 0.97312881E-01 0.21007250E+04</pdfrwt>
<totfact> 0.98619977E+00</totfact>
</mgrwt>
</event>
<event>
12    6  0.3141582E-008  0.2247666E+04  0.7818608E-02  0.8498846E-01
         -1   -1    0    0    0  501 -0.00000000000E+00  0.00000000000E+00  0.99869134670E+03  0.99869134670E+03  0.00000000000E+00 0.  1.
          2   -1    0    0  501    0  0.00000000000E+00 -0.00000000000E+00 -0.12646556905E+04  0.12646556905E+04  0.00000000000E+00 0. -1.
         24    2    1    2    0    0  0.28688580883E+02  0.71379419960E+03 -0.68970565174E+03  0.99628479336E+03  0.81020425736E+02 0.  0.
        254    2    1    2    0    0 -0.28688580883E+02 -0.71379419960E+03  0.42374130789E+03  0.12670622439E+04  0.95685152443E+03 0.  0.
         23    2    4    4    0    0 -0.20560599968E+03 -0.61003231105E+03 -0.13397334493E+03  0.66568995797E+03  0.10383166840E+03 0.  0.
         23    2    4    4    0    0  0.17691741879E+03 -0.10376188855E+03  0.55771465282E+03  0.60137228591E+03  0.92394208191E+02 0.  0.
          2    1    3    3  502    0  0.27738095356E+02  0.70138637658E+03 -0.65758141782E+03  0.96183448277E+03  0.00000000000E+00 0. -1.
         -1    1    3    3    0  502  0.95048552658E+00  0.12407823019E+02 -0.32124233918E+02  0.34450310589E+02  0.00000000000E+00 0.  1.
         11    1    5    5    0    0 -0.18318373716E+03 -0.45710089604E+03 -0.66022412552E+02  0.49684652527E+03  0.00000000000E+00 0.  1.
        -11    1    5    5    0    0 -0.22422262518E+02 -0.15293141501E+03 -0.67950932374E+02  0.16884343270E+03  0.00000000000E+00 0. -1.
          1    1    6    6  503    0  0.81558755286E+02 -0.93165353174E+02  0.37630502568E+03  0.39615285680E+03  0.00000000000E+00 0. -1.
         -1    1    6    6    0  503  0.95358663509E+02 -0.10596535372E+02  0.18140962713E+03  0.20521942911E+03  0.00000000000E+00 0.  1.
<mgrwt>
<rscale>  0 0.22476661E+04</rscale>
<asrwt>0</asrwt>
<pdfrwt beam="1">  1        2 0.19456241E+00 0.22476661E+04</pdfrwt>
<pdfrwt beam="2">  1       -1 0.15364482E+00 0.22476661E+04</pdfrwt>
<totfact> 0.58822724E+00</totfact>
</mgrwt>
</event>
<event>
12    6  0.1705838E-008  0.2284716E+04  0.7818608E-02  0.8483972E-01
         -1   -1    0    0    0  501 -0.00000000000E+00  0.00000000000E+00  0.90462481165E+03  0.90462481165E+03  0.00000000000E+00 0.  1.
          2   -1    0    0  501    0  0.00000000000E+00 -0.00000000000E+00 -0.14425672712E+04  0.14425672712E+04  0.00000000000E+00 0. -1.
         24    2    1    2    0    0 -0.60736703322E+03  0.72248018711E+03 -0.22694361361E+02  0.94780286129E+03  0.83324042231E+02 0.  0.
        254    2    1    2    0    0  0.60736703322E+03 -0.72248018711E+03 -0.51524809821E+03  0.13993892216E+04  0.89550949576E+03 0.  0.
         23    2    4    4    0    0  0.76308485849E+03 -0.79139030698E+03 -0.47739871550E+03  0.12039901178E+04  0.11439209314E+03 0.  0.
         23    2    4    4    0    0 -0.15571782527E+03  0.68910119867E+02 -0.37849382708E+02  0.19539910379E+03  0.88043104584E+02 0.  0.
          2    1    3    3  502    0 -0.26683959895E+03  0.29012044710E+03 -0.46642390014E+02  0.39692412113E+03  0.00000000000E+00 0. -1.
         -1    1    3    3    0  502 -0.34052743427E+03  0.43235974001E+03  0.23948028653E+02  0.55087874016E+03  0.00000000000E+00 0.  1.
         11    1    5    5    0    0  0.48005689723E+03 -0.55106430267E+03 -0.35914544761E+03  0.81431685651E+03  0.00000000000E+00 0.  1.
        -11    1    5    5    0    0  0.28302796125E+03 -0.24032600430E+03 -0.11825326789E+03  0.38967326129E+03  0.00000000000E+00 0. -1.
          2    1    6    6  503    0 -0.14440503386E+03  0.53874634839E+02 -0.60830682155E+02  0.16569750142E+03  0.00000000000E+00 0. -1.
         -2    1    6    6    0  503 -0.11312791404E+02  0.15035485028E+02  0.22981299447E+02  0.29701602375E+02  0.00000000000E+00 0.  1.
<mgrwt>
<rscale>  0 0.22847163E+04</rscale>
<asrwt>0</asrwt>
<pdfrwt beam="1">  1        2 0.22193342E+00 0.22847163E+04</pdfrwt>
<pdfrwt beam="2">  1       -1 0.13917305E+00 0.22847163E+04</pdfrwt>
<totfact> 0.60243050E+00</totfact>
</mgrwt>
</event>
<event>
11    6  0.1705838E-008  0.1283610E+04  0.7818608E-02  0.9042664E-01
         -3   -1    0    0    0  501 -0.00000000000E+00  0.00000000000E+00  0.48581537033E+03  0.48581537033E+03  0.00000000000E+00 0.  1.
          2   -1    0    0  501    0  0.00000000000E+00 -0.00000000000E+00 -0.84788168955E+03  0.84788168955E+03  0.00000000000E+00 0. -1.
         24    2    1    2    0    0  0.16691406928E+03 -0.63419631035E+02 -0.35829230557E+03  0.40814569943E+03  0.79543570525E+02 0.  0.
        254    2    1    2    0    0 -0.16691406928E+03  0.63419631035E+02 -0.37740136555E+01  0.92555136044E+03  0.90815677144E+03 0.  0.
         23    2    4    4    0    0 -0.15243814598E+03  0.29744051385E+02 -0.43295112777E+03  0.46941775192E+03  0.93724328961E+02 0.  0.
          4    1    3    3  502    0  0.16641248909E+03 -0.51991562204E+02 -0.28597858417E+03  0.33493281367E+03  0.00000000000E+00 0. -1.
         -3    1    3    3    0  502  0.50158018853E+00 -0.11428068830E+02 -0.72313721399E+02  0.73212885768E+02  0.00000000000E+00 0.  1.
         11    1    4    4    0    0 -0.15301562916E+02  0.80164236864E+01 -0.74070040870E+01  0.18795334153E+02  0.00000000000E+00 0.  1.
        -11    1    4    4    0    0  0.82563961374E+00  0.25659155963E+02  0.43658411820E+03  0.43733827437E+03  0.00000000000E+00 0. -1.
          3    1    5    5  503    0 -0.88913445926E+02  0.54925378779E+01 -0.35486534543E+03  0.36587591097E+03  0.00000000000E+00 0. -1.
         -3    1    5    5    0  503 -0.63524700054E+02  0.24251513507E+02 -0.78085782333E+02  0.10354184095E+03  0.00000000000E+00 0.  1.
<mgrwt>
<rscale>  0 0.12836105E+04</rscale>
<asrwt>0</asrwt>
<pdfrwt beam="1">  1        2 0.13044334E+00 0.12836105E+04</pdfrwt>
<pdfrwt beam="2">  1       -3 0.74740827E-01 0.12836105E+04</pdfrwt>
<totfact> 0.33520642E+01</totfact>
</mgrwt>
</event>
<event>
11    6  0.1705838E-008  0.2604905E+04  0.7818608E-02  0.8366537E-01
         -1   -1    0    0    0  501 -0.00000000000E+00  0.00000000000E+00  0.73137088089E+03  0.73137088089E+03  0.00000000000E+00 0.  1.
          2   -1    0    0  501    0  0.00000000000E+00 -0.00000000000E+00 -0.23194560727E+04  0.23194560727E+04  0.00000000000E+00 0. -1.
         24    2    1    2    0    0  0.32911745507E+03  0.74608845698E+02  0.58539723970E+03  0.68035815505E+03  0.79451317232E+02 0.  0.
        254    2    1    2    0    0 -0.32911745507E+03 -0.74608845698E+02 -0.21734824315E+04  0.23704687986E+04  0.88386179106E+03 0.  0.
         23    2    4    4    0    0 -0.29968987308E+03  0.35157338869E+03 -0.11521791311E+04  0.12448259747E+04  0.93043481663E+02 0.  0.
          4    1    3    3  502    0  0.21452424313E+02  0.27900855653E+02  0.68598264894E+02  0.77099845664E+02  0.00000000000E+00 0. -1.
         -3    1    3    3    0  502  0.30766503076E+03  0.46707990045E+02  0.51679897481E+03  0.60325830939E+03  0.00000000000E+00 0.  1.
         11    1    4    4    0    0  0.85320271646E+02 -0.22476396642E+03 -0.48201805292E+03  0.53864625934E+03  0.00000000000E+00 0. -1.
        -11    1    4    4    0    0 -0.11474785363E+03 -0.20141826797E+03 -0.53928524748E+03  0.58699656450E+03  0.00000000000E+00 0.  1.
          1    1    5    5  503    0 -0.70000370712E+02  0.32532660006E+02 -0.21973723158E+03  0.23290100217E+03  0.00000000000E+00 0. -1.
         -1    1    5    5    0  503 -0.22968950237E+03  0.31904072869E+03 -0.93244189956E+03  0.10119249726E+04  0.00000000000E+00 0.  1.
<mgrwt>
<rscale>  0 0.26049051E+04</rscale>
<asrwt>0</asrwt>
<pdfrwt beam="1">  1        2 0.35683939E+00 0.26049051E+04</pdfrwt>
<pdfrwt beam="2">  1       -1 0.11251860E+00 0.26049051E+04</pdfrwt>
<totfact> 0.32136895E+00</totfact>
</mgrwt>
</event>
<event>
11    6  0.1705838E-008  0.1366331E+04  0.7818608E-02  0.8978557E-01
         -1   -1    0    0    0  501 -0.00000000000E+00  0.00000000000E+00  0.86005057191E+03  0.86005057191E+03  0.00000000000E+00 0.  1.
          2   -1    0    0  501    0  0.00000000000E+00 -0.00000000000E+00 -0.54265995542E+03  0.54265995542E+03  0.00000000000E+00 0. -1.
         24    2    1    2    0    0  0.31708936050E+02 -0.71272924081E+02  0.46545870497E+03  0.47806034921E+03  0.76187959151E+02 0.  0.
        254    2    1    2    0    0 -0.31708936050E+02  0.71272924081E+02 -0.14806808847E+03  0.92465017812E+03  0.90937808790E+03 0.  0.
         23    2    4    4    0    0  0.17262577729E+03  0.38419254249E+03 -0.26710088218E+03  0.50702643498E+03  0.91265304562E+02 0.  0.
          4    1    3    3  502    0  0.22965874097E+01  0.10877149472E+02  0.12308450244E+02  0.16585675802E+02  0.00000000000E+00 0. -1.
         -3    1    3    3    0  502  0.29412348640E+02 -0.82150073554E+02  0.45315025472E+03  0.46147467340E+03  0.00000000000E+00 0.  1.
         11    1    4    4    0    0  0.21174833814E+02 -0.41759913087E+02  0.56164751836E+01  0.47157276444E+02  0.00000000000E+00 0. -1.
        -11    1    4    4    0    0 -0.22550954715E+03 -0.27115970532E+03  0.11341631852E+03  0.37046646670E+03  0.00000000000E+00 0.  1.
          1    1    5    5  503    0  0.51482961430E+01  0.43394452064E+02 -0.16753313492E+01  0.43730883347E+02  0.00000000000E+00 0. -1.
         -1    1    5    5    0  503  0.16747748115E+03  0.34079809042E+03 -0.26542555083E+03  0.46329555163E+03  0.00000000000E+00 0.  1.
<mgrwt>
<rscale>  0 0.13663309E+04</rscale>
<asrwt>0</asrwt>
<pdfrwt beam="1">  1        2 0.83486147E-01 0.13663309E+04</pdfrwt>
<pdfrwt beam="2">  1       -1 0.13231547E+00 0.13663309E+04</pdfrwt>
<totfact> 0.30260167E+01</totfact>
</mgrwt>
</event>
<event>
12    6  0.1705838E-008  0.1311672E+04  0.7818608E-02  0.9020360E-01
          2   -1    0    0  501    0  0.00000000000E+00  0.00000000000E+00  0.18030493464E+04  0.18030493464E+04  0.00000000000E+00 0. -1.
         -1   -1    0    0    0  501 -0.00000000000E+00 -0.00000000000E+00 -0.23855180386E+03  0.23855180386E+03  0.00000000000E+00 0.  1.
         24    2    1    2    0    0 -0.26625770154E+03  0.17032353309E+03  0.34286288730E+03  0.47318495561E+03  0.80285572646E+02 0.  0.
        254    2    1    2    0    0  0.26625770154E+03 -0.17032353309E+03  0.12216346553E+04  0.15684161947E+04  0.93146919391E+03 0.  0.
         23    2    4    4    0    0  0.30589500397E+03  0.31029697018E+03  0.35351592721E+03  0.57121665783E+03  0.10704670123E+03 0.  0.
         23    2    4    4    0    0 -0.39637302432E+02 -0.48062050327E+03  0.86811872805E+03  0.99719953683E+03  0.90606878082E+02 0.  0.
          2    1    3    3  502    0 -0.21520176683E+03  0.15019909702E+03  0.31970063213E+03  0.41361825803E+03  0.00000000000E+00 0. -1.
         -1    1    3    3    0  502 -0.51055934710E+02  0.20124436070E+02  0.23162255176E+02  0.59566697584E+02  0.00000000000E+00 0.  1.
         11    1    5    5    0    0  0.11753123606E+03  0.13412259709E+03  0.80554780334E+02  0.19568222999E+03  0.00000000000E+00 0. -1.
        -11    1    5    5    0    0  0.18836376791E+03  0.17617437309E+03  0.27296114687E+03  0.37553442784E+03  0.00000000000E+00 0.  1.
          3    1    6    6  503    0 -0.35594152121E+02 -0.59383443330E+02  0.11288109716E+03  0.13242159606E+03  0.00000000000E+00 0. -1.
         -3    1    6    6    0  503 -0.40431503107E+01 -0.42123705994E+03  0.75523763088E+03  0.86477794076E+03  0.00000000000E+00 0.  1.
<mgrwt>
<rscale>  0 0.13116717E+04</rscale>
<asrwt>0</asrwt>
<pdfrwt beam="1">  1        2 0.27739220E+00 0.13116717E+04</pdfrwt>
<pdfrwt beam="2">  1       -1 0.36700279E-01 0.13116717E+04</pdfrwt>
<totfact> 0.68330062E+01</totfact>
</mgrwt>
</event>
<event>
12    6  0.1705838E-008  0.2289205E+04  0.7818608E-02  0.8482190E-01
          2   -1    0    0  501    0  0.00000000000E+00  0.00000000000E+00  0.22542717308E+04  0.22542717308E+04  0.00000000000E+00 0. -1.
         -1   -1    0    0    0  501 -0.00000000000E+00 -0.00000000000E+00 -0.58116993245E+03  0.58116993245E+03  0.00000000000E+00 0.  1.
         24    2    1    2    0    0  0.45896726728E+03  0.11590131472E+02 -0.33458488511E+03  0.57345773036E+03  0.78239629255E+02 0.  0.
        254    2    1    2    0    0 -0.45896726728E+03 -0.11590131472E+02  0.20076866835E+04  0.22619839329E+04  0.93540376847E+03 0.  0.
         23    2    4    4    0    0 -0.65959997325E+03 -0.16270169405E+03  0.17893041608E+04  0.19167728998E+04  0.10423532897E+03 0.  0.
         23    2    4    4    0    0  0.20063270597E+03  0.15111156258E+03  0.21838252271E+03  0.34521103307E+03  0.91605371432E+02 0.  0.
          2    1    3    3  502    0  0.22774049541E+02  0.16506935010E+02 -0.10494436168E+02  0.30021149652E+02  0.00000000000E+00 0. -1.
         -1    1    3    3    0  502  0.43619321774E+03 -0.49168035382E+01 -0.32409044895E+03  0.54343658071E+03  0.00000000000E+00 0.  1.
         11    1    5    5    0    0 -0.59970784161E+03 -0.11910685901E+03  0.16357013693E+04  0.17462402208E+04  0.00000000000E+00 0. -1.
        -11    1    5    5    0    0 -0.59892131648E+02 -0.43594835041E+02  0.15360279147E+03  0.17053267905E+03  0.00000000000E+00 0.  1.
          3    1    6    6  503    0  0.17937593049E+03  0.10998008361E+03  0.21162076057E+03  0.29842032359E+03  0.00000000000E+00 0. -1.
         -3    1    6    6    0  503  0.21256775482E+02  0.41131478965E+02  0.67617621438E+01  0.46790709473E+02  0.00000000000E+00 0.  1.
<mgrwt>
<rscale>  0 0.22892051E+04</rscale>
<asrwt>0</asrwt>
<pdfrwt beam="1">  1        2 0.34681103E+00 0.22892051E+04</pdfrwt>
<pdfrwt beam="2">  1       -1 0.89410760E-01 0.22892051E+04</pdfrwt>
<totfact> 0.60891126E+00</totfact>
</mgrwt>
</event>
<event>
12    6  0.1705838E-008  0.1405077E+04  0.7818608E-02  0.8950152E-01
          2   -1    0    0  501    0  0.00000000000E+00  0.00000000000E+00  0.10617085769E+04  0.10617085769E+04  0.00000000000E+00 0. -1.
         -1   -1    0    0    0  501 -0.00000000000E+00 -0.00000000000E+00 -0.46487363224E+03  0.46487363224E+03  0.00000000000E+00 0.  1.
         24    2    1    2    0    0 -0.24785151462E+03 -0.64061816847E+02  0.49352938053E+03  0.56240661850E+03  0.84827268069E+02 0.  0.
        254    2    1    2    0    0  0.24785151462E+03  0.64061816847E+02  0.10330556409E+03  0.96417559060E+03  0.92381179916E+03 0.  0.
         23    2    4    4    0    0 -0.10924052648E+03  0.25004221726E+03  0.36645395685E+03  0.47445945442E+03  0.12794009676E+03 0.  0.
         23    2    4    4    0    0  0.35709204110E+03 -0.18598040041E+03 -0.26314839275E+03  0.48971613619E+03  0.92040112328E+02 0.  0.
          4    1    3    3  502    0 -0.13859317516E+03 -0.65770951927E+02  0.22328063944E+03  0.27090243681E+03  0.00000000000E+00 0. -1.
         -3    1    3    3    0  502 -0.10925833946E+03  0.17091350801E+01  0.27024874108E+03  0.29150418169E+03  0.00000000000E+00 0.  1.
         11    1    5    5    0    0 -0.53884539208E+02  0.17940157368E+03  0.14946020308E+03  0.23963893780E+03  0.00000000000E+00 0. -1.
        -11    1    5    5    0    0 -0.55355987269E+02  0.70640643581E+02  0.21699375377E+03  0.23482051662E+03  0.00000000000E+00 0.  1.
          4    1    6    6  503    0  0.18246180371E+03 -0.14545385151E+03 -0.13820221120E+03  0.27119915913E+03  0.00000000000E+00 0. -1.
         -4    1    6    6    0  503  0.17463023739E+03 -0.40526548901E+02 -0.12494618155E+03  0.21851697705E+03  0.00000000000E+00 0.  1.
<mgrwt>
<rscale>  0 0.14050770E+04</rscale>
<asrwt>0</asrwt>
<pdfrwt beam="1">  1        2 0.16333978E+00 0.14050770E+04</pdfrwt>
<pdfrwt beam="2">  1       -1 0.71519020E-01 0.14050770E+04</pdfrwt>
<totfact> 0.50424560E+01</totfact>
</mgrwt>
</event>
<event>
12    6  0.1705838E-008  0.1686983E+04  0.7818608E-02  0.8768823E-01
         -1   -1    0    0    0  501 -0.00000000000E+00  0.00000000000E+00  0.49776721742E+03  0.49776721742E+03  0.00000000000E+00 0.  1.
          2   -1    0    0  501    0  0.00000000000E+00 -0.00000000000E+00 -0.14293387952E+04  0.14293387952E+04  0.00000000000E+00 0. -1.
         24    2    1    2    0    0 -0.44886937829E+03 -0.35097187713E+03 -0.20715841174E+03  0.61145715841E+03  0.79374250964E+02 0.  0.
        254    2    1    2    0    0  0.44886937829E+03  0.35097187713E+03 -0.72441316601E+03  0.13156488542E+04  0.93887831751E+03 0.  0.
         23    2    4    4    0    0 -0.46143723661E-01  0.24232011552E+03  0.16249169001E+03  0.31148860501E+03  0.10909885981E+03 0.  0.
         23    2    4    4    0    0  0.44891552201E+03  0.10865176161E+03 -0.88690485602E+03  0.10041602492E+04  0.91690954665E+02 0.  0.
          2    1    3    3  502    0 -0.13630256599E+03 -0.89731513267E+02 -0.24496596993E+02  0.16501580904E+03  0.00000000000E+00 0. -1.
         -1    1    3    3    0  502 -0.31256681229E+03 -0.26124036386E+03 -0.18266181475E+03  0.44644134937E+03  0.00000000000E+00 0.  1.
         11    1    5    5    0    0 -0.22634558869E+02  0.24101387776E+03  0.15586109860E+03  0.28791091432E+03  0.00000000000E+00 0.  1.
        -11    1    5    5    0    0  0.22588415145E+02  0.13062377662E+01  0.66305914122E+01  0.23577690692E+02  0.00000000000E+00 0. -1.
          1    1    6    6  503    0  0.21914153889E+02  0.28890766321E+02 -0.77306156722E+02  0.85388221591E+02  0.00000000000E+00 0. -1.
         -1    1    6    6    0  503  0.42700136812E+03  0.79760995287E+02 -0.80959869929E+03  0.91877202757E+03  0.00000000000E+00 0.  1.
<mgrwt>
<rscale>  0 0.16869831E+04</rscale>
<asrwt>0</asrwt>
<pdfrwt beam="1">  1        2 0.21989827E+00 0.16869831E+04</pdfrwt>
<pdfrwt beam="2">  1       -1 0.76579573E-01 0.16869831E+04</pdfrwt>
<totfact> 0.25863849E+01</totfact>
</mgrwt>
</event>
<event>
12    6  0.1705838E-008  0.1669700E+04  0.7818608E-02  0.8778837E-01
         -1   -1    0    0    0  501 -0.00000000000E+00  0.00000000000E+00  0.63370893612E+03  0.63370893612E+03  0.00000000000E+00 0.  1.
          2   -1    0    0  501    0  0.00000000000E+00 -0.00000000000E+00 -0.10998333735E+04  0.10998333735E+04  0.00000000000E+00 0. -1.
         24    2    1    2    0    0 -0.55514048177E+03 -0.16992446423E+03 -0.25373620624E+03  0.63774288440E+03  0.72654292382E+02 0.  0.
        254    2    1    2    0    0  0.55514048177E+03  0.16992446423E+03 -0.21238823115E+03  0.10957994252E+04  0.90477198319E+03 0.  0.
         23    2    4    4    0    0  0.52618613360E+03 -0.22789067773E+03 -0.32896453238E+03  0.67003478713E+03  0.10919223509E+03 0.  0.
         23    2    4    4    0    0  0.28954348165E+02  0.39781514196E+03  0.11657630123E+03  0.42576463811E+03  0.92683610234E+02 0.  0.
          2    1    3    3  502    0 -0.27620634907E+03 -0.96720579822E+02 -0.16529411159E+03  0.33610558037E+03  0.00000000000E+00 0. -1.
         -1    1    3    3    0  502 -0.27893413269E+03 -0.73203884404E+02 -0.88442094644E+02  0.30163730402E+03  0.00000000000E+00 0.  1.
         11    1    5    5    0    0  0.44589417265E+03 -0.15066622849E+03 -0.28530789949E+03  0.55038397790E+03  0.00000000000E+00 0. -1.
        -11    1    5    5    0    0  0.80291960947E+02 -0.77224449247E+02 -0.43656632892E+02  0.11965080923E+03  0.00000000000E+00 0.  1.
          1    1    6    6  503    0 -0.21619314880E+02  0.26991195389E+03  0.92463072962E+02  0.28612807883E+03  0.00000000000E+00 0. -1.
         -1    1    6    6    0  503  0.50573663045E+02  0.12790318806E+03  0.24113228265E+02  0.13963655928E+03  0.00000000000E+00 0.  1.
<mgrwt>
<rscale>  0 0.16696997E+04</rscale>
<asrwt>0</asrwt>
<pdfrwt beam="1">  1        2 0.16920513E+00 0.16696997E+04</pdfrwt>
<pdfrwt beam="2">  1       -1 0.97493683E-01 0.16696997E+04</pdfrwt>
<totfact> 0.23944873E+01</totfact>
</mgrwt>
</event>
<event>
12    6  0.1705838E-008  0.1726204E+04  0.7818608E-02  0.8746559E-01
         -1   -1    0    0    0  501 -0.00000000000E+00  0.00000000000E+00  0.47506829934E+03  0.47506829934E+03  0.00000000000E+00 0.  1.
          2   -1    0    0  501    0  0.00000000000E+00 -0.00000000000E+00 -0.15680800843E+04  0.15680800843E+04  0.00000000000E+00 0. -1.
         24    2    1    2    0    0 -0.79850321958E+02  0.25956240978E+03 -0.98453396115E+03  0.10248698514E+04  0.85453923673E+02 0.  0.
        254    2    1    2    0    0  0.79850321958E+02 -0.25956240978E+03 -0.10847782380E+03  0.10182785323E+04  0.97538454598E+03 0.  0.
         23    2    4    4    0    0 -0.13622602396E+02 -0.30178387609E+03  0.39156698060E+03  0.49927245144E+03  0.68477713957E+02 0.  0.
         23    2    4    4    0    0  0.93472924354E+02  0.42221466304E+02 -0.50004480440E+03  0.51900608083E+03  0.93822522505E+02 0.  0.
          4    1    3    3  502    0 -0.56488014471E+02  0.24155011888E+03 -0.93374578734E+03  0.96613588645E+03  0.00000000000E+00 0. -1.
         -3    1    3    3    0  502 -0.23362307487E+02  0.18012290901E+02 -0.50788173809E+02  0.58733964905E+02  0.00000000000E+00 0.  1.
         11    1    5    5    0    0  0.69729018886E+01 -0.17412118790E+03  0.27272223957E+03  0.32364213167E+03  0.00000000000E+00 0. -1.
        -11    1    5    5    0    0 -0.20595504285E+02 -0.12766268819E+03  0.11884474103E+03  0.17563031977E+03  0.00000000000E+00 0.  1.
          4    1    6    6  503    0  0.83560184684E+02  0.47986999512E+02 -0.49814893411E+03  0.50738290979E+03  0.00000000000E+00 0. -1.
         -4    1    6    6    0  503  0.99127396703E+01 -0.57655332077E+01 -0.18958702843E+01  0.11623171042E+02  0.00000000000E+00 0.  1.
<mgrwt>
<rscale>  0 0.17262041E+04</rscale>
<asrwt>0</asrwt>
<pdfrwt beam="1">  1        2 0.24124310E+00 0.17262041E+04</pdfrwt>
<pdfrwt beam="2">  1       -1 0.73087429E-01 0.17262041E+04</pdfrwt>
<totfact> 0.23724780E+01</totfact>
</mgrwt>
</event>
<event>
12    6  0.1705838E-008  0.2049324E+04  0.7818608E-02  0.8583901E-01
          2   -1    0    0  501    0  0.00000000000E+00  0.00000000000E+00  0.12879892207E+04  0.12879892207E+04  0.00000000000E+00 0. -1.
         -1   -1    0    0    0  501 -0.00000000000E+00 -0.00000000000E+00 -0.81517128354E+03  0.81517128354E+03  0.00000000000E+00 0.  1.
         24    2    1    2    0    0  0.62790151473E+03  0.13889262148E+03  0.73735168232E+03  0.98160113364E+03  0.79383938112E+02 0.  0.
        254    2    1    2    0    0 -0.62790151473E+03 -0.13889262148E+03 -0.26453374517E+03  0.11215593706E+04  0.87998059464E+03 0.  0.
         23    2    4    4    0    0 -0.60631965072E+03  0.23394465636E+03 -0.31748804221E+03  0.73294112606E+03  0.11853445169E+03 0.  0.
         23    2    4    4    0    0 -0.21581864010E+02 -0.37283727784E+03  0.52954297047E+02  0.38861824453E+03  0.93523097740E+02 0.  0.
          2    1    3    3  502    0  0.44073147878E+03  0.71810759541E+02  0.54956149655E+03  0.70810935601E+03  0.00000000000E+00 0. -1.
         -1    1    3    3    0  502  0.18717003595E+03  0.67081861936E+02  0.18779018577E+03  0.27349177763E+03  0.00000000000E+00 0.  1.
         11    1    5    5    0    0 -0.29174397426E+03  0.17441298742E+03 -0.17837640068E+03  0.38386531104E+03  0.00000000000E+00 0. -1.
        -11    1    5    5    0    0 -0.31457567646E+03  0.59531668943E+02 -0.13911164153E+03  0.34907581503E+03  0.00000000000E+00 0.  1.
          4    1    6    6  503    0 -0.19364474600E+02 -0.33563108399E+03  0.16671595215E+02  0.33660236111E+03  0.00000000000E+00 0. -1.
         -4    1    6    6    0  503 -0.22173894102E+01 -0.37206193845E+02  0.36282701832E+02  0.52015883425E+02  0.00000000000E+00 0.  1.
<mgrwt>
<rscale>  0 0.20493236E+04</rscale>
<asrwt>0</asrwt>
<pdfrwt beam="1">  1        2 0.19815219E+00 0.20493236E+04</pdfrwt>
<pdfrwt beam="2">  1       -1 0.12541097E+00 0.20493236E+04</pdfrwt>
<totfact> 0.98373828E+00</totfact>
</mgrwt>
</event>
<event>
12    6  0.1705838E-008  0.2144643E+04  0.7818608E-02  0.8541829E-01
         -1   -1    0    0    0  501 -0.00000000000E+00  0.00000000000E+00  0.52967607000E+03  0.52967607000E+03  0.00000000000E+00 0.  1.
          2   -1    0    0  501    0  0.00000000000E+00 -0.00000000000E+00 -0.21708987139E+04  0.21708987139E+04  0.00000000000E+00 0. -1.
         24    2    1    2    0    0 -0.29308831397E+03  0.23128384073E+03 -0.17088667420E+04  0.17510909178E+04  0.81858936697E+02 0.  0.
        254    2    1    2    0    0  0.29308831397E+03 -0.23128384073E+03  0.67644098103E+02  0.94948386615E+03  0.87037400772E+03 0.  0.
         23    2    4    4    0    0  0.29826029957E+03 -0.47020061009E+03 -0.17978177753E+03  0.59434408938E+03  0.10428609217E+03 0.  0.
         23    2    4    4    0    0 -0.51719856016E+01  0.23891676936E+03  0.24742587563E+03  0.35513977677E+03  0.88299065672E+02 0.  0.
          2    1    3    3  502    0 -0.20874281995E+03  0.18992385903E+03 -0.11333921899E+04  0.11679993550E+04  0.00000000000E+00 0. -1.
         -1    1    3    3    0  502 -0.84345494022E+02  0.41359981695E+02 -0.57547455215E+03  0.58309156281E+03  0.00000000000E+00 0.  1.
         11    1    5    5    0    0  0.12051342133E+02 -0.82543437411E+02 -0.12959148075E+02  0.84419153192E+02  0.00000000000E+00 0.  1.
        -11    1    5    5    0    0  0.28620895744E+03 -0.38765717267E+03 -0.16682262946E+03  0.50992493618E+03  0.00000000000E+00 0. -1.
          1    1    6    6  503    0  0.14819131588E+02  0.17001851705E+03  0.21977164042E+03  0.27825433821E+03  0.00000000000E+00 0. -1.
         -1    1    6    6    0  503 -0.19991117190E+02  0.68898252307E+02  0.27654235212E+02  0.76885438560E+02  0.00000000000E+00 0.  1.
<mgrwt>
<rscale>  0 0.21446427E+04</rscale>
<asrwt>0</asrwt>
<pdfrwt beam="1">  1        2 0.33398442E+00 0.21446427E+04</pdfrwt>
<pdfrwt beam="2">  1       -1 0.81488626E-01 0.21446427E+04</pdfrwt>
<totfact> 0.84029803E+00</totfact>
</mgrwt>
</event>
<event>
11    6  0.1705838E-008  0.1767925E+04  0.7818608E-02  0.8723545E-01
          2   -1    0    0  501    0  0.00000000000E+00  0.00000000000E+00  0.64877563685E+03  0.64877563685E+03  0.00000000000E+00 0. -1.
         -1   -1    0    0    0  501 -0.00000000000E+00 -0.00000000000E+00 -0.12044069155E+04  0.12044069155E+04  0.00000000000E+00 0.  1.
         24    2    1    2    0    0  0.67839169689E+02  0.56684357977E+03  0.11761698661E+03  0.58718974411E+03  0.71022835630E+02 0.  0.
        254    2    1    2    0    0 -0.67839169689E+02 -0.56684357977E+03 -0.67324826530E+03  0.12659928083E+04  0.90750248871E+03 0.  0.
         23    2    4    4    0    0 -0.29142994213E+03  0.48867602084E+02  0.11584337942E+02  0.30936953818E+03  0.90861766267E+02 0.  0.
          4    1    3    3  502    0  0.16899673559E+02  0.39136807090E+03  0.65393311703E+02  0.39715343521E+03  0.00000000000E+00 0. -1.
         -3    1    3    3    0  502  0.50939496129E+02  0.17547550887E+03  0.52223674909E+02  0.19003630890E+03  0.00000000000E+00 0.  1.
         11    1    4    4    0    0  0.20095584837E+03 -0.39078683880E+03 -0.49012486649E+03  0.65827045439E+03  0.00000000000E+00 0.  1.
        -11    1    4    4    0    0  0.22634924068E+02 -0.22492434305E+03 -0.19470773676E+03  0.29835281571E+03  0.00000000000E+00 0. -1.
          4    1    5    5  503    0 -0.16434494033E+03  0.52557919792E+02 -0.30962902292E+02  0.17530058661E+03  0.00000000000E+00 0. -1.
         -4    1    5    5    0  503 -0.12708500179E+03 -0.36903177083E+01  0.42547240234E+02  0.13406895158E+03  0.00000000000E+00 0.  1.
<mgrwt>
<rscale>  0 0.17679252E+04</rscale>
<asrwt>0</asrwt>
<pdfrwt beam="1">  1        2 0.99811638E-01 0.17679252E+04</pdfrwt>
<pdfrwt beam="2">  1       -1 0.18529337E+00 0.17679252E+04</pdfrwt>
<totfact> 0.92917447E+00</totfact>
</mgrwt>
</event>
<event>
12    6  0.1705838E-008  0.2027884E+04  0.7818608E-02  0.8593694E-01
         -1   -1    0    0    0  501 -0.00000000000E+00  0.00000000000E+00  0.41085375043E+03  0.41085375043E+03  0.00000000000E+00 0.  1.
          2   -1    0    0  501    0  0.00000000000E+00 -0.00000000000E+00 -0.25022971182E+04  0.25022971182E+04  0.00000000000E+00 0. -1.
         24    2    1    2    0    0  0.23012335237E+03  0.42777506877E+03 -0.17612843553E+04  0.18287738771E+04  0.79643245286E+02 0.  0.
        254    2    1    2    0    0 -0.23012335237E+03 -0.42777506877E+03 -0.33015901246E+03  0.10843769915E+04  0.91154825408E+03 0.  0.
         23    2    4    4    0    0 -0.33165912295E+03 -0.40571566096E+02 -0.52315941886E+03  0.63105042432E+03  0.11351226662E+03 0.  0.
         23    2    4    4    0    0  0.10153577058E+03 -0.38720350267E+03  0.19300040640E+03  0.45332656723E+03  0.89553082007E+02 0.  0.
          4    1    3    3  502    0  0.14029942537E+03  0.17703826880E+03 -0.80845598723E+03  0.83942096749E+03  0.00000000000E+00 0. -1.
         -3    1    3    3    0  502  0.89823926998E+02  0.25073679996E+03 -0.95282836810E+03  0.98935290962E+03  0.00000000000E+00 0.  1.
         11    1    5    5    0    0 -0.32224028422E+03 -0.30970256150E+02 -0.52568299476E+03  0.61736583038E+03  0.00000000000E+00 0.  1.
        -11    1    5    5    0    0 -0.94188387353E+01 -0.96013099461E+01  0.25235759029E+01  0.13684593934E+02  0.00000000000E+00 0. -1.
          1    1    6    6  503    0  0.53413693366E+02 -0.63803525522E+02  0.37392182200E+02  0.91225477789E+02  0.00000000000E+00 0. -1.
         -1    1    6    6    0  503  0.48122077217E+02 -0.32339997715E+03  0.15560822420E+03  0.36210108944E+03  0.00000000000E+00 0.  1.
<mgrwt>
<rscale>  0 0.20278838E+04</rscale>
<asrwt>0</asrwt>
<pdfrwt beam="1">  1        2 0.38496878E+00 0.20278838E+04</pdfrwt>
<pdfrwt beam="2">  1       -1 0.63208270E-01 0.20278838E+04</pdfrwt>
<totfact> 0.93004483E+00</totfact>
</mgrwt>
</event>
<event>
12    6  0.1705838E-008  0.1318466E+04  0.7818608E-02  0.9015048E-01
         -1   -1    0    0    0  501 -0.00000000000E+00  0.00000000000E+00  0.17602958221E+03  0.17602958221E+03  0.00000000000E+00 0.  1.
          2   -1    0    0  501    0  0.00000000000E+00 -0.00000000000E+00 -0.24688365091E+04  0.24688365091E+04  0.00000000000E+00 0. -1.
         24    2    1    2    0    0  0.97481917509E+02 -0.11707863378E+02  0.49943594910E+02  0.13555604948E+03  0.79001782077E+02 0.  0.
        254    2    1    2    0    0 -0.97481917509E+02  0.11707863378E+02 -0.23427505218E+04  0.25093100418E+04  0.89359782921E+03 0.  0.
         23    2    4    4    0    0  0.33398210763E+03 -0.19888026934E+03 -0.11605361703E+04  0.12299365361E+04  0.12166458209E+03 0.  0.
         23    2    4    4    0    0 -0.43146402513E+03  0.21058813272E+03 -0.11822143515E+04  0.12793735057E+04  0.93044224082E+02 0.  0.
          2    1    3    3  502    0 -0.99444560755E+01 -0.13645508305E+02  0.14964693350E+02  0.22561785182E+02  0.00000000000E+00 0. -1.
         -1    1    3    3    0  502  0.10742637358E+03  0.19376449268E+01  0.34978901560E+02  0.11299426430E+03  0.00000000000E+00 0.  1.
         11    1    5    5    0    0  0.27910852561E+03 -0.13508744819E+03 -0.76317454635E+03  0.82376305812E+03  0.00000000000E+00 0. -1.
        -11    1    5    5    0    0  0.54873582015E+02 -0.63792821149E+02 -0.39736162396E+03  0.40617347800E+03  0.00000000000E+00 0.  1.
          3    1    6    6  503    0 -0.35048653603E+03  0.17636363044E+03 -0.10468935992E+04  0.11180031978E+04  0.00000000000E+00 0. -1.
         -3    1    6    6    0  503 -0.80977489109E+02  0.34224502280E+02 -0.13532075220E+03  0.16137030791E+03  0.00000000000E+00 0.  1.
<mgrwt>
<rscale>  0 0.13184662E+04</rscale>
<asrwt>0</asrwt>
<pdfrwt beam="1">  1        2 0.37982098E+00 0.13184662E+04</pdfrwt>
<pdfrwt beam="2">  1       -1 0.27081476E-01 0.13184662E+04</pdfrwt>
<totfact> 0.49574938E+01</totfact>
</mgrwt>
</event>
<event>
12    6  0.1705838E-008  0.2384610E+04  0.7818608E-02  0.8445288E-01
          2   -1    0    0  501    0  0.00000000000E+00  0.00000000000E+00  0.33828077567E+04  0.33828077567E+04  0.00000000000E+00 0. -1.
         -1   -1    0    0    0  501 -0.00000000000E+00 -0.00000000000E+00 -0.42024006404E+03  0.42024006404E+03  0.00000000000E+00 0.  1.
         24    2    1    2    0    0  0.65015738553E+02  0.58359339495E+03  0.25980276508E+04  0.26647443354E+04  0.79412857915E+02 0.  0.
        254    2    1    2    0    0 -0.65015738553E+02 -0.58359339495E+03  0.36454004184E+03  0.11383034853E+04  0.90445402626E+03 0.  0.
         23    2    4    4    0    0  0.30723010560E+03 -0.27493011206E+03  0.47108038027E+03  0.63470101388E+03  0.10465059980E+03 0.  0.
         23    2    4    4    0    0 -0.37224584415E+03 -0.30866328290E+03 -0.10654033843E+03  0.50360247141E+03  0.91785700398E+02 0.  0.
          2    1    3    3  502    0  0.60974196727E+02  0.45418905850E+03  0.21550214365E+04  0.22032074222E+04  0.00000000000E+00 0. -1.
         -1    1    3    3    0  502  0.40415418267E+01  0.12940433645E+03  0.44300621427E+03  0.46153691319E+03  0.00000000000E+00 0.  1.
         11    1    5    5    0    0  0.57587407664E+02 -0.34697521187E+02  0.29476602428E+02  0.73410473291E+02  0.00000000000E+00 0. -1.
        -11    1    5    5    0    0  0.24964269794E+03 -0.24023259087E+03  0.44160377784E+03  0.56129054059E+03  0.00000000000E+00 0.  1.
          4    1    6    6  503    0 -0.39947055400E+02 -0.77855576183E+02 -0.14961968412E+02  0.88775663763E+02  0.00000000000E+00 0. -1.
         -4    1    6    6    0  503 -0.33229878875E+03 -0.23080770671E+03 -0.91578370016E+02  0.41482680764E+03  0.00000000000E+00 0.  1.
<mgrwt>
<rscale>  0 0.23846101E+04</rscale>
<asrwt>0</asrwt>
<pdfrwt beam="1">  1        2 0.52043194E+00 0.23846101E+04</pdfrwt>
<pdfrwt beam="2">  1       -1 0.64652320E-01 0.23846101E+04</pdfrwt>
<totfact> 0.24373736E+00</totfact>
</mgrwt>
</event>
<event>
11    6  0.1705838E-008  0.1628628E+04  0.7818608E-02  0.8803151E-01
         -1   -1    0    0    0  501 -0.00000000000E+00  0.00000000000E+00  0.13070622992E+04  0.13070622992E+04  0.00000000000E+00 0.  1.
          2   -1    0    0  501    0  0.00000000000E+00 -0.00000000000E+00 -0.50732626764E+03  0.50732626764E+03  0.00000000000E+00 0. -1.
         24    2    1    2    0    0 -0.38830018569E+03 -0.34036582944E+03  0.17458772022E+02  0.52255716912E+03  0.78327863647E+02 0.  0.
        254    2    1    2    0    0  0.38830018569E+03  0.34036582944E+03  0.78227725950E+03  0.12918313977E+04  0.88895709526E+03 0.  0.
         23    2    4    4    0    0 -0.71498435321E+02  0.14798578614E+03  0.49406558386E+03  0.52827027209E+03  0.89201233558E+02 0.  0.
          4    1    3    3  502    0 -0.41679279374E+02 -0.21514305859E+02  0.21436389966E+02  0.51570791157E+02  0.00000000000E+00 0. -1.
         -3    1    3    3    0  502 -0.34662090632E+03 -0.31885152358E+03 -0.39776179434E+01  0.47098637797E+03  0.00000000000E+00 0.  1.
         11    1    4    4    0    0  0.37682838538E+03  0.23024811613E+03 -0.20081816286E+02  0.44206007098E+03  0.00000000000E+00 0. -1.
        -11    1    4    4    0    0  0.82970235632E+02 -0.37868072834E+02  0.30829349193E+03  0.32150105459E+03  0.00000000000E+00 0.  1.
          3    1    5    5  503    0 -0.53344327143E+02  0.19846807898E+02  0.17209236889E+03  0.18126030027E+03  0.00000000000E+00 0. -1.
         -3    1    5    5    0  503 -0.18154108177E+02  0.12813897825E+03  0.32197321497E+03  0.34700997183E+03  0.00000000000E+00 0.  1.
<mgrwt>
<rscale>  0 0.16286277E+04</rscale>
<asrwt>0</asrwt>
<pdfrwt beam="1">  1        2 0.78050196E-01 0.16286277E+04</pdfrwt>
<pdfrwt beam="2">  1       -1 0.20108651E+00 0.16286277E+04</pdfrwt>
<totfact> 0.97935079E+00</totfact>
</mgrwt>
</event>
<event>
11    6  0.1705838E-008  0.1296454E+04  0.7818608E-02  0.9032382E-01
          2   -1    0    0  501    0  0.00000000000E+00  0.00000000000E+00  0.15284710168E+04  0.15284710168E+04  0.00000000000E+00 0. -1.
         -1   -1    0    0    0  501 -0.00000000000E+00 -0.00000000000E+00 -0.27491400573E+03  0.27491400573E+03  0.00000000000E+00 0.  1.
         24    2    1    2    0    0  0.26500582689E+03 -0.19671666735E+03  0.31093435715E+03  0.46070913305E+03  0.81530333719E+02 0.  0.
        254    2    1    2    0    0 -0.26500582689E+03  0.19671666735E+03  0.94262265388E+03  0.13426758894E+04  0.89739374913E+03 0.  0.
         23    2    4    4    0    0  0.35419952274E+02  0.19412126486E+03  0.95017233880E+03  0.97486286094E+03  0.92695661858E+02 0.  0.
          2    1    3    3  502    0  0.71126236446E+02 -0.92516207175E+02  0.13844730513E+03  0.18106862345E+03  0.00000000000E+00 0. -1.
         -1    1    3    3    0  502  0.19387959044E+03 -0.10420046018E+03  0.17248705202E+03  0.27964050960E+03  0.00000000000E+00 0.  1.
         11    1    4    4    0    0 -0.29608189008E+03 -0.61671516174E+02 -0.15934559858E+02  0.30285602476E+03  0.00000000000E+00 0.  1.
        -11    1    4    4    0    0 -0.43438890889E+01  0.64266918664E+02  0.83848749369E+01  0.64957003739E+02  0.00000000000E+00 0. -1.
          2    1    5    5  503    0  0.10790475386E+01  0.79400430736E+01  0.23252800980E+03  0.23266603528E+03  0.00000000000E+00 0. -1.
         -2    1    5    5    0  503  0.34340904735E+02  0.18618122179E+03  0.71764432900E+03  0.74219682567E+03  0.00000000000E+00 0.  1.
<mgrwt>
<rscale>  0 0.12964538E+04</rscale>
<asrwt>0</asrwt>
<pdfrwt beam="1">  1        2 0.23514938E+00 0.12964538E+04</pdfrwt>
<pdfrwt beam="2">  1       -1 0.42294463E-01 0.12964538E+04</pdfrwt>
<totfact> 0.75086317E+01</totfact>
</mgrwt>
</event>
<event>
12    6  0.1705838E-008  0.2424412E+04  0.7818608E-02  0.8430420E-01
         -1   -1    0    0    0  501 -0.00000000000E+00  0.00000000000E+00  0.49470217871E+03  0.49470217871E+03  0.00000000000E+00 0.  1.
          2   -1    0    0  501    0  0.00000000000E+00 -0.00000000000E+00 -0.29703596985E+04  0.29703596985E+04  0.00000000000E+00 0. -1.
         24    2    1    2    0    0  0.49181721182E+02  0.95613573890E+03 -0.50054666417E+03  0.10833135527E+04  0.80043097909E+02 0.  0.
        254    2    1    2    0    0 -0.49181721182E+02 -0.95613573890E+03 -0.19751108557E+04  0.23817483246E+04  0.92468794548E+03 0.  0.
         23    2    4    4    0    0 -0.45386820050E+03 -0.30162835970E+03 -0.85749668690E+03  0.10218009791E+04  0.10863085219E+03 0.  0.
         23    2    4    4    0    0  0.40468647931E+03 -0.65450737920E+03 -0.11176141688E+04  0.13599473455E+04  0.90798107139E+02 0.  0.
          4    1    3    3  502    0  0.43355038283E+02  0.87909188154E+03 -0.48339901568E+03  0.10041697087E+04  0.00000000000E+00 0. -1.
         -3    1    3    3    0  502  0.58266828995E+01  0.77043857361E+02 -0.17147648493E+02  0.79143843977E+02  0.00000000000E+00 0.  1.
         11    1    5    5    0    0 -0.42749728596E+03 -0.25651501847E+03 -0.81029056349E+03  0.95138040839E+03  0.00000000000E+00 0. -1.
        -11    1    5    5    0    0 -0.26370914538E+02 -0.45113341231E+02 -0.47206123410E+02  0.70420570702E+02  0.00000000000E+00 0.  1.
          2    1    6    6  503    0  0.25742732500E+03 -0.44048642370E+03 -0.66622779664E+03  0.83914039000E+03  0.00000000000E+00 0. -1.
         -2    1    6    6    0  503  0.14725915431E+03 -0.21402095550E+03 -0.45138637211E+03  0.52080695546E+03  0.00000000000E+00 0.  1.
<mgrwt>
<rscale>  0 0.24244120E+04</rscale>
<asrwt>0</asrwt>
<pdfrwt beam="1">  1        2 0.45697841E+00 0.24244120E+04</pdfrwt>
<pdfrwt beam="2">  1       -1 0.76108028E-01 0.24244120E+04</pdfrwt>
<totfact> 0.32167429E+00</totfact>
</mgrwt>
</event>
<event>
12    6  0.1705838E-008  0.2100788E+04  0.7818608E-02  0.8560896E-01
          2   -1    0    0  501    0  0.00000000000E+00  0.00000000000E+00  0.27720611025E+04  0.27720611025E+04  0.00000000000E+00 0. -1.
         -1   -1    0    0    0  501 -0.00000000000E+00 -0.00000000000E+00 -0.39801714296E+03  0.39801714296E+03  0.00000000000E+00 0.  1.
         24    2    1    2    0    0  0.19854089234E+03 -0.79259948914E+03  0.59752779940E+03  0.10153270854E+04  0.78849116115E+02 0.  0.
        254    2    1    2    0    0 -0.19854089234E+03  0.79259948914E+03  0.17765161601E+04  0.21547511601E+04  0.90515769816E+03 0.  0.
         23    2    4    4    0    0 -0.38724377188E+03  0.87398024202E+03  0.12163122880E+04  0.15504895008E+04  0.10393703716E+03 0.  0.
         23    2    4    4    0    0  0.18870287954E+03 -0.81380752879E+02  0.56020387209E+03  0.60426165929E+03  0.95247944367E+02 0.  0.
          4    1    3    3  502    0  0.97410281702E+02 -0.40763322687E+03  0.25798202407E+03  0.49214666043E+03  0.00000000000E+00 0. -1.
         -3    1    3    3    0  502  0.10113061064E+03 -0.38496626227E+03  0.33954577533E+03  0.52318042494E+03  0.00000000000E+00 0.  1.
         11    1    5    5    0    0 -0.37709704907E+03  0.79069852503E+03  0.10825716891E+04  0.13926118640E+04  0.00000000000E+00 0. -1.
        -11    1    5    5    0    0 -0.10146722809E+02  0.83281716988E+02  0.13374059896E+03  0.15787763673E+03  0.00000000000E+00 0.  1.
          1    1    6    6  503    0  0.60249942625E+02 -0.12017933466E+02  0.71750199673E+02  0.94459395849E+02  0.00000000000E+00 0. -1.
         -1    1    6    6    0  503  0.12845293692E+03 -0.69362819413E+02  0.48845367241E+03  0.50980226344E+03  0.00000000000E+00 0.  1.
<mgrwt>
<rscale>  0 0.21007883E+04</rscale>
<asrwt>0</asrwt>
<pdfrwt beam="1">  1        2 0.42647093E+00 0.21007883E+04</pdfrwt>
<pdfrwt beam="2">  1       -1 0.61233408E-01 0.21007883E+04</pdfrwt>
<totfact> 0.68262973E+00</totfact>
</mgrwt>
</event>
<event>
11    6  0.1705838E-008  0.1175910E+04  0.7818608E-02  0.9134207E-01
          2   -1    0    0  501    0  0.00000000000E+00  0.00000000000E+00  0.12625586972E+04  0.12625586972E+04  0.00000000000E+00 0. -1.
         -1   -1    0    0    0  501 -0.00000000000E+00 -0.00000000000E+00 -0.27380219393E+03  0.27380219393E+03  0.00000000000E+00 0.  1.
         24    2    1    2    0    0  0.62659735370E+02 -0.14511426419E+03 -0.44779144199E+01  0.17688609063E+03  0.79273231499E+02 0.  0.
        254    2    1    2    0    0 -0.62659735370E+02  0.14511426419E+03  0.99323441774E+03  0.13594748006E+04  0.91469816478E+03 0.  0.
         23    2    4    4    0    0 -0.29844214400E+03  0.33278964008E+03  0.87312062922E+03  0.98507567300E+03  0.90652029720E+02 0.  0.
          2    1    3    3  502    0  0.69211050936E+02 -0.62794420627E+02  0.59963535540E+01  0.93644354285E+02  0.00000000000E+00 0. -1.
         -1    1    3    3    0  502 -0.65513155661E+01 -0.82319843562E+02 -0.10474267974E+02  0.83241736342E+02  0.00000000000E+00 0.  1.
         11    1    4    4    0    0  0.71204728948E+02  0.11306803407E+02 -0.27261819019E+02  0.77078946568E+02  0.00000000000E+00 0.  1.
        -11    1    4    4    0    0  0.16457767969E+03 -0.19898217930E+03  0.14737560753E+03  0.29732018099E+03  0.00000000000E+00 0. -1.
          3    1    5    5  503    0 -0.15420589449E+03  0.23717916556E+03  0.55427526414E+03  0.62229774458E+03  0.00000000000E+00 0. -1.
         -3    1    5    5    0  503 -0.14423624951E+03  0.95610474518E+02  0.31884536508E+03  0.36277792842E+03  0.00000000000E+00 0.  1.
<mgrwt>
<rscale>  0 0.11759104E+04</rscale>
<asrwt>0</asrwt>
<pdfrwt beam="1">  1        2 0.19423980E+00 0.11759104E+04</pdfrwt>
<pdfrwt beam="2">  1       -1 0.42123415E-01 0.11759104E+04</pdfrwt>
<totfact> 0.10840286E+02</totfact>
</mgrwt>
</event>
<event>
12    6  0.1705838E-008  0.1424892E+04  0.7818608E-02  0.8935995E-01
          2   -1    0    0  501    0  0.00000000000E+00  0.00000000000E+00  0.29396450331E+04  0.29396450331E+04  0.00000000000E+00 0. -1.
         -1   -1    0    0    0  501 -0.00000000000E+00 -0.00000000000E+00 -0.17266683431E+03  0.17266683431E+03  0.00000000000E+00 0.  1.
         24    2    1    2    0    0  0.73125100309E+02  0.18496270062E+03  0.20957542384E+02  0.21590913517E+03  0.81357575858E+02 0.  0.
        254    2    1    2    0    0 -0.73125100309E+02 -0.18496270062E+03  0.27460206564E+04  0.28964027322E+04  0.89942251529E+03 0.  0.
         23    2    4    4    0    0 -0.14537756177E+03  0.28735745038E+03  0.18248528193E+04  0.18547110420E+04  0.78462076787E+02 0.  0.
         23    2    4    4    0    0  0.72252461457E+02 -0.47232015100E+03  0.92116783708E+03  0.10416916902E+04  0.90910121250E+02 0.  0.
          2    1    3    3  502    0 -0.84535783411E+01  0.30136604439E+02  0.26213530350E+02  0.40826793742E+02  0.00000000000E+00 0. -1.
         -1    1    3    3    0  502  0.81578678650E+02  0.15482609618E+03 -0.52559879652E+01  0.17508234143E+03  0.00000000000E+00 0.  1.
         11    1    5    5    0    0 -0.65367400200E+02  0.13796021981E+03  0.64933261116E+03  0.66703729969E+03  0.00000000000E+00 0. -1.
        -11    1    5    5    0    0 -0.80010161566E+02  0.14939723057E+03  0.11755202082E+04  0.11876737424E+04  0.00000000000E+00 0.  1.
          4    1    6    6  503    0  0.34225176349E+02 -0.14362153901E+03  0.37619972170E+03  0.40413455652E+03  0.00000000000E+00 0. -1.
         -4    1    6    6    0  503  0.38027285109E+02 -0.32869861199E+03  0.54496811538E+03  0.63755713369E+03  0.00000000000E+00 0.  1.
<mgrwt>
<rscale>  0 0.14248919E+04</rscale>
<asrwt>0</asrwt>
<pdfrwt beam="1">  1        2 0.45225305E+00 0.14248919E+04</pdfrwt>
<pdfrwt beam="2">  1       -1 0.26564130E-01 0.14248919E+04</pdfrwt>
<totfact> 0.26714936E+01</totfact>
</mgrwt>
</event>
<event>
12    6  0.1705838E-008  0.2132881E+04  0.7818608E-02  0.8546896E-01
         -3   -1    0    0    0  501 -0.00000000000E+00  0.00000000000E+00  0.45904433755E+03  0.45904433755E+03  0.00000000000E+00 0.  1.
          2   -1    0    0  501    0  0.00000000000E+00 -0.00000000000E+00 -0.24775272417E+04  0.24775272417E+04  0.00000000000E+00 0. -1.
         24    2    1    2    0    0  0.62951800410E+03  0.60246176978E+03 -0.96764570757E+03  0.13044957491E+04  0.78216637633E+02 0.  0.
        254    2    1    2    0    0 -0.62951800410E+03 -0.60246176978E+03 -0.10508371966E+04  0.16320758302E+04  0.89451640583E+03 0.  0.
         23    2    4    4    0    0 -0.57344925886E+03 -0.66453738507E+03 -0.40404833359E+03  0.97381035544E+03  0.12082037835E+03 0.  0.
         23    2    4    4    0    0 -0.56068745235E+02  0.62075615299E+02 -0.64678886302E+03  0.65826547479E+03  0.89333732543E+02 0.  0.
          4    1    3    3  502    0  0.75072737202E+02  0.65668996569E+02 -0.76900616055E+02  0.12594458198E+03  0.00000000000E+00 0. -1.
         -3    1    3    3    0  502  0.55444526689E+03  0.53679277321E+03 -0.89074509151E+03  0.11785511671E+04  0.00000000000E+00 0.  1.
         11    1    5    5    0    0 -0.29837734583E+03 -0.26619161950E+03 -0.14965669875E+03  0.42694747484E+03  0.00000000000E+00 0.  1.
        -11    1    5    5    0    0 -0.27507191303E+03 -0.39834576558E+03 -0.25439163484E+03  0.54686288059E+03  0.00000000000E+00 0. -1.
          4    1    6    6  503    0 -0.73012080663E+02  0.70805846910E+02 -0.49958176685E+03  0.50982955352E+03  0.00000000000E+00 0. -1.
         -4    1    6    6    0  503  0.16943335429E+02 -0.87302316116E+01 -0.14720709617E+03  0.14843592126E+03  0.00000000000E+00 0.  1.
<mgrwt>
<rscale>  0 0.21328805E+04</rscale>
<asrwt>0</asrwt>
<pdfrwt beam="1">  1        2 0.38115803E+00 0.21328805E+04</pdfrwt>
<pdfrwt beam="2">  1       -3 0.70622207E-01 0.21328805E+04</pdfrwt>
<totfact> 0.40490884E+00</totfact>
</mgrwt>
</event>
<event>
11    6  0.1705838E-008  0.1225667E+04  0.7818608E-02  0.9090683E-01
         -1   -1    0    0    0  501 -0.00000000000E+00  0.00000000000E+00  0.41259939148E+03  0.41259939148E+03  0.00000000000E+00 0.  1.
          2   -1    0    0  501    0  0.00000000000E+00 -0.00000000000E+00 -0.91024041691E+03  0.91024041691E+03  0.00000000000E+00 0. -1.
         24    2    1    2    0    0  0.68114680227E+02  0.18893487360E+03 -0.30503893284E+03  0.37734064036E+03  0.94874718438E+02 0.  0.
        254    2    1    2    0    0 -0.68114680227E+02 -0.18893487360E+03 -0.19260209259E+03  0.94549916802E+03  0.90362443224E+03 0.  0.
         23    2    4    4    0    0  0.78762948374E+02 -0.40086416661E+03 -0.39740054074E+03  0.57758554908E+03  0.93713364134E+02 0.  0.
          2    1    3    3  502    0  0.49848061683E+02  0.13102828677E+03 -0.27701073254E+03  0.31046447000E+03  0.00000000000E+00 0. -1.
         -1    1    3    3    0  502  0.18266618543E+02  0.57906586826E+02 -0.28028200297E+02  0.66876170366E+02  0.00000000000E+00 0.  1.
         11    1    4    4    0    0  0.25205913084E+02  0.21409491609E+02 -0.84898861443E+01  0.34143557988E+02  0.00000000000E+00 0. -1.
        -11    1    4    4    0    0 -0.17208354168E+03  0.19051980141E+03  0.21328833429E+03  0.33377006095E+03  0.00000000000E+00 0.  1.
          3    1    5    5  503    0 -0.21012789416E+02 -0.82990818331E+02 -0.91170514181E+02  0.12506428708E+03  0.00000000000E+00 0. -1.
         -3    1    5    5    0  503  0.99775737790E+02 -0.31787334828E+03 -0.30623002655E+03  0.45252126200E+03  0.00000000000E+00 0.  1.
<mgrwt>
<rscale>  0 0.12256666E+04</rscale>
<asrwt>0</asrwt>
<pdfrwt beam="1">  1        2 0.14003699E+00 0.12256666E+04</pdfrwt>
<pdfrwt beam="2">  1       -1 0.63476830E-01 0.12256666E+04</pdfrwt>
<totfact> 0.81662654E+01</totfact>
</mgrwt>
</event>
<event>
11    6  0.1705838E-008  0.1791178E+04  0.7818608E-02  0.8711005E-01
         -1   -1    0    0    0  501 -0.00000000000E+00  0.00000000000E+00  0.68868850840E+03  0.68868850840E+03  0.00000000000E+00 0.  1.
          2   -1    0    0  501    0  0.00000000000E+00 -0.00000000000E+00 -0.11646478319E+04  0.11646478319E+04  0.00000000000E+00 0. -1.
         24    2    1    2    0    0  0.65174082556E+03  0.97446325401E+01 -0.50131637252E+02  0.65770873206E+03  0.72156313721E+02 0.  0.
        254    2    1    2    0    0 -0.65174082556E+03 -0.97446325401E+01 -0.42582768623E+03  0.11956276082E+04  0.90737814477E+03 0.  0.
         23    2    4    4    0    0 -0.21047943334E+02 -0.32334093699E+03 -0.89920606844E+02  0.34836445736E+03  0.90992868767E+02 0.  0.
          4    1    3    3  502    0  0.78217512710E+02  0.21938689039E+02 -0.17686359276E+02  0.83138996119E+02  0.00000000000E+00 0. -1.
         -3    1    3    3    0  502  0.57352331285E+03 -0.12194056499E+02 -0.32445277976E+02  0.57456973594E+03  0.00000000000E+00 0.  1.
         11    1    4    4    0    0 -0.40701634661E+03  0.52216936300E+02 -0.78966192536E+02  0.41788105294E+03  0.00000000000E+00 0. -1.
        -11    1    4    4    0    0 -0.22367653562E+03  0.26137936815E+03 -0.25694088685E+03  0.42938209792E+03  0.00000000000E+00 0.  1.
          2    1    5    5  503    0  0.23586630962E+02 -0.15953425379E+03 -0.75226314691E+02  0.17795085197E+03  0.00000000000E+00 0. -1.
         -2    1    5    5    0  503 -0.44634574296E+02 -0.16380668320E+03 -0.14694292153E+02  0.17041360540E+03  0.00000000000E+00 0.  1.
<mgrwt>
<rscale>  0 0.17911779E+04</rscale>
<asrwt>0</asrwt>
<pdfrwt beam="1">  1        2 0.17917659E+00 0.17911779E+04</pdfrwt>
<pdfrwt beam="2">  1       -1 0.10595208E+00 0.17911779E+04</pdfrwt>
<totfact> 0.17865978E+01</totfact>
</mgrwt>
</event>
<event>
12    6  0.1705838E-008  0.2822973E+04  0.7818608E-02  0.8296171E-01
         -1   -1    0    0    0  501 -0.00000000000E+00  0.00000000000E+00  0.17529068072E+04  0.17529068072E+04  0.00000000000E+00 0.  1.
          2   -1    0    0  501    0  0.00000000000E+00 -0.00000000000E+00 -0.11365661702E+04  0.11365661702E+04  0.00000000000E+00 0. -1.
         24    2    1    2    0    0  0.40417285499E+03  0.52746451009E+03  0.13807344002E+04  0.15344521135E+04  0.80878295898E+02 0.  0.
        254    2    1    2    0    0 -0.40417285499E+03 -0.52746451009E+03 -0.76439376318E+03  0.13550208638E+04  0.90011622033E+03 0.  0.
         23    2    4    4    0    0  0.27772424789E+03 -0.16928805466E+03 -0.26088981440E+03  0.43036782449E+03  0.10660096520E+03 0.  0.
         23    2    4    4    0    0 -0.68189710288E+03 -0.35817645544E+03 -0.50350394878E+03  0.92465303934E+03  0.90515106888E+02 0.  0.
          2    1    3    3  502    0  0.32739584306E+02  0.20596373822E+02  0.53978831154E+02  0.66406364212E+02  0.00000000000E+00 0. -1.
         -1    1    3    3    0  502  0.37143327068E+03  0.50686813627E+03  0.13267555690E+04  0.14680457493E+04  0.00000000000E+00 0.  1.
         11    1    5    5    0    0  0.24200369066E+03 -0.17548040331E+03 -0.20053935276E+03  0.35996554036E+03  0.00000000000E+00 0. -1.
        -11    1    5    5    0    0  0.35720557230E+02  0.61923486563E+01 -0.60350461636E+02  0.70402284128E+02  0.00000000000E+00 0.  1.
          3    1    6    6  503    0 -0.13914190674E+03 -0.38637920816E+02 -0.73538462474E+02  0.16205327704E+03  0.00000000000E+00 0. -1.
         -3    1    6    6    0  503 -0.54275519614E+03 -0.31953853462E+03 -0.42996548631E+03  0.76259976230E+03  0.00000000000E+00 0.  1.
<mgrwt>
<rscale>  0 0.28229733E+04</rscale>
<asrwt>0</asrwt>
<pdfrwt beam="1">  1        2 0.17485633E+00 0.28229733E+04</pdfrwt>
<pdfrwt beam="2">  1       -1 0.26967797E+00 0.28229733E+04</pdfrwt>
<totfact> 0.10629782E+00</totfact>
</mgrwt>
</event>
<event>
12    6  0.1705838E-008  0.1158982E+04  0.7818608E-02  0.9149537E-01
         -1   -1    0    0    0  501 -0.00000000000E+00  0.00000000000E+00  0.16342253473E+03  0.16342253473E+03  0.00000000000E+00 0.  1.
          2   -1    0    0  501    0  0.00000000000E+00 -0.00000000000E+00 -0.20548575562E+04  0.20548575562E+04  0.00000000000E+00 0. -1.
         24    2    1    2    0    0  0.16966721672E+02 -0.21581053757E+03 -0.39256930663E+03  0.45648817943E+03  0.86074036051E+02 0.  0.
        254    2    1    2    0    0 -0.16966721672E+02  0.21581053757E+03 -0.14988657149E+04  0.17617919115E+04  0.90025010444E+03 0.  0.
         23    2    4    4    0    0 -0.13833463111E+03  0.13280182515E+03  0.26722161498E+02  0.22600646660E+03  0.11658496516E+03 0.  0.
         23    2    4    4    0    0  0.12136790944E+03  0.83008712416E+02 -0.15255878764E+04  0.15357854449E+04  0.97969120519E+02 0.  0.
          4    1    3    3  502    0 -0.26782572954E+02 -0.23443806713E+02 -0.55583557358E+02  0.66003410032E+02  0.00000000000E+00 0. -1.
         -3    1    3    3    0  502  0.43749294626E+02 -0.19236673085E+03 -0.33698574928E+03  0.39048476940E+03  0.00000000000E+00 0.  1.
         11    1    5    5    0    0 -0.98195615676E+02  0.15078772530E+03  0.15474739073E+02  0.18060671247E+03  0.00000000000E+00 0. -1.
        -11    1    5    5    0    0 -0.40139015431E+02 -0.17985900147E+02  0.11247422424E+02  0.45399754130E+02  0.00000000000E+00 0.  1.
          3    1    6    6  503    0  0.48038819920E+02 -0.17460356091E+02 -0.36761181423E+03  0.37114826985E+03  0.00000000000E+00 0. -1.
         -3    1    6    6    0  503  0.73329089516E+02  0.10046906851E+03 -0.11579760621E+04  0.11646371751E+04  0.00000000000E+00 0.  1.
<mgrwt>
<rscale>  0 0.11589824E+04</rscale>
<asrwt>0</asrwt>
<pdfrwt beam="1">  1        2 0.31613195E+00 0.11589824E+04</pdfrwt>
<pdfrwt beam="2">  1       -1 0.25141927E-01 0.11589824E+04</pdfrwt>
<totfact> 0.97551553E+01</totfact>
</mgrwt>
</event>
<event>
11    6  0.1705838E-008  0.2124468E+04  0.7818608E-02  0.8550541E-01
         -1   -1    0    0    0  501 -0.00000000000E+00  0.00000000000E+00  0.45763974048E+03  0.45763974048E+03  0.00000000000E+00 0.  1.
          2   -1    0    0  501    0  0.00000000000E+00 -0.00000000000E+00 -0.24655657415E+04  0.24655657415E+04  0.00000000000E+00 0. -1.
         24    2    1    2    0    0  0.78803129885E+03 -0.14915658185E+03 -0.12911808068E+04  0.15220859105E+04  0.79728472688E+02 0.  0.
        254    2    1    2    0    0 -0.78803129885E+03  0.14915658185E+03 -0.71674519429E+03  0.14011195715E+04  0.89787046182E+03 0.  0.
         23    2    4    4    0    0  0.40185940326E+01  0.35441129757E+02  0.16719473372E+03  0.19409941844E+03  0.91914538998E+02 0.  0.
          2    1    3    3  502    0  0.25220784603E+03 -0.60655321756E+02 -0.48560122697E+03  0.55054193055E+03  0.00000000000E+00 0. -1.
         -1    1    3    3    0  502  0.53582345282E+03 -0.88501260098E+02 -0.80557957980E+03  0.97154397998E+03  0.00000000000E+00 0.  1.
         11    1    4    4    0    0  0.16179906126E+01  0.17831712264E+02 -0.43737253967E+02  0.47260292429E+02  0.00000000000E+00 0.  1.
        -11    1    4    4    0    0 -0.79366788350E+03  0.95883739833E+02 -0.84020267404E+03  0.11597598606E+04  0.00000000000E+00 0. -1.
          2    1    5    5  503    0  0.25546506297E+02  0.57606573186E+02  0.81614841502E+02  0.10311218944E+03  0.00000000000E+00 0. -1.
         -2    1    5    5    0  503 -0.21527912265E+02 -0.22165443430E+02  0.85579892215E+02  0.90987228997E+02  0.00000000000E+00 0.  1.
<mgrwt>
<rscale>  0 0.21244678E+04</rscale>
<asrwt>0</asrwt>
<pdfrwt beam="1">  1        2 0.37931781E+00 0.21244678E+04</pdfrwt>
<pdfrwt beam="2">  1       -1 0.70406113E-01 0.21244678E+04</pdfrwt>
<totfact> 0.77795748E+00</totfact>
</mgrwt>
</event>
<event>
11    6  0.1705838E-008  0.1814507E+04  0.7818608E-02  0.8698623E-01
          2   -1    0    0  501    0  0.00000000000E+00  0.00000000000E+00  0.67200973931E+03  0.67200973931E+03  0.00000000000E+00 0. -1.
         -1   -1    0    0    0  501 -0.00000000000E+00 -0.00000000000E+00 -0.12248460799E+04  0.12248460799E+04  0.00000000000E+00 0.  1.
         24    2    1    2    0    0 -0.20318981550E+03  0.24605253146E+03  0.42543632216E+03  0.53799055050E+03  0.81300792495E+02 0.  0.
        254    2    1    2    0    0  0.20318981550E+03 -0.24605253146E+03 -0.97827266273E+03  0.13588652687E+04  0.88750744585E+03 0.  0.
         23    2    4    4    0    0 -0.26214726184E+03  0.11846432501E+03 -0.32624396649E+03  0.44335404580E+03  0.85864434230E+02 0.  0.
          4    1    3    3  502    0 -0.17381417810E+03  0.21424723391E+03  0.31151157901E+03  0.41611622127E+03  0.00000000000E+00 0. -1.
         -3    1    3    3    0  502 -0.29375637398E+02  0.31805297546E+02  0.11392474315E+03  0.12187432923E+03  0.00000000000E+00 0.  1.
         11    1    4    4    0    0  0.57344964716E+02  0.36499321257E+02 -0.96914425735E+02  0.11837673482E+03  0.00000000000E+00 0.  1.
        -11    1    4    4    0    0  0.40799211262E+03 -0.40101617772E+03 -0.55511427051E+03  0.79713448807E+03  0.00000000000E+00 0. -1.
          2    1    5    5  503    0 -0.19937830865E+03  0.48274261775E+02 -0.20720531557E+03  0.29157530265E+03  0.00000000000E+00 0. -1.
         -2    1    5    5    0  503 -0.62768953183E+02  0.70190063234E+02 -0.11903865092E+03  0.15177874315E+03  0.00000000000E+00 0.  1.
<mgrwt>
<rscale>  0 0.18145065E+04</rscale>
<asrwt>0</asrwt>
<pdfrwt beam="1">  1        2 0.10338612E+00 0.18145065E+04</pdfrwt>
<pdfrwt beam="2">  1       -1 0.18843786E+00 0.18145065E+04</pdfrwt>
<totfact> 0.84168042E+00</totfact>
</mgrwt>
</event>
<event>
11    6  0.1705838E-008  0.1790850E+04  0.7818608E-02  0.8711181E-01
         -1   -1    0    0    0  501 -0.00000000000E+00  0.00000000000E+00  0.48325445148E+03  0.48325445148E+03  0.00000000000E+00 0.  1.
          2   -1    0    0  501    0  0.00000000000E+00 -0.00000000000E+00 -0.16591378283E+04  0.16591378283E+04  0.00000000000E+00 0. -1.
         24    2    1    2    0    0 -0.17495521033E+03 -0.37799366206E+03 -0.10318707440E+04  0.11158473948E+04  0.82883303266E+02 0.  0.
        254    2    1    2    0    0  0.17495521033E+03  0.37799366206E+03 -0.14401263281E+03  0.10265448850E+04  0.92712794601E+03 0.  0.
         23    2    4    4    0    0 -0.23754471032E+03  0.42343443470E+03  0.11818138893E+03  0.50722475370E+03  0.87097073332E+02 0.  0.
          2    1    3    3  502    0 -0.16462934041E+03 -0.37940930002E+03 -0.10148385898E+04  0.10958793729E+04  0.00000000000E+00 0. -1.
         -1    1    3    3    0  502 -0.10325869916E+02  0.14156379600E+01 -0.17032154203E+02  0.19968021864E+02  0.00000000000E+00 0.  1.
         11    1    4    4    0    0  0.12269145784E+03 -0.63100161462E+02 -0.16462205590E+02  0.13894541524E+03  0.00000000000E+00 0.  1.
        -11    1    4    4    0    0  0.28980846281E+03  0.17659388824E+02 -0.24573181615E+03  0.38037471603E+03  0.00000000000E+00 0. -1.
          4    1    5    5  503    0 -0.12618819994E+03  0.21190917154E+03  0.10427925432E+03  0.26777438575E+03  0.00000000000E+00 0. -1.
         -4    1    5    5    0  503 -0.11135651038E+03  0.21152526317E+03  0.13902134608E+02  0.23945036794E+03  0.00000000000E+00 0.  1.
<mgrwt>
<rscale>  0 0.17908498E+04</rscale>
<asrwt>0</asrwt>
<pdfrwt beam="1">  1        2 0.25525197E+00 0.17908498E+04</pdfrwt>
<pdfrwt beam="2">  1       -1 0.74346839E-01 0.17908498E+04</pdfrwt>
<totfact> 0.20252839E+01</totfact>
</mgrwt>
</event>
<event>
12    6  0.1705838E-008  0.2170932E+04  0.7818608E-02  0.8530625E-01
         -1   -1    0    0    0  501 -0.00000000000E+00  0.00000000000E+00  0.45296773321E+03  0.45296773321E+03  0.00000000000E+00 0.  1.
          4   -1    0    0  501    0  0.00000000000E+00 -0.00000000000E+00 -0.26011484846E+04  0.26011484846E+04  0.00000000000E+00 0. -1.
         24    2    1    2    0    0 -0.75943088095E+03  0.48823486084E+03 -0.86972971615E+03  0.12569965227E+04  0.92205947485E+02 0.  0.
        254    2    1    2    0    0  0.75943088095E+03 -0.48823486084E+03 -0.12784510352E+04  0.17971196950E+04  0.88322907932E+03 0.  0.
         23    2    4    4    0    0  0.45358288545E+01 -0.39032907153E+03 -0.78938883682E+03  0.88728154853E+03  0.10842717764E+03 0.  0.
         23    2    4    4    0    0  0.75489505209E+03 -0.97905789311E+02 -0.48906219838E+03  0.90983814649E+03  0.95768134899E+02 0.  0.
          4    1    3    3  502    0 -0.55923326535E+03  0.39902388719E+03 -0.62922273621E+03  0.93160246853E+03  0.00000000000E+00 0. -1.
         -3    1    3    3    0  502 -0.20019761560E+03  0.89210973649E+02 -0.24050697994E+03  0.32539405421E+03  0.00000000000E+00 0.  1.
         11    1    5    5    0    0  0.19954596489E+02 -0.23641484499E+03 -0.36257637242E+03  0.43330334719E+03  0.00000000000E+00 0. -1.
        -11    1    5    5    0    0 -0.15418767634E+02 -0.15391422654E+03 -0.42681246440E+03  0.45397820134E+03  0.00000000000E+00 0.  1.
          4    1    6    6  503    0  0.21641961436E+03  0.12014736276E+02 -0.11889036893E+03  0.24721796697E+03  0.00000000000E+00 0. -1.
         -4    1    6    6    0  503  0.53847543774E+03 -0.10992052559E+03 -0.37017182944E+03  0.66262017952E+03  0.00000000000E+00 0.  1.
<mgrwt>
<rscale>  0 0.21709319E+04</rscale>
<asrwt>0</asrwt>
<pdfrwt beam="1">  1        4 0.40017670E+00 0.21709319E+04</pdfrwt>
<pdfrwt beam="2">  1       -1 0.69687343E-01 0.21709319E+04</pdfrwt>
<totfact> 0.52516759E-02</totfact>
</mgrwt>
</event>
<event>
11    6  0.1705838E-008  0.1451745E+04  0.7818608E-02  0.8917191E-01
         -1   -1    0    0    0  501 -0.00000000000E+00  0.00000000000E+00  0.61979475375E+03  0.61979475375E+03  0.00000000000E+00 0.  1.
          2   -1    0    0  501    0  0.00000000000E+00 -0.00000000000E+00 -0.85010586462E+03  0.85010586462E+03  0.00000000000E+00 0. -1.
         24    2    1    2    0    0  0.20363378527E+03 -0.32454986923E+03  0.14896795158E+03  0.41903055761E+03  0.81214663000E+02 0.  0.
        254    2    1    2    0    0 -0.20363378527E+03  0.32454986923E+03 -0.37927906246E+03  0.10508700608E+04  0.90203987787E+03 0.  0.
         23    2    4    4    0    0  0.20319209219E+03  0.11007206304E+03 -0.45702479869E+03  0.51998631324E+03  0.90062278176E+02 0.  0.
          4    1    3    3  502    0  0.17221953072E+03 -0.21490121703E+03  0.84775110170E+02  0.28814739136E+03  0.00000000000E+00 0. -1.
         -3    1    3    3    0  502  0.31414254556E+02 -0.10964865220E+03  0.64192841413E+02  0.13088316625E+03  0.00000000000E+00 0.  1.
         11    1    4    4    0    0 -0.24561396895E+03  0.14147102531E+03  0.17081068550E+03  0.33093286785E+03  0.00000000000E+00 0. -1.
        -11    1    4    4    0    0 -0.16121190851E+03  0.73006780890E+02 -0.93064949271E+02  0.19995087968E+03  0.00000000000E+00 0.  1.
          1    1    5    5  503    0  0.21134226198E+03  0.97816890133E+02 -0.43637977906E+03  0.49463219393E+03  0.00000000000E+00 0. -1.
         -1    1    5    5    0  503 -0.81501697968E+01  0.12255172903E+02 -0.20645019624E+02  0.25354119308E+02  0.00000000000E+00 0.  1.
<mgrwt>
<rscale>  0 0.14517454E+04</rscale>
<asrwt>0</asrwt>
<pdfrwt beam="1">  1        2 0.13078552E+00 0.14517454E+04</pdfrwt>
<pdfrwt beam="2">  1       -1 0.95353040E-01 0.14517454E+04</pdfrwt>
<totfact> 0.37310626E+01</totfact>
</mgrwt>
</event>
<event>
11    6  0.1705838E-008  0.1334732E+04  0.7818608E-02  0.9002467E-01
          2   -1    0    0  501    0  0.00000000000E+00  0.00000000000E+00  0.21586845919E+04  0.21586845919E+04  0.00000000000E+00 0. -1.
         -1   -1    0    0    0  501 -0.00000000000E+00 -0.00000000000E+00 -0.20631877331E+03  0.20631877331E+03  0.00000000000E+00 0.  1.
         24    2    1    2    0    0  0.51893429954E+02  0.31964789330E+03  0.80067880378E+03  0.86797878683E+03  0.86214405991E+02 0.  0.
        254    2    1    2    0    0 -0.51893429954E+02 -0.31964789330E+03  0.11516870148E+04  0.14970245784E+04  0.89990660873E+03 0.  0.
         23    2    4    4    0    0  0.33216472960E+03 -0.26849425439E+03  0.92255641741E+03  0.10207839853E+04  0.92016460686E+02 0.  0.
          2    1    3    3  502    0  0.37230862101E+02  0.23162822281E+03  0.66875345459E+03  0.70870935772E+03  0.00000000000E+00 0. -1.
         -1    1    3    3    0  502  0.14662567853E+02  0.88019670499E+02  0.13192534919E+03  0.15926942911E+03  0.00000000000E+00 0.  1.
         11    1    4    4    0    0 -0.87108965058E+02  0.48038380275E+02  0.88033788817E+02  0.13283676353E+03  0.00000000000E+00 0.  1.
        -11    1    4    4    0    0 -0.29694919449E+03 -0.99192019185E+02  0.14109680859E+03  0.34340382958E+03  0.00000000000E+00 0. -1.
          2    1    5    5  503    0  0.32380377059E+03 -0.27406838536E+03  0.87806692408E+03  0.97517377163E+03  0.00000000000E+00 0. -1.
         -2    1    5    5    0  503  0.83609590037E+01  0.55741309630E+01  0.44489493330E+02  0.45610213639E+02  0.00000000000E+00 0.  1.
<mgrwt>
<rscale>  0 0.13347317E+04</rscale>
<asrwt>0</asrwt>
<pdfrwt beam="1">  1        2 0.33210531E+00 0.13347317E+04</pdfrwt>
<pdfrwt beam="2">  1       -1 0.31741351E-01 0.13347317E+04</pdfrwt>
<totfact> 0.56135201E+01</totfact>
</mgrwt>
</event>
<event>
11    6  0.1705838E-008  0.1424654E+04  0.7818608E-02  0.8936164E-01
         -1   -1    0    0    0  501 -0.00000000000E+00  0.00000000000E+00  0.90220765495E+03  0.90220765495E+03  0.00000000000E+00 0.  1.
          2   -1    0    0  501    0  0.00000000000E+00 -0.00000000000E+00 -0.56240907920E+03  0.56240907920E+03  0.00000000000E+00 0. -1.
         24    2    1    2    0    0  0.39201881607E+02 -0.28758014358E+03  0.44388906914E+03  0.53623846947E+03  0.79215301164E+02 0.  0.
        254    2    1    2    0    0 -0.39201881607E+02  0.28758014358E+03 -0.10409049339E+03  0.92837826468E+03  0.87567816292E+03 0.  0.
         23    2    4    4    0    0  0.30337779459E+03  0.30420270985E+03 -0.26559622486E+03  0.51234584554E+03  0.85904224884E+02 0.  0.
          2    1    3    3  502    0  0.35138162884E+02 -0.44417389250E+02  0.67449486916E+02  0.88073993005E+02  0.00000000000E+00 0. -1.
         -1    1    3    3    0  502  0.40637187223E+01 -0.24316275433E+03  0.37643958222E+03  0.44816447647E+03  0.00000000000E+00 0.  1.
         11    1    4    4    0    0 -0.14170939124E+03 -0.16737122485E+02 -0.21490621907E+02  0.14430360239E+03  0.00000000000E+00 0. -1.
        -11    1    4    4    0    0 -0.20087028496E+03  0.11455621432E+00  0.18299635338E+03  0.27172881675E+03  0.00000000000E+00 0.  1.
          3    1    5    5  503    0  0.17629590043E+03  0.18718413865E+03 -0.10936240033E+03  0.27942491098E+03  0.00000000000E+00 0. -1.
         -3    1    5    5    0  503  0.12708189416E+03  0.11701857120E+03 -0.15623382453E+03  0.23292093456E+03  0.00000000000E+00 0.  1.
<mgrwt>
<rscale>  0 0.14246540E+04</rscale>
<asrwt>0</asrwt>
<pdfrwt beam="1">  1        2 0.86524474E-01 0.14246540E+04</pdfrwt>
<pdfrwt beam="2">  1       -1 0.13880118E+00 0.14246540E+04</pdfrwt>
<totfact> 0.25525536E+01</totfact>
</mgrwt>
</event>
<event>
12    6  0.1705838E-008  0.1206991E+04  0.7818608E-02  0.9106760E-01
         -1   -1    0    0    0  501 -0.00000000000E+00  0.00000000000E+00  0.64135011669E+03  0.64135011669E+03  0.00000000000E+00 0.  1.
          2   -1    0    0  501    0  0.00000000000E+00 -0.00000000000E+00 -0.56787483011E+03  0.56787483011E+03  0.00000000000E+00 0. -1.
         24    2    1    2    0    0 -0.15755438444E+03 -0.22950367114E+02  0.19397666436E+03  0.26319700718E+03  0.79344910766E+02 0.  0.
        254    2    1    2    0    0  0.15755438444E+03  0.22950367114E+02 -0.12050137778E+03  0.94602793963E+03  0.92471518702E+03 0.  0.
         23    2    4    4    0    0  0.48736113288E+03  0.19524885672E+03  0.37297836902E+02  0.53212865794E+03  0.78273814742E+02 0.  0.
         23    2    4    4    0    0 -0.32980674844E+03 -0.17229848960E+03 -0.15779921468E+03  0.41389928169E+03  0.89178261859E+02 0.  0.
          4    1    3    3  502    0 -0.50698566209E+02  0.27698510455E+02  0.46467172300E+02  0.74140071477E+02  0.00000000000E+00 0. -1.
         -3    1    3    3    0  502 -0.10685581823E+03 -0.50648877569E+02  0.14750949206E+03  0.18905693570E+03  0.00000000000E+00 0.  1.
         11    1    5    5    0    0  0.14120795469E+03  0.79124678072E+02 -0.17960055939E+02  0.16285872638E+03  0.00000000000E+00 0. -1.
        -11    1    5    5    0    0  0.34615317819E+03  0.11612417864E+03  0.55257892841E+02  0.36926993156E+03  0.00000000000E+00 0.  1.
          4    1    6    6  503    0 -0.16180355305E+02  0.64972671589E+01 -0.22275123778E+02  0.28287798035E+02  0.00000000000E+00 0. -1.
         -4    1    6    6    0  503 -0.31362639314E+03 -0.17879575676E+03 -0.13552409091E+03  0.38561148365E+03  0.00000000000E+00 0.  1.
<mgrwt>
<rscale>  0 0.12069906E+04</rscale>
<asrwt>0</asrwt>
<pdfrwt beam="1">  1        2 0.87365359E-01 0.12069906E+04</pdfrwt>
<pdfrwt beam="2">  1       -1 0.98669248E-01 0.12069906E+04</pdfrwt>
<totfact> 0.58745922E+01</totfact>
</mgrwt>
</event>
<event>
11    6  0.1705838E-008  0.1474217E+04  0.7818608E-02  0.8901782E-01
         -1   -1    0    0    0  501 -0.00000000000E+00  0.00000000000E+00  0.18041218443E+04  0.18041218443E+04  0.00000000000E+00 0.  1.
          2   -1    0    0  501    0  0.00000000000E+00 -0.00000000000E+00 -0.30115981986E+03  0.30115981986E+03  0.00000000000E+00 0. -1.
         24    2    1    2    0    0 -0.74349055062E+02  0.45254971806E+02 -0.17096364720E+03  0.20700810569E+03  0.77768841432E+02 0.  0.
        254    2    1    2    0    0  0.74349055062E+02 -0.45254971806E+02  0.16739256717E+04  0.18982735585E+04  0.89097674166E+03 0.  0.
         23    2    4    4    0    0 -0.30782407996E+03  0.20691434424E+03  0.97089525839E+03  0.10433344629E+04  0.91323538298E+02 0.  0.
          2    1    3    3  502    0 -0.85729590276E+02  0.25099205429E+02 -0.15497391855E+03  0.17887551032E+03  0.00000000000E+00 0. -1.
         -1    1    3    3    0  502  0.11380535215E+02  0.20155766377E+02 -0.15989728644E+02  0.28132595368E+02  0.00000000000E+00 0.  1.
         11    1    4    4    0    0  0.36123910531E+03 -0.24794176233E+03  0.56354881547E+03  0.71383196631E+03  0.00000000000E+00 0. -1.
        -11    1    4    4    0    0  0.20934029717E+02 -0.42275537144E+01  0.13948159779E+03  0.14110712928E+03  0.00000000000E+00 0.  1.
          2    1    5    5  503    0 -0.23076571024E+03  0.19744473443E+03  0.74800209607E+03  0.80730686353E+03  0.00000000000E+00 0. -1.
         -2    1    5    5    0  503 -0.77058369723E+02  0.94696098113E+01  0.22289316232E+03  0.23602759937E+03  0.00000000000E+00 0.  1.
<mgrwt>
<rscale>  0 0.14742171E+04</rscale>
<asrwt>0</asrwt>
<pdfrwt beam="1">  1        2 0.46332281E-01 0.14742171E+04</pdfrwt>
<pdfrwt beam="2">  1       -1 0.27755720E+00 0.14742171E+04</pdfrwt>
<totfact> 0.56033250E+00</totfact>
</mgrwt>
</event>
<event>
12    6  0.1705838E-008  0.1583274E+04  0.7818608E-02  0.8830890E-01
          2   -1    0    0  501    0  0.00000000000E+00  0.00000000000E+00  0.86637753464E+03  0.86637753464E+03  0.00000000000E+00 0. -1.
         -1   -1    0    0    0  501 -0.00000000000E+00 -0.00000000000E+00 -0.72334442245E+03  0.72334442245E+03  0.00000000000E+00 0.  1.
         24    2    1    2    0    0  0.39722584746E+03 -0.17342275211E+03 -0.23974017798E+03  0.50316870104E+03  0.88541311957E+02 0.  0.
        254    2    1    2    0    0 -0.39722584746E+03  0.17342275211E+03  0.38277329016E+03  0.10865532561E+04  0.91990149567E+03 0.  0.
         23    2    4    4    0    0  0.17150644185E+03 -0.15825504642E+03 -0.85889283463E+02  0.27337134563E+03  0.11355969480E+03 0.  0.
         23    2    4    4    0    0 -0.56873228931E+03  0.33167779853E+03  0.46866257363E+03  0.81318191043E+03  0.90297467183E+02 0.  0.
          4    1    3    3  502    0  0.47771158331E+02  0.49270737059E+01 -0.11909232821E+02  0.49479181985E+02  0.00000000000E+00 0. -1.
         -3    1    3    3    0  502  0.34945468913E+03 -0.17834982581E+03 -0.22783094516E+03  0.45368951905E+03  0.00000000000E+00 0.  1.
         11    1    5    5    0    0  0.14311610306E+03 -0.15642332474E+03 -0.10743688050E+03  0.23768289541E+03  0.00000000000E+00 0.  1.
        -11    1    5    5    0    0  0.28390338791E+02 -0.18317216837E+01  0.21547597041E+02  0.35688450221E+02  0.00000000000E+00 0. -1.
          2    1    6    6  503    0 -0.36887447026E+02  0.49352159560E+02  0.55533162430E+02  0.82947281636E+02  0.00000000000E+00 0. -1.
         -2    1    6    6    0  503 -0.53184484229E+03  0.28232563897E+03  0.41312941120E+03  0.73023462879E+03  0.00000000000E+00 0.  1.
<mgrwt>
<rscale>  0 0.15832743E+04</rscale>
<asrwt>0</asrwt>
<pdfrwt beam="1">  1        2 0.13328885E+00 0.15832743E+04</pdfrwt>
<pdfrwt beam="2">  1       -1 0.11128376E+00 0.15832743E+04</pdfrwt>
<totfact> 0.25163902E+01</totfact>
</mgrwt>
</event>
<event>
11    6  0.1705838E-008  0.1862122E+04  0.7818608E-02  0.8673944E-01
          2   -1    0    0  501    0  0.00000000000E+00  0.00000000000E+00  0.10124554153E+04  0.10124554153E+04  0.00000000000E+00 0. -1.
         -1   -1    0    0    0  501 -0.00000000000E+00 -0.00000000000E+00 -0.85620982535E+03  0.85620982535E+03  0.00000000000E+00 0.  1.
         24    2    1    2    0    0 -0.18099285978E+03  0.52579714981E+03 -0.38658919775E+03  0.68183804967E+03  0.78935797446E+02 0.  0.
        254    2    1    2    0    0  0.18099285978E+03 -0.52579714981E+03  0.54283478766E+03  0.11868271909E+04  0.89703295169E+03 0.  0.
         23    2    4    4    0    0  0.65832935617E+02  0.23488465392E+03  0.12161511356E+03  0.28838696860E+03  0.94191463278E+02 0.  0.
          4    1    3    3  502    0 -0.96105540951E+02  0.33139532551E+03 -0.28040319366E+03  0.44461791213E+03  0.00000000000E+00 0. -1.
         -3    1    3    3    0  502 -0.84887318830E+02  0.19440182430E+03 -0.10618600409E+03  0.23722013754E+03  0.00000000000E+00 0.  1.
         11    1    4    4    0    0  0.13556489531E+03 -0.73918450900E+03  0.36629481489E+03  0.83602839102E+03  0.00000000000E+00 0.  1.
        -11    1    4    4    0    0 -0.20404971146E+02 -0.21497294740E+02  0.54924859206E+02  0.62411831309E+02  0.00000000000E+00 0. -1.
          1    1    5    5  503    0 -0.17430551283E+02  0.80759312346E+02  0.17004643172E+02  0.84350747110E+02  0.00000000000E+00 0. -1.
         -1    1    5    5    0  503  0.83263486901E+02  0.15412534158E+03  0.10461047039E+03  0.20403622149E+03  0.00000000000E+00 0.  1.
<mgrwt>
<rscale>  0 0.18621217E+04</rscale>
<asrwt>0</asrwt>
<pdfrwt beam="1">  1        2 0.15576237E+00 0.18621217E+04</pdfrwt>
<pdfrwt beam="2">  1       -1 0.13172459E+00 0.18621217E+04</pdfrwt>
<totfact> 0.12999382E+01</totfact>
</mgrwt>
</event>
<event>
12    6  0.1705838E-008  0.2117999E+04  0.7818608E-02  0.8553356E-01
          2   -1    0    0  501    0  0.00000000000E+00  0.00000000000E+00  0.38823720547E+04  0.38823720547E+04  0.00000000000E+00 0. -1.
         -1   -1    0    0    0  501 -0.00000000000E+00 -0.00000000000E+00 -0.28886450323E+03  0.28886450323E+03  0.00000000000E+00 0.  1.
         24    2    1    2    0    0  0.18969481857E+03  0.99755073346E+01  0.31190843537E+04  0.31258815987E+04  0.79780501455E+02 0.  0.
        254    2    1    2    0    0 -0.18969481857E+03 -0.99755073346E+01  0.47442319776E+03  0.10453549593E+04  0.91192433092E+03 0.  0.
         23    2    4    4    0    0 -0.17045987960E+03  0.70509186506E+02  0.73014773869E+03  0.76069542228E+03  0.10730186036E+03 0.  0.
         23    2    4    4    0    0 -0.19234938965E+02 -0.80484693841E+02 -0.25572454092E+03  0.28465953697E+03  0.93745625708E+02 0.  0.
          2    1    3    3  502    0  0.15398778034E+03  0.37175431543E+02  0.26191668576E+04  0.26239529869E+04  0.00000000000E+00 0. -1.
         -1    1    3    3    0  502  0.35707038227E+02 -0.27199924209E+02  0.49991749610E+03  0.50192861182E+03  0.00000000000E+00 0.  1.
         11    1    5    5    0    0 -0.18424497488E+03  0.74362822666E+02  0.69168783372E+03  0.71965832134E+03  0.00000000000E+00 0.  1.
        -11    1    5    5    0    0  0.13785095276E+02 -0.38536361601E+01  0.38459904964E+02  0.41037100937E+02  0.00000000000E+00 0. -1.
          2    1    6    6  503    0 -0.88588512404E+01  0.13044857026E+02 -0.45141106680E+01  0.16401973517E+02  0.00000000000E+00 0. -1.
         -2    1    6    6    0  503 -0.10376087725E+02 -0.93529550867E+02 -0.25121043025E+03  0.26825756345E+03  0.00000000000E+00 0.  1.
<mgrwt>
<rscale>  0 0.21179986E+04</rscale>
<asrwt>0</asrwt>
<pdfrwt beam="1">  1        2 0.59728797E+00 0.21179986E+04</pdfrwt>
<pdfrwt beam="2">  1       -1 0.44440695E-01 0.21179986E+04</pdfrwt>
<totfact> 0.22442050E+00</totfact>
</mgrwt>
</event>
<event>
11    6  0.1705838E-008  0.1799808E+04  0.7818608E-02  0.8706402E-01
          2   -1    0    0  501    0  0.00000000000E+00  0.00000000000E+00  0.11229086153E+04  0.11229086153E+04  0.00000000000E+00 0. -1.
         -3   -1    0    0    0  501 -0.00000000000E+00 -0.00000000000E+00 -0.72118679842E+03  0.72118679842E+03  0.00000000000E+00 0.  1.
         24    2    1    2    0    0 -0.18354364704E+03  0.43227971384E+03  0.58874382342E+03  0.75736616176E+03  0.80188477939E+02 0.  0.
        254    2    1    2    0    0  0.18354364704E+03 -0.43227971384E+03 -0.18702200655E+03  0.10867292520E+04  0.96200271037E+03 0.  0.
         23    2    4    4    0    0  0.35309715854E+03  0.68590586350E+02  0.18826630473E+03  0.41619951151E+03  0.91627288421E+02 0.  0.
          4    1    3    3  502    0 -0.17717118928E+03  0.36238074007E+03  0.52864932214E+03  0.66496581633E+03  0.00000000000E+00 0. -1.
         -3    1    3    3    0  502 -0.63724577680E+01  0.69898973765E+02  0.60094501278E+02  0.92400345428E+02  0.00000000000E+00 0.  1.
         11    1    4    4    0    0 -0.79763445369E+02 -0.31378001689E+03 -0.12911020062E+03  0.34855351113E+03  0.00000000000E+00 0. -1.
        -11    1    4    4    0    0 -0.89790066127E+02 -0.18709028330E+03 -0.24617811066E+03  0.32197622932E+03  0.00000000000E+00 0.  1.
          1    1    5    5  503    0  0.34158218677E+03  0.80451683829E+02  0.16532257387E+03  0.38792063258E+03  0.00000000000E+00 0. -1.
         -1    1    5    5    0  503  0.11514971773E+02 -0.11861097479E+02  0.22943730855E+02  0.28278878936E+02  0.00000000000E+00 0.  1.
<mgrwt>
<rscale>  0 0.17998076E+04</rscale>
<asrwt>0</asrwt>
<pdfrwt beam="1">  1        2 0.17275517E+00 0.17998076E+04</pdfrwt>
<pdfrwt beam="2">  1       -3 0.11095181E+00 0.17998076E+04</pdfrwt>
<totfact> 0.86231556E+00</totfact>
</mgrwt>
</event>
<event>
11    6  0.1705838E-008  0.1521270E+04  0.7818608E-02  0.8870430E-01
          2   -1    0    0  501    0  0.00000000000E+00  0.00000000000E+00  0.17662671092E+04  0.17662671092E+04  0.00000000000E+00 0. -1.
         -1   -1    0    0    0  501 -0.00000000000E+00 -0.00000000000E+00 -0.32756413420E+03  0.32756413420E+03  0.00000000000E+00 0.  1.
         24    2    1    2    0    0 -0.37990662904E+03 -0.16112013149E+03  0.10457788033E+03  0.43305556306E+03  0.79447115033E+02 0.  0.
        254    2    1    2    0    0  0.37990662904E+03  0.16112013149E+03  0.13341250947E+04  0.16607756803E+04  0.89888672734E+03 0.  0.
         23    2    4    4    0    0  0.40083294198E+03  0.10177401300E+03  0.23677735075E+03  0.48498017240E+03  0.90095819523E+02 0.  0.
          2    1    3    3  502    0 -0.93552742799E+02 -0.35073842343E+02  0.61276982634E+02  0.11720562573E+03  0.00000000000E+00 0. -1.
         -3    1    3    3    0  502 -0.28635388624E+03 -0.12604628914E+03  0.43300897691E+02  0.31584993733E+03  0.00000000000E+00 0.  1.
         11    1    4    4    0    0  0.14022092354E+03  0.11695855445E+03  0.24016444303E+03  0.30169549309E+03  0.00000000000E+00 0. -1.
        -11    1    4    4    0    0 -0.16114723648E+03 -0.57612435968E+02  0.85718330089E+03  0.87410001483E+03  0.00000000000E+00 0.  1.
          3    1    5    5  503    0  0.63402980108E+02 -0.14191233788E+02  0.51717208963E+02  0.83042150177E+02  0.00000000000E+00 0. -1.
         -3    1    5    5    0  503  0.33742996188E+03  0.11596524679E+03  0.18506014179E+03  0.40193802223E+03  0.00000000000E+00 0.  1.
<mgrwt>
<rscale>  0 0.15212702E+04</rscale>
<asrwt>0</asrwt>
<pdfrwt beam="1">  1        2 0.27173340E+00 0.15212702E+04</pdfrwt>
<pdfrwt beam="2">  1       -1 0.50394483E-01 0.15212702E+04</pdfrwt>
<totfact> 0.39146939E+01</totfact>
</mgrwt>
</event>
<event>
12    6  0.1705838E-008  0.3212251E+04  0.7818608E-02  0.8185589E-01
          2   -1    0    0  501    0  0.00000000000E+00  0.00000000000E+00  0.20634405403E+04  0.20634405403E+04  0.00000000000E+00 0. -1.
         -1   -1    0    0    0  501 -0.00000000000E+00 -0.00000000000E+00 -0.12501637701E+04  0.12501637701E+04  0.00000000000E+00 0.  1.
         24    2    1    2    0    0 -0.14040953947E+04  0.47199739602E+03  0.35902899037E+03  0.15263038061E+04  0.80225141179E+02 0.  0.
        254    2    1    2    0    0  0.14040953947E+04 -0.47199739602E+03  0.45424777984E+03  0.17873005043E+04  0.89097509955E+03 0.  0.
         23    2    4    4    0    0  0.74696859816E+03  0.58248488156E+02  0.54640400989E+03  0.93316332023E+03  0.10431427131E+03 0.  0.
         23    2    4    4    0    0  0.65712679655E+03 -0.53024588418E+03 -0.92156230050E+02  0.85413718411E+03  0.89895684549E+02 0.  0.
          2    1    3    3  502    0 -0.78919619153E+03  0.27874437757E+03  0.24153161480E+03  0.87112948389E+03  0.00000000000E+00 0. -1.
         -1    1    3    3    0  502 -0.61489920318E+03  0.19325301846E+03  0.11749737556E+03  0.65517432221E+03  0.00000000000E+00 0.  1.
         11    1    5    5    0    0  0.71197868988E+03  0.77838733584E+02  0.52138694926E+03  0.88589890740E+03  0.00000000000E+00 0. -1.
        -11    1    5    5    0    0  0.34989908281E+02 -0.19590245427E+02  0.25017060634E+02  0.47264412830E+02  0.00000000000E+00 0.  1.
          2    1    6    6  503    0  0.64379435773E+03 -0.51543300656E+03 -0.10354674841E+03  0.83118246397E+03  0.00000000000E+00 0. -1.
         -2    1    6    6    0  503  0.13332438820E+02 -0.14812877614E+02  0.11390518358E+02  0.22954720137E+02  0.00000000000E+00 0.  1.
<mgrwt>
<rscale>  0 0.32122507E+04</rscale>
<asrwt>0</asrwt>
<pdfrwt beam="1">  1        2 0.31745239E+00 0.32122507E+04</pdfrwt>
<pdfrwt beam="2">  1       -1 0.19233289E+00 0.32122507E+04</pdfrwt>
<totfact> 0.10026789E+00</totfact>
</mgrwt>
</event>
<event>
11    6  0.1705838E-008  0.1189116E+04  0.7818608E-02  0.9122437E-01
          2   -1    0    0  501    0  0.00000000000E+00  0.00000000000E+00  0.36593784472E+03  0.36593784472E+03  0.00000000000E+00 0. -1.
         -1   -1    0    0    0  501 -0.00000000000E+00 -0.00000000000E+00 -0.96600892401E+03  0.96600892401E+03  0.00000000000E+00 0.  1.
         24    2    1    2    0    0  0.14577777865E+03  0.14805768369E+03  0.21147665369E+02  0.22399311757E+03  0.80953409576E+02 0.  0.
        254    2    1    2    0    0 -0.14577777865E+03 -0.14805768369E+03 -0.62121874466E+03  0.11079536512E+04  0.89357502537E+03 0.  0.
         23    2    4    4    0    0  0.22476155661E+03  0.22850684798E+03 -0.65983905901E+02  0.33967377423E+03  0.91056357060E+02 0.  0.
          2    1    3    3  502    0  0.84542575544E+02  0.11345988528E+03  0.46944254630E+02  0.14907835420E+03  0.00000000000E+00 0. -1.
         -1    1    3    3    0  502  0.61235203104E+02  0.34597798411E+02 -0.25796589262E+02  0.74914763376E+02  0.00000000000E+00 0.  1.
         11    1    4    4    0    0 -0.26619950471E+03 -0.27245537691E+03 -0.43382175409E+03  0.57731743698E+03  0.00000000000E+00 0. -1.
        -11    1    4    4    0    0 -0.10433983054E+03 -0.10410915476E+03 -0.12141308466E+03  0.19096243995E+03  0.00000000000E+00 0.  1.
          3    1    5    5  503    0  0.19047826927E+03  0.23030024016E+03 -0.58456532582E+02  0.30452805763E+03  0.00000000000E+00 0. -1.
         -3    1    5    5    0  503  0.34283287342E+02 -0.17933921836E+01 -0.75273733190E+01  0.35145716604E+02  0.00000000000E+00 0.  1.
<mgrwt>
<rscale>  0 0.11891160E+04</rscale>
<asrwt>0</asrwt>
<pdfrwt beam="1">  1        2 0.56298131E-01 0.11891160E+04</pdfrwt>
<pdfrwt beam="2">  1       -1 0.14861676E+00 0.11891160E+04</pdfrwt>
<totfact> 0.35553696E+01</totfact>
</mgrwt>
</event>
<event>
12    6  0.1705838E-008  0.1461614E+04  0.7818608E-02  0.8910388E-01
         -1   -1    0    0    0  501 -0.00000000000E+00  0.00000000000E+00  0.82455477052E+03  0.82455477052E+03  0.00000000000E+00 0.  1.
          2   -1    0    0  501    0  0.00000000000E+00 -0.00000000000E+00 -0.64771804734E+03  0.64771804734E+03  0.00000000000E+00 0. -1.
         24    2    1    2    0    0 -0.83016588823E+02 -0.37135793674E+03 -0.18222655777E+03  0.42889369432E+03  0.77102603528E+02 0.  0.
        254    2    1    2    0    0  0.83016588823E+02  0.37135793674E+03  0.35906328095E+03  0.10433791235E+04  0.90272647269E+03 0.  0.
         23    2    4    4    0    0  0.12061452528E+03 -0.25962589392E+03 -0.10853406291E+02  0.30530689744E+03  0.10555110940E+03 0.  0.
         23    2    4    4    0    0 -0.37597936456E+02  0.63098383066E+03  0.36991668724E+03  0.73807222609E+03  0.91422404515E+02 0.  0.
          4    1    3    3  502    0 -0.57077791197E+02 -0.17495165083E+03 -0.12575447274E+03  0.22289042553E+03  0.00000000000E+00 0. -1.
         -3    1    3    3    0  502 -0.25938797625E+02 -0.19640628590E+03 -0.56472085032E+02  0.20600326879E+03  0.00000000000E+00 0.  1.
         11    1    5    5    0    0  0.59701809938E+01  0.84242492350E+00 -0.19684952431E+02  0.20587619898E+02  0.00000000000E+00 0. -1.
        -11    1    5    5    0    0  0.11464434429E+03 -0.26046831884E+03  0.88315461402E+01  0.28471927754E+03  0.00000000000E+00 0.  1.
          2    1    6    6  503    0  0.19781751453E+02  0.18299623511E+03  0.14010752052E+03  0.23132024784E+03  0.00000000000E+00 0. -1.
         -2    1    6    6    0  503 -0.57379687909E+02  0.44798759555E+03  0.22980916672E+03  0.50675197825E+03  0.00000000000E+00 0.  1.
<mgrwt>
<rscale>  0 0.14616142E+04</rscale>
<asrwt>0</asrwt>
<pdfrwt beam="1">  1        2 0.99648930E-01 0.14616142E+04</pdfrwt>
<pdfrwt beam="2">  1       -1 0.12685458E+00 0.14616142E+04</pdfrwt>
<totfact> 0.26972348E+01</totfact>
</mgrwt>
</event>
<event>
11    6  0.1705838E-008  0.1885473E+04  0.7818608E-02  0.8662121E-01
          2   -1    0    0  501    0  0.00000000000E+00  0.00000000000E+00  0.17084212291E+04  0.17084212291E+04  0.00000000000E+00 0. -1.
         -1   -1    0    0    0  501 -0.00000000000E+00 -0.00000000000E+00 -0.52021828599E+03  0.52021828599E+03  0.00000000000E+00 0.  1.
         24    2    1    2    0    0  0.67496524644E+03 -0.21831417644E+03  0.54220690713E+03  0.89648948405E+03  0.80410828488E+02 0.  0.
        254    2    1    2    0    0 -0.67496524644E+03  0.21831417644E+03  0.64599603599E+03  0.13321500311E+04  0.92416105911E+03 0.  0.
         23    2    4    4    0    0 -0.69334544825E+03 -0.41077810184E+02  0.45027049181E+03  0.83199873759E+03  0.84042170774E+02 0.  0.
          4    1    3    3  502    0  0.43030371351E+03 -0.10477027944E+03  0.36332858417E+03  0.57284008012E+03  0.00000000000E+00 0. -1.
         -1    1    3    3    0  502  0.24466153293E+03 -0.11354389699E+03  0.17887832296E+03  0.32364940393E+03  0.00000000000E+00 0.  1.
         11    1    4    4    0    0 -0.17300073868E+03  0.71337723649E+02  0.45250283864E+02  0.19252510119E+03  0.00000000000E+00 0. -1.
        -11    1    4    4    0    0  0.19138094048E+03  0.18805426297E+03  0.15047526032E+03  0.30762619227E+03  0.00000000000E+00 0.  1.
          4    1    5    5  503    0 -0.77123230539E+02  0.17306253078E+02  0.33879336043E+02  0.85995979529E+02  0.00000000000E+00 0. -1.
         -4    1    5    5    0  503 -0.61622221771E+03 -0.58384063262E+02  0.41639115577E+03  0.74600275806E+03  0.00000000000E+00 0.  1.
<mgrwt>
<rscale>  0 0.18854728E+04</rscale>
<asrwt>0</asrwt>
<pdfrwt beam="1">  1        2 0.26283403E+00 0.18854728E+04</pdfrwt>
<pdfrwt beam="2">  1       -1 0.80033584E-01 0.18854728E+04</pdfrwt>
<totfact> 0.16147593E+01</totfact>
</mgrwt>
</event>
<event>
12    6  0.1705838E-008  0.1249113E+04  0.7818608E-02  0.9070922E-01
         -1   -1    0    0    0  501 -0.00000000000E+00  0.00000000000E+00  0.85395699130E+03  0.85395699130E+03  0.00000000000E+00 0.  1.
          2   -1    0    0  501    0  0.00000000000E+00 -0.00000000000E+00 -0.45678032646E+03  0.45678032646E+03  0.00000000000E+00 0. -1.
         24    2    1    2    0    0 -0.14717325032E+03 -0.22038514495E+03  0.21572935406E+03  0.35157629210E+03  0.82687104436E+02 0.  0.
        254    2    1    2    0    0  0.14717325032E+03  0.22038514495E+03  0.18144731078E+03  0.95916102566E+03  0.90379044520E+03 0.  0.
         23    2    4    4    0    0 -0.31047448077E+03  0.25119482542E+03  0.26438736552E+03  0.48536581588E+03  0.78651463067E+02 0.  0.
         23    2    4    4    0    0  0.45764773110E+03 -0.30809680473E+02 -0.82940054742E+02  0.47379520978E+03  0.84924471995E+02 0.  0.
          4    1    3    3  502    0 -0.12924827370E+03 -0.19965154991E+03  0.15214543002E+03  0.28233683697E+03  0.00000000000E+00 0. -1.
         -3    1    3    3    0  502 -0.17924976624E+02 -0.20733595038E+02  0.63583924041E+02  0.69239455130E+02  0.00000000000E+00 0.  1.
         11    1    5    5    0    0 -0.23877268053E+02  0.24899369626E+02 -0.63504687920E-01  0.34497921245E+02  0.00000000000E+00 0. -1.
        -11    1    5    5    0    0 -0.28659721272E+03  0.22629545580E+03  0.26445087021E+03  0.45086789463E+03  0.00000000000E+00 0.  1.
          4    1    6    6  503    0 -0.30316673883E+01  0.18464696062E+01  0.22019157208E+01  0.41771868526E+01  0.00000000000E+00 0. -1.
         -4    1    6    6    0  503  0.46067939849E+03 -0.32656150079E+02 -0.85141970463E+02  0.46961802293E+03  0.00000000000E+00 0.  1.
<mgrwt>
<rscale>  0 0.12491129E+04</rscale>
<asrwt>0</asrwt>
<pdfrwt beam="1">  1        2 0.70273896E-01 0.12491129E+04</pdfrwt>
<pdfrwt beam="2">  1       -1 0.13137800E+00 0.12491129E+04</pdfrwt>
<totfact> 0.37990964E+01</totfact>
</mgrwt>
</event>
<event>
11    6  0.1705838E-008  0.2484893E+04  0.7818608E-02  0.8408387E-01
         -1   -1    0    0    0  501 -0.00000000000E+00  0.00000000000E+00  0.46612875043E+03  0.46612875043E+03  0.00000000000E+00 0.  1.
          2   -1    0    0  501    0  0.00000000000E+00 -0.00000000000E+00 -0.33116898169E+04  0.33116898169E+04  0.00000000000E+00 0. -1.
         24    2    1    2    0    0 -0.62119721528E+03 -0.23441332596E+03  0.54952469546E+02  0.67096711826E+03  0.79633612390E+02 0.  0.
        254    2    1    2    0    0  0.62119721528E+03  0.23441332596E+03 -0.29005135360E+04  0.31068514490E+04  0.89370664439E+03 0.  0.
         23    2    4    4    0    0  0.66711222225E+03 -0.52188262808E+02 -0.12962115986E+04  0.14617536149E+04  0.93791207060E+02 0.  0.
          2    1    3    3  502    0 -0.18111396156E+02 -0.15883991412E+02 -0.10299717901E+02  0.26199390121E+02  0.00000000000E+00 0. -1.
         -1    1    3    3    0  502 -0.60308581913E+03 -0.21852933454E+03  0.65252187447E+02  0.64476772814E+03  0.00000000000E+00 0.  1.
         11    1    4    4    0    0 -0.69386488053E+02  0.45016182128E+02 -0.81836406143E+03  0.82253308652E+03  0.00000000000E+00 0. -1.
        -11    1    4    4    0    0  0.23471481082E+02  0.24158540664E+03 -0.78593787591E+03  0.82256474755E+03  0.00000000000E+00 0.  1.
          3    1    5    5  503    0  0.60911569985E+03 -0.28486326006E+02 -0.12124285931E+04  0.13571354022E+04  0.00000000000E+00 0. -1.
         -3    1    5    5    0  503  0.57996522404E+02 -0.23701936802E+02 -0.83783005521E+02  0.10461821272E+03  0.00000000000E+00 0.  1.
<mgrwt>
<rscale>  0 0.24848934E+04</rscale>
<asrwt>0</asrwt>
<pdfrwt beam="1">  1        2 0.50949074E+00 0.24848934E+04</pdfrwt>
<pdfrwt beam="2">  1       -1 0.71712115E-01 0.24848934E+04</pdfrwt>
<totfact> 0.21825860E+00</totfact>
</mgrwt>
</event>
<event>
12    6  0.1705838E-008  0.1280619E+04  0.7818608E-02  0.9045077E-01
         -1   -1    0    0    0  501 -0.00000000000E+00  0.00000000000E+00  0.44726929109E+03  0.44726929109E+03  0.00000000000E+00 0.  1.
          2   -1    0    0  501    0  0.00000000000E+00 -0.00000000000E+00 -0.91666548272E+03  0.91666548272E+03  0.00000000000E+00 0. -1.
         24    2    1    2    0    0  0.12404813874E+03  0.40828161628E+02 -0.42733774141E+03  0.45383676208E+03  0.79343442522E+02 0.  0.
        254    2    1    2    0    0 -0.12404813874E+03 -0.40828161628E+02 -0.42058450215E+02  0.91009801173E+03  0.89969694798E+03 0.  0.
         23    2    4    4    0    0 -0.24749603056E+03 -0.12132715206E+03  0.36778644426E+03  0.46522208471E+03  0.72042741143E+02 0.  0.
         23    2    4    4    0    0  0.12344789182E+03  0.80498990431E+02 -0.40984489448E+03  0.44487592702E+03  0.90676807692E+02 0.  0.
          2    1    3    3  502    0  0.61764165872E+02  0.56658860888E+02 -0.29571115991E+03  0.30735993363E+03  0.00000000000E+00 0. -1.
         -1    1    3    3    0  502  0.62283972869E+02 -0.15830699261E+02 -0.13162658150E+03  0.14647682845E+03  0.00000000000E+00 0.  1.
         11    1    5    5    0    0 -0.59199173266E+02 -0.26986493664E+02  0.42511526316E+02  0.77717712430E+02  0.00000000000E+00 0.  1.
        -11    1    5    5    0    0 -0.18829685730E+03 -0.94340658395E+02  0.32527491795E+03  0.38750437228E+03  0.00000000000E+00 0. -1.
          3    1    6    6  503    0  0.60684561616E+02 -0.30352286652E+01 -0.21932445151E+03  0.22758524483E+03  0.00000000000E+00 0. -1.
         -3    1    6    6    0  503  0.62763330207E+02  0.83534219096E+02 -0.19052044296E+03  0.21729068219E+03  0.00000000000E+00 0.  1.
<mgrwt>
<rscale>  0 0.12806191E+04</rscale>
<asrwt>0</asrwt>
<pdfrwt beam="1">  1        2 0.14102546E+00 0.12806191E+04</pdfrwt>
<pdfrwt beam="2">  1       -1 0.68810662E-01 0.12806191E+04</pdfrwt>
<totfact> 0.68404231E+01</totfact>
</mgrwt>
</event>
<event>
12    6  0.1705838E-008  0.2027613E+04  0.7818608E-02  0.8593819E-01
         -1   -1    0    0    0  501 -0.00000000000E+00  0.00000000000E+00  0.76604152143E+03  0.76604152143E+03  0.00000000000E+00 0.  1.
          2   -1    0    0  501    0  0.00000000000E+00 -0.00000000000E+00 -0.13417072089E+04  0.13417072089E+04  0.00000000000E+00 0. -1.
         24    2    1    2    0    0  0.37718838459E+03 -0.43592784270E+03 -0.82627323152E+03  0.10113349378E+04  0.88129120069E+02 0.  0.
        254    2    1    2    0    0 -0.37718838459E+03  0.43592784270E+03  0.25060754407E+03  0.10964137925E+04  0.89834008132E+03 0.  0.
         23    2    4    4    0    0 -0.54726036130E+03  0.32392902738E+03  0.46159906063E+03  0.78930080718E+03  0.74149535450E+02 0.  0.
         23    2    4    4    0    0  0.17007197671E+03  0.11199881532E+03 -0.21099151656E+03  0.30711298531E+03  0.91283918585E+02 0.  0.
          2    1    3    3  502    0  0.32508018763E+03 -0.35005951042E+03 -0.62779280870E+03  0.78888693733E+03  0.00000000000E+00 0. -1.
         -1    1    3    3    0  502  0.52108196959E+02 -0.85868332284E+02 -0.19848042282E+03  0.22244800049E+03  0.00000000000E+00 0.  1.
         11    1    5    5    0    0 -0.85069685157E+02  0.66326572490E+02  0.10962164791E+03  0.15379522503E+03  0.00000000000E+00 0. -1.
        -11    1    5    5    0    0 -0.46219067614E+03  0.25760245489E+03  0.35197741273E+03  0.63550558216E+03  0.00000000000E+00 0.  1.
          3    1    6    6  503    0  0.45930163833E+02  0.26975481115E+02 -0.11995589297E+03  0.13125042015E+03  0.00000000000E+00 0. -1.
         -3    1    6    6    0  503  0.12414181288E+03  0.85023334202E+02 -0.91035623592E+02  0.17586256516E+03  0.00000000000E+00 0.  1.
<mgrwt>
<rscale>  0 0.20276128E+04</rscale>
<asrwt>0</asrwt>
<pdfrwt beam="1">  1        2 0.20641649E+00 0.20276128E+04</pdfrwt>
<pdfrwt beam="2">  1       -1 0.11785254E+00 0.20276128E+04</pdfrwt>
<totfact> 0.10687525E+01</totfact>
</mgrwt>
</event>
<event>
12    6  0.1705838E-008  0.1321056E+04  0.7818608E-02  0.9013033E-01
          2   -1    0    0  501    0  0.00000000000E+00  0.00000000000E+00  0.92888703785E+03  0.92888703785E+03  0.00000000000E+00 0. -1.
         -1   -1    0    0    0  501 -0.00000000000E+00 -0.00000000000E+00 -0.46969862877E+03  0.46969862877E+03  0.00000000000E+00 0.  1.
         24    2    1    2    0    0 -0.46832476224E+01  0.25030357392E+03  0.37736286929E+03  0.45994514882E+03  0.80454912109E+02 0.  0.
        254    2    1    2    0    0  0.46832476224E+01 -0.25030357392E+03  0.81825539791E+02  0.93864051780E+03  0.90093106882E+03 0.  0.
         23    2    4    4    0    0  0.19067600783E+03  0.72810939028E+01 -0.33872583311E+03  0.40394754485E+03  0.10967257944E+03 0.  0.
         23    2    4    4    0    0 -0.18599276020E+03 -0.25758466782E+03  0.42055137290E+03  0.53469297295E+03  0.89944150041E+02 0.  0.
          2    1    3    3  502    0 -0.19183553203E+02  0.23864180304E+03  0.36823037926E+03  0.43921695218E+03  0.00000000000E+00 0. -1.
         -1    1    3    3    0  502  0.14500305581E+02  0.11661770873E+02  0.91324900303E+01  0.20728196641E+02  0.00000000000E+00 0.  1.
         11    1    5    5    0    0  0.15243189003E+03 -0.34390705390E+02 -0.28943006690E+03  0.32891939034E+03  0.00000000000E+00 0.  1.
        -11    1    5    5    0    0  0.38244117801E+02  0.41671799292E+02 -0.49295766212E+02  0.75028154509E+02  0.00000000000E+00 0. -1.
          1    1    6    6  503    0 -0.41975082468E+02 -0.14028295269E+02  0.34830642858E+02  0.56319395400E+02  0.00000000000E+00 0. -1.
         -1    1    6    6    0  503 -0.14401767774E+03 -0.24355637255E+03  0.38572073005E+03  0.47837357755E+03  0.00000000000E+00 0.  1.
<mgrwt>
<rscale>  0 0.13210556E+04</rscale>
<asrwt>0</asrwt>
<pdfrwt beam="1">  1        2 0.14290570E+00 0.13210556E+04</pdfrwt>
<pdfrwt beam="2">  1       -1 0.72261328E-01 0.13210556E+04</pdfrwt>
<totfact> 0.60520760E+01</totfact>
</mgrwt>
</event>
<event>
12    6  0.1705838E-008  0.3826871E+04  0.7818608E-02  0.8040413E-01
          2   -1    0    0  501    0  0.00000000000E+00  0.00000000000E+00  0.11779267671E+04  0.11779267671E+04  0.00000000000E+00 0. -1.
         -1   -1    0    0    0  501 -0.00000000000E+00 -0.00000000000E+00 -0.31082028136E+04  0.31082028136E+04  0.00000000000E+00 0.  1.
         24    2    1    2    0    0  0.48399927332E+03  0.17394841387E+04 -0.87571593241E+03  0.20082929301E+04  0.79383457425E+02 0.  0.
        254    2    1    2    0    0 -0.48399927332E+03 -0.17394841387E+04 -0.10545601141E+04  0.22778366505E+04  0.90353882423E+03 0.  0.
         23    2    4    4    0    0  0.19775477617E+03 -0.84256159359E+03 -0.31594170402E+03  0.92731880422E+03  0.10528064321E+03 0.  0.
         23    2    4    4    0    0 -0.68175404949E+03 -0.89692254515E+03 -0.73861841005E+03  0.13505178463E+04  0.95302998884E+02 0.  0.
          2    1    3    3  502    0  0.11856252175E+03  0.35719334082E+03 -0.15343983786E+03  0.40643319024E+03  0.00000000000E+00 0. -1.
         -1    1    3    3    0  502  0.36543675157E+03  0.13822907979E+04 -0.72227609456E+03  0.16018597399E+04  0.00000000000E+00 0.  1.
         11    1    5    5    0    0  0.10564836931E+03 -0.23962859086E+03 -0.98168623044E+02  0.27967931287E+03  0.00000000000E+00 0. -1.
        -11    1    5    5    0    0  0.92106406861E+02 -0.60293300273E+03 -0.21777308098E+03  0.64763949135E+03  0.00000000000E+00 0.  1.
          3    1    6    6  503    0 -0.39975664735E+03 -0.57071044041E+03 -0.41099541570E+03  0.80897034286E+03  0.00000000000E+00 0. -1.
         -3    1    6    6    0  503 -0.28199740214E+03 -0.32621210474E+03 -0.32762299434E+03  0.54154750347E+03  0.00000000000E+00 0.  1.
<mgrwt>
<rscale>  0 0.38268709E+04</rscale>
<asrwt>0</asrwt>
<pdfrwt beam="1">  1        2 0.18121951E+00 0.38268709E+04</pdfrwt>
<pdfrwt beam="2">  1       -1 0.47818504E+00 0.38268709E+04</pdfrwt>
<totfact> 0.36977523E-02</totfact>
</mgrwt>
</event>
<event>
11    6  0.1705838E-008  0.1362965E+04  0.7818608E-02  0.8981071E-01
          2   -1    0    0  501    0  0.00000000000E+00  0.00000000000E+00  0.72083814306E+03  0.72083814306E+03  0.00000000000E+00 0. -1.
         -1   -1    0    0    0  501 -0.00000000000E+00 -0.00000000000E+00 -0.64427598289E+03  0.64427598289E+03  0.00000000000E+00 0.  1.
         24    2    1    2    0    0 -0.21891210645E+02 -0.38333228158E+02  0.38757495968E+03  0.39921331897E+03  0.84901491059E+02 0.  0.
        254    2    1    2    0    0  0.21891210645E+02  0.38333228158E+02 -0.31101279951E+03  0.96590080699E+03  0.91339298552E+03 0.  0.
         23    2    4    4    0    0  0.24626773594E+03  0.17320953318E+03 -0.33274866365E+03  0.45785622882E+03  0.90891765082E+02 0.  0.
          4    1    3    3  502    0  0.64093951570E+01 -0.23610828968E+02  0.34573284263E+03  0.34659738900E+03  0.00000000000E+00 0. -1.
         -3    1    3    3    0  502 -0.28300605802E+02 -0.14722399190E+02  0.41842117053E+02  0.52615929965E+02  0.00000000000E+00 0.  1.
         11    1    4    4    0    0 -0.32879157019E+03 -0.19382594728E+03 -0.16964700261E+02  0.38204737340E+03  0.00000000000E+00 0.  1.
        -11    1    4    4    0    0  0.10441504490E+03  0.58949642260E+02  0.38700564405E+02  0.12599720476E+03  0.00000000000E+00 0. -1.
          4    1    5    5  503    0  0.19600462243E+03  0.17479524144E+03 -0.29508839829E+03  0.39502955744E+03  0.00000000000E+00 0. -1.
         -4    1    5    5    0  503  0.50263113509E+02 -0.15857082539E+01 -0.37660265356E+02  0.62826671383E+02  0.00000000000E+00 0.  1.
<mgrwt>
<rscale>  0 0.13629654E+04</rscale>
<asrwt>0</asrwt>
<pdfrwt beam="1">  1        2 0.11089818E+00 0.13629654E+04</pdfrwt>
<pdfrwt beam="2">  1       -1 0.99119382E-01 0.13629654E+04</pdfrwt>
<totfact> 0.42804768E+01</totfact>
</mgrwt>
</event>
<event>
12    6  0.1705838E-008  0.2452752E+04  0.7818608E-02  0.8420014E-01
          2   -1    0    0  501    0  0.00000000000E+00  0.00000000000E+00  0.15397275970E+04  0.15397275970E+04  0.00000000000E+00 0. -1.
         -1   -1    0    0    0  501 -0.00000000000E+00 -0.00000000000E+00 -0.97679478070E+03  0.97679478070E+03  0.00000000000E+00 0.  1.
         24    2    1    2    0    0 -0.90241116325E+03 -0.20152275850E+03  0.77559146044E+03  0.12094397967E+04  0.79026442722E+02 0.  0.
        254    2    1    2    0    0  0.90241116325E+03  0.20152275850E+03 -0.21265864416E+03  0.13070825809E+04  0.89904607486E+03 0.  0.
         23    2    4    4    0    0  0.91699263619E+03  0.43485605707E+03 -0.26150221701E+03  0.10509709243E+04  0.78620537758E+02 0.  0.
         23    2    4    4    0    0 -0.14581472941E+02 -0.23333329857E+03  0.48843572854E+02  0.25611165668E+03  0.92468581152E+02 0.  0.
          4    1    3    3  502    0 -0.40837613949E+03 -0.11187976555E+03  0.39905908101E+03  0.58183872626E+03  0.00000000000E+00 0. -1.
         -3    1    3    3    0  502 -0.49403502377E+03 -0.89642992945E+02  0.37653237943E+03  0.62760107047E+03  0.00000000000E+00 0.  1.
         11    1    5    5    0    0  0.71781352375E+02  0.11941808764E+02 -0.21005578835E+02  0.75739049951E+02  0.00000000000E+00 0.  1.
        -11    1    5    5    0    0  0.84521128382E+03  0.42291424831E+03 -0.24049663818E+03  0.97523187432E+03  0.00000000000E+00 0. -1.
          2    1    6    6  503    0  0.14444643983E+02 -0.21678149751E+03  0.35554097509E+02  0.22015212752E+03  0.00000000000E+00 0. -1.
         -2    1    6    6    0  503 -0.29026116923E+02 -0.16551801062E+02  0.13289475345E+02  0.35959529154E+02  0.00000000000E+00 0.  1.
<mgrwt>
<rscale>  0 0.24527518E+04</rscale>
<asrwt>0</asrwt>
<pdfrwt beam="1">  1        2 0.23688117E+00 0.24527518E+04</pdfrwt>
<pdfrwt beam="2">  1       -1 0.15027612E+00 0.24527518E+04</pdfrwt>
<totfact> 0.42681222E+00</totfact>
</mgrwt>
</event>
<event>
12    6  0.1705838E-008  0.1683957E+04  0.7818608E-02  0.8770568E-01
         -1   -1    0    0    0  501 -0.00000000000E+00  0.00000000000E+00  0.10062699960E+04  0.10062699960E+04  0.00000000000E+00 0.  1.
          2   -1    0    0  501    0  0.00000000000E+00 -0.00000000000E+00 -0.70451034077E+03  0.70451034077E+03  0.00000000000E+00 0. -1.
         24    2    1    2    0    0  0.16543844880E+03 -0.54754121914E+03  0.26531643543E+03  0.63575687890E+03  0.81380164408E+02 0.  0.
        254    2    1    2    0    0 -0.16543844880E+03  0.54754121914E+03  0.36443219756E+02  0.10750234578E+04  0.90949219876E+03 0.  0.
         23    2    4    4    0    0  0.39437765902E+02 -0.21499528945E+03  0.14917441173E+03  0.27198142526E+03  0.62789957032E+02 0.  0.
         23    2    4    4    0    0 -0.20487621470E+03  0.76253650859E+03 -0.11273119198E+03  0.80304203257E+03  0.93445139731E+02 0.  0.
          2    1    3    3  502    0  0.73522967273E+02 -0.20389471919E+03  0.14264407088E+03  0.25947256924E+03  0.00000000000E+00 0. -1.
         -1    1    3    3    0  502  0.91915481523E+02 -0.34364649995E+03  0.12267236455E+03  0.37628430966E+03  0.00000000000E+00 0.  1.
         11    1    5    5    0    0  0.52189229516E+02 -0.19773195472E+03  0.12511408726E+03  0.23973980985E+03  0.00000000000E+00 0. -1.
        -11    1    5    5    0    0 -0.12751463614E+02 -0.17263334724E+02  0.24060324477E+02  0.32241615407E+02  0.00000000000E+00 0.  1.
          4    1    6    6  503    0 -0.80017000304E+02  0.15951197195E+03 -0.40599720431E+02  0.18301673922E+03  0.00000000000E+00 0. -1.
         -4    1    6    6    0  503 -0.12485921439E+03  0.60302453664E+03 -0.72131471545E+02  0.62002529335E+03  0.00000000000E+00 0.  1.
<mgrwt>
<rscale>  0 0.16839568E+04</rscale>
<asrwt>0</asrwt>
<pdfrwt beam="1">  1        2 0.10838621E+00 0.16839568E+04</pdfrwt>
<pdfrwt beam="2">  1       -1 0.15481077E+00 0.16839568E+04</pdfrwt>
<totfact> 0.14158571E+01</totfact>
</mgrwt>
</event>
<event>
11    6  0.1705838E-008  0.2122916E+04  0.7818608E-02  0.8551215E-01
          2   -1    0    0  501    0  0.00000000000E+00  0.00000000000E+00  0.13150023837E+04  0.13150023837E+04  0.00000000000E+00 0. -1.
         -1   -1    0    0    0  501 -0.00000000000E+00 -0.00000000000E+00 -0.85679951081E+03  0.85679951081E+03  0.00000000000E+00 0.  1.
         24    2    1    2    0    0  0.24202175479E+02 -0.23803469154E+03 -0.66622338573E+03  0.71233268941E+03  0.79485854254E+02 0.  0.
        254    2    1    2    0    0 -0.24202175479E+02  0.23803469154E+03  0.11244262586E+04  0.14594692051E+04  0.89914942577E+03 0.  0.
         23    2    4    4    0    0  0.51267974710E+02  0.12646631226E+03 -0.11641717577E+03  0.19993999247E+03  0.88322751360E+02 0.  0.
          2    1    3    3  502    0  0.61154399210E+00 -0.15971821596E+02 -0.13692136604E+03  0.13785112822E+03  0.00000000000E+00 0. -1.
         -1    1    3    3    0  502  0.23590631487E+02 -0.22206286995E+03 -0.52930201969E+03  0.57448156119E+03  0.00000000000E+00 0.  1.
         11    1    4    4    0    0 -0.10502561481E+03  0.99590775753E+01  0.48706970605E+03  0.49836378435E+03  0.00000000000E+00 0. -1.
        -11    1    4    4    0    0  0.29555464619E+02  0.10160930171E+03  0.75377372833E+03  0.76116542828E+03  0.00000000000E+00 0.  1.
          1    1    5    5  503    0  0.23174730893E+00 -0.10602861591E+02 -0.25766817905E+02  0.27864014170E+02  0.00000000000E+00 0. -1.
         -1    1    5    5    0  503  0.51036227401E+02  0.13706917385E+03 -0.90650357860E+02  0.17207597830E+03  0.00000000000E+00 0.  1.
<mgrwt>
<rscale>  0 0.21229163E+04</rscale>
<asrwt>0</asrwt>
<pdfrwt beam="1">  1        2 0.20230806E+00 0.21229163E+04</pdfrwt>
<pdfrwt beam="2">  1       -1 0.13181531E+00 0.21229163E+04</pdfrwt>
<totfact> 0.83170187E+00</totfact>
</mgrwt>
</event>
<event>
12    6  0.1705838E-008  0.5443908E+04  0.7818608E-02  0.7763455E-01
         -1   -1    0    0    0  501 -0.00000000000E+00  0.00000000000E+00  0.18327788279E+04  0.18327788279E+04  0.00000000000E+00 0.  1.
          2   -1    0    0  501    0  0.00000000000E+00 -0.00000000000E+00 -0.40425130381E+04  0.40425130381E+04  0.00000000000E+00 0. -1.
         24    2    1    2    0    0  0.10462392852E+04 -0.79780725249E+03 -0.35519818236E+04  0.37887524279E+04  0.83408817396E+02 0.  0.
        254    2    1    2    0    0 -0.10462392852E+04  0.79780725249E+03  0.13422476134E+04  0.20865394380E+04  0.90603814299E+03 0.  0.
         23    2    4    4    0    0 -0.21062297478E+03  0.72082471974E+02  0.83310801417E+03  0.86483826257E+03  0.65714053779E+02 0.  0.
         23    2    4    4    0    0 -0.83561631038E+03  0.72572478052E+03  0.50913959927E+03  0.12217011754E+04  0.91649087483E+02 0.  0.
          2    1    3    3  502    0  0.83816232408E+03 -0.61352970286E+03 -0.28779437307E+04  0.30596560092E+04  0.00000000000E+00 0. -1.
         -1    1    3    3    0  502  0.20807696107E+03 -0.18427754963E+03 -0.67403809298E+03  0.72909641874E+03  0.00000000000E+00 0.  1.
         11    1    5    5    0    0 -0.19890321974E+03  0.58307293926E+02  0.80618744145E+03  0.83240640441E+03  0.00000000000E+00 0. -1.
        -11    1    5    5    0    0 -0.11719755036E+02  0.13775178048E+02  0.26920572721E+02  0.32431858164E+02  0.00000000000E+00 0.  1.
          1    1    6    6  503    0 -0.82856072331E+03  0.70316054826E+03  0.50155231005E+03  0.11968719015E+04  0.00000000000E+00 0. -1.
         -1    1    6    6    0  503 -0.70555870684E+01  0.22564232261E+02  0.75872892232E+01  0.24829273935E+02  0.00000000000E+00 0.  1.
<mgrwt>
<rscale>  0 0.54439075E+04</rscale>
<asrwt>0</asrwt>
<pdfrwt beam="1">  1        2 0.62192508E+00 0.54439075E+04</pdfrwt>
<pdfrwt beam="2">  1       -1 0.28196598E+00 0.54439075E+04</pdfrwt>
<totfact> 0.10836373E-02</totfact>
</mgrwt>
</event>
<event>
12    6  0.1705838E-008  0.1810887E+04  0.7818608E-02  0.8700531E-01
          2   -1    0    0  501    0  0.00000000000E+00  0.00000000000E+00  0.86007216632E+03  0.86007216632E+03  0.00000000000E+00 0. -1.
         -1   -1    0    0    0  501 -0.00000000000E+00 -0.00000000000E+00 -0.95320823077E+03  0.95320823077E+03  0.00000000000E+00 0.  1.
         24    2    1    2    0    0  0.36390404813E+03  0.30407037080E+03  0.46710118131E+03  0.66980739526E+03  0.74655786972E+02 0.  0.
        254    2    1    2    0    0 -0.36390404813E+03 -0.30407037080E+03 -0.56023724575E+03  0.11434730018E+04  0.87680088260E+03 0.  0.
         23    2    4    4    0    0 -0.28502501612E+03  0.64361498571E+02  0.13828313966E+03  0.34372414097E+03  0.11680066807E+03 0.  0.
         23    2    4    4    0    0 -0.78879032017E+02 -0.36843186937E+03 -0.69852038541E+03  0.79974886085E+03  0.98506687812E+02 0.  0.
          2    1    3    3  502    0  0.15850517703E+03  0.11186185898E+03  0.23772355527E+03  0.30683783237E+03  0.00000000000E+00 0. -1.
         -1    1    3    3    0  502  0.20539887110E+03  0.19220851182E+03  0.22937762603E+03  0.36296956289E+03  0.00000000000E+00 0.  1.
         11    1    5    5    0    0 -0.35748106644E+02 -0.25427017419E+02  0.44956129238E+02  0.62813325812E+02  0.00000000000E+00 0. -1.
        -11    1    5    5    0    0 -0.24927690947E+03  0.89788515990E+02  0.93327010419E+02  0.28091081516E+03  0.00000000000E+00 0.  1.
          4    1    6    6  503    0 -0.40579191541E+01  0.59049428977E+01 -0.19556682860E+02  0.20827839614E+02  0.00000000000E+00 0. -1.
         -4    1    6    6    0  503 -0.74821112863E+02 -0.37433681227E+03 -0.67896370255E+03  0.77892102124E+03  0.00000000000E+00 0.  1.
<mgrwt>
<rscale>  0 0.18108869E+04</rscale>
<asrwt>0</asrwt>
<pdfrwt beam="1">  1        2 0.13231879E+00 0.18108869E+04</pdfrwt>
<pdfrwt beam="2">  1       -1 0.14664742E+00 0.18108869E+04</pdfrwt>
<totfact> 0.12465240E+01</totfact>
</mgrwt>
</event>
<event>
12    6  0.1705838E-008  0.2142832E+04  0.7818608E-02  0.8542607E-01
         -1   -1    0    0    0  501 -0.00000000000E+00  0.00000000000E+00  0.44024823858E+03  0.44024823858E+03  0.00000000000E+00 0.  1.
          2   -1    0    0  501    0  0.00000000000E+00 -0.00000000000E+00 -0.26074662063E+04  0.26074662063E+04  0.00000000000E+00 0. -1.
         24    2    1    2    0    0 -0.73705640554E+03 -0.22636242546E+03 -0.15058328623E+04  0.16936712906E+04  0.80608554524E+02 0.  0.
        254    2    1    2    0    0  0.73705640554E+03  0.22636242546E+03 -0.66138510547E+03  0.13540431542E+04  0.89527119535E+03 0.  0.
         23    2    4    4    0    0  0.34343759738E+03 -0.23959089344E+02 -0.78312614870E+03  0.86326087095E+03  0.11579872747E+03 0.  0.
         23    2    4    4    0    0  0.39361880816E+03  0.25032151480E+03  0.12174104323E+03  0.49078228330E+03  0.91922473178E+02 0.  0.
          2    1    3    3  502    0 -0.64351426915E+03 -0.21951879870E+03 -0.12864007949E+04  0.14550347497E+04  0.00000000000E+00 0. -1.
         -1    1    3    3    0  502 -0.93542136395E+02 -0.68436267577E+01 -0.21943206731E+03  0.23863654095E+03  0.00000000000E+00 0.  1.
         11    1    5    5    0    0 -0.56771872697E+01  0.71347763986E+01 -0.64721659320E+01  0.11181431993E+02  0.00000000000E+00 0.  1.
        -11    1    5    5    0    0  0.34911478465E+03 -0.31093865743E+02 -0.77665398277E+03  0.85207943896E+03  0.00000000000E+00 0. -1.
          1    1    6    6  503    0  0.35999924867E+03  0.25473461019E+03  0.11889504290E+03  0.45675508962E+03  0.00000000000E+00 0. -1.
         -1    1    6    6    0  503  0.33619559495E+02 -0.44130953825E+01  0.28460003378E+01  0.34027193675E+02  0.00000000000E+00 0.  1.
<mgrwt>
<rscale>  0 0.21428321E+04</rscale>
<asrwt>0</asrwt>
<pdfrwt beam="1">  1        2 0.40114865E+00 0.21428321E+04</pdfrwt>
<pdfrwt beam="2">  1       -1 0.67730498E-01 0.21428321E+04</pdfrwt>
<totfact> 0.69527573E+00</totfact>
</mgrwt>
</event>
<event>
12    6  0.1705838E-008  0.1789426E+04  0.7818608E-02  0.8711943E-01
          2   -1    0    0  501    0  0.00000000000E+00  0.00000000000E+00  0.73190616283E+03  0.73190616283E+03  0.00000000000E+00 0. -1.
         -1   -1    0    0    0  501 -0.00000000000E+00 -0.00000000000E+00 -0.10937350184E+04  0.10937350184E+04  0.00000000000E+00 0.  1.
         24    2    1    2    0    0  0.54128620587E+03  0.35865441705E+03 -0.39436374183E+01  0.65438595450E+03  0.81127539353E+02 0.  0.
        254    2    1    2    0    0 -0.54128620587E+03 -0.35865441705E+03 -0.35788521818E+03  0.11712552268E+04  0.90671562758E+03 0.  0.
         23    2    4    4    0    0 -0.64495056987E+03 -0.55578957050E+03 -0.35693841187E+03  0.93011844823E+03  0.11336672181E+03 0.  0.
         23    2    4    4    0    0  0.10366436400E+03  0.19713515344E+03 -0.94680631172E+00  0.24113677854E+03  0.92398487186E+02 0.  0.
          4    1    3    3  502    0  0.17099077384E+03  0.12177954328E+03 -0.38603967635E+02  0.21344406344E+03  0.00000000000E+00 0. -1.
         -3    1    3    3    0  502  0.37029543203E+03  0.23687487377E+03  0.34660330217E+02  0.44094189106E+03  0.00000000000E+00 0.  1.
         11    1    5    5    0    0 -0.82477836602E+02 -0.87795961900E+02 -0.11615307248E+02  0.12101917129E+03  0.00000000000E+00 0.  1.
        -11    1    5    5    0    0 -0.56247273327E+03 -0.46799360860E+03 -0.34532310462E+03  0.80909927694E+03  0.00000000000E+00 0. -1.
          1    1    6    6  503    0  0.10262416127E+03  0.17045102690E+03 -0.30523509470E+02  0.20128824029E+03  0.00000000000E+00 0. -1.
         -1    1    6    6    0  503  0.10402027360E+01  0.26684126542E+02  0.29576703158E+02  0.39848538251E+02  0.00000000000E+00 0.  1.
<mgrwt>
<rscale>  0 0.17894261E+04</rscale>
<asrwt>0</asrwt>
<pdfrwt beam="1">  1        2 0.11260095E+00 0.17894261E+04</pdfrwt>
<pdfrwt beam="2">  1       -1 0.16826693E+00 0.17894261E+04</pdfrwt>
<totfact> 0.10580587E+01</totfact>
</mgrwt>
</event>
<event>
11    6  0.1705838E-008  0.1894030E+04  0.7818608E-02  0.8657834E-01
          2   -1    0    0  501    0  0.00000000000E+00  0.00000000000E+00  0.15150727324E+04  0.15150727324E+04  0.00000000000E+00 0. -1.
         -1   -1    0    0    0  501 -0.00000000000E+00 -0.00000000000E+00 -0.59194366290E+03  0.59194366290E+03  0.00000000000E+00 0.  1.
         24    2    1    2    0    0  0.64454876747E+03 -0.99567659195E+02  0.72974230536E+03  0.98200616236E+03  0.80345742075E+02 0.  0.
        254    2    1    2    0    0 -0.64454876747E+03  0.99567659195E+02  0.19338676417E+03  0.11250102330E+04  0.89604282897E+03 0.  0.
         23    2    4    4    0    0 -0.35160989590E+03 -0.37760553828E+03  0.16092700692E+03  0.54813145659E+03  0.91296937003E+02 0.  0.
          2    1    3    3  502    0  0.63138232148E+03 -0.98689243525E+02  0.69159251708E+03  0.94163868461E+03  0.00000000000E+00 0. -1.
         -1    1    3    3    0  502  0.13166445988E+02 -0.87841566969E+00  0.38149788280E+02  0.40367477750E+02  0.00000000000E+00 0.  1.
         11    1    4    4    0    0 -0.34173534182E+02  0.78268495859E+01  0.20871041556E+02  0.40800617502E+02  0.00000000000E+00 0.  1.
        -11    1    4    4    0    0 -0.25876533738E+03  0.46934634789E+03  0.11588715699E+02  0.53607815889E+03  0.00000000000E+00 0. -1.
          2    1    5    5  503    0 -0.19745833042E+03 -0.14656063766E+03  0.85146954014E+02  0.26023031442E+03  0.00000000000E+00 0. -1.
         -2    1    5    5    0  503 -0.15415156548E+03 -0.23104490062E+03  0.75780052902E+02  0.28790114217E+03  0.00000000000E+00 0.  1.
<mgrwt>
<rscale>  0 0.18940303E+04</rscale>
<asrwt>0</asrwt>
<pdfrwt beam="1">  1        2 0.23308811E+00 0.18940303E+04</pdfrwt>
<pdfrwt beam="2">  1       -1 0.91068256E-01 0.18940303E+04</pdfrwt>
<totfact> 0.15638589E+01</totfact>
</mgrwt>
</event>
<event>
12    6  0.1705838E-008  0.1331935E+04  0.7818608E-02  0.9004617E-01
         -1   -1    0    0    0  501 -0.00000000000E+00  0.00000000000E+00  0.18180223955E+03  0.18180223955E+03  0.00000000000E+00 0.  1.
          2   -1    0    0  501    0  0.00000000000E+00 -0.00000000000E+00 -0.24395330624E+04  0.24395330624E+04  0.00000000000E+00 0. -1.
         24    2    1    2    0    0  0.19924733971E+03 -0.12114906113E+03 -0.11568994807E+04  0.11828884755E+04  0.80200620608E+02 0.  0.
        254    2    1    2    0    0 -0.19924733971E+03  0.12114906113E+03 -0.11008313421E+04  0.14384468265E+04  0.89605972534E+03 0.  0.
         23    2    4    4    0    0  0.16774846269E+03  0.25150348955E+03 -0.67522776829E+02  0.33025397207E+03  0.11451990521E+03 0.  0.
         23    2    4    4    0    0 -0.36699580239E+03 -0.13035442843E+03 -0.10333085653E+04  0.11081928544E+04  0.93202014165E+02 0.  0.
          2    1    3    3  502    0  0.15595543707E+03 -0.11443494869E+03 -0.10443517341E+04  0.10621148715E+04  0.00000000000E+00 0. -1.
         -1    1    3    3    0  502  0.43291902633E+02 -0.67141124348E+01 -0.11254774664E+03  0.12077360395E+03  0.00000000000E+00 0.  1.
         11    1    5    5    0    0  0.13274398689E+03  0.19987164919E+03 -0.22220681943E+01  0.23994703539E+03  0.00000000000E+00 0. -1.
        -11    1    5    5    0    0  0.35004475798E+02  0.51631840361E+02 -0.65300708635E+02  0.90306936684E+02  0.00000000000E+00 0.  1.
          2    1    6    6  503    0 -0.15741839358E+02 -0.24553917940E+02 -0.41569202469E+02  0.50780891943E+02  0.00000000000E+00 0.  1.
         -2    1    6    6    0  503 -0.35125396304E+03 -0.10580051048E+03 -0.99173936281E+03  0.10574119624E+04  0.00000000000E+00 0. -1.
<mgrwt>
<rscale>  0 0.13319348E+04</rscale>
<asrwt>0</asrwt>
<pdfrwt beam="1">  1        2 0.37531279E+00 0.13319348E+04</pdfrwt>
<pdfrwt beam="2">  1       -1 0.27969574E-01 0.13319348E+04</pdfrwt>
<totfact> 0.48664426E+01</totfact>
</mgrwt>
</event>
<event>
12    6  0.1705838E-008  0.2515122E+04  0.7818608E-02  0.8397618E-01
          2   -1    0    0  501    0  0.00000000000E+00  0.00000000000E+00  0.70392402500E+03  0.70392402500E+03  0.00000000000E+00 0. -1.
         -1   -1    0    0    0  501 -0.00000000000E+00 -0.00000000000E+00 -0.22466338213E+04  0.22466338213E+04  0.00000000000E+00 0.  1.
         24    2    1    2    0    0  0.55290236758E+03 -0.20127034008E+02 -0.17860790254E+04  0.18714716217E+04  0.78877249266E+02 0.  0.
        254    2    1    2    0    0 -0.55290236758E+03  0.20127034008E+02  0.24336922904E+03  0.10790862246E+04  0.89391966807E+03 0.  0.
         23    2    4    4    0    0 -0.55704517652E+03  0.15624331471E+03  0.50192731653E+03  0.77340978596E+03  0.10733295794E+03 0.  0.
         23    2    4    4    0    0  0.41428089483E+01 -0.13611628070E+03 -0.25855808749E+03  0.30567643866E+03  0.89671599789E+02 0.  0.
          4    1    3    3  502    0  0.14356124302E+03 -0.34803827229E+02 -0.41440725443E+03  0.43994830311E+03  0.00000000000E+00 0. -1.
         -3    1    3    3    0  502  0.40934112456E+03  0.14676793221E+02 -0.13716717710E+04  0.14315233186E+04  0.00000000000E+00 0.  1.
         11    1    5    5    0    0 -0.31692318621E+03  0.12875111074E+03  0.34123024791E+03  0.48317205689E+03  0.00000000000E+00 0. -1.
        -11    1    5    5    0    0 -0.24012199031E+03  0.27492203972E+02  0.16069706862E+03  0.29023772907E+03  0.00000000000E+00 0.  1.
          3    1    6    6  503    0 -0.37133341314E+00 -0.14723369426E+03 -0.21562218885E+03  0.26109543646E+03  0.00000000000E+00 0. -1.
         -3    1    6    6    0  503  0.45141423614E+01  0.11117413561E+02 -0.42935898641E+02  0.44581002206E+02  0.00000000000E+00 0.  1.
<mgrwt>
<rscale>  0 0.25151219E+04</rscale>
<asrwt>0</asrwt>
<pdfrwt beam="1">  1        2 0.10829601E+00 0.25151219E+04</pdfrwt>
<pdfrwt beam="2">  1       -1 0.34563597E+00 0.25151219E+04</pdfrwt>
<totfact> 0.68671727E-01</totfact>
</mgrwt>
</event>
<event>
11    6  0.1705838E-008  0.5034296E+04  0.7818608E-02  0.7823238E-01
          2   -1    0    0  501    0  0.00000000000E+00  0.00000000000E+00  0.32216342525E+04  0.32216342525E+04  0.00000000000E+00 0. -1.
         -1   -1    0    0    0  501 -0.00000000000E+00 -0.00000000000E+00 -0.19667143537E+04  0.19667143537E+04  0.00000000000E+00 0.  1.
         24    2    1    2    0    0  0.14239987627E+04  0.17841659992E+04 -0.27306215128E+03  0.23003896759E+04  0.78796785753E+02 0.  0.
        254    2    1    2    0    0 -0.14239987627E+04 -0.17841659992E+04  0.15279820501E+04  0.28879589304E+04  0.89137918373E+03 0.  0.
         23    2    4    4    0    0 -0.10384601144E+04 -0.11594795626E+04  0.63352968141E+03  0.16830330121E+04  0.91912988528E+02 0.  0.
          4    1    3    3  502    0  0.74536344351E+02  0.67801406306E+02 -0.96699258435E+01  0.10122353873E+03  0.00000000000E+00 0. -1.
         -3    1    3    3    0  502  0.13494624184E+04  0.17163645929E+04 -0.26339222544E+03  0.21991661372E+04  0.00000000000E+00 0.  1.
         11    1    4    4    0    0 -0.11319414811E+03 -0.45375051320E+03  0.40144356791E+03  0.61632733317E+03  0.00000000000E+00 0. -1.
        -11    1    4    4    0    0 -0.27234450022E+03 -0.17093592342E+03  0.49300880075E+03  0.58859858506E+03  0.00000000000E+00 0.  1.
          1    1    5    5  503    0 -0.84514701414E+03 -0.95899905895E+03  0.48312650471E+03  0.13665152360E+04  0.00000000000E+00 0. -1.
         -1    1    5    5    0  503 -0.19331310028E+03 -0.20048050364E+03  0.15040317670E+03  0.31651777618E+03  0.00000000000E+00 0.  1.
<mgrwt>
<rscale>  0 0.50342961E+04</rscale>
<asrwt>0</asrwt>
<pdfrwt beam="1">  1        2 0.49563604E+00 0.50342961E+04</pdfrwt>
<pdfrwt beam="2">  1       -1 0.30257144E+00 0.50342961E+04</pdfrwt>
<totfact> 0.32875813E-02</totfact>
</mgrwt>
</event>
<event>
11    6  0.1705838E-008  0.1736084E+04  0.7818608E-02  0.8741048E-01
         -1   -1    0    0    0  501 -0.00000000000E+00  0.00000000000E+00  0.80939012239E+03  0.80939012239E+03  0.00000000000E+00 0.  1.
          2   -1    0    0  501    0  0.00000000000E+00 -0.00000000000E+00 -0.93094403053E+03  0.93094403053E+03  0.00000000000E+00 0. -1.
         24    2    1    2    0    0 -0.34932963601E+03  0.28593251647E+03 -0.54362391351E+03  0.71118524730E+03  0.80429460214E+02 0.  0.
        254    2    1    2    0    0  0.34932963601E+03 -0.28593251647E+03  0.42207000537E+03  0.10291489056E+04  0.82293121337E+03 0.  0.
         23    2    4    4    0    0  0.53522586068E+03 -0.26316105708E+03  0.49648612554E+03  0.78170294481E+03  0.94024237078E+02 0.  0.
          4    1    3    3  502    0 -0.19647359768E+03  0.18191311460E+03 -0.37617272186E+03  0.46173604204E+03  0.00000000000E+00 0. -1.
         -1    1    3    3    0  502 -0.15285603834E+03  0.10401940187E+03 -0.16745119165E+03  0.24944920526E+03  0.00000000000E+00 0.  1.
         11    1    4    4    0    0 -0.10300181925E+03 -0.76536094525E+02 -0.75012778040E+02  0.14864072592E+03  0.00000000000E+00 0. -1.
        -11    1    4    4    0    0 -0.82894405417E+02  0.53764635138E+02  0.59665786456E+00  0.98805234889E+02  0.00000000000E+00 0.  1.
          3    1    5    5  503    0  0.41277280683E+03 -0.19536944375E+03  0.32585508743E+03  0.56100993539E+03  0.00000000000E+00 0. -1.
         -3    1    5    5    0  503  0.12245305385E+03 -0.67791613330E+02  0.17063103811E+03  0.22069300941E+03  0.00000000000E+00 0.  1.
<mgrwt>
<rscale>  0 0.17360840E+04</rscale>
<asrwt>0</asrwt>
<pdfrwt beam="1">  1        2 0.14322216E+00 0.17360840E+04</pdfrwt>
<pdfrwt beam="2">  1       -1 0.12452156E+00 0.17360840E+04</pdfrwt>
<totfact> 0.17102055E+01</totfact>
</mgrwt>
</event>
<event>
12    6  0.1705838E-008  0.1804410E+04  0.7818608E-02  0.8703958E-01
          2   -1    0    0  501    0  0.00000000000E+00  0.00000000000E+00  0.11056399566E+04  0.11056399566E+04  0.00000000000E+00 0. -1.
         -1   -1    0    0    0  501 -0.00000000000E+00 -0.00000000000E+00 -0.73620174169E+03  0.73620174169E+03  0.00000000000E+00 0.  1.
         24    2    1    2    0    0  0.51667125508E+03 -0.38134026650E+03  0.35542929208E+03  0.73837854183E+03  0.80643069714E+02 0.  0.
        254    2    1    2    0    0 -0.51667125508E+03  0.38134026650E+03  0.14008922828E+02  0.11034631565E+04  0.89725420203E+03 0.  0.
         23    2    4    4    0    0 -0.63759420630E+03  0.28892840604E+03 -0.28258955437E+03  0.75765818343E+03  0.64676664692E+02 0.  0.
         23    2    4    4    0    0  0.12092295122E+03  0.92411860456E+02  0.29659847720E+03  0.34580497303E+03  0.91913604070E+02 0.  0.
          2    1    3    3  502    0  0.12318911796E+03 -0.11100957616E+03  0.56852954699E+02  0.17530243364E+03  0.00000000000E+00 0. -1.
         -1    1    3    3    0  502  0.39348213712E+03 -0.27033069034E+03  0.29857633738E+03  0.56307610819E+03  0.00000000000E+00 0.  1.
         11    1    5    5    0    0 -0.43706388856E+03  0.16800608291E+03 -0.20275531027E+03  0.51025542860E+03  0.00000000000E+00 0.  1.
        -11    1    5    5    0    0 -0.20053031774E+03  0.12092232313E+03 -0.79834244099E+02  0.24740275482E+03  0.00000000000E+00 0. -1.
          3    1    6    6  503    0 -0.16210016558E+01 -0.69819721242E+01  0.66021137265E+02  0.66409081810E+02  0.00000000000E+00 0. -1.
         -3    1    6    6    0  503  0.12254395287E+03  0.99393832580E+02  0.23057733993E+03  0.27939589122E+03  0.00000000000E+00 0.  1.
<mgrwt>
<rscale>  0 0.18044102E+04</rscale>
<asrwt>0</asrwt>
<pdfrwt beam="1">  1        2 0.17009846E+00 0.18044102E+04</pdfrwt>
<pdfrwt beam="2">  1       -1 0.11326181E+00 0.18044102E+04</pdfrwt>
<totfact> 0.16563284E+01</totfact>
</mgrwt>
</event>
<event>
12    6  0.1705838E-008  0.4326936E+04  0.7818608E-02  0.7941656E-01
         -1   -1    0    0    0  501 -0.00000000000E+00  0.00000000000E+00  0.23968813408E+04  0.23968813408E+04  0.00000000000E+00 0.  1.
          2   -1    0    0  501    0  0.00000000000E+00 -0.00000000000E+00 -0.19527852790E+04  0.19527852790E+04  0.00000000000E+00 0. -1.
         24    2    1    2    0    0 -0.12187023492E+04  0.13669390397E+04 -0.75555084136E+03  0.19826810467E+04  0.80058136027E+02 0.  0.
        254    2    1    2    0    0  0.12187023492E+04 -0.13669390397E+04  0.11996469031E+04  0.23669855730E+04  0.89983901703E+03 0.  0.
         23    2    4    4    0    0  0.13501361264E+04 -0.12177471902E+04  0.10631489570E+04  0.21092278274E+04  0.11305106790E+03 0.  0.
         23    2    4    4    0    0 -0.13143377727E+03 -0.14919184946E+03  0.13649794610E+03  0.25775774558E+03  0.90963291319E+02 0.  0.
          4    1    3    3  502    0 -0.10788200367E+04  0.11933982214E+04 -0.68883340057E+03  0.17500124115E+04  0.00000000000E+00 0. -1.
         -3    1    3    3    0  502 -0.13988231243E+03  0.17354081823E+03 -0.66717440793E+02  0.23266863525E+03  0.00000000000E+00 0.  1.
         11    1    5    5    0    0  0.13055232635E+04 -0.11619653878E+04  0.99827317920E+03  0.20127354258E+04  0.00000000000E+00 0. -1.
        -11    1    5    5    0    0  0.44612862920E+02 -0.55781802445E+02  0.64875777828E+02  0.96492401622E+02  0.00000000000E+00 0.  1.
          4    1    6    6  503    0  0.69420978684E+01 -0.23528540162E+02  0.41190251095E+02  0.47941857601E+02  0.00000000000E+00 0.  1.
         -4    1    6    6    0  503 -0.13837587514E+03 -0.12566330929E+03  0.95307695003E+02  0.20981588798E+03  0.00000000000E+00 0. -1.
<mgrwt>
<rscale>  0 0.43269364E+04</rscale>
<asrwt>0</asrwt>
<pdfrwt beam="1">  1        2 0.30042851E+00 0.43269364E+04</pdfrwt>
<pdfrwt beam="2">  1       -1 0.36875097E+00 0.43269364E+04</pdfrwt>
<totfact> 0.72288103E-02</totfact>
</mgrwt>
</event>
<event>
11    6  0.1705838E-008  0.1420168E+04  0.7818608E-02  0.8939348E-01
         -1   -1    0    0    0  501 -0.00000000000E+00  0.00000000000E+00  0.22198591300E+03  0.22198591300E+03  0.00000000000E+00 0.  1.
          2   -1    0    0  501    0  0.00000000000E+00 -0.00000000000E+00 -0.22714031453E+04  0.22714031453E+04  0.00000000000E+00 0. -1.
         24    2    1    2    0    0 -0.31388574047E+03  0.26238780180E+03 -0.80050245372E+03  0.90246091315E+03  0.79119559830E+02 0.  0.
        254    2    1    2    0    0  0.31388574047E+03 -0.26238780180E+03 -0.12489147786E+04  0.15909281451E+04  0.89660059237E+03 0.  0.
         23    2    4    4    0    0 -0.26864375598E+03 -0.16703244113E+03 -0.22083432128E+03  0.39605709155E+03  0.89577443011E+02 0.  0.
          2    1    3    3  502    0 -0.28910294268E+03  0.25825134534E+03 -0.71478687633E+03  0.81313870121E+03  0.00000000000E+00 0. -1.
         -3    1    3    3    0  502 -0.24782797795E+02  0.41364564640E+01 -0.85715577388E+02  0.89322211938E+02  0.00000000000E+00 0.  1.
         11    1    4    4    0    0  0.44618137213E+03 -0.10715097002E+03 -0.67505991579E+03  0.81625059701E+03  0.00000000000E+00 0. -1.
        -11    1    4    4    0    0  0.13634812433E+03  0.11795609352E+02 -0.35302054150E+03  0.37862045657E+03  0.00000000000E+00 0.  1.
          4    1    5    5  503    0 -0.14064681103E+03 -0.39786182884E+02 -0.12132044594E+03  0.18995556429E+03  0.00000000000E+00 0. -1.
         -4    1    5    5    0  503 -0.12799694495E+03 -0.12724625825E+03 -0.99513875332E+02  0.20610152726E+03  0.00000000000E+00 0.  1.
<mgrwt>
<rscale>  0 0.14201683E+04</rscale>
<asrwt>0</asrwt>
<pdfrwt beam="1">  1        2 0.34944663E+00 0.14201683E+04</pdfrwt>
<pdfrwt beam="2">  1       -1 0.34151679E-01 0.14201683E+04</pdfrwt>
<totfact> 0.42319757E+01</totfact>
</mgrwt>
</event>
<event>
12    6  0.1705838E-008  0.2703273E+04  0.7818608E-02  0.8333944E-01
          2   -1    0    0  501    0  0.00000000000E+00  0.00000000000E+00  0.11729045761E+04  0.11729045761E+04  0.00000000000E+00 0. -1.
         -1   -1    0    0    0  501 -0.00000000000E+00 -0.00000000000E+00 -0.15576039912E+04  0.15576039912E+04  0.00000000000E+00 0.  1.
         24    2    1    2    0    0  0.91081382486E+03  0.36638589642E+03 -0.85204539652E+03  0.13024190511E+04  0.80582742540E+02 0.  0.
        254    2    1    2    0    0 -0.91081382486E+03 -0.36638589642E+03  0.46734598141E+03  0.14280895162E+04  0.92585471398E+03 0.  0.
         23    2    4    4    0    0 -0.40193436314E+03 -0.50349188710E+03  0.58595436268E+03  0.88019559654E+03  0.12785327673E+03 0.  0.
         23    2    4    4    0    0 -0.50887946172E+03  0.13710599069E+03 -0.11860838127E+03  0.54789391970E+03  0.91451844652E+02 0.  0.
          4    1    3    3  502    0  0.16991043679E+03  0.10204295532E+03 -0.16106384587E+03  0.25538967032E+03  0.00000000000E+00 0. -1.
         -3    1    3    3    0  502  0.74090338807E+03  0.26434294110E+03 -0.69098155065E+03  0.10470293808E+04  0.00000000000E+00 0.  1.
         11    1    5    5    0    0 -0.13475795788E+02 -0.19119252184E+02 -0.39790024600E+01  0.23727101314E+02  0.00000000000E+00 0. -1.
        -11    1    5    5    0    0 -0.38845856735E+03 -0.48437263492E+03  0.58993336514E+03  0.85646849523E+03  0.00000000000E+00 0.  1.
          3    1    6    6  503    0 -0.73442770244E+02  0.14289630397E+02  0.14672140381E+02  0.76245037486E+02  0.00000000000E+00 0. -1.
         -3    1    6    6    0  503 -0.43543669148E+03  0.12281636029E+03 -0.13328052165E+03  0.47164888221E+03  0.00000000000E+00 0.  1.
<mgrwt>
<rscale>  0 0.27032727E+04</rscale>
<asrwt>0</asrwt>
<pdfrwt beam="1">  1        2 0.18044686E+00 0.27032727E+04</pdfrwt>
<pdfrwt beam="2">  1       -1 0.23963138E+00 0.27032727E+04</pdfrwt>
<totfact> 0.16022701E+00</totfact>
</mgrwt>
</event>
<event>
12    6  0.1705838E-008  0.1501593E+04  0.7818608E-02  0.8883395E-01
          2   -1    0    0  501    0  0.00000000000E+00  0.00000000000E+00  0.67337023653E+03  0.67337023653E+03  0.00000000000E+00 0. -1.
         -1   -1    0    0    0  501 -0.00000000000E+00 -0.00000000000E+00 -0.83712499777E+03  0.83712499777E+03  0.00000000000E+00 0.  1.
         24    2    1    2    0    0 -0.45493856364E+03  0.68970848633E+02 -0.16433346497E+03  0.49514285907E+03  0.80217756960E+02 0.  0.
        254    2    1    2    0    0  0.45493856364E+03 -0.68970848633E+02  0.57870372556E+00  0.10153523752E+04  0.90510443395E+03 0.  0.
         23    2    4    4    0    0  0.45470177424E+03 -0.27070306955E+03 -0.31903260124E+03  0.62737161151E+03  0.10853332623E+03 0.  0.
         23    2    4    4    0    0  0.23678939216E+00  0.20173222092E+03  0.31961130497E+03  0.38798076373E+03  0.87645545991E+02 0.  0.
          4    1    3    3  502    0 -0.27604194392E+02  0.25204955263E+02 -0.16329609901E+02  0.40791389745E+02  0.00000000000E+00 0. -1.
         -3    1    3    3    0  502 -0.42733436924E+03  0.43765893370E+02 -0.14800385507E+03  0.45435146932E+03  0.00000000000E+00 0.  1.
         11    1    5    5    0    0  0.29563572835E+02  0.93885316489E+01 -0.16037030104E+02  0.34918987670E+02  0.00000000000E+00 0. -1.
        -11    1    5    5    0    0  0.42513820141E+03 -0.28009160120E+03 -0.30299557114E+03  0.59245262384E+03  0.00000000000E+00 0.  1.
          1    1    6    6  503    0  0.22826057611E+02  0.26312399029E+02  0.20298230305E+02  0.40316118393E+02  0.00000000000E+00 0. -1.
         -1    1    6    6    0  503 -0.22589268219E+02  0.17541982189E+03  0.29931307466E+03  0.34766464534E+03  0.00000000000E+00 0.  1.
<mgrwt>
<rscale>  0 0.15015926E+04</rscale>
<asrwt>0</asrwt>
<pdfrwt beam="1">  1        2 0.10359542E+00 0.15015926E+04</pdfrwt>
<pdfrwt beam="2">  1       -1 0.12878846E+00 0.15015926E+04</pdfrwt>
<totfact> 0.24662119E+01</totfact>
</mgrwt>
</event>
<event>
11    6  0.1705838E-008  0.1881517E+04  0.7818608E-02  0.8664112E-01
         -1   -1    0    0    0  501 -0.00000000000E+00  0.00000000000E+00  0.25666014828E+03  0.25666014828E+03  0.00000000000E+00 0.  1.
          2   -1    0    0  501    0  0.00000000000E+00 -0.00000000000E+00 -0.34482417826E+04  0.34482417826E+04  0.00000000000E+00 0. -1.
         24    2    1    2    0    0  0.42218753925E+03 -0.57047898334E+03 -0.13782317510E+04  0.15522904695E+04  0.79964701828E+02 0.  0.
        254    2    1    2    0    0 -0.42218753925E+03  0.57047898334E+03 -0.18133498833E+04  0.21526114613E+04  0.91750188857E+03 0.  0.
         23    2    4    4    0    0 -0.55837218935E+02 -0.12626113670E+03 -0.99497622990E+03  0.10087508537E+04  0.92417082164E+02 0.  0.
          2    1    3    3  502    0  0.17055075668E+02 -0.31339658256E+02 -0.11369618262E+03  0.11916321466E+03  0.00000000000E+00 0. -1.
         -1    1    3    3    0  502  0.40513246358E+03 -0.53913932509E+03 -0.12645355684E+04  0.14331272549E+04  0.00000000000E+00 0.  1.
         11    1    4    4    0    0 -0.33108336390E+03  0.60941533694E+03 -0.77549155996E+03  0.10403799336E+04  0.00000000000E+00 0.  1.
        -11    1    4    4    0    0 -0.35266956419E+02  0.87324783108E+02 -0.42882093439E+02  0.10348067403E+03  0.00000000000E+00 0. -1.
          1    1    5    5  503    0 -0.58457961116E+02 -0.29512881232E+02 -0.51217160870E+03  0.51634106958E+03  0.00000000000E+00 0. -1.
         -1    1    5    5    0  503  0.26207421815E+01 -0.96748255470E+02 -0.48280462120E+03  0.49240978410E+03  0.00000000000E+00 0.  1.
<mgrwt>
<rscale>  0 0.18815167E+04</rscale>
<asrwt>0</asrwt>
<pdfrwt beam="1">  1        2 0.53049868E+00 0.18815167E+04</pdfrwt>
<pdfrwt beam="2">  1       -1 0.39486181E-01 0.18815167E+04</pdfrwt>
<totfact> 0.59209760E+00</totfact>
</mgrwt>
</event>
<event>
11    6  0.1705838E-008  0.1656279E+04  0.7818608E-02  0.8786701E-01
         -1   -1    0    0    0  501 -0.00000000000E+00  0.00000000000E+00  0.49933009269E+03  0.49933009269E+03  0.00000000000E+00 0.  1.
          2   -1    0    0  501    0  0.00000000000E+00 -0.00000000000E+00 -0.13734694642E+04  0.13734694642E+04  0.00000000000E+00 0. -1.
         24    2    1    2    0    0  0.30658582823E+03 -0.25993877088E+03  0.16144877922E+03  0.44056181029E+03  0.80411228697E+02 0.  0.
        254    2    1    2    0    0 -0.30658582823E+03  0.25993877088E+03 -0.10355881508E+04  0.14322377466E+04  0.90404596687E+03 0.  0.
         23    2    4    4    0    0 -0.54730165382E+03 -0.30179858372E+02 -0.78234372394E+03  0.95951259166E+03  0.90292785155E+02 0.  0.
          4    1    3    3  502    0  0.71368262633E+02 -0.49747879374E+02  0.17984730229E+01  0.87014452355E+02  0.00000000000E+00 0. -1.
         -1    1    3    3    0  502  0.23521756559E+03 -0.21019089151E+03  0.15965030619E+03  0.35354735794E+03  0.00000000000E+00 0.  1.
         11    1    4    4    0    0  0.34201729448E+01  0.25683940198E+02  0.12763576211E+02  0.28883753993E+02  0.00000000000E+00 0. -1.
        -11    1    4    4    0    0  0.23729565265E+03  0.26443468906E+03 -0.26600800304E+03  0.44384140098E+03  0.00000000000E+00 0.  1.
          1    1    5    5  503    0 -0.10749040981E+02 -0.13364701665E+02 -0.13599704659E+02  0.21888560927E+02  0.00000000000E+00 0. -1.
         -1    1    5    5    0  503 -0.53655261284E+03 -0.16815156706E+02 -0.76874401928E+03  0.93762403074E+03  0.00000000000E+00 0.  1.
<mgrwt>
<rscale>  0 0.16562785E+04</rscale>
<asrwt>0</asrwt>
<pdfrwt beam="1">  1        2 0.21130299E+00 0.16562785E+04</pdfrwt>
<pdfrwt beam="2">  1       -1 0.76820014E-01 0.16562785E+04</pdfrwt>
<totfact> 0.27728836E+01</totfact>
</mgrwt>
</event>
<event>
12    6  0.1705838E-008  0.1415742E+04  0.7818608E-02  0.8942502E-01
         -1   -1    0    0    0  501 -0.00000000000E+00  0.00000000000E+00  0.13302821457E+04  0.13302821457E+04  0.00000000000E+00 0.  1.
          2   -1    0    0  501    0  0.00000000000E+00 -0.00000000000E+00 -0.37667323579E+03  0.37667323579E+03  0.00000000000E+00 0. -1.
         24    2    1    2    0    0 -0.44601174532E+02  0.97681824351E+02 -0.20176010144E+03  0.24196560863E+03  0.79430558641E+02 0.  0.
        254    2    1    2    0    0  0.44601174532E+02 -0.97681824351E+02  0.11553690113E+04  0.14649897728E+04  0.89430782095E+03 0.  0.
         23    2    4    4    0    0 -0.11431679985E+03 -0.28410253075E+03  0.35492706932E+02  0.31494360044E+03  0.64398451154E+02 0.  0.
         23    2    4    4    0    0  0.15891797438E+03  0.18642070640E+03  0.11198763044E+04  0.11500461724E+04  0.92063343044E+02 0.  0.
          2    1    3    3  502    0 -0.60414804116E+02  0.93238749424E+02 -0.19452573693E+03  0.22401713166E+03  0.00000000000E+00 0. -1.
         -1    1    3    3    0  502  0.15813629584E+02  0.44430749275E+01 -0.72343645134E+01  0.17948476965E+02  0.00000000000E+00 0.  1.
         11    1    5    5    0    0 -0.67625130871E+02 -0.10186161871E+03 -0.55483328780E+01  0.12239171414E+03  0.00000000000E+00 0.  1.
        -11    1    5    5    0    0 -0.46691668976E+02 -0.18224091204E+03  0.41041039810E+02  0.19255188631E+03  0.00000000000E+00 0. -1.
          3    1    6    6  503    0  0.16814865204E+03  0.16247313105E+03  0.95637854385E+03  0.98454629482E+03  0.00000000000E+00 0. -1.
         -3    1    6    6    0  503 -0.92306776567E+01  0.23947575349E+02  0.16349776056E+03  0.16549987759E+03  0.00000000000E+00 0.  1.
<mgrwt>
<rscale>  0 0.14157425E+04</rscale>
<asrwt>0</asrwt>
<pdfrwt beam="1">  1        2 0.57949729E-01 0.14157425E+04</pdfrwt>
<pdfrwt beam="2">  1       -1 0.20465879E+00 0.14157425E+04</pdfrwt>
<totfact> 0.13235330E+01</totfact>
</mgrwt>
</event>
<event>
12    6  0.1705838E-008  0.1819083E+04  0.7818608E-02  0.8696217E-01
         -1   -1    0    0    0  501 -0.00000000000E+00  0.00000000000E+00  0.85928501110E+03  0.85928501110E+03  0.00000000000E+00 0.  1.
          2   -1    0    0  501    0  0.00000000000E+00 -0.00000000000E+00 -0.96273704820E+03  0.96273704820E+03  0.00000000000E+00 0. -1.
         24    2    1    2    0    0 -0.11536440768E+03  0.59995124022E+03 -0.34906879022E+03  0.70852872962E+03  0.83147478494E+02 0.  0.
        254    2    1    2    0    0  0.11536440768E+03 -0.59995124022E+03  0.24561675312E+03  0.11134933297E+04  0.89793617181E+03 0.  0.
         23    2    4    4    0    0 -0.86368013419E+02 -0.33995983866E+03 -0.30197815127E+03  0.46814029727E+03  0.70231107360E+02 0.  0.
         23    2    4    4    0    0  0.20173242110E+03 -0.25999140156E+03  0.54759490439E+03  0.64535303242E+03  0.91262580120E+02 0.  0.
          4    1    3    3  502    0 -0.22173982385E+02  0.23340456876E+03 -0.17284296269E+03  0.29128005074E+03  0.00000000000E+00 0. -1.
         -3    1    3    3    0  502 -0.93190425295E+02  0.36654667147E+03 -0.17622582753E+03  0.41724867887E+03  0.00000000000E+00 0.  1.
         11    1    5    5    0    0 -0.26124497521E+02 -0.13391816963E+03 -0.74874293342E+02  0.15563651670E+03  0.00000000000E+00 0.  1.
        -11    1    5    5    0    0 -0.60243515898E+02 -0.20604166903E+03 -0.22710385792E+03  0.31250378057E+03  0.00000000000E+00 0. -1.
          4    1    6    6  503    0  0.13615464774E+03 -0.23256547353E+03  0.45176379625E+03  0.52603737052E+03  0.00000000000E+00 0. -1.
         -4    1    6    6    0  503  0.65577773364E+02 -0.27425928032E+02  0.95831108136E+02  0.11931566190E+03  0.00000000000E+00 0.  1.
<mgrwt>
<rscale>  0 0.18190828E+04</rscale>
<asrwt>0</asrwt>
<pdfrwt beam="1">  1        2 0.14811339E+00 0.18190828E+04</pdfrwt>
<pdfrwt beam="2">  1       -1 0.13219769E+00 0.18190828E+04</pdfrwt>
<totfact> 0.13922418E+01</totfact>
</mgrwt>
</event>
<event>
12    6  0.1705838E-008  0.1581546E+04  0.7818608E-02  0.8831966E-01
         -1   -1    0    0    0  501 -0.00000000000E+00  0.00000000000E+00  0.87559489772E+03  0.87559489772E+03  0.00000000000E+00 0.  1.
          2   -1    0    0  501    0  0.00000000000E+00 -0.00000000000E+00 -0.71416822337E+03  0.71416822337E+03  0.00000000000E+00 0. -1.
         24    2    1    2    0    0 -0.17373625047E+03 -0.15853900300E+03 -0.41697412840E+03  0.48522633556E+03  0.79109245808E+02 0.  0.
        254    2    1    2    0    0  0.17373625047E+03  0.15853900300E+03  0.57840080275E+03  0.11045367855E+04  0.91111751259E+03 0.  0.
         23    2    4    4    0    0  0.49813750138E+03 -0.12488430800E+02  0.13451148264E+03  0.52186481494E+03  0.77153191286E+02 0.  0.
         23    2    4    4    0    0 -0.32440125091E+03  0.17102743380E+03  0.44388932011E+03  0.58267197058E+03  0.89343953845E+02 0.  0.
          4    1    3    3  502    0 -0.10636000546E+03 -0.12114940481E+03 -0.34013690462E+03  0.37640768182E+03  0.00000000000E+00 0. -1.
         -3    1    3    3    0  502 -0.67376245019E+02 -0.37389598182E+02 -0.76837223772E+02  0.10881865374E+03  0.00000000000E+00 0.  1.
         11    1    5    5    0    0  0.28317427853E+03 -0.16630174906E+02  0.11461681137E+03  0.30594321072E+03  0.00000000000E+00 0. -1.
        -11    1    5    5    0    0  0.21496322286E+03  0.41417441064E+01  0.19894671263E+02  0.21592160422E+03  0.00000000000E+00 0.  1.
          2    1    6    6  503    0 -0.16230485291E+03  0.13467111903E+03  0.23450237035E+03  0.31538950091E+03  0.00000000000E+00 0. -1.
         -2    1    6    6    0  503 -0.16209639800E+03  0.36356314766E+02  0.20938694976E+03  0.26728246967E+03  0.00000000000E+00 0.  1.
<mgrwt>
<rscale>  0 0.15815461E+04</rscale>
<asrwt>0</asrwt>
<pdfrwt beam="1">  1        2 0.10987203E+00 0.15815461E+04</pdfrwt>
<pdfrwt beam="2">  1       -1 0.13470691E+00 0.15815461E+04</pdfrwt>
<totfact> 0.20293773E+01</totfact>
</mgrwt>
</event>
<event>
12    6  0.1705838E-008  0.2940169E+04  0.7818608E-02  0.8261025E-01
         -1   -1    0    0    0  501 -0.00000000000E+00  0.00000000000E+00  0.11598185761E+04  0.11598185761E+04  0.00000000000E+00 0.  1.
          2   -1    0    0  501    0  0.00000000000E+00 -0.00000000000E+00 -0.18633504010E+04  0.18633504010E+04  0.00000000000E+00 0. -1.
         24    2    1    2    0    0 -0.11951866633E+04 -0.53798169992E+03 -0.53053717608E+03  0.14162441893E+04  0.79890167581E+02 0.  0.
        254    2    1    2    0    0  0.11951866633E+04  0.53798169992E+03 -0.17299464878E+03  0.16069247879E+04  0.91344658070E+03 0.  0.
         23    2    4    4    0    0  0.11800836126E+04  0.22030296357E+03 -0.31799883516E+03  0.12471669795E+04  0.11476709951E+03 0.  0.
         23    2    4    4    0    0  0.15103050723E+02  0.31767873635E+03  0.14500418638E+03  0.35975780839E+03  0.85156238507E+02 0.  0.
          2    1    3    3  502    0 -0.25045106113E+03 -0.12298801702E+03 -0.14726603403E+03  0.31549813174E+03  0.00000000000E+00 0. -1.
         -1    1    3    3    0  502 -0.94473560217E+03 -0.41499368290E+03 -0.38327114205E+03  0.11007460575E+04  0.00000000000E+00 0.  1.
         11    1    5    5    0    0  0.11151529599E+04  0.23434828051E+03 -0.30008090091E+03  0.11783606356E+04  0.00000000000E+00 0. -1.
        -11    1    5    5    0    0  0.64930652685E+02 -0.14045316938E+02 -0.17917934256E+02  0.68806343850E+02  0.00000000000E+00 0.  1.
          4    1    6    6  503    0 -0.11061193060E+02  0.30832391405E+02  0.43295736863E+02  0.54290949358E+02  0.00000000000E+00 0.  1.
         -4    1    6    6    0  503  0.26164243783E+02  0.28684634495E+03  0.10170844952E+03  0.30546685903E+03  0.00000000000E+00 0. -1.
<mgrwt>
<rscale>  0 0.29401690E+04</rscale>
<asrwt>0</asrwt>
<pdfrwt beam="1">  1        2 0.28666929E+00 0.29401690E+04</pdfrwt>
<pdfrwt beam="2">  1       -1 0.17843363E+00 0.29401690E+04</pdfrwt>
<totfact> 0.16637115E+00</totfact>
</mgrwt>
</event>
<event>
11    6  0.1705838E-008  0.1437827E+04  0.7818608E-02  0.8926883E-01
         -1   -1    0    0    0  501 -0.00000000000E+00  0.00000000000E+00  0.21117400546E+03  0.21117400546E+03  0.00000000000E+00 0.  1.
          2   -1    0    0  501    0  0.00000000000E+00 -0.00000000000E+00 -0.24474455529E+04  0.24474455529E+04  0.00000000000E+00 0. -1.
         24    2    1    2    0    0 -0.28496030790E+03 -0.32712521208E+03 -0.54909730977E+03  0.70398600151E+03  0.76649548445E+02 0.  0.
        254    2    1    2    0    0  0.28496030790E+03  0.32712521208E+03 -0.16871742377E+04  0.19546335568E+04  0.88646610302E+03 0.  0.
         23    2    4    4    0    0 -0.14773402414E+03  0.22552792677E+03 -0.13309120304E+04  0.13610680031E+04  0.92147103770E+02 0.  0.
          2    1    3    3  502    0 -0.19475428849E+02 -0.63033828119E+02 -0.76668411733E+02  0.10114643431E+03  0.00000000000E+00 0. -1.
         -1    1    3    3    0  502 -0.26548487905E+03 -0.26409138396E+03 -0.47242889803E+03  0.60283956720E+03  0.00000000000E+00 0.  1.
         11    1    4    4    0    0  0.31098149232E+03  0.20010927289E+02 -0.16495393017E+03  0.35259002376E+03  0.00000000000E+00 0. -1.
        -11    1    4    4    0    0  0.12171283972E+03  0.81586358020E+02 -0.19130827711E+03  0.24097553000E+03  0.00000000000E+00 0.  1.
          1    1    5    5  503    0 -0.62416146710E+02  0.17378832376E+03 -0.82556529850E+03  0.84596466766E+03  0.00000000000E+00 0. -1.
         -1    1    5    5    0  503 -0.85317877426E+02  0.51739603016E+02 -0.50534673189E+03  0.51510333542E+03  0.00000000000E+00 0.  1.
<mgrwt>
<rscale>  0 0.14378274E+04</rscale>
<asrwt>0</asrwt>
<pdfrwt beam="1">  1        2 0.37653007E+00 0.14378274E+04</pdfrwt>
<pdfrwt beam="2">  1       -1 0.32488310E-01 0.14378274E+04</pdfrwt>
<totfact> 0.36688843E+01</totfact>
</mgrwt>
</event>
<event>
12    6  0.1705838E-008  0.2120952E+04  0.7818608E-02  0.8552070E-01
          2   -1    0    0  501    0  0.00000000000E+00  0.00000000000E+00  0.23488571571E+04  0.23488571571E+04  0.00000000000E+00 0. -1.
         -1   -1    0    0    0  501 -0.00000000000E+00 -0.00000000000E+00 -0.47879007555E+03  0.47879007555E+03  0.00000000000E+00 0.  1.
         24    2    1    2    0    0  0.90502149857E+02 -0.64416375507E+03  0.15043616366E+04  0.16409080842E+04  0.79610454352E+02 0.  0.
        254    2    1    2    0    0 -0.90502149857E+02  0.64416375507E+03  0.36570544495E+03  0.11867391485E+04  0.92275226993E+03 0.  0.
         23    2    4    4    0    0 -0.14193219245E+03  0.44850786129E+03 -0.24093516267E+03  0.54152064113E+03  0.11785925195E+03 0.  0.
         23    2    4    4    0    0  0.51430042591E+02  0.19565589378E+03  0.60664060761E+03  0.64521850737E+03  0.85835991279E+02 0.  0.
          4    1    3    3  502    0  0.72950170500E+02 -0.48318842017E+03  0.12099526209E+04  0.13049054071E+04  0.00000000000E+00 0. -1.
         -3    1    3    3    0  502  0.17551979357E+02 -0.16097533490E+03  0.29440901575E+03  0.33600267704E+03  0.00000000000E+00 0.  1.
         11    1    5    5    0    0 -0.62133439665E+02  0.35006065274E+03 -0.15178300502E+03  0.38657613161E+03  0.00000000000E+00 0.  1.
        -11    1    5    5    0    0 -0.79798752783E+02  0.98447208557E+02 -0.89152157645E+02  0.15494450952E+03  0.00000000000E+00 0. -1.
          2    1    6    6  503    0 -0.78352607268E+01 -0.55249874182E+01  0.19177041320E+02  0.21440049217E+02  0.00000000000E+00 0. -1.
         -2    1    6    6    0  503  0.59265303318E+02  0.20118088120E+03  0.58746356629E+03  0.62377845816E+03  0.00000000000E+00 0.  1.
<mgrwt>
<rscale>  0 0.21209521E+04</rscale>
<asrwt>0</asrwt>
<pdfrwt beam="1">  1        2 0.36136263E+00 0.21209521E+04</pdfrwt>
<pdfrwt beam="2">  1       -1 0.73660013E-01 0.21209521E+04</pdfrwt>
<totfact> 0.82671540E+00</totfact>
</mgrwt>
</event>
<event>
12    6  0.1705838E-008  0.2636686E+04  0.7818608E-02  0.8355845E-01
          2   -1    0    0  501    0  0.00000000000E+00  0.00000000000E+00  0.15799246959E+04  0.15799246959E+04  0.00000000000E+00 0. -1.
         -1   -1    0    0    0  501 -0.00000000000E+00 -0.00000000000E+00 -0.11000704116E+04  0.11000704116E+04  0.00000000000E+00 0.  1.
         24    2    1    2    0    0  0.11220606549E+04 -0.30055977875E+03  0.13498690688E+03  0.11722155449E+04  0.80694019877E+02 0.  0.
        254    2    1    2    0    0 -0.11220606549E+04  0.30055977875E+03  0.34486737744E+03  0.15077795627E+04  0.89727889074E+03 0.  0.
         23    2    4    4    0    0 -0.31959609817E+03  0.28668464202E+02  0.53682161206E+03  0.63406818422E+03  0.10441011572E+03 0.  0.
         23    2    4    4    0    0 -0.80246455671E+03  0.27189131455E+03 -0.19195423462E+03  0.87371137845E+03  0.93010176583E+02 0.  0.
          4    1    3    3  502    0  0.72774666978E+03 -0.19476661654E+03  0.48656401168E+02  0.75492827187E+03  0.00000000000E+00 0. -1.
         -3    1    3    3    0  502  0.39431398509E+03 -0.10579316221E+03  0.86330505712E+02  0.41728727302E+03  0.00000000000E+00 0.  1.
         11    1    5    5    0    0 -0.92361412889E+02 -0.22398525222E+02  0.23000830965E+03  0.24886973908E+03  0.00000000000E+00 0.  1.
        -11    1    5    5    0    0 -0.22723468528E+03  0.51066989424E+02  0.30681330241E+03  0.38519844514E+03  0.00000000000E+00 0. -1.
          4    1    6    6  503    0 -0.55995117884E+03  0.14875650822E+03 -0.15035383376E+03  0.59856503135E+03  0.00000000000E+00 0. -1.
         -4    1    6    6    0  503 -0.24251337786E+03  0.12313480633E+03 -0.41600400853E+02  0.27514634710E+03  0.00000000000E+00 0.  1.
<mgrwt>
<rscale>  0 0.26366861E+04</rscale>
<asrwt>0</asrwt>
<pdfrwt beam="1">  1        2 0.24306534E+00 0.26366861E+04</pdfrwt>
<pdfrwt beam="2">  1       -1 0.16924160E+00 0.26366861E+04</pdfrwt>
<totfact> 0.28646668E+00</totfact>
</mgrwt>
</event>
<event>
12    6  0.1705838E-008  0.3388180E+04  0.7818608E-02  0.8140813E-01
         -1   -1    0    0    0  501 -0.00000000000E+00  0.00000000000E+00  0.13632624533E+04  0.13632624533E+04  0.00000000000E+00 0.  1.
          2   -1    0    0  501    0  0.00000000000E+00 -0.00000000000E+00 -0.21052008693E+04  0.21052008693E+04  0.00000000000E+00 0. -1.
         24    2    1    2    0    0 -0.14104263416E+04 -0.37598172401E+03 -0.93665532287E+03  0.17361559347E+04  0.79053867770E+02 0.  0.
        254    2    1    2    0    0  0.14104263416E+04  0.37598172401E+03  0.19471690688E+03  0.17323073879E+04  0.91230997504E+03 0.  0.
         23    2    4    4    0    0  0.15476116682E+03  0.10231172139E+03 -0.28555934614E+03  0.35743853606E+03  0.10862531844E+03 0.  0.
         23    2    4    4    0    0  0.12556651748E+04  0.27367000262E+03  0.48027625302E+03  0.13748688518E+04  0.89491782425E+02 0.  0.
          4    1    3    3  502    0 -0.57002342964E+02 -0.18684007648E+01 -0.46631798926E+02  0.73670093633E+02  0.00000000000E+00 0. -1.
         -3    1    3    3    0  502 -0.13534239986E+04 -0.37411332325E+03 -0.89002352394E+03  0.16624858411E+04  0.00000000000E+00 0.  1.
         11    1    5    5    0    0  0.27252848707E+02 -0.23266758872E+02 -0.42260858023E+02  0.55407941235E+02  0.00000000000E+00 0. -1.
        -11    1    5    5    0    0  0.12750831811E+03  0.12557848026E+03 -0.24329848811E+03  0.30203059483E+03  0.00000000000E+00 0.  1.
          4    1    6    6  503    0  0.40149065429E+03  0.63614957819E+02  0.18885886128E+03  0.44822904617E+03  0.00000000000E+00 0. -1.
         -4    1    6    6    0  503  0.85417452046E+03  0.21005504480E+03  0.29141739174E+03  0.92663980568E+03  0.00000000000E+00 0.  1.
<mgrwt>
<rscale>  0 0.33881802E+04</rscale>
<asrwt>0</asrwt>
<pdfrwt beam="1">  1        2 0.32387706E+00 0.33881802E+04</pdfrwt>
<pdfrwt beam="2">  1       -1 0.20973269E+00 0.33881802E+04</pdfrwt>
<totfact> 0.71057769E-01</totfact>
</mgrwt>
</event>
<event>
12    6  0.1705838E-008  0.1305362E+04  0.7818608E-02  0.9025324E-01
          2   -1    0    0  501    0  0.00000000000E+00  0.00000000000E+00  0.10271265281E+04  0.10271265281E+04  0.00000000000E+00 0. -1.
         -1   -1    0    0    0  501 -0.00000000000E+00 -0.00000000000E+00 -0.41474207916E+03  0.41474207916E+03  0.00000000000E+00 0.  1.
         24    2    1    2    0    0 -0.38144057413E+02  0.21436319789E+03 -0.11930477191E+03  0.26120145713E+03  0.81154315227E+02 0.  0.
        254    2    1    2    0    0  0.38144057413E+02 -0.21436319789E+03  0.73168922085E+03  0.11806671501E+04  0.90066600566E+03 0.  0.
         23    2    4    4    0    0 -0.28858732480E+02 -0.29027902770E+03 -0.10877950353E+03  0.32933824742E+03  0.10740558861E+03 0.  0.
         23    2    4    4    0    0  0.67002789892E+02  0.75915829811E+02  0.84046872438E+03  0.85132890270E+03  0.90114576225E+02 0.  0.
          4    1    3    3  502    0  0.25006454859E+02  0.76567136637E+02 -0.47066615569E+02  0.93290489861E+02  0.00000000000E+00 0. -1.
         -3    1    3    3    0  502 -0.63150512272E+02  0.13779606126E+03 -0.72238156340E+02  0.16791096727E+03  0.00000000000E+00 0.  1.
         11    1    5    5    0    0 -0.66069905918E+02 -0.12496299950E+03 -0.46579028419E+02  0.14883074145E+03  0.00000000000E+00 0.  1.
        -11    1    5    5    0    0  0.37211173439E+02 -0.16531602820E+03 -0.62200475107E+02  0.18050750597E+03  0.00000000000E+00 0. -1.
          1    1    6    6  503    0  0.40563809717E+02  0.75319438359E+02  0.78742294171E+03  0.79205639293E+03  0.00000000000E+00 0. -1.
         -1    1    6    6    0  503  0.26438980175E+02  0.59639145123E+00  0.53045782664E+02  0.59272509766E+02  0.00000000000E+00 0.  1.
<mgrwt>
<rscale>  0 0.13053622E+04</rscale>
<asrwt>0</asrwt>
<pdfrwt beam="1">  1        2 0.15801947E+00 0.13053622E+04</pdfrwt>
<pdfrwt beam="2">  1       -1 0.63806474E-01 0.13053622E+04</pdfrwt>
<totfact> 0.67387351E+01</totfact>
</mgrwt>
</event>
<event>
11    6  0.1705838E-008  0.1223987E+04  0.7818608E-02  0.9092116E-01
         -1   -1    0    0    0  501 -0.00000000000E+00  0.00000000000E+00  0.27686675541E+03  0.27686675541E+03  0.00000000000E+00 0.  1.
          2   -1    0    0  501    0  0.00000000000E+00 -0.00000000000E+00 -0.13527662856E+04  0.13527662856E+04  0.00000000000E+00 0. -1.
         24    2    1    2    0    0 -0.16901497939E+03  0.34006987724E+02 -0.49455626169E+03  0.52979405196E+03  0.79832969625E+02 0.  0.
        254    2    1    2    0    0  0.16901497939E+03 -0.34006987724E+02 -0.58134326849E+03  0.10998389890E+04  0.91758556413E+03 0.  0.
         23    2    4    4    0    0 -0.25847035379E+03 -0.23650288698E+03 -0.15831602729E+03  0.39396525308E+03  0.86047177741E+02 0.  0.
          4    1    3    3  502    0 -0.15105248605E+03  0.50678095184E+02 -0.36994361262E+03  0.40279448779E+03  0.00000000000E+00 0. -1.
         -3    1    3    3    0  502 -0.17962493342E+02 -0.16671107460E+02 -0.12461264907E+03  0.12699956417E+03  0.00000000000E+00 0.  1.
         11    1    4    4    0    0  0.17263224159E+03  0.15433022778E+03 -0.27910765895E+02  0.23323533373E+03  0.00000000000E+00 0. -1.
        -11    1    4    4    0    0  0.25485309160E+03  0.48165671469E+02 -0.39511647530E+03  0.47263840223E+03  0.00000000000E+00 0.  1.
          3    1    5    5  503    0 -0.75642973593E+02 -0.64205012724E+02 -0.43428295908E+01  0.99312654187E+02  0.00000000000E+00 0. -1.
         -3    1    5    5    0  503 -0.18282738020E+03 -0.17229787425E+03 -0.15397319770E+03  0.29465259889E+03  0.00000000000E+00 0.  1.
<mgrwt>
<rscale>  0 0.12239869E+04</rscale>
<asrwt>0</asrwt>
<pdfrwt beam="1">  1        2 0.20811789E+00 0.12239869E+04</pdfrwt>
<pdfrwt beam="2">  1       -1 0.42594885E-01 0.12239869E+04</pdfrwt>
<totfact> 0.93785790E+01</totfact>
</mgrwt>
</event>
<event>
11    6  0.1705838E-008  0.2476386E+04  0.7818608E-02  0.8411447E-01
         -1   -1    0    0    0  501 -0.00000000000E+00  0.00000000000E+00  0.96183781447E+03  0.96183781447E+03  0.00000000000E+00 0.  1.
          2   -1    0    0  501    0  0.00000000000E+00 -0.00000000000E+00 -0.15939503221E+04  0.15939503221E+04  0.00000000000E+00 0. -1.
         24    2    1    2    0    0  0.80190451237E+03 -0.10957511503E+03 -0.10065587081E+04  0.12940560473E+04  0.79768841229E+02 0.  0.
        254    2    1    2    0    0 -0.80190451237E+03  0.10957511503E+03  0.37444620050E+03  0.12617320892E+04  0.89258072748E+03 0.  0.
         23    2    4    4    0    0 -0.62350195531E+02 -0.20388021039E+03 -0.16627031226E+03  0.28484029266E+03  0.89629730079E+02 0.  0.
          2    1    3    3  502    0  0.77786832714E+03 -0.10952207047E+03 -0.95072889294E+03  0.12332719271E+04  0.00000000000E+00 0. -1.
         -1    1    3    3    0  502  0.24036185226E+02 -0.53044565040E-01 -0.55829815157E+02  0.60784120249E+02  0.00000000000E+00 0.  1.
         11    1    4    4    0    0 -0.49794248243E+03  0.15551602916E+03  0.38946918940E+03  0.65101321079E+03  0.00000000000E+00 0. -1.
        -11    1    4    4    0    0 -0.24161183441E+03  0.15793929627E+03  0.15124732335E+03  0.32587858575E+03  0.00000000000E+00 0.  1.
          4    1    5    5  503    0 -0.78416286990E+02 -0.17882879626E+03 -0.11805371562E+03  0.22817872865E+03  0.00000000000E+00 0.  1.
         -4    1    5    5    0  503  0.16066091459E+02 -0.25051414124E+02 -0.48216596636E+02  0.56661564005E+02  0.00000000000E+00 0. -1.
<mgrwt>
<rscale>  0 0.24763858E+04</rscale>
<asrwt>0</asrwt>
<pdfrwt beam="1">  1        2 0.24522312E+00 0.24763858E+04</pdfrwt>
<pdfrwt beam="2">  1       -1 0.14797505E+00 0.24763858E+04</pdfrwt>
<totfact> 0.41393636E+00</totfact>
</mgrwt>
</event>
<event>
12    6  0.1705838E-008  0.1497144E+04  0.7818608E-02  0.8886354E-01
         -1   -1    0    0    0  501 -0.00000000000E+00  0.00000000000E+00  0.24885554084E+03  0.24885554084E+03  0.00000000000E+00 0.  1.
          2   -1    0    0  501    0  0.00000000000E+00 -0.00000000000E+00 -0.22517486339E+04  0.22517486339E+04  0.00000000000E+00 0. -1.
         24    2    1    2    0    0 -0.35346871167E+03 -0.16033269529E+03 -0.19906345617E+03  0.44351212962E+03  0.80187569074E+02 0.  0.
        254    2    1    2    0    0  0.35346871167E+03  0.16033269529E+03 -0.18038296369E+04  0.20570920451E+04  0.90949415604E+03 0.  0.
         23    2    4    4    0    0  0.36666499109E+03  0.38208334920E+03 -0.51857944712E+03  0.74954903776E+03  0.11166116422E+03 0.  0.
         23    2    4    4    0    0 -0.13196279429E+02 -0.22175065390E+03 -0.12852501897E+04  0.13075430073E+04  0.91941130759E+02 0.  0.
          2    1    3    3  502    0 -0.16629789481E+03 -0.11168109142E+03 -0.12671100779E+03  0.23703024172E+03  0.00000000000E+00 0. -1.
         -1    1    3    3    0  502 -0.18717081686E+03 -0.48651603874E+02 -0.72352448386E+02  0.20648188790E+03  0.00000000000E+00 0.  1.
         11    1    5    5    0    0  0.14329117682E+02  0.54230510758E+01  0.34494981446E+01  0.15704525907E+02  0.00000000000E+00 0.  1.
        -11    1    5    5    0    0  0.35233587341E+03  0.37666029812E+03 -0.52202894527E+03  0.73384451185E+03  0.00000000000E+00 0. -1.
          3    1    6    6  503    0 -0.11998128934E+01 -0.18585708158E+03 -0.82204373536E+03  0.84279309274E+03  0.00000000000E+00 0. -1.
         -3    1    6    6    0  503 -0.11996466535E+02 -0.35893572318E+02 -0.46320645437E+03  0.46474991459E+03  0.00000000000E+00 0.  1.
<mgrwt>
<rscale>  0 0.14971441E+04</rscale>
<asrwt>0</asrwt>
<pdfrwt beam="1">  1        2 0.34642287E+00 0.14971441E+04</pdfrwt>
<pdfrwt beam="2">  1       -1 0.38285467E-01 0.14971441E+04</pdfrwt>
<totfact> 0.35111719E+01</totfact>
</mgrwt>
</event>
<event>
12    6  0.1705838E-008  0.2650678E+04  0.7818608E-02  0.8351188E-01
         -1   -1    0    0    0  501 -0.00000000000E+00  0.00000000000E+00  0.18918420624E+04  0.18918420624E+04  0.00000000000E+00 0.  1.
          4   -1    0    0  501    0  0.00000000000E+00 -0.00000000000E+00 -0.92847235700E+03  0.92847235700E+03  0.00000000000E+00 0. -1.
         24    2    1    2    0    0 -0.54303218929E+03  0.95719315528E+03  0.42779141002E+01  0.11035996974E+04  0.82530579313E+02 0.  0.
        254    2    1    2    0    0  0.54303218929E+03 -0.95719315528E+03  0.95909179135E+03  0.17167147220E+04  0.90341002728E+03 0.  0.
         23    2    4    4    0    0  0.45162065195E+03 -0.77056269363E+03  0.11215024241E+04  0.14378883651E+04  0.10966852399E+03 0.  0.
         23    2    4    4    0    0  0.91411537341E+02 -0.18663046165E+03 -0.16241063273E+03  0.27882635692E+03  0.90442939532E+02 0.  0.
          2    1    3    3  502    0 -0.49146639202E+03  0.86895351659E+03 -0.20178538251E+02  0.99851219416E+03  0.00000000000E+00 0. -1.
         -1    1    3    3    0  502 -0.51565797269E+02  0.88239638691E+02  0.24456452351E+02  0.10508750328E+03  0.00000000000E+00 0.  1.
         11    1    5    5    0    0  0.25143643186E+03 -0.37082061111E+03  0.63528709947E+03  0.77737886750E+03  0.00000000000E+00 0. -1.
        -11    1    5    5    0    0  0.20018422008E+03 -0.39974208252E+03  0.48621532461E+03  0.66050949758E+03  0.00000000000E+00 0.  1.
          1    1    6    6  503    0  0.94987151265E+02 -0.16097458934E+03 -0.10162428917E+03  0.21275073082E+03  0.00000000000E+00 0. -1.
         -1    1    6    6    0  503 -0.35756139248E+01 -0.25655872314E+02 -0.60786343568E+02  0.66075626092E+02  0.00000000000E+00 0.  1.
<mgrwt>
<rscale>  0 0.26506777E+04</rscale>
<asrwt>0</asrwt>
<pdfrwt beam="1">  1        4 0.14284190E+00 0.26506777E+04</pdfrwt>
<pdfrwt beam="2">  1       -1 0.29105262E+00 0.26506777E+04</pdfrwt>
<totfact> 0.46811573E-02</totfact>
</mgrwt>
</event>
<event>
12    6  0.1705838E-008  0.3445752E+04  0.7818608E-02  0.8126768E-01
          2   -1    0    0  501    0  0.00000000000E+00  0.00000000000E+00  0.28375664449E+04  0.28375664449E+04  0.00000000000E+00 0. -1.
         -1   -1    0    0    0  501 -0.00000000000E+00 -0.00000000000E+00 -0.10460733232E+04  0.10460733232E+04  0.00000000000E+00 0.  1.
         24    2    1    2    0    0  0.10937722594E+04 -0.64016473753E+02 -0.48708032806E+03  0.12016871343E+04  0.79805128482E+02 0.  0.
        254    2    1    2    0    0 -0.10937722594E+04  0.64016473753E+02  0.22785734498E+04  0.26819526337E+04  0.89472738832E+03 0.  0.
         23    2    4    4    0    0 -0.84997512311E+03 -0.28702325755E+03  0.10955150340E+04  0.14206622104E+04  0.11527300608E+03 0.  0.
         23    2    4    4    0    0 -0.24379713626E+03  0.35103973130E+03  0.11830584157E+04  0.12612904234E+04  0.92522323962E+02 0.  0.
          2    1    3    3  502    0  0.11799721131E+03  0.10079511818E+02 -0.33362386110E+02  0.12303652809E+03  0.00000000000E+00 0. -1.
         -1    1    3    3    0  502  0.97577504806E+03 -0.74095985570E+02 -0.45371794195E+03  0.10786506062E+04  0.00000000000E+00 0.  1.
         11    1    5    5    0    0 -0.42796900617E+02  0.90300691751E+01  0.39682090038E+02  0.59057473037E+02  0.00000000000E+00 0. -1.
        -11    1    5    5    0    0 -0.80717822249E+03 -0.29605332673E+03  0.10558329440E+04  0.13616047373E+04  0.00000000000E+00 0.  1.
          3    1    6    6  503    0  0.18527137680E+01  0.42616985718E+02  0.13106896055E+03  0.13783581697E+03  0.00000000000E+00 0. -1.
         -3    1    6    6    0  503 -0.24564985003E+03  0.30842274559E+03  0.10519894552E+04  0.11234546064E+04  0.00000000000E+00 0.  1.
<mgrwt>
<rscale>  0 0.34457525E+04</rscale>
<asrwt>0</asrwt>
<pdfrwt beam="1">  1        2 0.43654868E+00 0.34457525E+04</pdfrwt>
<pdfrwt beam="2">  1       -1 0.16093436E+00 0.34457525E+04</pdfrwt>
<totfact> 0.59110138E-01</totfact>
</mgrwt>
</event>
<event>
12    6  0.1705838E-008  0.1357456E+04  0.7818608E-02  0.8985203E-01
          2   -1    0    0  501    0  0.00000000000E+00  0.00000000000E+00  0.17317493071E+04  0.17317493071E+04  0.00000000000E+00 0. -1.
         -1   -1    0    0    0  501 -0.00000000000E+00 -0.00000000000E+00 -0.26601509882E+03  0.26601509882E+03  0.00000000000E+00 0.  1.
         24    2    1    2    0    0 -0.34478092164E+03 -0.17024272784E+02  0.17958583308E+03  0.39694240342E+03  0.78412310232E+02 0.  0.
        254    2    1    2    0    0  0.34478092164E+03  0.17024272784E+02  0.12861483752E+04  0.16008220025E+04  0.88841979428E+03 0.  0.
         23    2    4    4    0    0 -0.20238688641E+03 -0.17272374926E+03  0.16730417894E+03  0.33771692904E+03  0.12356411500E+03 0.  0.
         23    2    4    4    0    0  0.54716780806E+03  0.18974802204E+03  0.11188441962E+04  0.12631050735E+04  0.90692717884E+02 0.  0.
          4    1    3    3  502    0 -0.97810407536E+01  0.14505673358E+02  0.97763073969E+01  0.20041444661E+02  0.00000000000E+00 0. -1.
         -3    1    3    3    0  502 -0.33499988089E+03 -0.31529946141E+02  0.16980952568E+03  0.37690095876E+03  0.00000000000E+00 0.  1.
         11    1    5    5    0    0 -0.62013179224E+01 -0.30778909962E+01 -0.17784821875E+02  0.19084801442E+02  0.00000000000E+00 0.  1.
        -11    1    5    5    0    0 -0.19618556849E+03 -0.16964585826E+03  0.18508900082E+03  0.31863212759E+03  0.00000000000E+00 0. -1.
          3    1    6    6  503    0  0.29652550450E+03  0.14396410825E+03  0.67936937731E+03  0.75511309756E+03  0.00000000000E+00 0. -1.
         -3    1    6    6    0  503  0.25064230356E+03  0.45783913792E+02  0.43947481893E+03  0.50799197589E+03  0.00000000000E+00 0.  1.
<mgrwt>
<rscale>  0 0.13574557E+04</rscale>
<asrwt>0</asrwt>
<pdfrwt beam="1">  1        2 0.26642296E+00 0.13574557E+04</pdfrwt>
<pdfrwt beam="2">  1       -1 0.40925401E-01 0.13574557E+04</pdfrwt>
<totfact> 0.61162063E+01</totfact>
</mgrwt>
</event>
<event>
12    6  0.1705838E-008  0.2248322E+04  0.7818608E-02  0.8498580E-01
         -1   -1    0    0    0  501 -0.00000000000E+00  0.00000000000E+00  0.90179986953E+03  0.90179986953E+03  0.00000000000E+00 0.  1.
          2   -1    0    0  501    0  0.00000000000E+00 -0.00000000000E+00 -0.14013505915E+04  0.14013505915E+04  0.00000000000E+00 0. -1.
         24    2    1    2    0    0 -0.56882567871E+03 -0.68032611832E+03  0.10878738599E+03  0.89705837265E+03  0.80453393771E+02 0.  0.
        254    2    1    2    0    0  0.56882567871E+03  0.68032611832E+03 -0.60833810801E+03  0.14060920884E+04  0.90587715912E+03 0.  0.
         23    2    4    4    0    0  0.70669120692E+03  0.48210058088E+03 -0.14507271130E+03  0.87571552168E+03  0.11831378335E+03 0.  0.
         23    2    4    4    0    0 -0.13786552820E+03  0.19822553744E+03 -0.46326539670E+03  0.53037656673E+03  0.91565316564E+02 0.  0.
          4    1    3    3  502    0 -0.29481310808E+02 -0.68905715015E+02  0.14213097339E+02  0.76283401764E+02  0.00000000000E+00 0. -1.
         -3    1    3    3    0  502 -0.53934436791E+03 -0.61142040330E+03  0.94574288652E+02  0.82077497089E+03  0.00000000000E+00 0.  1.
         11    1    5    5    0    0  0.39150358710E+03  0.20308077150E+03 -0.47346950279E+02  0.44357478757E+03  0.00000000000E+00 0. -1.
        -11    1    5    5    0    0  0.31518761981E+03  0.27901980938E+03 -0.97725761024E+02  0.43214073411E+03  0.00000000000E+00 0.  1.
          2    1    6    6  503    0 -0.13277599769E+03  0.18967879142E+03 -0.36924776426E+03  0.43583416673E+03  0.00000000000E+00 0. -1.
         -2    1    6    6    0  503 -0.50895305118E+01  0.85467460199E+01 -0.94017632444E+02  0.94542400005E+02  0.00000000000E+00 0.  1.
<mgrwt>
<rscale>  0 0.22483218E+04</rscale>
<asrwt>0</asrwt>
<pdfrwt beam="1">  1        2 0.21559240E+00 0.22483218E+04</pdfrwt>
<pdfrwt beam="2">  1       -1 0.13873844E+00 0.22483218E+04</pdfrwt>
<totfact> 0.64318173E+00</totfact>
</mgrwt>
</event>
<event>
12    6  0.1705838E-008  0.1422552E+04  0.7818608E-02  0.8937654E-01
         -1   -1    0    0    0  501 -0.00000000000E+00  0.00000000000E+00  0.74803902383E+03  0.74803902383E+03  0.00000000000E+00 0.  1.
          2   -1    0    0  501    0  0.00000000000E+00 -0.00000000000E+00 -0.67632012569E+03  0.67632012569E+03  0.00000000000E+00 0. -1.
         24    2    1    2    0    0  0.66338008947E+01  0.45986429671E+02 -0.40261630481E+03  0.41283899089E+03  0.78596338819E+02 0.  0.
        254    2    1    2    0    0 -0.66338008947E+01 -0.45986429671E+02  0.47433520295E+03  0.10115201586E+04  0.89219974642E+03 0.  0.
         23    2    4    4    0    0  0.21817739694E+03 -0.37959032439E+03  0.11906228660E+03  0.46613447242E+03  0.10684253547E+03 0.  0.
         23    2    4    4    0    0 -0.22481119783E+03  0.33360389472E+03  0.35527291635E+03  0.54538568620E+03  0.96928160919E+02 0.  0.
          2    1    3    3  502    0 -0.10756654926E+01  0.41081454675E+02 -0.40154091209E+03  0.40363838650E+03  0.00000000000E+00 0. -1.
         -1    1    3    3    0  502  0.77094663873E+01  0.49049749961E+01 -0.10753927183E+01  0.92006043925E+01  0.00000000000E+00 0.  1.
         11    1    5    5    0    0  0.46781895719E+02 -0.17519343153E+03  0.72822857318E+02  0.19540842552E+03  0.00000000000E+00 0.  1.
        -11    1    5    5    0    0  0.17139550122E+03 -0.20439689286E+03  0.46239429280E+02  0.27072604690E+03  0.00000000000E+00 0. -1.
          1    1    6    6  503    0 -0.22808653150E+03  0.33272856010E+03  0.35923711043E+03  0.54016947532E+03  0.00000000000E+00 0. -1.
         -1    1    6    6    0  503  0.32753336646E+01  0.87533461751E+00 -0.39641940765E+01  0.52162108837E+01  0.00000000000E+00 0.  1.
<mgrwt>
<rscale>  0 0.14225524E+04</rscale>
<asrwt>0</asrwt>
<pdfrwt beam="1">  1        2 0.10404925E+00 0.14225524E+04</pdfrwt>
<pdfrwt beam="2">  1       -1 0.11508293E+00 0.14225524E+04</pdfrwt>
<totfact> 0.32559462E+01</totfact>
</mgrwt>
</event>
<event>
12    6  0.1705838E-008  0.1210727E+04  0.7818608E-02  0.9103519E-01
         -1   -1    0    0    0  501 -0.00000000000E+00  0.00000000000E+00  0.30701538264E+03  0.30701538264E+03  0.00000000000E+00 0.  1.
          2   -1    0    0  501    0  0.00000000000E+00 -0.00000000000E+00 -0.11936375371E+04  0.11936375371E+04  0.00000000000E+00 0. -1.
         24    2    1    2    0    0 -0.67926741817E+02 -0.23355778583E+03 -0.13038709785E+03  0.28659292872E+03  0.77275027844E+02 0.  0.
        254    2    1    2    0    0  0.67926741817E+02  0.23355778583E+03 -0.75623505660E+03  0.12140599910E+04  0.91808873176E+03 0.  0.
         23    2    4    4    0    0  0.14658856181E+03  0.40277022616E+02  0.17455157525E+03  0.25591358914E+03  0.10914700033E+03 0.  0.
         23    2    4    4    0    0 -0.78661819988E+02  0.19328076322E+03 -0.93078663185E+03  0.95814640188E+03  0.90197771846E+02 0.  0.
          2    1    3    3  502    0  0.25565864432E+01 -0.10016372221E+03 -0.77678375735E+02  0.12678027228E+03  0.00000000000E+00 0. -1.
         -1    1    3    3    0  502 -0.70483328260E+02 -0.13339406362E+03 -0.52708722114E+02  0.15981265644E+03  0.00000000000E+00 0.  1.
         11    1    5    5    0    0  0.14476698220E+03  0.35062229794E+02  0.18888642991E+03  0.24055128870E+03  0.00000000000E+00 0. -1.
        -11    1    5    5    0    0  0.18215796093E+01  0.52147928222E+01 -0.14334854662E+02  0.15362300434E+02  0.00000000000E+00 0.  1.
          4    1    6    6  503    0 -0.83377859879E+02  0.85778630339E+02 -0.47546197170E+03  0.49027943815E+03  0.00000000000E+00 0. -1.
         -4    1    6    6    0  503  0.47160398909E+01  0.10750213288E+03 -0.45532466016E+03  0.46786696373E+03  0.00000000000E+00 0.  1.
<mgrwt>
<rscale>  0 0.12107272E+04</rscale>
<asrwt>0</asrwt>
<pdfrwt beam="1">  1        2 0.18363654E+00 0.12107272E+04</pdfrwt>
<pdfrwt beam="2">  1       -1 0.47233136E-01 0.12107272E+04</pdfrwt>
<totfact> 0.96010839E+01</totfact>
</mgrwt>
</event>
<event>
12    6  0.1705838E-008  0.2017659E+04  0.7818608E-02  0.8598409E-01
         -1   -1    0    0    0  501 -0.00000000000E+00  0.00000000000E+00  0.43280205409E+03  0.43280205409E+03  0.00000000000E+00 0.  1.
          2   -1    0    0  501    0  0.00000000000E+00 -0.00000000000E+00 -0.23515061112E+04  0.23515061112E+04  0.00000000000E+00 0. -1.
         24    2    1    2    0    0  0.15290449637E+03  0.15804578259E+03 -0.18348791329E+04  0.18496876568E+04  0.78770177063E+02 0.  0.
        254    2    1    2    0    0 -0.15290449637E+03 -0.15804578259E+03 -0.83824924149E+02  0.93462050847E+03  0.90450573383E+03 0.  0.
         23    2    4    4    0    0 -0.49738490883E+03  0.63120995014E+02  0.34621601541E+01  0.50585723556E+03  0.67108484378E+02 0.  0.
         23    2    4    4    0    0  0.34448041245E+03 -0.22116677761E+03 -0.87287084303E+02  0.42876327291E+03  0.92937672810E+02 0.  0.
          4    1    3    3  502    0  0.54013452087E+02  0.55275826412E+02 -0.97525811669E+03  0.97831552383E+03  0.00000000000E+00 0. -1.
         -3    1    3    3    0  502  0.98891044288E+02  0.10276995618E+03 -0.85962101622E+03  0.87137213294E+03  0.00000000000E+00 0.  1.
         11    1    5    5    0    0 -0.23151491747E+03  0.36125836305E+02 -0.31188976989E+02  0.23638313253E+03  0.00000000000E+00 0. -1.
        -11    1    5    5    0    0 -0.26586999136E+03  0.26995158710E+02  0.34651137143E+02  0.26947410303E+03  0.00000000000E+00 0.  1.
          3    1    6    6  503    0  0.67551926233E+02 -0.54350545927E+02  0.18405152578E+02  0.88634046629E+02  0.00000000000E+00 0. -1.
         -3    1    6    6    0  503  0.27692848622E+03 -0.16681623168E+03 -0.10569223688E+03  0.34012922628E+03  0.00000000000E+00 0.  1.
<mgrwt>
<rscale>  0 0.20176587E+04</rscale>
<asrwt>0</asrwt>
<pdfrwt beam="1">  1        2 0.36177017E+00 0.20176587E+04</pdfrwt>
<pdfrwt beam="2">  1       -1 0.66584931E-01 0.20176587E+04</pdfrwt>
<totfact> 0.10230113E+01</totfact>
</mgrwt>
</event>
<event>
11    6  0.1705838E-008  0.1260909E+04  0.7818608E-02  0.9061153E-01
         -1   -1    0    0    0  501 -0.00000000000E+00  0.00000000000E+00  0.17177019312E+03  0.17177019312E+03  0.00000000000E+00 0.  1.
          2   -1    0    0  501    0  0.00000000000E+00 -0.00000000000E+00 -0.23139794179E+04  0.23139794179E+04  0.00000000000E+00 0. -1.
         24    2    1    2    0    0 -0.10563891617E+03 -0.23915120829E+03 -0.23769229264E+03  0.36081478874E+03  0.73053437649E+02 0.  0.
        254    2    1    2    0    0  0.10563891617E+03  0.23915120829E+03 -0.19045169321E+04  0.21249348223E+04  0.90543380382E+03 0.  0.
         23    2    4    4    0    0 -0.34390702412E+03 -0.77472453906E+02 -0.76852034529E+03  0.84986806393E+03  0.85896348092E+02 0.  0.
          2    1    3    3  502    0 -0.45881570804E+02 -0.37277607542E+02 -0.70258335001E+02  0.91820325640E+02  0.00000000000E+00 0. -1.
         -1    1    3    3    0  502 -0.59757345363E+02 -0.20187360075E+03 -0.16743395764E+03  0.26899446310E+03  0.00000000000E+00 0.  1.
         11    1    4    4    0    0  0.39952027199E+03  0.33926972200E+03 -0.10264920150E+04  0.11525650736E+04  0.00000000000E+00 0. -1.
        -11    1    4    4    0    0  0.50025668296E+02 -0.22646059804E+02 -0.10950457182E+03  0.12250168473E+03  0.00000000000E+00 0.  1.
          1    1    5    5  503    0 -0.33300717696E+03 -0.72866320420E+02 -0.76501467099E+03  0.83752655324E+03  0.00000000000E+00 0. -1.
         -1    1    5    5    0  503 -0.10899847163E+02 -0.46061334858E+01 -0.35056743022E+01  0.12341510692E+02  0.00000000000E+00 0.  1.
<mgrwt>
<rscale>  0 0.12609087E+04</rscale>
<asrwt>0</asrwt>
<pdfrwt beam="1">  1        2 0.35599682E+00 0.12609087E+04</pdfrwt>
<pdfrwt beam="2">  1       -1 0.26426185E-01 0.12609087E+04</pdfrwt>
<totfact> 0.63646845E+01</totfact>
</mgrwt>
</event>
<event>
12    6  0.1705838E-008  0.1300060E+04  0.7818608E-02  0.9029517E-01
          2   -1    0    0  501    0  0.00000000000E+00  0.00000000000E+00  0.18559175045E+04  0.18559175045E+04  0.00000000000E+00 0. -1.
         -1   -1    0    0    0  501 -0.00000000000E+00 -0.00000000000E+00 -0.22767128611E+03  0.22767128611E+03  0.00000000000E+00 0.  1.
         24    2    1    2    0    0  0.29100058293E+03 -0.13654169496E+03  0.38398382719E+03  0.50661388802E+03  0.76740330068E+02 0.  0.
        254    2    1    2    0    0 -0.29100058293E+03  0.13654169496E+03  0.12442623912E+04  0.15769749026E+04  0.91396716110E+03 0.  0.
         23    2    4    4    0    0  0.28222699224E+03 -0.13359768843E+03  0.29914360226E+03  0.43584087987E+03  0.54497342023E+02 0.  0.
         23    2    4    4    0    0 -0.57322757517E+03  0.27013938339E+03  0.94511878898E+03  0.11411340228E+04  0.85861477108E+02 0.  0.
          4    1    3    3  502    0 -0.34213125911E+01 -0.64630730297E+01  0.31114271140E+01  0.79471800986E+01  0.00000000000E+00 0. -1.
         -3    1    3    3    0  502  0.29442189552E+03 -0.13007862193E+03  0.38087240008E+03  0.49866670792E+03  0.00000000000E+00 0.  1.
         11    1    5    5    0    0  0.19506610132E+03 -0.10116557031E+03  0.24111091915E+03  0.32622037311E+03  0.00000000000E+00 0.  1.
        -11    1    5    5    0    0  0.87160890924E+02 -0.32432118119E+02  0.58032683102E+02  0.10962050675E+03  0.00000000000E+00 0. -1.
          1    1    6    6  503    0 -0.10560587344E+03  0.19171117178E+02  0.18906041931E+03  0.21740279297E+03  0.00000000000E+00 0. -1.
         -1    1    6    6    0  503 -0.46762170173E+03  0.25096826621E+03  0.75605836967E+03  0.92373122980E+03  0.00000000000E+00 0.  1.
<mgrwt>
<rscale>  0 0.13000602E+04</rscale>
<asrwt>0</asrwt>
<pdfrwt beam="1">  1        2 0.28552576E+00 0.13000602E+04</pdfrwt>
<pdfrwt beam="2">  1       -1 0.35026353E-01 0.13000602E+04</pdfrwt>
<totfact> 0.69534835E+01</totfact>
</mgrwt>
</event>
<event>
11    6  0.1705838E-008  0.2373286E+04  0.7818608E-02  0.8449573E-01
          2   -1    0    0  501    0  0.00000000000E+00  0.00000000000E+00  0.16151890177E+04  0.16151890177E+04  0.00000000000E+00 0. -1.
         -1   -1    0    0    0  501 -0.00000000000E+00 -0.00000000000E+00 -0.87179967640E+03  0.87179967640E+03  0.00000000000E+00 0.  1.
         24    2    1    2    0    0  0.76893789709E+03  0.48725584523E+03 -0.14767677858E+03  0.92556076567E+03  0.78552859307E+02 0.  0.
        254    2    1    2    0    0 -0.76893789709E+03 -0.48725584523E+03  0.89106611989E+03  0.15614279284E+04  0.90298095074E+03 0.  0.
         23    2    4    4    0    0 -0.71516544507E+03 -0.36705596954E+03  0.76145681964E+03  0.11110597199E+04  0.91899480329E+02 0.  0.
          4    1    3    3  502    0  0.18754836366E+03  0.13858510016E+03 -0.76365297552E+01  0.23332067050E+03  0.00000000000E+00 0. -1.
         -3    1    3    3    0  502  0.58138953344E+03  0.34867074507E+03 -0.14004024882E+03  0.69224009516E+03  0.00000000000E+00 0.  1.
         11    1    4    4    0    0  0.45658021736E+02  0.60206509434E+02 -0.11058892866E+03  0.13393800756E+03  0.00000000000E+00 0.  1.
        -11    1    4    4    0    0 -0.99430473762E+02 -0.18040638512E+03  0.24019822890E+03  0.31643020095E+03  0.00000000000E+00 0. -1.
          3    1    5    5  503    0 -0.16716304471E+03 -0.12061295167E+03  0.16057749936E+03  0.26129695928E+03  0.00000000000E+00 0. -1.
         -3    1    5    5    0  503 -0.54800240036E+03 -0.24644301788E+03  0.60087932028E+03  0.84976276066E+03  0.00000000000E+00 0.  1.
<mgrwt>
<rscale>  0 0.23732857E+04</rscale>
<asrwt>0</asrwt>
<pdfrwt beam="1">  1        2 0.24849062E+00 0.23732857E+04</pdfrwt>
<pdfrwt beam="2">  1       -1 0.13412303E+00 0.23732857E+04</pdfrwt>
<totfact> 0.52571855E+00</totfact>
</mgrwt>
</event>
<event>
12    6  0.1705838E-008  0.1664184E+04  0.7818608E-02  0.8782059E-01
         -1   -1    0    0    0  501 -0.00000000000E+00  0.00000000000E+00  0.15612303910E+04  0.15612303910E+04  0.00000000000E+00 0.  1.
          2   -1    0    0  501    0  0.00000000000E+00 -0.00000000000E+00 -0.44348166157E+03  0.44348166157E+03  0.00000000000E+00 0. -1.
         24    2    1    2    0    0  0.53560582044E+03  0.10581321446E+03  0.59281437556E+03  0.80986729940E+03  0.79913249990E+02 0.  0.
        254    2    1    2    0    0 -0.53560582044E+03 -0.10581321446E+03  0.52493435386E+03  0.11948447532E+04  0.92413628706E+03 0.  0.
         23    2    4    4    0    0 -0.10846842746E+03 -0.10282241380E+03 -0.24598087597E+03  0.30885771966E+03  0.11202076199E+03 0.  0.
         23    2    4    4    0    0 -0.42713739298E+03 -0.29908006639E+01  0.77091522983E+03  0.88598703350E+03  0.90594892704E+02 0.  0.
          4    1    3    3  502    0  0.13906906879E+03  0.25239062201E+02  0.10501408267E+03  0.17608286037E+03  0.00000000000E+00 0. -1.
         -3    1    3    3    0  502  0.39653675165E+03  0.80574152259E+02  0.48780029289E+03  0.63378443904E+03  0.00000000000E+00 0.  1.
         11    1    5    5    0    0  0.18681453739E+02 -0.10433438526E+02 -0.68613111049E+02  0.71872194631E+02  0.00000000000E+00 0. -1.
        -11    1    5    5    0    0 -0.12714988120E+03 -0.92388975270E+02 -0.17736776492E+03  0.23698552503E+03  0.00000000000E+00 0.  1.
          2    1    6    6  503    0 -0.11966423046E+03  0.18046080876E+02  0.14947405819E+03  0.19232182185E+03  0.00000000000E+00 0. -1.
         -2    1    6    6    0  503 -0.30747316252E+03 -0.21036881539E+02  0.62144117164E+03  0.69366521166E+03  0.00000000000E+00 0.  1.
<mgrwt>
<rscale>  0 0.16641839E+04</rscale>
<asrwt>0</asrwt>
<pdfrwt beam="1">  1        2 0.68227949E-01 0.16641839E+04</pdfrwt>
<pdfrwt beam="2">  1       -1 0.24018929E+00 0.16641839E+04</pdfrwt>
<totfact> 0.62382230E+00</totfact>
</mgrwt>
</event>
<event>
12    6  0.1705838E-008  0.2350448E+04  0.7818608E-02  0.8458292E-01
          2   -1    0    0  501    0  0.00000000000E+00  0.00000000000E+00  0.13838103488E+04  0.13838103488E+04  0.00000000000E+00 0. -1.
         -1   -1    0    0    0  501 -0.00000000000E+00 -0.00000000000E+00 -0.99807862936E+03  0.99807862936E+03  0.00000000000E+00 0.  1.
         24    2    1    2    0    0  0.62927204030E+03  0.58406559703E+03  0.68547097404E+03  0.11015745896E+04  0.80499675867E+02 0.  0.
        254    2    1    2    0    0 -0.62927204030E+03 -0.58406559703E+03 -0.29973925462E+03  0.12803143886E+04  0.90124657585E+03 0.  0.
         23    2    4    4    0    0  0.13787085960E+03 -0.55607546530E+02 -0.29215672560E+03  0.34416424908E+03  0.10484705469E+03 0.  0.
         23    2    4    4    0    0 -0.76714289990E+03 -0.52845805050E+03 -0.75825290233E+01  0.93615013949E+03  0.92430779067E+02 0.  0.
          4    1    3    3  502    0  0.56606674111E+03  0.50101279830E+03  0.62573539468E+03  0.98132062222E+03  0.00000000000E+00 0. -1.
         -3    1    3    3    0  502  0.63205299190E+02  0.83052798728E+02  0.59735579366E+02  0.12025396735E+03  0.00000000000E+00 0.  1.
         11    1    5    5    0    0  0.10534104500E+03  0.22649409398E+01 -0.23102167817E+03  0.25391510688E+03  0.00000000000E+00 0. -1.
        -11    1    5    5    0    0  0.32529814596E+02 -0.57872487470E+02 -0.61135047431E+02  0.90249142200E+02  0.00000000000E+00 0.  1.
          3    1    6    6  503    0 -0.13871564147E+03 -0.11832197811E+03  0.30057724797E+02  0.18478524431E+03  0.00000000000E+00 0. -1.
         -3    1    6    6    0  503 -0.62842725843E+03 -0.41013607238E+03 -0.37640253820E+02  0.75136489518E+03  0.00000000000E+00 0.  1.
<mgrwt>
<rscale>  0 0.23504481E+04</rscale>
<asrwt>0</asrwt>
<pdfrwt beam="1">  1        2 0.21289390E+00 0.23504481E+04</pdfrwt>
<pdfrwt beam="2">  1       -1 0.15355056E+00 0.23504481E+04</pdfrwt>
<totfact> 0.49800212E+00</totfact>
</mgrwt>
</event>
<event>
12    6  0.1705838E-008  0.2054659E+04  0.7818608E-02  0.8581484E-01
          2   -1    0    0  501    0  0.00000000000E+00  0.00000000000E+00  0.27432617383E+04  0.27432617383E+04  0.00000000000E+00 0. -1.
         -1   -1    0    0    0  501 -0.00000000000E+00 -0.00000000000E+00 -0.38472671495E+03  0.38472671495E+03  0.00000000000E+00 0.  1.
         24    2    1    2    0    0 -0.25090152026E+03 -0.33537737889E+03  0.20523632974E+04  0.20961232453E+04  0.78153668805E+02 0.  0.
        254    2    1    2    0    0  0.25090152026E+03  0.33537737889E+03  0.30617172592E+03  0.10318652079E+04  0.89195017931E+03 0.  0.
         23    2    4    4    0    0  0.31779342242E+02  0.57148362902E+03  0.11564974324E+02  0.58598435731E+03  0.12506179890E+03 0.  0.
         23    2    4    4    0    0  0.21912217802E+03 -0.23610625013E+03  0.29460675160E+03  0.44588085058E+03  0.90862008456E+02 0.  0.
          4    1    3    3  502    0 -0.20490219200E+03 -0.27282988295E+03  0.14991866666E+04  0.15375245411E+04  0.00000000000E+00 0. -1.
         -3    1    3    3    0  502 -0.45999328260E+02 -0.62547495944E+02  0.55317663085E+03  0.55859870423E+03  0.00000000000E+00 0.  1.
         11    1    5    5    0    0  0.16077719128E+02  0.64101203206E+02  0.40544238605E+02  0.77532526006E+02  0.00000000000E+00 0.  1.
        -11    1    5    5    0    0  0.15701623114E+02  0.50738242582E+03 -0.28979264281E+02  0.50845183130E+03  0.00000000000E+00 0. -1.
          4    1    6    6  503    0  0.13599325042E+03 -0.18675421378E+03  0.24671537284E+03  0.33799375101E+03  0.00000000000E+00 0. -1.
         -4    1    6    6    0  503  0.83128927597E+02 -0.49352036349E+02  0.47891378753E+02  0.10788709957E+03  0.00000000000E+00 0.  1.
<mgrwt>
<rscale>  0 0.20546592E+04</rscale>
<asrwt>0</asrwt>
<pdfrwt beam="1">  1        2 0.42204026E+00 0.20546592E+04</pdfrwt>
<pdfrwt beam="2">  1       -1 0.59188727E-01 0.20546592E+04</pdfrwt>
<totfact> 0.76291845E+00</totfact>
</mgrwt>
</event>
<event>
11    6  0.1705838E-008  0.2543291E+04  0.7818608E-02  0.8387723E-01
         -1   -1    0    0    0  501 -0.00000000000E+00  0.00000000000E+00  0.69652560896E+03  0.69652560896E+03  0.00000000000E+00 0.  1.
          2   -1    0    0  501    0  0.00000000000E+00 -0.00000000000E+00 -0.23216414601E+04  0.23216414601E+04  0.00000000000E+00 0. -1.
         24    2    1    2    0    0  0.80983687325E+03 -0.53259345510E+03 -0.78175266662E+02  0.97578144580E+03  0.80910493566E+02 0.  0.
        254    2    1    2    0    0 -0.80983687325E+03  0.53259345510E+03 -0.15469405845E+04  0.20423856233E+04  0.91587243244E+03 0.  0.
         23    2    4    4    0    0 -0.86241540014E+03  0.24952043672E+03 -0.79194129612E+03  0.12005021289E+04  0.89518569145E+02 0.  0.
          2    1    3    3  502    0  0.83160603549E+02 -0.27191265474E+02 -0.64449734676E+01  0.87730203372E+02  0.00000000000E+00 0. -1.
         -1    1    3    3    0  502  0.72667626970E+03 -0.50540218962E+03 -0.71730293194E+02  0.88805124243E+03  0.00000000000E+00 0.  1.
         11    1    4    4    0    0  0.11521302119E+03  0.10484614050E+03 -0.50534164762E+03  0.52880708604E+03  0.00000000000E+00 0. -1.
        -11    1    4    4    0    0 -0.62634494300E+02  0.17822687787E+03 -0.24965764074E+03  0.31307640833E+03  0.00000000000E+00 0.  1.
          1    1    5    5  503    0 -0.78730949120E+03  0.23757234750E+03 -0.69114136744E+03  0.10742314672E+04  0.00000000000E+00 0. -1.
         -1    1    5    5    0  503 -0.75105908941E+02  0.11948089226E+02 -0.10079992868E+03  0.12627066173E+03  0.00000000000E+00 0.  1.
<mgrwt>
<rscale>  0 0.25432914E+04</rscale>
<asrwt>0</asrwt>
<pdfrwt beam="1">  1        2 0.35717561E+00 0.25432914E+04</pdfrwt>
<pdfrwt beam="2">  1       -1 0.10715779E+00 0.25432914E+04</pdfrwt>
<totfact> 0.36156002E+00</totfact>
</mgrwt>
</event>
<event>
12    6  0.1705838E-008  0.2144399E+04  0.7818608E-02  0.8541934E-01
          2   -1    0    0  501    0  0.00000000000E+00  0.00000000000E+00  0.11176811911E+04  0.11176811911E+04  0.00000000000E+00 0. -1.
         -1   -1    0    0    0  501 -0.00000000000E+00 -0.00000000000E+00 -0.10285682973E+04  0.10285682973E+04  0.00000000000E+00 0.  1.
         24    2    1    2    0    0  0.33167102185E+03  0.18147968710E+03 -0.75986343389E+03  0.85253023455E+03  0.80466260516E+02 0.  0.
        254    2    1    2    0    0 -0.33167102185E+03 -0.18147968710E+03  0.84897632771E+03  0.12937192539E+04  0.90000453294E+03 0.  0.
         23    2    4    4    0    0 -0.36253715229E+03  0.29640305139E+03  0.34473659220E+03  0.59229133356E+03  0.11259551563E+03 0.  0.
         23    2    4    4    0    0  0.30866130438E+02 -0.47788273850E+03  0.50423973551E+03  0.70142792033E+03  0.91753947016E+02 0.  0.
          2    1    3    3  502    0  0.16093504984E+01  0.18080810846E+02 -0.31813983859E+02  0.36628340105E+02  0.00000000000E+00 0. -1.
         -1    1    3    3    0  502  0.33006167135E+03  0.16339887626E+03 -0.72804945003E+03  0.81590189444E+03  0.00000000000E+00 0.  1.
         11    1    5    5    0    0 -0.13763703137E+03  0.14887842012E+03  0.89966622994E+02  0.22181688311E+03  0.00000000000E+00 0.  1.
        -11    1    5    5    0    0 -0.22490012092E+03  0.14752463128E+03  0.25476996921E+03  0.37047445045E+03  0.00000000000E+00 0. -1.
          4    1    6    6  503    0  0.50363829191E+02 -0.15387636996E+03  0.19026349081E+03  0.24982923860E+03  0.00000000000E+00 0. -1.
         -4    1    6    6    0  503 -0.19497698753E+02 -0.32400636853E+03  0.31397624469E+03  0.45159868173E+03  0.00000000000E+00 0.  1.
<mgrwt>
<rscale>  0 0.21443987E+04</rscale>
<asrwt>0</asrwt>
<pdfrwt beam="1">  1        2 0.17195095E+00 0.21443987E+04</pdfrwt>
<pdfrwt beam="2">  1       -1 0.15824128E+00 0.21443987E+04</pdfrwt>
<totfact> 0.67045310E+00</totfact>
</mgrwt>
</event>
<event>
12    6  0.1705838E-008  0.2097902E+04  0.7818608E-02  0.8562168E-01
          2   -1    0    0  501    0  0.00000000000E+00  0.00000000000E+00  0.25723664122E+04  0.25723664122E+04  0.00000000000E+00 0. -1.
         -1   -1    0    0    0  501 -0.00000000000E+00 -0.00000000000E+00 -0.42773773588E+03  0.42773773588E+03  0.00000000000E+00 0.  1.
         24    2    1    2    0    0 -0.83404361786E+03  0.17704416506E+03  0.92701548444E+03  0.12620239160E+04  0.79832720715E+02 0.  0.
        254    2    1    2    0    0  0.83404361786E+03 -0.17704416506E+03  0.12176131919E+04  0.17380802321E+04  0.90075946581E+03 0.  0.
         23    2    4    4    0    0  0.88825217475E+03 -0.28414033401E+03  0.12679117897E+04  0.15782041544E+04  0.11576005841E+03 0.  0.
         23    2    4    4    0    0 -0.54208556886E+02  0.10709616894E+03 -0.50298597817E+02  0.15987607769E+03  0.92856094222E+02 0.  0.
          4    1    3    3  502    0 -0.25556174108E+02 -0.40890529232E+01  0.44876199955E+02  0.51804552997E+02  0.00000000000E+00 0. -1.
         -3    1    3    3    0  502 -0.80848744376E+03  0.18113321798E+03  0.88213928449E+03  0.12102193630E+04  0.00000000000E+00 0.  1.
         11    1    5    5    0    0  0.22717040386E+03 -0.67672811995E+02  0.41139419274E+03  0.47479593901E+03  0.00000000000E+00 0. -1.
        -11    1    5    5    0    0  0.66108177089E+03 -0.21646752201E+03  0.85651759700E+03  0.11034082154E+04  0.00000000000E+00 0.  1.
          2    1    6    6  503    0  0.42264488086E+01  0.44273144272E+02  0.20183057491E+02  0.48839840120E+02  0.00000000000E+00 0. -1.
         -2    1    6    6    0  503 -0.58435005695E+02  0.62823024672E+02 -0.70481655309E+02  0.11103623757E+03  0.00000000000E+00 0.  1.
<mgrwt>
<rscale>  0 0.20979020E+04</rscale>
<asrwt>0</asrwt>
<pdfrwt beam="1">  1        2 0.39574867E+00 0.20979020E+04</pdfrwt>
<pdfrwt beam="2">  1       -1 0.65805807E-01 0.20979020E+04</pdfrwt>
<totfact> 0.77599886E+00</totfact>
</mgrwt>
</event>
<event>
12    6  0.1705838E-008  0.1400129E+04  0.7818608E-02  0.8953725E-01
          2   -1    0    0  501    0  0.00000000000E+00  0.00000000000E+00  0.27951609397E+04  0.27951609397E+04  0.00000000000E+00 0. -1.
         -1   -1    0    0    0  501 -0.00000000000E+00 -0.00000000000E+00 -0.17533519035E+03  0.17533519035E+03  0.00000000000E+00 0.  1.
         24    2    1    2    0    0 -0.22597547396E+03 -0.28973420379E+03  0.11703716142E+04  0.12292058271E+04  0.78526596821E+02 0.  0.
        254    2    1    2    0    0  0.22597547396E+03  0.28973420379E+03  0.14494541351E+04  0.17412903029E+04  0.89228011605E+03 0.  0.
         23    2    4    4    0    0 -0.17947982480E+03  0.18031005377E+03  0.41164169698E+02  0.26902041104E+03  0.77154194219E+02 0.  0.
         23    2    4    4    0    0  0.40545529876E+03  0.10942415001E+03  0.14082899654E+04  0.14722698919E+04  0.89052590552E+02 0.  0.
          4    1    3    3  502    0 -0.23169111516E+03 -0.28250233894E+03  0.11227873205E+04  0.11807369357E+04  0.00000000000E+00 0. -1.
         -3    1    3    3    0  502  0.57156412033E+01 -0.72318648469E+01  0.47584293765E+02  0.48468891432E+02  0.00000000000E+00 0.  1.
         11    1    5    5    0    0 -0.38507811949E+02  0.23731108990E+02  0.36757335108E+02  0.58284807619E+02  0.00000000000E+00 0.  1.
        -11    1    5    5    0    0 -0.14097201285E+03  0.15657894478E+03  0.44068345899E+01  0.21073560342E+03  0.00000000000E+00 0. -1.
          1    1    6    6  503    0  0.24522269978E+03  0.58557603811E+02  0.98662346230E+03  0.10183265792E+04  0.00000000000E+00 0. -1.
         -1    1    6    6    0  503  0.16023259899E+03  0.50866546202E+02  0.42166650312E+03  0.45394331271E+03  0.00000000000E+00 0.  1.
<mgrwt>
<rscale>  0 0.14001287E+04</rscale>
<asrwt>0</asrwt>
<pdfrwt beam="1">  1        2 0.43002473E+00 0.14001287E+04</pdfrwt>
<pdfrwt beam="2">  1       -1 0.26974647E-01 0.14001287E+04</pdfrwt>
<totfact> 0.31911917E+01</totfact>
</mgrwt>
</event>
<event>
11    6  0.1705838E-008  0.2646913E+04  0.7818608E-02  0.8352438E-01
         -1   -1    0    0    0  501 -0.00000000000E+00  0.00000000000E+00  0.63578534990E+03  0.63578534990E+03  0.00000000000E+00 0.  1.
          2   -1    0    0  501    0  0.00000000000E+00 -0.00000000000E+00 -0.27549190764E+04  0.27549190764E+04  0.00000000000E+00 0. -1.
         24    2    1    2    0    0  0.47906974402E+03 -0.66282423340E+03 -0.20103884981E+04  0.21720422065E+04  0.85215312122E+02 0.  0.
        254    2    1    2    0    0 -0.47906974402E+03  0.66282423340E+03 -0.10874522842E+03  0.12186622198E+04  0.89692156698E+03 0.  0.
         23    2    4    4    0    0 -0.16205281133E+03 -0.64742658161E+02 -0.17357430411E+02  0.19657711267E+03  0.88817539878E+02 0.  0.
          2    1    3    3  502    0  0.24887755084E+03 -0.38752250582E+03 -0.12185777095E+04  0.13027069364E+04  0.00000000000E+00 0. -1.
         -1    1    3    3    0  502  0.23019219318E+03 -0.27530172759E+03 -0.79181078854E+03  0.86933527012E+03  0.00000000000E+00 0.  1.
         11    1    4    4    0    0 -0.17041878582E+03  0.73092805145E+03 -0.26398777432E+03  0.79560538205E+03  0.00000000000E+00 0. -1.
        -11    1    4    4    0    0 -0.14659814687E+03 -0.33611598815E+01  0.17259997632E+03  0.22647972511E+03  0.00000000000E+00 0.  1.
          1    1    5    5  503    0 -0.16312468006E+03 -0.70969020883E+02 -0.31890792487E+02  0.18072986974E+03  0.00000000000E+00 0. -1.
         -1    1    5    5    0  503  0.10718687318E+01  0.62263627221E+01  0.14533362076E+02  0.15847242932E+02  0.00000000000E+00 0.  1.
<mgrwt>
<rscale>  0 0.26469131E+04</rscale>
<asrwt>0</asrwt>
<pdfrwt beam="1">  1        2 0.42383370E+00 0.26469131E+04</pdfrwt>
<pdfrwt beam="2">  1       -1 0.97813131E-01 0.26469131E+04</pdfrwt>
<totfact> 0.24716546E+00</totfact>
</mgrwt>
</event>
<event>
11    6  0.1705838E-008  0.1421844E+04  0.7818608E-02  0.8938157E-01
          2   -1    0    0  501    0  0.00000000000E+00  0.00000000000E+00  0.18599797012E+04  0.18599797012E+04  0.00000000000E+00 0. -1.
         -1   -1    0    0    0  501 -0.00000000000E+00 -0.00000000000E+00 -0.27172876617E+03  0.27172876617E+03  0.00000000000E+00 0.  1.
         24    2    1    2    0    0  0.33315024746E+03 -0.79932761281E+02  0.10513567085E+03  0.36719986547E+03  0.80024360084E+02 0.  0.
        254    2    1    2    0    0 -0.33315024746E+03  0.79932761281E+02  0.14831152642E+04  0.17645086019E+04  0.89245805821E+03 0.  0.
         23    2    4    4    0    0  0.91012946628E+02  0.34097388735E+03  0.32302453352E+03  0.48714290271E+03  0.91743174681E+02 0.  0.
          4    1    3    3  502    0  0.57445753771E+02  0.56953783256E+01  0.42769065167E+02  0.71844588494E+02  0.00000000000E+00 0. -1.
         -3    1    3    3    0  502  0.27570449369E+03 -0.85628139606E+02  0.62366605687E+02  0.29535527698E+03  0.00000000000E+00 0.  1.
         11    1    4    4    0    0 -0.36435683091E+03 -0.29229883635E+03  0.10197407711E+04  0.11216353018E+04  0.00000000000E+00 0. -1.
        -11    1    4    4    0    0 -0.59806363183E+02  0.31257710281E+02  0.14034995958E+03  0.15573039743E+03  0.00000000000E+00 0.  1.
          3    1    5    5  503    0  0.70092868827E+02  0.31967522232E+03  0.31899932355E+03  0.45701840931E+03  0.00000000000E+00 0. -1.
         -3    1    5    5    0  503  0.20920077801E+02  0.21298665034E+02  0.40252099667E+01  0.30124493401E+02  0.00000000000E+00 0.  1.
<mgrwt>
<rscale>  0 0.14218439E+04</rscale>
<asrwt>0</asrwt>
<pdfrwt beam="1">  1        2 0.28615072E+00 0.14218439E+04</pdfrwt>
<pdfrwt beam="2">  1       -1 0.41804427E-01 0.14218439E+04</pdfrwt>
<totfact> 0.49694724E+01</totfact>
</mgrwt>
</event>
<event>
11    6  0.1705838E-008  0.2327776E+04  0.7818608E-02  0.8467049E-01
         -1   -1    0    0    0  501 -0.00000000000E+00  0.00000000000E+00  0.11069290185E+04  0.11069290185E+04  0.00000000000E+00 0.  1.
          2   -1    0    0  501    0  0.00000000000E+00 -0.00000000000E+00 -0.12237783626E+04  0.12237783626E+04  0.00000000000E+00 0. -1.
         24    2    1    2    0    0 -0.37624159292E+03  0.73906756869E+03  0.50135901900E+03  0.97235439531E+03  0.79583897926E+02 0.  0.
        254    2    1    2    0    0  0.37624159292E+03 -0.73906756869E+03 -0.61820836310E+03  0.13583529858E+04  0.88043321530E+03 0.  0.
         23    2    4    4    0    0 -0.13735531344E+03 -0.32612769523E+03 -0.32842849791E+03  0.49154683535E+03  0.92343150125E+02 0.  0.
          2    1    3    3  502    0 -0.23357929981E+03  0.38258340093E+03  0.29267193532E+03  0.53533747271E+03  0.00000000000E+00 0. -1.
         -1    1    3    3    0  502 -0.14266229311E+03  0.35648416777E+03  0.20868708368E+03  0.43701692260E+03  0.00000000000E+00 0.  1.
         11    1    4    4    0    0  0.56107702736E+03 -0.21116642280E+03 -0.27333353518E+03  0.65887017705E+03  0.00000000000E+00 0.  1.
        -11    1    4    4    0    0 -0.47480120999E+02 -0.20177345067E+03 -0.16446330014E+02  0.20793597345E+03  0.00000000000E+00 0. -1.
          4    1    5    5  503    0 -0.74033659440E+01  0.52255511141E+01 -0.13721485274E+02  0.16443703046E+02  0.00000000000E+00 0. -1.
         -4    1    5    5    0  503 -0.12995194750E+03 -0.33135324634E+03 -0.31470701264E+03  0.47510313230E+03  0.00000000000E+00 0.  1.
<mgrwt>
<rscale>  0 0.23277764E+04</rscale>
<asrwt>0</asrwt>
<pdfrwt beam="1">  1        2 0.18827359E+00 0.23277764E+04</pdfrwt>
<pdfrwt beam="2">  1       -1 0.17029677E+00 0.23277764E+04</pdfrwt>
<totfact> 0.46276697E+00</totfact>
</mgrwt>
</event>
<event>
12    6  0.1705838E-008  0.2566906E+04  0.7818608E-02  0.8379530E-01
         -1   -1    0    0    0  501 -0.00000000000E+00  0.00000000000E+00  0.10844807651E+04  0.10844807651E+04  0.00000000000E+00 0.  1.
          2   -1    0    0  501    0  0.00000000000E+00 -0.00000000000E+00 -0.15189315119E+04  0.15189315119E+04  0.00000000000E+00 0. -1.
         24    2    1    2    0    0  0.69070315219E+03  0.48171857275E+03  0.56576482142E+03  0.10176087411E+04  0.79461242078E+02 0.  0.
        254    2    1    2    0    0 -0.69070315219E+03 -0.48171857275E+03 -0.10002155682E+04  0.15858035360E+04  0.89733942523E+03 0.  0.
         23    2    4    4    0    0 -0.25743786737E+03 -0.67631973616E+03 -0.71458601246E+03  0.10239743690E+04  0.11919604870E+03 0.  0.
         23    2    4    4    0    0 -0.43326528481E+03  0.19460116340E+03 -0.28562955572E+03  0.56182916700E+03  0.92083385930E+02 0.  0.
          2    1    3    3  502    0  0.38189550757E+03  0.21830814252E+03  0.30007804513E+03  0.53249362152E+03  0.00000000000E+00 0. -1.
         -1    1    3    3    0  502  0.30880764461E+03  0.26341043023E+03  0.26568677629E+03  0.48511511956E+03  0.00000000000E+00 0.  1.
         11    1    5    5    0    0 -0.61113841824E+02 -0.31370603190E+03 -0.34420256261E+03  0.46970392826E+03  0.00000000000E+00 0. -1.
        -11    1    5    5    0    0 -0.19632402555E+03 -0.36261370425E+03 -0.37038344985E+03  0.55427044070E+03  0.00000000000E+00 0.  1.
          3    1    6    6  503    0 -0.22744823364E+03  0.57930393320E+02 -0.16490732559E+03  0.28685023181E+03  0.00000000000E+00 0. -1.
         -3    1    6    6    0  503 -0.20581705118E+03  0.13667077008E+03 -0.12072223014E+03  0.27497893519E+03  0.00000000000E+00 0.  1.
<mgrwt>
<rscale>  0 0.25669063E+04</rscale>
<asrwt>0</asrwt>
<pdfrwt beam="1">  1        2 0.23368177E+00 0.25669063E+04</pdfrwt>
<pdfrwt beam="2">  1       -1 0.16684320E+00 0.25669063E+04</pdfrwt>
<totfact> 0.32486607E+00</totfact>
</mgrwt>
</event>
<event>
11    6  0.1705838E-008  0.2704748E+04  0.7818608E-02  0.8333466E-01
         -1   -1    0    0    0  501 -0.00000000000E+00  0.00000000000E+00  0.11732050700E+04  0.11732050700E+04  0.00000000000E+00 0.  1.
          2   -1    0    0  501    0  0.00000000000E+00 -0.00000000000E+00 -0.15589047270E+04  0.15589047270E+04  0.00000000000E+00 0. -1.
         24    2    1    2    0    0  0.12756751896E+03  0.87966170194E+03  0.62835342252E+03  0.10913821374E+04  0.78795713893E+02 0.  0.
        254    2    1    2    0    0 -0.12756751896E+03 -0.87966170194E+03 -0.10140530796E+04  0.16407276595E+04  0.93466861659E+03 0.  0.
         23    2    4    4    0    0  0.34285432952E+03 -0.66111758038E+03 -0.60029805107E+03  0.96095207401E+03  0.91899902444E+02 0.  0.
          4    1    3    3  502    0  0.73073715813E+02  0.29285999659E+03  0.18649434633E+03  0.35480542098E+03  0.00000000000E+00 0. -1.
         -3    1    3    3    0  502  0.54493803143E+02  0.58680170535E+03  0.44185907619E+03  0.73657671644E+03  0.00000000000E+00 0.  1.
         11    1    4    4    0    0 -0.11392484824E+03 -0.12539058575E+03 -0.15404816364E+03  0.22898145506E+03  0.00000000000E+00 0.  1.
        -11    1    4    4    0    0 -0.35649700023E+03 -0.93153535807E+02 -0.25970686485E+03  0.45079413046E+03  0.00000000000E+00 0. -1.
          1    1    5    5  503    0  0.30629750619E+03 -0.63625105037E+03 -0.56687109126E+03  0.90552548032E+03  0.00000000000E+00 0. -1.
         -1    1    5    5    0  503  0.36556823327E+02 -0.24866530015E+02 -0.33426959809E+02  0.55426593696E+02  0.00000000000E+00 0.  1.
<mgrwt>
<rscale>  0 0.27047476E+04</rscale>
<asrwt>0</asrwt>
<pdfrwt beam="1">  1        2 0.23983150E+00 0.27047476E+04</pdfrwt>
<pdfrwt beam="2">  1       -1 0.18049309E+00 0.27047476E+04</pdfrwt>
<totfact> 0.24241336E+00</totfact>
</mgrwt>
</event>
<event>
11    6  0.1705838E-008  0.2017651E+04  0.7818608E-02  0.8598412E-01
         -1   -1    0    0    0  501 -0.00000000000E+00  0.00000000000E+00  0.53457634856E+03  0.53457634856E+03  0.00000000000E+00 0.  1.
          2   -1    0    0  501    0  0.00000000000E+00 -0.00000000000E+00 -0.19038054273E+04  0.19038054273E+04  0.00000000000E+00 0. -1.
         24    2    1    2    0    0  0.32806453708E+02 -0.79458536583E+03 -0.43624782217E+03  0.91047921113E+03  0.78854705412E+02 0.  0.
        254    2    1    2    0    0 -0.32806453708E+02  0.79458536583E+03 -0.93298125660E+03  0.15279025648E+04  0.91191559656E+03 0.  0.
         23    2    4    4    0    0  0.11670875172E+02  0.66699912465E+03 -0.91502133564E+03  0.11360954926E+04  0.91787155799E+02 0.  0.
          2    1    3    3  502    0 -0.28761535151E+01 -0.39377848753E+02 -0.42443647381E+01  0.39710223664E+02  0.00000000000E+00 0. -1.
         -1    1    3    3    0  502  0.35682607223E+02 -0.75520751707E+03 -0.43200345744E+03  0.87076898747E+03  0.00000000000E+00 0.  1.
         11    1    4    4    0    0 -0.19470094377E+03  0.60879812109E+01 -0.34751807414E+02  0.19787169868E+03  0.00000000000E+00 0. -1.
        -11    1    4    4    0    0  0.15022361489E+03  0.12149825997E+03  0.16791886452E+02  0.19393537351E+03  0.00000000000E+00 0.  1.
          3    1    5    5  503    0  0.22466249361E+02  0.60352718140E+03 -0.86292150825E+03  0.10532726715E+04  0.00000000000E+00 0. -1.
         -3    1    5    5    0  503 -0.10795374189E+02  0.63471943242E+02 -0.52099827390E+02  0.82822821112E+02  0.00000000000E+00 0.  1.
<mgrwt>
<rscale>  0 0.20176515E+04</rscale>
<asrwt>0</asrwt>
<pdfrwt beam="1">  1        2 0.29289314E+00 0.20176515E+04</pdfrwt>
<pdfrwt beam="2">  1       -1 0.82242516E-01 0.20176515E+04</pdfrwt>
<totfact> 0.11735228E+01</totfact>
</mgrwt>
</event>
<event>
12    6  0.1705838E-008  0.1431081E+04  0.7818608E-02  0.8931623E-01
          2   -1    0    0  501    0  0.00000000000E+00  0.00000000000E+00  0.11594238269E+04  0.11594238269E+04  0.00000000000E+00 0. -1.
         -1   -1    0    0    0  501 -0.00000000000E+00 -0.00000000000E+00 -0.44159712570E+03  0.44159712570E+03  0.00000000000E+00 0.  1.
         24    2    1    2    0    0 -0.35815105508E+03  0.23822590688E+03  0.22043293304E+03  0.49002288725E+03  0.80672120969E+02 0.  0.
        254    2    1    2    0    0  0.35815105508E+03 -0.23822590688E+03  0.49739376819E+03  0.11109980654E+04  0.89548443854E+03 0.  0.
         23    2    4    4    0    0  0.14641370243E+03 -0.54574309920E+03  0.15509236754E+03  0.59628365531E+03  0.11058052511E+03 0.  0.
         23    2    4    4    0    0  0.21173735265E+03  0.30751719233E+03  0.34230140065E+03  0.51471441007E+03  0.91439296600E+02 0.  0.
          2    1    3    3  502    0  0.32982454969E+01  0.10199774762E+01 -0.18246825917E+01  0.39048999949E+01  0.00000000000E+00 0. -1.
         -1    1    3    3    0  502 -0.36144930057E+03  0.23720592940E+03  0.22225761563E+03  0.48611798726E+03  0.00000000000E+00 0.  1.
         11    1    5    5    0    0  0.67425542651E+02 -0.21292262087E+03  0.67705402294E+01  0.22344593640E+03  0.00000000000E+00 0. -1.
        -11    1    5    5    0    0  0.78988159779E+02 -0.33282047834E+03  0.14832182731E+03  0.37283771891E+03  0.00000000000E+00 0.  1.
          4    1    6    6  503    0  0.76382075428E+02  0.15033703336E+03  0.20729480303E+03  0.26722009732E+03  0.00000000000E+00 0. -1.
         -4    1    6    6    0  503  0.13535527722E+03  0.15718015897E+03  0.13500659762E+03  0.24749431275E+03  0.00000000000E+00 0.  1.
<mgrwt>
<rscale>  0 0.14310810E+04</rscale>
<asrwt>0</asrwt>
<pdfrwt beam="1">  1        2 0.17837289E+00 0.14310810E+04</pdfrwt>
<pdfrwt beam="2">  1       -1 0.67938020E-01 0.14310810E+04</pdfrwt>
<totfact> 0.48678503E+01</totfact>
</mgrwt>
</event>
<event>
11    6  0.1705838E-008  0.2340752E+04  0.7818608E-02  0.8462024E-01
          2   -1    0    0  501    0  0.00000000000E+00  0.00000000000E+00  0.18361552296E+04  0.18361552296E+04  0.00000000000E+00 0. -1.
         -1   -1    0    0    0  501 -0.00000000000E+00 -0.00000000000E+00 -0.74600448965E+03  0.74600448965E+03  0.00000000000E+00 0.  1.
         24    2    1    2    0    0  0.42158430947E+03  0.78940499567E+03  0.92648323530E+03  0.12903243830E+04  0.75314346448E+02 0.  0.
        254    2    1    2    0    0 -0.42158430947E+03 -0.78940499567E+03  0.16366750466E+03  0.12918353363E+04  0.91714661143E+03 0.  0.
         23    2    4    4    0    0 -0.87322283212E+02 -0.75918409356E+03  0.31300258782E+03  0.83060514133E+03  0.89154987282E+02 0.  0.
          2    1    3    3  502    0  0.27150913041E+03  0.53772950370E+03  0.66908413017E+03  0.90030206059E+03  0.00000000000E+00 0. -1.
         -1    1    3    3    0  502  0.15007517906E+03  0.25167549197E+03  0.25739910513E+03  0.39002232237E+03  0.00000000000E+00 0.  1.
         11    1    4    4    0    0  0.22823955362E+02  0.84990426809E+01  0.46236264751E+02  0.52258576740E+02  0.00000000000E+00 0. -1.
        -11    1    4    4    0    0 -0.35708598162E+03 -0.38719944786E+02 -0.19557134792E+03  0.40897161823E+03  0.00000000000E+00 0.  1.
          1    1    5    5  503    0  0.10310349431E+02 -0.15593609838E+03  0.88352087165E+02  0.17952287149E+03  0.00000000000E+00 0. -1.
         -1    1    5    5    0  503 -0.97632632643E+02 -0.60324799518E+03  0.22465050066E+03  0.65108226984E+03  0.00000000000E+00 0.  1.
<mgrwt>
<rscale>  0 0.23407521E+04</rscale>
<asrwt>0</asrwt>
<pdfrwt beam="1">  1        2 0.28248542E+00 0.23407521E+04</pdfrwt>
<pdfrwt beam="2">  1       -1 0.11476992E+00 0.23407521E+04</pdfrwt>
<totfact> 0.58450426E+00</totfact>
</mgrwt>
</event>
<event>
11    6  0.1705838E-008  0.1460255E+04  0.7818608E-02  0.8911321E-01
          2   -1    0    0  501    0  0.00000000000E+00  0.00000000000E+00  0.16519016080E+04  0.16519016080E+04  0.00000000000E+00 0. -1.
         -3   -1    0    0    0  501 -0.00000000000E+00 -0.00000000000E+00 -0.32271077666E+03  0.32271077666E+03  0.00000000000E+00 0.  1.
         24    2    1    2    0    0 -0.37027588002E+02  0.21313326155E+03 -0.11348781312E+03  0.25755524711E+03  0.81598971425E+02 0.  0.
        254    2    1    2    0    0  0.37027588002E+02 -0.21313326155E+03  0.14426786444E+04  0.17170571375E+04  0.90563056099E+03 0.  0.
         23    2    4    4    0    0 -0.34938392940E+03 -0.19162670125E+03  0.11767981936E+04  0.12461156941E+04  0.95710041254E+02 0.  0.
          4    1    3    3  502    0  0.12176936197E+02  0.27961304445E+01  0.19248169264E+01  0.12641243641E+02  0.00000000000E+00 0. -1.
         -3    1    3    3    0  502 -0.49204524199E+02  0.21033713110E+03 -0.11541263004E+03  0.24491400347E+03  0.00000000000E+00 0.  1.
         11    1    4    4    0    0  0.83543737495E+02  0.42888080451E+01  0.43290238814E+02  0.94191266717E+02  0.00000000000E+00 0. -1.
        -11    1    4    4    0    0  0.30286777991E+03 -0.25795368340E+02  0.22259021203E+03  0.37675017667E+03  0.00000000000E+00 0.  1.
          4    1    5    5  503    0 -0.94972752827E+02 -0.10351135068E+03  0.39053065602E+03  0.41502845299E+03  0.00000000000E+00 0. -1.
         -4    1    5    5    0  503 -0.25441117657E+03 -0.88115350568E+02  0.78626753755E+03  0.83108724114E+03  0.00000000000E+00 0.  1.
<mgrwt>
<rscale>  0 0.14602554E+04</rscale>
<asrwt>0</asrwt>
<pdfrwt beam="1">  1        2 0.25413871E+00 0.14602554E+04</pdfrwt>
<pdfrwt beam="2">  1       -3 0.49647813E-01 0.14602554E+04</pdfrwt>
<totfact> 0.26088150E+01</totfact>
</mgrwt>
</event>
<event>
11    6  0.1705838E-008  0.1999758E+04  0.7818608E-02  0.8606734E-01
         -1   -1    0    0    0  501 -0.00000000000E+00  0.00000000000E+00  0.27922829276E+03  0.27922829276E+03  0.00000000000E+00 0.  1.
          2   -1    0    0  501    0  0.00000000000E+00 -0.00000000000E+00 -0.35804327387E+04  0.35804327387E+04  0.00000000000E+00 0. -1.
         24    2    1    2    0    0 -0.57113748798E+03  0.15433750273E+03 -0.23359907625E+04  0.24110291064E+04  0.78679186544E+02 0.  0.
        254    2    1    2    0    0  0.57113748798E+03 -0.15433750273E+03 -0.96521368345E+03  0.14486319251E+04  0.90381353427E+03 0.  0.
         23    2    4    4    0    0  0.60337027832E+02  0.72463470176E+02 -0.83705446055E+03  0.84754500805E+03  0.93706239419E+02 0.  0.
          2    1    3    3  502    0 -0.34973080953E+03  0.10794436413E+03 -0.15847937509E+04  0.16265100239E+04  0.00000000000E+00 0. -1.
         -1    1    3    3    0  502 -0.22140667845E+03  0.46393138600E+02 -0.75119701157E+03  0.78451908247E+03  0.00000000000E+00 0.  1.
         11    1    4    4    0    0  0.98166318418E+02 -0.49258553159E+02  0.46297915527E+02  0.11919114108E+03  0.00000000000E+00 0. -1.
        -11    1    4    4    0    0  0.41263414173E+03 -0.17754241975E+03 -0.17445713842E+03  0.48189577595E+03  0.00000000000E+00 0.  1.
          4    1    5    5  503    0  0.34922222766E+02  0.88277167717E+02 -0.73758505339E+03  0.74366936939E+03  0.00000000000E+00 0. -1.
         -4    1    5    5    0  503  0.25414805066E+02 -0.15813697541E+02 -0.99469407158E+02  0.10387563866E+03  0.00000000000E+00 0.  1.
<mgrwt>
<rscale>  0 0.19997581E+04</rscale>
<asrwt>0</asrwt>
<pdfrwt beam="1">  1        2 0.55083575E+00 0.19997581E+04</pdfrwt>
<pdfrwt beam="2">  1       -1 0.42958203E-01 0.19997581E+04</pdfrwt>
<totfact> 0.40520731E+00</totfact>
</mgrwt>
</event>
<event>
12    6  0.1705838E-008  0.1537913E+04  0.7818608E-02  0.8859625E-01
         -1   -1    0    0    0  501 -0.00000000000E+00  0.00000000000E+00  0.52798216172E+03  0.52798216172E+03  0.00000000000E+00 0.  1.
          2   -1    0    0  501    0  0.00000000000E+00 -0.00000000000E+00 -0.11199133159E+04  0.11199133159E+04  0.00000000000E+00 0. -1.
         24    2    1    2    0    0 -0.10475522114E+03 -0.34348913909E+03  0.17879650549E+03  0.40963207847E+03  0.82896346739E+02 0.  0.
        254    2    1    2    0    0  0.10475522114E+03  0.34348913909E+03 -0.77072765968E+03  0.12382633992E+04  0.90017591352E+03 0.  0.
         23    2    4    4    0    0  0.15474075095E+02 -0.29861452122E+03 -0.18769636565E+03  0.36159073845E+03  0.78152780991E+02 0.  0.
         23    2    4    4    0    0  0.89281146044E+02  0.64210366031E+03 -0.58303129403E+03  0.87667266071E+03  0.91439764845E+02 0.  0.
          2    1    3    3  502    0 -0.37776439544E+01 -0.68822234325E+02  0.67700769959E+02  0.96613481380E+02  0.00000000000E+00 0. -1.
         -1    1    3    3    0  502 -0.10097757718E+03 -0.27466690477E+03  0.11109573553E+03  0.31301859709E+03  0.00000000000E+00 0.  1.
         11    1    5    5    0    0 -0.30059390513E+02 -0.15322667537E+03 -0.10588778314E+03  0.18866426164E+03  0.00000000000E+00 0.  1.
        -11    1    5    5    0    0  0.45533465607E+02 -0.14538784585E+03 -0.81808582503E+02  0.17292647681E+03  0.00000000000E+00 0. -1.
          1    1    6    6  503    0  0.89628550630E+02  0.45057737850E+03 -0.36726857223E+03  0.58816617996E+03  0.00000000000E+00 0. -1.
         -1    1    6    6    0  503 -0.34740458585E+00  0.19152628181E+03 -0.21576272181E+03  0.28850648075E+03  0.00000000000E+00 0.  1.
<mgrwt>
<rscale>  0 0.15379132E+04</rscale>
<asrwt>0</asrwt>
<pdfrwt beam="1">  1        2 0.17229436E+00 0.15379132E+04</pdfrwt>
<pdfrwt beam="2">  1       -1 0.81228025E-01 0.15379132E+04</pdfrwt>
<totfact> 0.35145455E+01</totfact>
</mgrwt>
</event>
<event>
11    6  0.1705838E-008  0.1340286E+04  0.7818608E-02  0.8998214E-01
          2   -1    0    0  501    0  0.00000000000E+00  0.00000000000E+00  0.35181986013E+03  0.35181986013E+03  0.00000000000E+00 0. -1.
         -1   -1    0    0    0  501 -0.00000000000E+00 -0.00000000000E+00 -0.12764814457E+04  0.12764814457E+04  0.00000000000E+00 0.  1.
         24    2    1    2    0    0  0.90917058142E+01 -0.95764532584E+02 -0.69929039378E+03  0.71039844686E+03  0.80033703174E+02 0.  0.
        254    2    1    2    0    0 -0.90917058142E+01  0.95764532584E+02 -0.22537119173E+03  0.91790285893E+03  0.88459028909E+03 0.  0.
         23    2    4    4    0    0 -0.67599981221E+01 -0.18924942768E+03  0.25144728707E+03  0.32785005878E+03  0.91645400400E+02 0.  0.
          2    1    3    3  502    0 -0.14886760000E+02 -0.18251696178E+02 -0.42285655726E+02  0.48402651961E+02  0.00000000000E+00 0. -1.
         -1    1    3    3    0  502  0.23978465814E+02 -0.77512836406E+02 -0.65700473806E+03  0.66199579490E+03  0.00000000000E+00 0.  1.
         11    1    4    4    0    0 -0.46792125296E+02  0.65278328615E+02 -0.22464634632E+02  0.83399178567E+02  0.00000000000E+00 0.  1.
        -11    1    4    4    0    0  0.44460417604E+02  0.21973563165E+03 -0.45435384417E+03  0.50665362158E+03  0.00000000000E+00 0. -1.
          2    1    5    5  503    0 -0.15877089717E+02 -0.19427623599E+03  0.21620086638E+03  0.29109818355E+03  0.00000000000E+00 0. -1.
         -2    1    5    5    0  503  0.91170915951E+01  0.50268083046E+01  0.35246420690E+02  0.36751875222E+02  0.00000000000E+00 0.  1.
<mgrwt>
<rscale>  0 0.13402858E+04</rscale>
<asrwt>0</asrwt>
<pdfrwt beam="1">  1        2 0.54126132E-01 0.13402858E+04</pdfrwt>
<pdfrwt beam="2">  1       -1 0.19638176E+00 0.13402858E+04</pdfrwt>
<totfact> 0.16392072E+01</totfact>
</mgrwt>
</event>
<event>
12    6  0.1705838E-008  0.1801053E+04  0.7818608E-02  0.8705740E-01
          2   -1    0    0  501    0  0.00000000000E+00  0.00000000000E+00  0.12771103037E+04  0.12771103037E+04  0.00000000000E+00 0. -1.
         -1   -1    0    0    0  501 -0.00000000000E+00 -0.00000000000E+00 -0.63498678658E+03  0.63498678658E+03  0.00000000000E+00 0.  1.
         24    2    1    2    0    0  0.23669614609E+03 -0.20593619053E+03 -0.38588952198E+03  0.50422669890E+03  0.83060583739E+02 0.  0.
        254    2    1    2    0    0 -0.23669614609E+03  0.20593619053E+03  0.10280130391E+04  0.14078703914E+04  0.90931482458E+03 0.  0.
         23    2    4    4    0    0 -0.11795793799E+03  0.26263312113E+02 -0.14265068019E+03  0.21411984300E+03  0.10437554268E+03 0.  0.
         23    2    4    4    0    0 -0.11873820810E+03  0.17967287842E+03  0.11706637193E+04  0.11937505484E+04  0.90585444633E+02 0.  0.
          2    1    3    3  502    0  0.79107220436E+02 -0.21535845316E+02 -0.97077735366E+02  0.12706624911E+03  0.00000000000E+00 0. -1.
         -1    1    3    3    0  502  0.15758892565E+03 -0.18440034522E+03 -0.28881178661E+03  0.37716044979E+03  0.00000000000E+00 0.  1.
         11    1    5    5    0    0 -0.11279528505E+03  0.49700109689E+02 -0.14464361870E+03  0.19003855836E+03  0.00000000000E+00 0. -1.
        -11    1    5    5    0    0 -0.51626529424E+01 -0.23436797576E+02  0.19929385122E+01  0.24081284640E+02  0.00000000000E+00 0.  1.
          4    1    6    6  503    0 -0.88465555388E+02  0.53121704459E+02  0.48658880826E+03  0.49741003035E+03  0.00000000000E+00 0.  1.
         -4    1    6    6    0  503 -0.30272652708E+02  0.12655117396E+03  0.68407491103E+03  0.69634051801E+03  0.00000000000E+00 0. -1.
<mgrwt>
<rscale>  0 0.18010532E+04</rscale>
<asrwt>0</asrwt>
<pdfrwt beam="1">  1        2 0.19647851E+00 0.18010532E+04</pdfrwt>
<pdfrwt beam="2">  1       -1 0.97690275E-01 0.18010532E+04</pdfrwt>
<totfact> 0.18446570E+01</totfact>
</mgrwt>
</event>
<event>
11    6  0.2510231E-008  0.1657487E+04  0.7818608E-02  0.8785989E-01
          2   -1    0    0  501    0  0.00000000000E+00  0.00000000000E+00  0.12439661421E+04  0.12439661421E+04  0.00000000000E+00 0. -1.
         -1   -1    0    0    0  501 -0.00000000000E+00 -0.00000000000E+00 -0.55211802834E+03  0.55211802834E+03  0.00000000000E+00 0.  1.
         24    2    1    2    0    0  0.74546136806E+01 -0.36894857766E+03 -0.23438174888E+03  0.44461941329E+03  0.81074004750E+02 0.  0.
        254    2    1    2    0    0 -0.74546136806E+01  0.36894857766E+03  0.92622986260E+03  0.13514647571E+04  0.91234675814E+03 0.  0.
         23    2    4    4    0    0 -0.17878382380E+03  0.60165758272E+03  0.46459522769E+03  0.78560759754E+03  0.85878223207E+02 0.  0.
          2    1    3    3  502    0  0.88300764938E+01 -0.89316412850E+02 -0.99999923732E+02  0.13437029658E+03  0.00000000000E+00 0. -1.
         -3    1    3    3    0  502 -0.13754628133E+01 -0.27963216481E+03 -0.13438182515E+03  0.31024911672E+03  0.00000000000E+00 0.  1.
         11    1    4    4    0    0  0.29944280541E+02 -0.74117220360E+02  0.31142095667E+02  0.85789582197E+02  0.00000000000E+00 0. -1.
        -11    1    4    4    0    0  0.14138492958E+03 -0.15859178471E+03  0.43049253924E+03  0.48006757736E+03  0.00000000000E+00 0.  1.
          3    1    5    5  503    0 -0.75678511918E+02  0.33643937306E+03  0.20981543377E+03  0.40365976411E+03  0.00000000000E+00 0. -1.
         -3    1    5    5    0  503 -0.10310531188E+03  0.26521820967E+03  0.25477979392E+03  0.38194783344E+03  0.00000000000E+00 0.  1.
<mgrwt>
<rscale>  0 0.16574874E+04</rscale>
<asrwt>0</asrwt>
<pdfrwt beam="1">  1        2 0.19137941E+00 0.16574874E+04</pdfrwt>
<pdfrwt beam="2">  1       -1 0.84941236E-01 0.16574874E+04</pdfrwt>
<totfact> 0.26619182E+01</totfact>
</mgrwt>
</event>
<event>
11    6  0.1705838E-008  0.1420794E+04  0.7818608E-02  0.8938903E-01
         -1   -1    0    0    0  501 -0.00000000000E+00  0.00000000000E+00  0.77835945084E+03  0.77835945084E+03  0.00000000000E+00 0.  1.
          2   -1    0    0  501    0  0.00000000000E+00 -0.00000000000E+00 -0.64836852920E+03  0.64836852920E+03  0.00000000000E+00 0. -1.
         24    2    1    2    0    0 -0.98056129636E+02  0.32679961258E+03  0.28325961828E+03  0.45053482800E+03  0.79577814409E+02 0.  0.
        254    2    1    2    0    0  0.98056129636E+02 -0.32679961258E+03 -0.15326869664E+03  0.97619315205E+03  0.90169217885E+03 0.  0.
         23    2    4    4    0    0  0.36253667511E+03  0.13551040660E+03 -0.17540373412E+02  0.39775367903E+03  0.90024515499E+02 0.  0.
          4    1    3    3  502    0  0.65483861952E+01  0.61933579032E+02  0.28712387732E+02  0.68578792515E+02  0.00000000000E+00 0. -1.
         -3    1    3    3    0  502 -0.10460451583E+03  0.26486603355E+03  0.25454723055E+03  0.38195603548E+03  0.00000000000E+00 0.  1.
         11    1    4    4    0    0 -0.54212625932E+02 -0.27357506441E+02 -0.67067490692E+02  0.90473699365E+02  0.00000000000E+00 0. -1.
        -11    1    4    4    0    0 -0.21026791954E+03 -0.43495251274E+03 -0.68660832540E+02  0.48796577365E+03  0.00000000000E+00 0.  1.
          1    1    5    5  503    0  0.22788970502E+03  0.52124390066E+02  0.21120631739E+02  0.23472697072E+03  0.00000000000E+00 0. -1.
         -1    1    5    5    0  503  0.13464697008E+03  0.83386016537E+02 -0.38661005151E+02  0.16302670832E+03  0.00000000000E+00 0.  1.
<mgrwt>
<rscale>  0 0.14207938E+04</rscale>
<asrwt>0</asrwt>
<pdfrwt beam="1">  1        2 0.99749004E-01 0.14207938E+04</pdfrwt>
<pdfrwt beam="2">  1       -1 0.11974761E+00 0.14207938E+04</pdfrwt>
<totfact> 0.31173843E+01</totfact>
</mgrwt>
</event>
<event>
11    6  0.1705838E-008  0.1735416E+04  0.7818608E-02  0.8741419E-01
          2   -1    0    0  501    0  0.00000000000E+00  0.00000000000E+00  0.15735855088E+04  0.15735855088E+04  0.00000000000E+00 0. -1.
         -1   -1    0    0    0  501 -0.00000000000E+00 -0.00000000000E+00 -0.47847247716E+03  0.47847247716E+03  0.00000000000E+00 0.  1.
         24    2    1    2    0    0  0.31890304572E+03 -0.38662820332E+03  0.85425470498E+03  0.99358460793E+03  0.79238576316E+02 0.  0.
        254    2    1    2    0    0 -0.31890304572E+03  0.38662820332E+03  0.24085832669E+03  0.10584733780E+04  0.90065123013E+03 0.  0.
         23    2    4    4    0    0  0.37893964850E+01  0.46488278077E+03 -0.19230729238E+03  0.51093255284E+03  0.89104542400E+02 0.  0.
          2    1    3    3  502    0  0.22143014713E+03 -0.24290372085E+03  0.48968455281E+03  0.58976646982E+03  0.00000000000E+00 0. -1.
         -1    1    3    3    0  502  0.97472898591E+02 -0.14372448247E+03  0.36457015216E+03  0.40381813811E+03  0.00000000000E+00 0.  1.
         11    1    4    4    0    0 -0.10154864282E+03 -0.45350674333E+02  0.15091362152E+03  0.18746661485E+03  0.00000000000E+00 0.  1.
        -11    1    4    4    0    0 -0.22114379938E+03 -0.32903903118E+02  0.28225199754E+03  0.36007421035E+03  0.00000000000E+00 0. -1.
          3    1    5    5  503    0  0.39864076740E+02  0.12435275030E+03 -0.61790939338E+02  0.14446754413E+03  0.00000000000E+00 0. -1.
         -3    1    5    5    0  503 -0.36074680255E+02  0.34053003046E+03 -0.13051635304E+03  0.36646500872E+03  0.00000000000E+00 0.  1.
<mgrwt>
<rscale>  0 0.17354162E+04</rscale>
<asrwt>0</asrwt>
<pdfrwt beam="1">  1        2 0.24209008E+00 0.17354162E+04</pdfrwt>
<pdfrwt beam="2">  1       -1 0.73611151E-01 0.17354162E+04</pdfrwt>
<totfact> 0.23191766E+01</totfact>
</mgrwt>
</event>
<event>
12    6  0.1705838E-008  0.1533694E+04  0.7818608E-02  0.8862351E-01
         -1   -1    0    0    0  501 -0.00000000000E+00  0.00000000000E+00  0.42880834556E+03  0.42880834556E+03  0.00000000000E+00 0.  1.
          2   -1    0    0  501    0  0.00000000000E+00 -0.00000000000E+00 -0.13713684745E+04  0.13713684745E+04  0.00000000000E+00 0. -1.
         24    2    1    2    0    0 -0.69670871685E+02  0.17291020885E+03 -0.78510129695E+03  0.81087096565E+03  0.79848016655E+02 0.  0.
        254    2    1    2    0    0  0.69670871685E+02 -0.17291020885E+03 -0.15745883196E+03  0.98930585438E+03  0.95873918198E+03 0.  0.
         23    2    4    4    0    0 -0.40600415366E+03 -0.22178421408E+03 -0.15412448997E+03  0.50281387982E+03  0.12263698023E+03 0.  0.
         23    2    4    4    0    0  0.47567502534E+03  0.48874005234E+02 -0.33343419967E+01  0.48649197457E+03  0.89487012240E+02 0.  0.
          2    1    3    3  502    0 -0.76326828544E+02  0.16148237322E+03 -0.61927966390E+03  0.64452280311E+03  0.00000000000E+00 0. -1.
         -1    1    3    3    0  502  0.66559568588E+01  0.11427835635E+02 -0.16582163306E+03  0.16634816253E+03  0.00000000000E+00 0.  1.
         11    1    5    5    0    0 -0.17381190054E+03 -0.14494451171E+03 -0.29240019503E+02  0.22819830627E+03  0.00000000000E+00 0. -1.
        -11    1    5    5    0    0 -0.23219225312E+03 -0.76839702374E+02 -0.12488447046E+03  0.27461557354E+03  0.00000000000E+00 0.  1.
          2    1    6    6  503    0  0.16763860394E+03  0.59028132025E+02 -0.12354531834E+02  0.17815626948E+03  0.00000000000E+00 0. -1.
         -2    1    6    6    0  503  0.30803642141E+03 -0.10154126791E+02  0.90201898369E+01  0.30833570508E+03  0.00000000000E+00 0.  1.
<mgrwt>
<rscale>  0 0.15336939E+04</rscale>
<asrwt>0</asrwt>
<pdfrwt beam="1">  1        2 0.21097976E+00 0.15336939E+04</pdfrwt>
<pdfrwt beam="2">  1       -1 0.65970515E-01 0.15336939E+04</pdfrwt>
<totfact> 0.38445929E+01</totfact>
</mgrwt>
</event>
<event>
12    6  0.1705838E-008  0.2274330E+04  0.7818608E-02  0.8488112E-01
         -1   -1    0    0    0  501 -0.00000000000E+00  0.00000000000E+00  0.15562212705E+04  0.15562212705E+04  0.00000000000E+00 0.  1.
          2   -1    0    0  501    0  0.00000000000E+00 -0.00000000000E+00 -0.83095135390E+03  0.83095135390E+03  0.00000000000E+00 0. -1.
         24    2    1    2    0    0 -0.38295791635E+03  0.42617239601E+03  0.11018308052E+04  0.12445681167E+04  0.81480041153E+02 0.  0.
        254    2    1    2    0    0  0.38295791635E+03 -0.42617239601E+03 -0.37656088856E+03  0.11426045077E+04  0.91403899338E+03 0.  0.
         23    2    4    4    0    0  0.22188608992E+03 -0.33385309269E+02 -0.60209268560E+03  0.65346482271E+03  0.11896493893E+03 0.  0.
         23    2    4    4    0    0  0.16107182643E+03 -0.39278708674E+03  0.22553179704E+03  0.48913968499E+03  0.90372624043E+02 0.  0.
          4    1    3    3  502    0 -0.26343472417E+03  0.32605144422E+03  0.86192690123E+03  0.95844946723E+03  0.00000000000E+00 0. -1.
         -3    1    3    3    0  502 -0.11952319218E+03  0.10012095179E+03  0.23990390397E+03  0.28611864951E+03  0.00000000000E+00 0.  1.
         11    1    5    5    0    0  0.14868411556E+03  0.11834025807E+02 -0.25091051935E+03  0.29189569903E+03  0.00000000000E+00 0. -1.
        -11    1    5    5    0    0  0.73201974358E+02 -0.45219335076E+02 -0.35118216625E+03  0.36156912369E+03  0.00000000000E+00 0.  1.
          3    1    6    6  503    0  0.13593838239E+02 -0.40113038394E+02  0.57886661296E+02  0.71726660617E+02  0.00000000000E+00 0. -1.
         -3    1    6    6    0  503  0.14747798819E+03 -0.35267404834E+03  0.16764513575E+03  0.41741302437E+03  0.00000000000E+00 0.  1.
<mgrwt>
<rscale>  0 0.22743299E+04</rscale>
<asrwt>0</asrwt>
<pdfrwt beam="1">  1        2 0.12783867E+00 0.22743299E+04</pdfrwt>
<pdfrwt beam="2">  1       -1 0.23941866E+00 0.22743299E+04</pdfrwt>
<totfact> 0.27745797E+00</totfact>
</mgrwt>
</event>
<event>
12    6  0.1705838E-008  0.2523582E+04  0.7818608E-02  0.8394632E-01
          2   -1    0    0  501    0  0.00000000000E+00  0.00000000000E+00  0.10673740143E+04  0.10673740143E+04  0.00000000000E+00 0. -1.
         -1   -1    0    0    0  501 -0.00000000000E+00 -0.00000000000E+00 -0.14916195371E+04  0.14916195371E+04  0.00000000000E+00 0.  1.
         24    2    1    2    0    0  0.10811271731E+04  0.59979865008E+02  0.43578206321E+02  0.10867300974E+04  0.81545667211E+02 0.  0.
        254    2    1    2    0    0 -0.10811271731E+04 -0.59979865008E+02 -0.46782372915E+03  0.14722634540E+04  0.88106020669E+03 0.  0.
         23    2    4    4    0    0 -0.11673779166E+04 -0.29911224282E+02 -0.57173881173E+03  0.13063390877E+04  0.12637508367E+03 0.  0.
         23    2    4    4    0    0  0.86250743434E+02 -0.30068640726E+02  0.10391508257E+03  0.16592436633E+03  0.91592778419E+02 0.  0.
          2    1    3    3  502    0  0.10537051286E+04  0.62977713354E+02  0.54665293410E+02  0.10569999928E+04  0.00000000000E+00 0. -1.
         -1    1    3    3    0  502  0.27422044504E+02 -0.29978483456E+01 -0.11087087088E+02  0.29730104601E+02  0.00000000000E+00 0.  1.
         11    1    5    5    0    0 -0.77756083519E+03 -0.79474933555E+02 -0.38325395890E+03  0.87051749810E+03  0.00000000000E+00 0.  1.
        -11    1    5    5    0    0 -0.38981708137E+03  0.49563709273E+02 -0.18848485283E+03  0.43582158959E+03  0.00000000000E+00 0. -1.
          3    1    6    6  503    0  0.78438489487E+02 -0.52605505797E+02  0.10601117644E+03  0.14197994718E+03  0.00000000000E+00 0. -1.
         -3    1    6    6    0  503  0.78122539463E+01  0.22536865070E+02 -0.20960938604E+01  0.23944419149E+02  0.00000000000E+00 0.  1.
<mgrwt>
<rscale>  0 0.25235815E+04</rscale>
<asrwt>0</asrwt>
<pdfrwt beam="1">  1        2 0.16421139E+00 0.25235815E+04</pdfrwt>
<pdfrwt beam="2">  1       -1 0.22947993E+00 0.25235815E+04</pdfrwt>
<totfact> 0.22038625E+00</totfact>
</mgrwt>
</event>
<event>
11    6  0.1705838E-008  0.1572909E+04  0.7818608E-02  0.8837366E-01
          2   -1    0    0  501    0  0.00000000000E+00  0.00000000000E+00  0.50885579862E+04  0.50885579862E+04  0.00000000000E+00 0. -1.
         -1   -1    0    0    0  501 -0.00000000000E+00 -0.00000000000E+00 -0.12154937802E+03  0.12154937802E+03  0.00000000000E+00 0.  1.
         24    2    1    2    0    0 -0.11572594273E+03 -0.30067201385E+03  0.30094377284E+03  0.44794000909E+03  0.79290249107E+02 0.  0.
        254    2    1    2    0    0  0.11572594273E+03  0.30067201385E+03  0.46660648353E+04  0.47621673551E+04  0.89570124305E+03 0.  0.
         23    2    4    4    0    0  0.36528981285E+03 -0.15777076834E+03  0.21958983720E+04  0.22336393100E+04  0.94056601569E+02 0.  0.
          2    1    3    3  502    0 -0.82961333929E+01 -0.91080417150E+02  0.12031357667E+03  0.15112850475E+03  0.00000000000E+00 0. -1.
         -1    1    3    3    0  502 -0.10742980934E+03 -0.20959159670E+03  0.18063019617E+03  0.29681150434E+03  0.00000000000E+00 0.  1.
         11    1    4    4    0    0 -0.82837512282E+02  0.29579618970E+03  0.13926665450E+04  0.14261407872E+04  0.00000000000E+00 0. -1.
        -11    1    4    4    0    0 -0.16672635784E+03  0.16264659250E+03  0.10774999183E+04  0.11023872579E+04  0.00000000000E+00 0.  1.
          4    1    5    5  503    0  0.18134569203E+03 -0.80204850244E+02  0.13511885740E+04  0.13656608805E+04  0.00000000000E+00 0. -1.
         -4    1    5    5    0  503  0.18394412083E+03 -0.77565918101E+02  0.84470979801E+03  0.86797842951E+03  0.00000000000E+00 0.  1.
<mgrwt>
<rscale>  0 0.15729095E+04</rscale>
<asrwt>0</asrwt>
<pdfrwt beam="1">  1        2 0.78285491E+00 0.15729095E+04</pdfrwt>
<pdfrwt beam="2">  1       -1 0.18699908E-01 0.15729095E+04</pdfrwt>
<totfact> 0.69318783E-01</totfact>
</mgrwt>
</event>
<event>
11    6  0.1705838E-008  0.1981692E+04  0.7818608E-02  0.8615228E-01
          2   -1    0    0  501    0  0.00000000000E+00  0.00000000000E+00  0.10792254160E+04  0.10792254160E+04  0.00000000000E+00 0. -1.
         -1   -1    0    0    0  501 -0.00000000000E+00 -0.00000000000E+00 -0.90970419560E+03  0.90970419560E+03  0.00000000000E+00 0.  1.
         24    2    1    2    0    0 -0.70228283821E+03 -0.30926463651E+02 -0.26940244575E+03  0.75711551593E+03  0.80551819866E+02 0.  0.
        254    2    1    2    0    0  0.70228283821E+03  0.30926463651E+02  0.43892366612E+03  0.12318140956E+04  0.91134754650E+03 0.  0.
         23    2    4    4    0    0  0.45428338518E+03 -0.27749360623E+03  0.56445313146E+03  0.78093508582E+03  0.88747817458E+02 0.  0.
          4    1    3    3  502    0 -0.26195443698E+03  0.11350759103E+02 -0.13428205049E+03  0.29458553235E+03  0.00000000000E+00 0. -1.
         -3    1    3    3    0  502 -0.44032840123E+03 -0.42277222754E+02 -0.13512039526E+03  0.46252998358E+03  0.00000000000E+00 0.  1.
         11    1    4    4    0    0  0.16938405994E+02  0.15037773255E+03 -0.24685636388E+02  0.15332890363E+03  0.00000000000E+00 0. -1.
        -11    1    4    4    0    0  0.23106104703E+03  0.15804233733E+03 -0.10084382895E+03  0.29755010617E+03  0.00000000000E+00 0.  1.
          4    1    5    5  503    0  0.24059886393E+03 -0.95092992487E+02  0.27411541869E+03  0.37692141530E+03  0.00000000000E+00 0. -1.
         -4    1    5    5    0  503  0.21368452125E+03 -0.18240061374E+03  0.29033771277E+03  0.40401367052E+03  0.00000000000E+00 0.  1.
<mgrwt>
<rscale>  0 0.19816921E+04</rscale>
<asrwt>0</asrwt>
<pdfrwt beam="1">  1        2 0.16603468E+00 0.19816921E+04</pdfrwt>
<pdfrwt beam="2">  1       -1 0.13995449E+00 0.19816921E+04</pdfrwt>
<totfact> 0.99916088E+00</totfact>
</mgrwt>
</event>
<event>
11    6  0.1705838E-008  0.1644471E+04  0.7818608E-02  0.8793684E-01
          2   -1    0    0  501    0  0.00000000000E+00  0.00000000000E+00  0.29032379087E+03  0.29032379087E+03  0.00000000000E+00 0. -1.
         -1   -1    0    0    0  501 -0.00000000000E+00 -0.00000000000E+00 -0.23286811168E+04  0.23286811168E+04  0.00000000000E+00 0.  1.
         24    2    1    2    0    0 -0.25838885960E+03 -0.29332452149E+03 -0.48081207522E+02  0.40205719564E+03  0.80833831879E+02 0.  0.
        254    2    1    2    0    0  0.25838885960E+03  0.29332452149E+03 -0.19902761185E+04  0.22169477121E+04  0.89490449360E+03 0.  0.
         23    2    4    4    0    0  0.27953442011E+03 -0.24875873384E+03 -0.10949367613E+04  0.11607111339E+04  0.91342353238E+02 0.  0.
          2    1    3    3  502    0 -0.19011748805E+03 -0.25639755185E+03 -0.21125735433E+02  0.31989163877E+03  0.00000000000E+00 0. -1.
         -3    1    3    3    0  502 -0.68271371549E+02 -0.36926969637E+02 -0.26955472090E+02  0.82165556867E+02  0.00000000000E+00 0.  1.
         11    1    4    4    0    0  0.34831668966E+02  0.33587672606E+03 -0.45314835204E+03  0.56512817062E+03  0.00000000000E+00 0. -1.
        -11    1    4    4    0    0 -0.55977229470E+02  0.20620652927E+03 -0.44219100510E+03  0.49110840751E+03  0.00000000000E+00 0.  1.
          3    1    5    5  503    0  0.14163187726E+03 -0.17675778699E+03 -0.71983105762E+03  0.75462550675E+03  0.00000000000E+00 0. -1.
         -3    1    5    5    0  503  0.13790254285E+03 -0.72000946844E+02 -0.37510570369E+03  0.40608562719E+03  0.00000000000E+00 0.  1.
<mgrwt>
<rscale>  0 0.16444714E+04</rscale>
<asrwt>0</asrwt>
<pdfrwt beam="1">  1        2 0.44665196E-01 0.16444714E+04</pdfrwt>
<pdfrwt beam="2">  1       -1 0.35825866E+00 0.16444714E+04</pdfrwt>
<totfact> 0.17125511E+00</totfact>
</mgrwt>
</event>
<event>
11    6  0.1705838E-008  0.2212357E+04  0.7818608E-02  0.8513302E-01
          2   -1    0    0  501    0  0.00000000000E+00  0.00000000000E+00  0.12949077612E+04  0.12949077612E+04  0.00000000000E+00 0. -1.
         -1   -1    0    0    0  501 -0.00000000000E+00 -0.00000000000E+00 -0.94495613337E+03  0.94495613337E+03  0.00000000000E+00 0.  1.
         24    2    1    2    0    0 -0.90191844089E+03 -0.35792166665E+02  0.34524527846E+03  0.96976631840E+03  0.80712184975E+02 0.  0.
        254    2    1    2    0    0  0.90191844089E+03  0.35792166665E+02  0.47063493194E+01  0.12700975761E+04  0.89352546127E+03 0.  0.
         23    2    4    4    0    0  0.10360759641E+04 -0.53666767718E+02 -0.44839386944E+02  0.10422490972E+04  0.89101541999E+02 0.  0.
          4    1    3    3  502    0 -0.39733978084E+03  0.37123084337E+01  0.11449489433E+03  0.41352359486E+03  0.00000000000E+00 0. -1.
         -3    1    3    3    0  502 -0.50457866004E+03 -0.39504475099E+02  0.23075038412E+03  0.55624272355E+03  0.00000000000E+00 0.  1.
         11    1    4    4    0    0 -0.18278472736E+02 -0.34455523255E+02  0.43018939270E+02  0.58068190813E+02  0.00000000000E+00 0.  1.
        -11    1    4    4    0    0 -0.11587905044E+03  0.12391445764E+03  0.65267969935E+01  0.16978028808E+03  0.00000000000E+00 0. -1.
          3    1    5    5  503    0  0.69836083732E+03 -0.75983419925E+02 -0.42915862761E+02  0.70379195113E+03  0.00000000000E+00 0. -1.
         -3    1    5    5    0  503  0.33771512674E+03  0.22316652208E+02 -0.19235241837E+01  0.33845714610E+03  0.00000000000E+00 0.  1.
<mgrwt>
<rscale>  0 0.22123571E+04</rscale>
<asrwt>0</asrwt>
<pdfrwt beam="1">  1        2 0.19921658E+00 0.22123571E+04</pdfrwt>
<pdfrwt beam="2">  1       -1 0.14537787E+00 0.22123571E+04</pdfrwt>
<totfact> 0.65733601E+00</totfact>
</mgrwt>
</event>
<event>
11    6  0.1705838E-008  0.2211946E+04  0.7818608E-02  0.8513472E-01
          2   -1    0    0  501    0  0.00000000000E+00  0.00000000000E+00  0.25697510617E+04  0.25697510617E+04  0.00000000000E+00 0. -1.
         -1   -1    0    0    0  501 -0.00000000000E+00 -0.00000000000E+00 -0.47599010484E+03  0.47599010484E+03  0.00000000000E+00 0.  1.
         24    2    1    2    0    0  0.41935500552E+02  0.36919378550E+02  0.21336479461E+04  0.21358299910E+04  0.78705564846E+02 0.  0.
        254    2    1    2    0    0 -0.41935500552E+02 -0.36919378550E+02 -0.39886989172E+02  0.90991117558E+03  0.90731788742E+03 0.  0.
         23    2    4    4    0    0 -0.34550785201E+03 -0.13214483213E+03  0.24907267686E+02  0.38474669200E+03  0.10281883370E+03 0.  0.
          2    1    3    3  502    0  0.60707367442E+02  0.42421785443E+02  0.18654647350E+04  0.18669342971E+04  0.00000000000E+00 0. -1.
         -1    1    3    3    0  502 -0.18771866891E+02 -0.55024068929E+01  0.26818321108E+03  0.26889569385E+03  0.00000000000E+00 0.  1.
         11    1    4    4    0    0  0.15272295893E+02 -0.11182672125E+03  0.83591417164E+02  0.14044922083E+03  0.00000000000E+00 0.  1.
        -11    1    4    4    0    0  0.28830005557E+03  0.20705217483E+03 -0.14838567402E+03  0.38471526275E+03  0.00000000000E+00 0. -1.
          2    1    5    5  503    0 -0.25861676618E+03 -0.58125666137E+02  0.44960510497E+02  0.26885437009E+03  0.00000000000E+00 0. -1.
         -2    1    5    5    0  503 -0.86891085834E+02 -0.74019165989E+02 -0.20053242811E+02  0.11589232191E+03  0.00000000000E+00 0.  1.
<mgrwt>
<rscale>  0 0.22119458E+04</rscale>
<asrwt>0</asrwt>
<pdfrwt beam="1">  1        2 0.39534631E+00 0.22119458E+04</pdfrwt>
<pdfrwt beam="2">  1       -1 0.73229248E-01 0.22119458E+04</pdfrwt>
<totfact> 0.61918061E+00</totfact>
</mgrwt>
</event>
<event>
12    6  0.1705838E-008  0.1310319E+04  0.7818608E-02  0.9021422E-01
         -1   -1    0    0    0  501 -0.00000000000E+00  0.00000000000E+00  0.38223520760E+03  0.38223520760E+03  0.00000000000E+00 0.  1.
          2   -1    0    0  501    0  0.00000000000E+00 -0.00000000000E+00 -0.11229577248E+04  0.11229577248E+04  0.00000000000E+00 0. -1.
         24    2    1    2    0    0 -0.56250530670E+01  0.72583050347E+02  0.18718627672E+03  0.21396479944E+03  0.73771896994E+02 0.  0.
        254    2    1    2    0    0  0.56250530670E+01 -0.72583050347E+02 -0.92790879394E+03  0.12912281330E+04  0.89496112828E+03 0.  0.
         23    2    4    4    0    0 -0.34921886481E+03  0.20958954024E+03 -0.33203003964E+03  0.53677149030E+03  0.10953581449E+03 0.  0.
         23    2    4    4    0    0  0.35484391787E+03 -0.28217259059E+03 -0.59587875430E+03  0.75445664269E+03  0.92724101235E+02 0.  0.
          2    1    3    3  502    0 -0.28611512070E+00  0.15187873489E+02  0.13609045858E+03  0.13693562824E+03  0.00000000000E+00 0. -1.
         -1    1    3    3    0  502 -0.53389379463E+01  0.57395176857E+02  0.51095818138E+02  0.77029171202E+02  0.00000000000E+00 0.  1.
         11    1    5    5    0    0 -0.12653867808E+03  0.13441040242E+03 -0.11954157119E+03  0.21992812592E+03  0.00000000000E+00 0. -1.
        -11    1    5    5    0    0 -0.22268018673E+03  0.75179137823E+02 -0.21248846845E+03  0.31684336438E+03  0.00000000000E+00 0.  1.
          2    1    6    6  503    0  0.16775067976E+03 -0.19074300427E+03 -0.31006050072E+03  0.40082502211E+03  0.00000000000E+00 0. -1.
         -2    1    6    6    0  503  0.18709323811E+03 -0.91429586312E+02 -0.28581825358E+03  0.35363162058E+03  0.00000000000E+00 0.  1.
<mgrwt>
<rscale>  0 0.13103190E+04</rscale>
<asrwt>0</asrwt>
<pdfrwt beam="1">  1        2 0.17276273E+00 0.13103190E+04</pdfrwt>
<pdfrwt beam="2">  1       -1 0.58805417E-01 0.13103190E+04</pdfrwt>
<totfact> 0.69034532E+01</totfact>
</mgrwt>
</event>
<event>
11    6  0.1705838E-008  0.1550224E+04  0.7818608E-02  0.8851725E-01
         -1   -1    0    0    0  501 -0.00000000000E+00  0.00000000000E+00  0.55449345721E+03  0.55449345721E+03  0.00000000000E+00 0.  1.
          2   -1    0    0  501    0  0.00000000000E+00 -0.00000000000E+00 -0.10835087362E+04  0.10835087362E+04  0.00000000000E+00 0. -1.
         24    2    1    2    0    0 -0.23688166386E+03  0.20315614377E+02 -0.64749269283E+03  0.69430875284E+03  0.79323452634E+02 0.  0.
        254    2    1    2    0    0  0.23688166386E+03 -0.20315614377E+02  0.11847741381E+03  0.94369344061E+03  0.90553562349E+03 0.  0.
         23    2    4    4    0    0  0.35493925018E+03  0.11589953802E+03 -0.24094272629E+03  0.45577581006E+03  0.10130951312E+03 0.  0.
          2    1    3    3  502    0 -0.23107305316E+03  0.39848752625E+01 -0.57353325194E+03  0.61834539394E+03  0.00000000000E+00 0. -1.
         -1    1    3    3    0  502 -0.58086107050E+01  0.16330739114E+02 -0.73959440884E+02  0.75963358893E+02  0.00000000000E+00 0.  1.
         11    1    4    4    0    0 -0.13346331963E+03 -0.13226463126E+03  0.73828864956E+02  0.20188385689E+03  0.00000000000E+00 0.  1.
        -11    1    4    4    0    0  0.15405733312E+02 -0.39505211350E+01  0.28559127515E+03  0.28603377366E+03  0.00000000000E+00 0. -1.
          1    1    5    5  503    0  0.32329197882E+03  0.94399221876E+02 -0.24616065514E+03  0.41716182088E+03  0.00000000000E+00 0. -1.
         -1    1    5    5    0  503  0.31647271365E+02  0.21500316146E+02  0.52179288465E+01  0.38613989184E+02  0.00000000000E+00 0.  1.
<mgrwt>
<rscale>  0 0.15502239E+04</rscale>
<asrwt>0</asrwt>
<pdfrwt beam="1">  1        2 0.16669365E+00 0.15502239E+04</pdfrwt>
<pdfrwt beam="2">  1       -1 0.85306687E-01 0.15502239E+04</pdfrwt>
<totfact> 0.33272929E+01</totfact>
</mgrwt>
</event>
<event>
12    6  0.1705838E-008  0.1521159E+04  0.7818608E-02  0.8870503E-01
          2   -1    0    0  501    0  0.00000000000E+00  0.00000000000E+00  0.25926875794E+04  0.25926875794E+04  0.00000000000E+00 0. -1.
         -1   -1    0    0    0  501 -0.00000000000E+00 -0.00000000000E+00 -0.22312039149E+03  0.22312039149E+03  0.00000000000E+00 0.  1.
         24    2    1    2    0    0 -0.43862586932E+01 -0.36914136440E+03  0.13556042396E+04  0.14070608742E+04  0.76634607210E+02 0.  0.
        254    2    1    2    0    0  0.43862586932E+01  0.36914136440E+03  0.10139629483E+04  0.14087470968E+04  0.90562847561E+03 0.  0.
         23    2    4    4    0    0 -0.25661475565E+03 -0.10635044325E+03  0.40449544567E+02  0.29051906035E+03  0.74857258648E+02 0.  0.
         23    2    4    4    0    0  0.26100101434E+03  0.47549180765E+03  0.97351340378E+03  0.11182280364E+04  0.92149907530E+02 0.  0.
          2    1    3    3  502    0  0.16770797606E+02 -0.34136500269E+03  0.12464181906E+04  0.12924278048E+04  0.00000000000E+00 0. -1.
         -1    1    3    3    0  502 -0.21157056300E+02 -0.27776361705E+02  0.10918604898E+03  0.11463306937E+03  0.00000000000E+00 0.  1.
         11    1    5    5    0    0 -0.19746963352E+03 -0.84453542375E+02  0.62543782389E+02  0.22369260537E+03  0.00000000000E+00 0. -1.
        -11    1    5    5    0    0 -0.59145122127E+02 -0.21896900875E+02 -0.22094237822E+02  0.66826454973E+02  0.00000000000E+00 0.  1.
          1    1    6    6  503    0  0.88276397289E+02  0.13946594264E+03  0.21724171094E+03  0.27283224232E+03  0.00000000000E+00 0. -1.
         -1    1    6    6    0  503  0.17272461705E+03  0.33602586501E+03  0.75627169284E+03  0.84539579410E+03  0.00000000000E+00 0.  1.
<mgrwt>
<rscale>  0 0.15211594E+04</rscale>
<asrwt>0</asrwt>
<pdfrwt beam="1">  1        2 0.39887499E+00 0.15211594E+04</pdfrwt>
<pdfrwt beam="2">  1       -1 0.34326216E-01 0.15211594E+04</pdfrwt>
<totfact> 0.27218881E+01</totfact>
</mgrwt>
</event>
<event>
12    6  0.1705838E-008  0.1458839E+04  0.7818608E-02  0.8912296E-01
         -1   -1    0    0    0  501 -0.00000000000E+00  0.00000000000E+00  0.39161657482E+03  0.39161657482E+03  0.00000000000E+00 0.  1.
          2   -1    0    0  501    0  0.00000000000E+00 -0.00000000000E+00 -0.13586060746E+04  0.13586060746E+04  0.00000000000E+00 0. -1.
         24    2    1    2    0    0 -0.22760564592E+03  0.37411554866E+03 -0.32345310271E+03  0.54971290775E+03  0.76128821653E+02 0.  0.
        254    2    1    2    0    0  0.22760564592E+03 -0.37411554866E+03 -0.64353639710E+03  0.12005097417E+04  0.91395720453E+03 0.  0.
         23    2    4    4    0    0 -0.66958955704E+02 -0.34868701132E+03 -0.77904979151E+03  0.86297780629E+03  0.10837888578E+03 0.  0.
         23    2    4    4    0    0  0.29456460163E+03 -0.25428537342E+02  0.13551339441E+03  0.33753193541E+03  0.90271879974E+02 0.  0.
          4    1    3    3  502    0 -0.55390672252E+02  0.83051599201E+02 -0.11565146179E+03  0.15277746992E+03  0.00000000000E+00 0. -1.
         -3    1    3    3    0  502 -0.17221497367E+03  0.29106394946E+03 -0.20780164093E+03  0.39693543783E+03  0.00000000000E+00 0.  1.
         11    1    5    5    0    0 -0.68367893055E+02 -0.33979505901E+03 -0.78036808660E+03  0.85387891502E+03  0.00000000000E+00 0. -1.
        -11    1    5    5    0    0  0.14089373510E+01 -0.88919523165E+01  0.13182950896E+01  0.90988912732E+01  0.00000000000E+00 0.  1.
          3    1    6    6  503    0  0.11585329261E+03 -0.54068477200E+02  0.63361921236E+02  0.14268888779E+03  0.00000000000E+00 0. -1.
         -3    1    6    6    0  503  0.17871130902E+03  0.28639939858E+02  0.72151473173E+02  0.19484304762E+03  0.00000000000E+00 0.  1.
<mgrwt>
<rscale>  0 0.14588388E+04</rscale>
<asrwt>0</asrwt>
<pdfrwt beam="1">  1        2 0.20901631E+00 0.14588388E+04</pdfrwt>
<pdfrwt beam="2">  1       -1 0.60248705E-01 0.14588388E+04</pdfrwt>
<totfact> 0.47167388E+01</totfact>
</mgrwt>
</event>
<event>
11    6  0.1705838E-008  0.1408836E+04  0.7818608E-02  0.8947447E-01
          2   -1    0    0  501    0  0.00000000000E+00  0.00000000000E+00  0.19999454378E+04  0.19999454378E+04  0.00000000000E+00 0. -1.
         -1   -1    0    0    0  501 -0.00000000000E+00 -0.00000000000E+00 -0.24810908390E+03  0.24810908390E+03  0.00000000000E+00 0.  1.
         24    2    1    2    0    0  0.31677969182E+03 -0.23657539750E+03  0.32302474348E+03  0.51657484413E+03  0.78659346760E+02 0.  0.
        254    2    1    2    0    0 -0.31677969182E+03  0.23657539750E+03  0.14288116105E+04  0.17314796776E+04  0.89454008514E+03 0.  0.
         23    2    4    4    0    0 -0.47174511421E+03 -0.92119060050E+02  0.11385518308E+04  0.12390352128E+04  0.88761552842E+02 0.  0.
          2    1    3    3  502    0 -0.33508743714E+01  0.18864136451E+01  0.42165581863E+01  0.57066871679E+01  0.00000000000E+00 0. -1.
         -1    1    3    3    0  502  0.32013056619E+03 -0.23846181115E+03  0.31880818529E+03  0.51086815696E+03  0.00000000000E+00 0.  1.
         11    1    4    4    0    0  0.96666505547E+02  0.13603563217E+03  0.22642219198E+03  0.28127764848E+03  0.00000000000E+00 0. -1.
        -11    1    4    4    0    0  0.58298916845E+02  0.19265882539E+03  0.63837587725E+02  0.21116681631E+03  0.00000000000E+00 0.  1.
          3    1    5    5  503    0 -0.12022145169E+02 -0.80980679362E+01  0.88533486287E+02  0.89712255979E+02  0.00000000000E+00 0. -1.
         -3    1    5    5    0  503 -0.45972296904E+03 -0.84020992114E+02  0.10500183445E+04  0.11493229568E+04  0.00000000000E+00 0.  1.
<mgrwt>
<rscale>  0 0.14088359E+04</rscale>
<asrwt>0</asrwt>
<pdfrwt beam="1">  1        2 0.30768390E+00 0.14088359E+04</pdfrwt>
<pdfrwt beam="2">  1       -1 0.38170630E-01 0.14088359E+04</pdfrwt>
<totfact> 0.49145767E+01</totfact>
</mgrwt>
</event>
<event>
12    6  0.1705838E-008  0.2194396E+04  0.7818608E-02  0.8520764E-01
         -1   -1    0    0    0  501 -0.00000000000E+00  0.00000000000E+00  0.18132933570E+04  0.18132933570E+04  0.00000000000E+00 0.  1.
          2   -1    0    0  501    0  0.00000000000E+00 -0.00000000000E+00 -0.66389901844E+03  0.66389901844E+03  0.00000000000E+00 0. -1.
         24    2    1    2    0    0  0.40779136680E+03  0.45539702059E+02  0.13977443533E+04  0.14589515703E+04  0.80515488602E+02 0.  0.
        254    2    1    2    0    0 -0.40779136680E+03 -0.45539702059E+02 -0.24835001476E+03  0.10182408052E+04  0.89820317532E+03 0.  0.
         23    2    4    4    0    0 -0.56076483035E+03 -0.10970916581E+03  0.13334432000E+03  0.59136455841E+03  0.73743048768E+02 0.  0.
         23    2    4    4    0    0  0.15297346355E+03  0.64169463755E+02 -0.38169433477E+03  0.42687624675E+03  0.94942952427E+02 0.  0.
          4    1    3    3  502    0  0.28824357681E+02  0.23578364575E+02  0.95346565104E+02  0.10236088290E+03  0.00000000000E+00 0. -1.
         -3    1    3    3    0  502  0.37896700912E+03  0.21961337484E+02  0.13023977882E+04  0.13565906874E+04  0.00000000000E+00 0.  1.
         11    1    5    5    0    0 -0.50160750652E+03 -0.90054246515E+02  0.14044281701E+03  0.52862467098E+03  0.00000000000E+00 0. -1.
        -11    1    5    5    0    0 -0.59157323824E+02 -0.19654919299E+02 -0.70984970058E+01  0.62739887428E+02  0.00000000000E+00 0.  1.
          1    1    6    6  503    0  0.14999532584E+03  0.41718184210E+02 -0.25965786860E+03  0.30275602949E+03  0.00000000000E+00 0. -1.
         -1    1    6    6    0  503  0.29781377127E+01  0.22451279545E+02 -0.12203646617E+03  0.12412021726E+03  0.00000000000E+00 0.  1.
<mgrwt>
<rscale>  0 0.21943962E+04</rscale>
<asrwt>0</asrwt>
<pdfrwt beam="1">  1        2 0.10213831E+00 0.21943962E+04</pdfrwt>
<pdfrwt beam="2">  1       -1 0.27896821E+00 0.21943962E+04</pdfrwt>
<totfact> 0.20662943E+00</totfact>
</mgrwt>
</event>
<event>
12    6  0.1705838E-008  0.1444188E+04  0.7818608E-02  0.8922439E-01
         -1   -1    0    0    0  501 -0.00000000000E+00  0.00000000000E+00  0.83845544489E+03  0.83845544489E+03  0.00000000000E+00 0.  1.
          2   -1    0    0  501    0  0.00000000000E+00 -0.00000000000E+00 -0.62188163342E+03  0.62188163342E+03  0.00000000000E+00 0. -1.
         24    2    1    2    0    0 -0.30629671497E+03  0.10162419128E+02 -0.25052581494E+03  0.40393296005E+03  0.80484159330E+02 0.  0.
        254    2    1    2    0    0  0.30629671497E+03 -0.10162419128E+02  0.46709962641E+03  0.10564041183E+04  0.89659726059E+03 0.  0.
         23    2    4    4    0    0  0.48542640413E+03 -0.29778644329E+03  0.38433507590E+03  0.69637314426E+03  0.11360697974E+03 0.  0.
         23    2    4    4    0    0 -0.17912968916E+03  0.28762402417E+03  0.82764550518E+02  0.36003097399E+03  0.89203736449E+02 0.  0.
          2    1    3    3  502    0 -0.28727914679E+03  0.27267103002E+02 -0.21364319872E+03  0.35904904880E+03  0.00000000000E+00 0. -1.
         -1    1    3    3    0  502 -0.19017568177E+02 -0.17104683874E+02 -0.36882616223E+02  0.44883911251E+02  0.00000000000E+00 0.  1.
         11    1    5    5    0    0  0.20271412220E+03 -0.67651612664E+02  0.11151799657E+03  0.24105190228E+03  0.00000000000E+00 0. -1.
        -11    1    5    5    0    0  0.28271228193E+03 -0.23013483063E+03  0.27281707933E+03  0.45532124198E+03  0.00000000000E+00 0.  1.
          1    1    6    6  503    0 -0.10370216763E+02  0.88769364366E+02  0.26499168294E+02  0.93218814442E+02  0.00000000000E+00 0. -1.
         -1    1    6    6    0  503 -0.16875947240E+03  0.19885465980E+03  0.56265382224E+02  0.26681215955E+03  0.00000000000E+00 0.  1.
<mgrwt>
<rscale>  0 0.14441884E+04</rscale>
<asrwt>0</asrwt>
<pdfrwt beam="1">  1        2 0.95674098E-01 0.14441884E+04</pdfrwt>
<pdfrwt beam="2">  1       -1 0.12899315E+00 0.14441884E+04</pdfrwt>
<totfact> 0.27229194E+01</totfact>
</mgrwt>
</event>
<event>
11    6  0.1705838E-008  0.2156785E+04  0.7818608E-02  0.8536634E-01
          2   -1    0    0  501    0  0.00000000000E+00  0.00000000000E+00  0.76537792463E+03  0.76537792463E+03  0.00000000000E+00 0. -1.
         -1   -1    0    0    0  501 -0.00000000000E+00 -0.00000000000E+00 -0.15194192238E+04  0.15194192238E+04  0.00000000000E+00 0.  1.
         24    2    1    2    0    0  0.37276979930E+03 -0.38116476951E+03 -0.10760047906E+04  0.12035223629E+04  0.80223834673E+02 0.  0.
        254    2    1    2    0    0 -0.37276979930E+03  0.38116476951E+03  0.32196349152E+03  0.10812747855E+04  0.88388391044E+03 0.  0.
         23    2    4    4    0    0 -0.68036481600E+02 -0.24147007749E+03  0.18812120122E+03  0.32595408853E+03  0.88992810529E+02 0.  0.
          2    1    3    3  502    0  0.30561589149E+03 -0.27494600143E+03 -0.77355258769E+03  0.87600227326E+03  0.00000000000E+00 0. -1.
         -1    1    3    3    0  502  0.67153907819E+02 -0.10621876807E+03 -0.30245220295E+03  0.32752008961E+03  0.00000000000E+00 0.  1.
         11    1    4    4    0    0 -0.31012215090E+03  0.64202531277E+03  0.10580774239E+03  0.72081032808E+03  0.00000000000E+00 0.  1.
        -11    1    4    4    0    0  0.53888331922E+01 -0.19390465772E+02  0.28034547907E+02  0.34510368911E+02  0.00000000000E+00 0. -1.
          4    1    5    5  503    0 -0.22305550268E+02 -0.29087421454E+02  0.69141264842E+02  0.78256821833E+02  0.00000000000E+00 0. -1.
         -4    1    5    5    0  503 -0.45730931332E+02 -0.21238265604E+03  0.11897993638E+03  0.24769726669E+03  0.00000000000E+00 0.  1.
<mgrwt>
<rscale>  0 0.21567846E+04</rscale>
<asrwt>0</asrwt>
<pdfrwt beam="1">  1        2 0.11775045E+00 0.21567846E+04</pdfrwt>
<pdfrwt beam="2">  1       -1 0.23375680E+00 0.21567846E+04</pdfrwt>
<totfact> 0.34070684E+00</totfact>
</mgrwt>
</event>
<event>
12    6  0.1705838E-008  0.1429317E+04  0.7818608E-02  0.8932867E-01
         -1   -1    0    0    0  501 -0.00000000000E+00  0.00000000000E+00  0.42242044622E+03  0.42242044622E+03  0.00000000000E+00 0.  1.
          2   -1    0    0  501    0  0.00000000000E+00 -0.00000000000E+00 -0.12090719699E+04  0.12090719699E+04  0.00000000000E+00 0. -1.
         24    2    1    2    0    0 -0.23106734772E+02 -0.47592491585E+02  0.24635585441E+03  0.26355868880E+03  0.77285244341E+02 0.  0.
        254    2    1    2    0    0  0.23106734772E+02  0.47592491585E+02 -0.10330073781E+04  0.13679337273E+04  0.89517566581E+03 0.  0.
         23    2    4    4    0    0  0.44445958561E+03 -0.26739155349E+02 -0.56233849742E+03  0.72553239574E+03  0.10914836658E+03 0.  0.
         23    2    4    4    0    0 -0.42135285083E+03  0.74331646934E+02 -0.47066888063E+03  0.64240133153E+03  0.89926953211E+02 0.  0.
          2    1    3    3  502    0  0.78400625207E+01  0.65647752924E+01  0.85902583415E+00  0.10261616849E+02  0.00000000000E+00 0. -1.
         -1    1    3    3    0  502 -0.30946797293E+02 -0.54157266877E+02  0.24549682858E+03  0.25329707195E+03  0.00000000000E+00 0.  1.
         11    1    5    5    0    0  0.22824037499E+03 -0.59201269061E+02 -0.33943962795E+03  0.41330100418E+03  0.00000000000E+00 0. -1.
        -11    1    5    5    0    0  0.21621921062E+03  0.32462113711E+02 -0.22289886947E+03  0.31223139157E+03  0.00000000000E+00 0.  1.
          1    1    6    6  503    0 -0.60491153349E+02  0.23365834080E+02 -0.32674312027E+02  0.72613721171E+02  0.00000000000E+00 0. -1.
         -1    1    6    6    0  503 -0.36086169749E+03  0.50965812854E+02 -0.43799456860E+03  0.56978761036E+03  0.00000000000E+00 0.  1.
<mgrwt>
<rscale>  0 0.14293169E+04</rscale>
<asrwt>0</asrwt>
<pdfrwt beam="1">  1        2 0.18601107E+00 0.14293169E+04</pdfrwt>
<pdfrwt beam="2">  1       -1 0.64987761E-01 0.14293169E+04</pdfrwt>
<totfact> 0.49729798E+01</totfact>
</mgrwt>
</event>
<event>
12    6  0.1705838E-008  0.1839959E+04  0.7818608E-02  0.8685333E-01
         -1   -1    0    0    0  501 -0.00000000000E+00  0.00000000000E+00  0.10128706216E+04  0.10128706216E+04  0.00000000000E+00 0.  1.
          2   -1    0    0  501    0  0.00000000000E+00 -0.00000000000E+00 -0.83560790584E+03  0.83560790584E+03  0.00000000000E+00 0. -1.
         24    2    1    2    0    0  0.32202024789E+02  0.28891731852E+03 -0.56022714947E+03  0.63624978985E+03  0.80306592090E+02 0.  0.
        254    2    1    2    0    0 -0.32202024789E+02 -0.28891731852E+03  0.73748986527E+03  0.12122287376E+04  0.91711341917E+03 0.  0.
         23    2    4    4    0    0 -0.34717949708E+03 -0.36260157284E+03  0.15079606880E+03  0.53595092003E+03  0.11176059460E+03 0.  0.
         23    2    4    4    0    0  0.31497747229E+03  0.73684254312E+02  0.58669379647E+03  0.67627781760E+03  0.92205739378E+02 0.  0.
          4    1    3    3  502    0  0.28932173126E+02  0.19493901958E+03 -0.45063666776E+03  0.49184519753E+03  0.00000000000E+00 0. -1.
         -3    1    3    3    0  502  0.32698516629E+01  0.93978298946E+02 -0.10959048170E+03  0.14440459232E+03  0.00000000000E+00 0.  1.
         11    1    5    5    0    0 -0.11703744156E+03 -0.89762239835E+02  0.92983420195E+02  0.17435865008E+03  0.00000000000E+00 0. -1.
        -11    1    5    5    0    0 -0.23014205552E+03 -0.27283933300E+03  0.57812648606E+02  0.36159226995E+03  0.00000000000E+00 0.  1.
          3    1    6    6  503    0  0.13619772504E+02  0.13598483152E+02  0.75766666820E+01  0.20683878386E+02  0.00000000000E+00 0. -1.
         -3    1    6    6    0  503  0.30135769978E+03  0.60085771160E+02  0.57911712979E+03  0.65559393921E+03  0.00000000000E+00 0.  1.
<mgrwt>
<rscale>  0 0.18399595E+04</rscale>
<asrwt>0</asrwt>
<pdfrwt beam="1">  1        2 0.12855506E+00 0.18399595E+04</pdfrwt>
<pdfrwt beam="2">  1       -1 0.15582625E+00 0.18399595E+04</pdfrwt>
<totfact> 0.10973547E+01</totfact>
</mgrwt>
</event>
<event>
12    6  0.1705838E-008  0.1330691E+04  0.7818608E-02  0.9005575E-01
         -1   -1    0    0    0  501 -0.00000000000E+00  0.00000000000E+00  0.26232403471E+03  0.26232403471E+03  0.00000000000E+00 0.  1.
          2   -1    0    0  501    0  0.00000000000E+00 -0.00000000000E+00 -0.16875488713E+04  0.16875488713E+04  0.00000000000E+00 0. -1.
         24    2    1    2    0    0  0.30750026879E+03 -0.13457348767E+03 -0.17444195540E+03  0.38660399613E+03  0.79788565120E+02 0.  0.
        254    2    1    2    0    0 -0.30750026879E+03  0.13457348767E+03 -0.12507828812E+04  0.15632689099E+04  0.87560575021E+03 0.  0.
         23    2    4    4    0    0 -0.35898035134E+03 -0.73601470127E+02 -0.96046816360E+02  0.38590902079E+03  0.73598317527E+02 0.  0.
         23    2    4    4    0    0  0.51480082545E+02  0.20817495780E+03 -0.11547360648E+04  0.11773598891E+04  0.82303809513E+02 0.  0.
          2    1    3    3  502    0  0.11785497671E+03 -0.45559678956E+02 -0.10970287199E+03  0.16733260294E+03  0.00000000000E+00 0. -1.
         -1    1    3    3    0  502  0.18964529208E+03 -0.89013808713E+02 -0.64739083412E+02  0.21927139319E+03  0.00000000000E+00 0.  1.
         11    1    5    5    0    0 -0.13717097126E+03 -0.49822601572E+02 -0.82448701155E+01  0.14617162812E+03  0.00000000000E+00 0. -1.
        -11    1    5    5    0    0 -0.22180938008E+03 -0.23778868555E+02 -0.87801946244E+02  0.23973739267E+03  0.00000000000E+00 0.  1.
          3    1    6    6  503    0 -0.11999005871E+01  0.12510439877E+03 -0.77792477343E+03  0.78792100078E+03  0.00000000000E+00 0. -1.
         -3    1    6    6    0  503  0.52679983132E+02  0.83070559027E+02 -0.37681129137E+03  0.38943888828E+03  0.00000000000E+00 0.  1.
<mgrwt>
<rscale>  0 0.13306910E+04</rscale>
<asrwt>0</asrwt>
<pdfrwt beam="1">  1        2 0.25962290E+00 0.13306910E+04</pdfrwt>
<pdfrwt beam="2">  1       -1 0.40357544E-01 0.13306910E+04</pdfrwt>
<totfact> 0.66531838E+01</totfact>
</mgrwt>
</event>
<event>
12    6  0.1705838E-008  0.1441318E+04  0.7818608E-02  0.8924442E-01
         -1   -1    0    0    0  501 -0.00000000000E+00  0.00000000000E+00  0.12719566049E+03  0.12719566049E+03  0.00000000000E+00 0.  1.
          2   -1    0    0  501    0  0.00000000000E+00 -0.00000000000E+00 -0.40830720087E+04  0.40830720087E+04  0.00000000000E+00 0. -1.
         24    2    1    2    0    0 -0.28088571030E+03  0.17148626184E+03 -0.20582136793E+04  0.20854784763E+04  0.68356457021E+02 0.  0.
        254    2    1    2    0    0  0.28088571030E+03 -0.17148626184E+03 -0.18976626689E+04  0.21247891929E+04  0.89738575262E+03 0.  0.
         23    2    4    4    0    0 -0.31088515146E+03 -0.13675492956E+03 -0.82627778014E+03  0.89676558128E+03  0.78115617274E+02 0.  0.
         23    2    4    4    0    0  0.59177086176E+03 -0.34731332276E+02 -0.10713848888E+04  0.12280236116E+04  0.93687739393E+02 0.  0.
          2    1    3    3  502    0 -0.22412311413E+03  0.15893363936E+03 -0.17962381121E+04  0.18171302726E+04  0.00000000000E+00 0. -1.
         -1    1    3    3    0  502 -0.56762596167E+02  0.12552622474E+02 -0.26197556718E+03  0.26834820374E+03  0.00000000000E+00 0.  1.
         11    1    5    5    0    0 -0.29552443510E+02 -0.33149450738E+02 -0.16181593907E+03  0.16779937764E+03  0.00000000000E+00 0. -1.
        -11    1    5    5    0    0 -0.28133270795E+03 -0.10360547882E+03 -0.66446184107E+03  0.72896620364E+03  0.00000000000E+00 0.  1.
          1    1    6    6  503    0  0.17161494435E+03  0.22438122151E+02 -0.25672459619E+03  0.30961698393E+03  0.00000000000E+00 0. -1.
         -1    1    6    6    0  503  0.42015591742E+03 -0.57169454427E+02 -0.81466029259E+03  0.91840662769E+03  0.00000000000E+00 0.  1.
<mgrwt>
<rscale>  0 0.14413175E+04</rscale>
<asrwt>0</asrwt>
<pdfrwt beam="1">  1        2 0.62816486E+00 0.14413175E+04</pdfrwt>
<pdfrwt beam="2">  1       -1 0.19568565E-01 0.14413175E+04</pdfrwt>
<totfact> 0.70508382E+00</totfact>
</mgrwt>
</event>
<event>
11    6  0.1705838E-008  0.2087378E+04  0.7818608E-02  0.8566824E-01
          2   -1    0    0  501    0  0.00000000000E+00  0.00000000000E+00  0.10335297713E+04  0.10335297713E+04  0.00000000000E+00 0. -1.
         -1   -1    0    0    0  501 -0.00000000000E+00 -0.00000000000E+00 -0.10539481703E+04  0.10539481703E+04  0.00000000000E+00 0.  1.
         24    2    1    2    0    0 -0.31785508754E+03  0.12929831470E+02  0.76376231806E+03  0.83177326582E+03  0.85526896564E+02 0.  0.
        254    2    1    2    0    0  0.31785508754E+03 -0.12929831470E+02 -0.78418071706E+03  0.12557046758E+04  0.92771536505E+03 0.  0.
         23    2    4    4    0    0  0.22450726717E+03  0.28927487625E+03 -0.77884358858E+03  0.86532501983E+03  0.90036589381E+02 0.  0.
          4    1    3    3  502    0 -0.28371710131E+03  0.38953985337E+02  0.67123773324E+03  0.72977592525E+03  0.00000000000E+00 0. -1.
         -1    1    3    3    0  502 -0.34137986239E+02 -0.26024153867E+02  0.92524584815E+02  0.10199734057E+03  0.00000000000E+00 0.  1.
         11    1    4    4    0    0 -0.13810540534E+02 -0.19813435482E+03  0.84748741116E+02  0.21594050734E+03  0.00000000000E+00 0.  1.
        -11    1    4    4    0    0  0.10715836091E+03 -0.10407035290E+03 -0.90085869595E+02  0.17443914861E+03  0.00000000000E+00 0. -1.
          3    1    5    5  503    0  0.44170715853E+02  0.28823264718E+02 -0.60701404609E+02  0.80414508949E+02  0.00000000000E+00 0. -1.
         -3    1    5    5    0  503  0.18033655132E+03  0.26045161154E+03 -0.71814218397E+03  0.78491051088E+03  0.00000000000E+00 0.  1.
<mgrwt>
<rscale>  0 0.20873781E+04</rscale>
<asrwt>0</asrwt>
<pdfrwt beam="1">  1        2 0.15900458E+00 0.20873781E+04</pdfrwt>
<pdfrwt beam="2">  1       -1 0.16214587E+00 0.20873781E+04</pdfrwt>
<totfact> 0.71020509E+00</totfact>
</mgrwt>
</event>
<event>
12    6  0.1705838E-008  0.3382850E+04  0.7818608E-02  0.8142128E-01
          2   -1    0    0  501    0  0.00000000000E+00  0.00000000000E+00  0.26155625701E+04  0.26155625701E+04  0.00000000000E+00 0. -1.
         -1   -1    0    0    0  501 -0.00000000000E+00 -0.00000000000E+00 -0.10938059401E+04  0.10938059401E+04  0.00000000000E+00 0.  1.
         24    2    1    2    0    0 -0.17008604495E+03  0.33784968126E+03  0.23809140849E+04  0.24120934679E+04  0.79820725319E+02 0.  0.
        254    2    1    2    0    0  0.17008604495E+03 -0.33784968126E+03 -0.85915745494E+03  0.12972750423E+04  0.89537664319E+03 0.  0.
         23    2    4    4    0    0 -0.20018758226E+03  0.18880749085E+03 -0.43684978862E+03  0.52159589763E+03  0.74170114702E+02 0.  0.
         23    2    4    4    0    0  0.37027362722E+03 -0.52665717211E+03 -0.42230766632E+03  0.77567914467E+03  0.94149001592E+02 0.  0.
          4    1    3    3  502    0 -0.15602482721E+03  0.27941473855E+03  0.18151256313E+04  0.18431216455E+04  0.00000000000E+00 0. -1.
         -3    1    3    3    0  502 -0.14061217748E+02  0.58434942708E+02  0.56578845361E+03  0.56897182234E+03  0.00000000000E+00 0.  1.
         11    1    5    5    0    0 -0.19155516928E+03  0.17327063610E+03 -0.43173342265E+03  0.50310023300E+03  0.00000000000E+00 0. -1.
        -11    1    5    5    0    0 -0.86324129847E+01  0.15536854749E+02 -0.51163659724E+01  0.18495664633E+02  0.00000000000E+00 0.  1.
          3    1    6    6  503    0  0.27820680554E+03 -0.31871616269E+03 -0.26614174979E+03  0.49981041405E+03  0.00000000000E+00 0. -1.
         -3    1    6    6    0  503  0.92066821680E+02 -0.20794100941E+03 -0.15616591653E+03  0.27586873062E+03  0.00000000000E+00 0.  1.
<mgrwt>
<rscale>  0 0.33828496E+04</rscale>
<asrwt>0</asrwt>
<pdfrwt beam="1">  1        2 0.40239424E+00 0.33828496E+04</pdfrwt>
<pdfrwt beam="2">  1       -1 0.16827784E+00 0.33828496E+04</pdfrwt>
<totfact> 0.71145411E-01</totfact>
</mgrwt>
</event>
<event>
12    6  0.1705838E-008  0.1468245E+04  0.7818608E-02  0.8905849E-01
         -1   -1    0    0    0  501 -0.00000000000E+00  0.00000000000E+00  0.26056311430E+03  0.26056311430E+03  0.00000000000E+00 0.  1.
          2   -1    0    0  501    0  0.00000000000E+00 -0.00000000000E+00 -0.20683494780E+04  0.20683494780E+04  0.00000000000E+00 0. -1.
         24    2    1    2    0    0 -0.93204069367E+02  0.38134531452E+03 -0.94080969200E+03  0.10224855045E+04  0.79009385080E+02 0.  0.
        254    2    1    2    0    0  0.93204069367E+02 -0.38134531452E+03 -0.86697667173E+03  0.13064270878E+04  0.89498152996E+03 0.  0.
         23    2    4    4    0    0  0.30447287144E+03 -0.57880437037E+03 -0.68071292251E+03  0.95038037863E+03  0.11015694542E+03 0.  0.
         23    2    4    4    0    0 -0.21126880207E+03  0.19745905584E+03 -0.18626374922E+03  0.35604670917E+03  0.91926543362E+02 0.  0.
          4    1    3    3  502    0 -0.41971169657E+02  0.15222165684E+03 -0.48012753764E+03  0.50542602257E+03  0.00000000000E+00 0. -1.
         -3    1    3    3    0  502 -0.51232899711E+02  0.22912365768E+03 -0.46068215436E+03  0.51705948194E+03  0.00000000000E+00 0.  1.
         11    1    5    5    0    0  0.17456630013E+03 -0.36134973474E+03 -0.48969882611E+03  0.63312871064E+03  0.00000000000E+00 0.  1.
        -11    1    5    5    0    0  0.12990657131E+03 -0.21745463563E+03 -0.19101409640E+03  0.31725166800E+03  0.00000000000E+00 0. -1.
          4    1    6    6  503    0 -0.27507167073E+02  0.66213525261E+02 -0.16606408846E+02  0.73597880287E+02  0.00000000000E+00 0. -1.
         -4    1    6    6    0  503 -0.18376163500E+03  0.13124553058E+03 -0.16965734038E+03  0.28244882889E+03  0.00000000000E+00 0.  1.
<mgrwt>
<rscale>  0 0.14682446E+04</rscale>
<asrwt>0</asrwt>
<pdfrwt beam="1">  1        2 0.31820762E+00 0.14682446E+04</pdfrwt>
<pdfrwt beam="2">  1       -1 0.40086632E-01 0.14682446E+04</pdfrwt>
<totfact> 0.40986855E+01</totfact>
</mgrwt>
</event>
<event>
11    6  0.1705838E-008  0.1556472E+04  0.7818608E-02  0.8847744E-01
          2   -1    0    0  501    0  0.00000000000E+00  0.00000000000E+00  0.97504603104E+03  0.97504603104E+03  0.00000000000E+00 0. -1.
         -1   -1    0    0    0  501 -0.00000000000E+00 -0.00000000000E+00 -0.62115141482E+03  0.62115141482E+03  0.00000000000E+00 0.  1.
         24    2    1    2    0    0  0.18116881810E+03 -0.24287798006E+03  0.54359252951E+03  0.62730264396E+03  0.78764935939E+02 0.  0.
        254    2    1    2    0    0 -0.18116881810E+03  0.24287798006E+03 -0.18969791328E+03  0.96889480190E+03  0.90053316707E+03 0.  0.
         23    2    4    4    0    0  0.22870272862E+03  0.39836492564E+03 -0.19730371831E+03  0.50813626416E+03  0.90962374819E+02 0.  0.
          2    1    3    3  502    0  0.12188932945E+03 -0.21576412707E+03  0.43591497996E+03  0.50143098918E+03  0.00000000000E+00 0. -1.
         -1    1    3    3    0  502  0.59279488658E+02 -0.27113852996E+02  0.10767754955E+03  0.12587165478E+03  0.00000000000E+00 0.  1.
         11    1    4    4    0    0 -0.97602836662E+02 -0.73469307404E+02 -0.51424580632E+02  0.13254637056E+03  0.00000000000E+00 0. -1.
        -11    1    4    4    0    0 -0.31226871006E+03 -0.82017638174E+02  0.59030385663E+02  0.32821216718E+03  0.00000000000E+00 0.  1.
          1    1    5    5  503    0  0.12986858767E+02  0.49756406801E+02  0.37033458439E+01  0.51556505786E+02  0.00000000000E+00 0. -1.
         -1    1    5    5    0  503  0.21571586985E+03  0.34860851884E+03 -0.20100706415E+03  0.45657975837E+03  0.00000000000E+00 0.  1.
<mgrwt>
<rscale>  0 0.15564719E+04</rscale>
<asrwt>0</asrwt>
<pdfrwt beam="1">  1        2 0.15000708E+00 0.15564719E+04</pdfrwt>
<pdfrwt beam="2">  1       -1 0.95561756E-01 0.15564719E+04</pdfrwt>
<totfact> 0.30332344E+01</totfact>
</mgrwt>
</event>
<event>
12    6  0.1705838E-008  0.3421784E+04  0.7818608E-02  0.8132580E-01
         -1   -1    0    0    0  501 -0.00000000000E+00  0.00000000000E+00  0.97624185070E+03  0.97624185070E+03  0.00000000000E+00 0.  1.
          2   -1    0    0  501    0  0.00000000000E+00 -0.00000000000E+00 -0.29983881005E+04  0.29983881005E+04  0.00000000000E+00 0. -1.
         24    2    1    2    0    0  0.12578237893E+04  0.94492616962E+03 -0.12128199278E+04  0.19880141926E+04  0.79133443563E+02 0.  0.
        254    2    1    2    0    0 -0.12578237893E+04 -0.94492616962E+03 -0.80932632204E+03  0.19866157586E+04  0.90367412600E+03 0.  0.
         23    2    4    4    0    0  0.81387310880E+02  0.65704061088E+02 -0.16887271888E+02  0.12901497656E+03  0.73612269423E+02 0.  0.
         23    2    4    4    0    0 -0.13392111001E+04 -0.10106302307E+04 -0.79243905015E+03  0.18576007821E+04  0.88663314575E+02 0.  0.
          4    1    3    3  502    0  0.63630820209E+03  0.46344081317E+03 -0.55907029376E+03  0.96551805199E+03  0.00000000000E+00 0. -1.
         -3    1    3    3    0  502  0.62151558717E+03  0.48148535645E+03 -0.65374963403E+03  0.10224961406E+04  0.00000000000E+00 0.  1.
         11    1    5    5    0    0  0.21157651989E+02 -0.14297188448E+02  0.61385283926E+01  0.26262851445E+02  0.00000000000E+00 0. -1.
        -11    1    5    5    0    0  0.60229658892E+02  0.80001249536E+02 -0.23025800281E+02  0.10275212512E+03  0.00000000000E+00 0.  1.
          4    1    6    6  503    0 -0.38168615159E+03 -0.24397085895E+03 -0.19434459007E+03  0.49292587477E+03  0.00000000000E+00 0. -1.
         -4    1    6    6    0  503 -0.95752494855E+03 -0.76665937176E+03 -0.59809446008E+03  0.13646749073E+04  0.00000000000E+00 0.  1.
<mgrwt>
<rscale>  0 0.34217843E+04</rscale>
<asrwt>0</asrwt>
<pdfrwt beam="1">  1        2 0.46129047E+00 0.34217843E+04</pdfrwt>
<pdfrwt beam="2">  1       -1 0.15019106E+00 0.34217843E+04</pdfrwt>
<totfact> 0.56949050E-01</totfact>
</mgrwt>
</event>
<event>
12    6  0.1705838E-008  0.1864525E+04  0.7818608E-02  0.8672719E-01
          2   -1    0    0  501    0  0.00000000000E+00  0.00000000000E+00  0.18443411269E+04  0.18443411269E+04  0.00000000000E+00 0. -1.
         -1   -1    0    0    0  501 -0.00000000000E+00 -0.00000000000E+00 -0.47123222060E+03  0.47123222060E+03  0.00000000000E+00 0.  1.
         24    2    1    2    0    0 -0.67682220314E+02  0.51423345267E+03 -0.77168890725E+02  0.53195722702E+03  0.89479198120E+02 0.  0.
        254    2    1    2    0    0  0.67682220314E+02 -0.51423345267E+03  0.14502777970E+04  0.17836161204E+04  0.89942417683E+03 0.  0.
         23    2    4    4    0    0  0.29883361460E+03 -0.67024696640E+03  0.10057814580E+04  0.12502989960E+04  0.11453695021E+03 0.  0.
         23    2    4    4    0    0 -0.23115139429E+03  0.15601351373E+03  0.44449633896E+03  0.53331712442E+03  0.95283662288E+02 0.  0.
          4    1    3    3  502    0 -0.48923332798E+02  0.42577991795E+03 -0.96921807627E+02  0.43940399158E+03  0.00000000000E+00 0. -1.
         -3    1    3    3    0  502 -0.18758887516E+02  0.88453534712E+02  0.19752916902E+02  0.92553235438E+02  0.00000000000E+00 0.  1.
         11    1    5    5    0    0  0.30701945286E+03 -0.66169246683E+03  0.99786896286E+03  0.12360583854E+04  0.00000000000E+00 0. -1.
        -11    1    5    5    0    0 -0.81858382638E+01 -0.85544995731E+01  0.79124951683E+01  0.14240610619E+02  0.00000000000E+00 0.  1.
          3    1    6    6  503    0 -0.24001118833E+03  0.15100364235E+03  0.41969991922E+03  0.50651307260E+03  0.00000000000E+00 0. -1.
         -3    1    6    6    0  503  0.88597940401E+01  0.50098713865E+01  0.24796419738E+02  0.26804051812E+02  0.00000000000E+00 0.  1.
<mgrwt>
<rscale>  0 0.18645246E+04</rscale>
<asrwt>0</asrwt>
<pdfrwt beam="1">  1        2 0.28374478E+00 0.18645246E+04</pdfrwt>
<pdfrwt beam="2">  1       -1 0.72497266E-01 0.18645246E+04</pdfrwt>
<totfact> 0.16735407E+01</totfact>
</mgrwt>
</event>
<event>
11    6  0.1705838E-008  0.1967591E+04  0.7818608E-02  0.8621925E-01
          2   -1    0    0  501    0  0.00000000000E+00  0.00000000000E+00  0.46507701538E+03  0.46507701538E+03  0.00000000000E+00 0. -1.
         -1   -1    0    0    0  501 -0.00000000000E+00 -0.00000000000E+00 -0.20810602022E+04  0.20810602022E+04  0.00000000000E+00 0.  1.
         24    2    1    2    0    0  0.60670735987E+02 -0.50450163798E+03 -0.14072492973E+04  0.14984270943E+04  0.82038595633E+02 0.  0.
        254    2    1    2    0    0 -0.60670735987E+02  0.50450163798E+03 -0.20873388952E+03  0.10477101233E+04  0.89214562988E+03 0.  0.
         23    2    4    4    0    0 -0.35468849978E+03  0.50498667350E+03 -0.95692972806E+02  0.63261168668E+03  0.10111838997E+03 0.  0.
          4    1    3    3  502    0 -0.15563866471E+02 -0.16821997689E+03 -0.50671479606E+03  0.53413488850E+03  0.00000000000E+00 0. -1.
         -1    1    3    3    0  502  0.76234602458E+02 -0.33628166109E+03 -0.90053450127E+03  0.96429220581E+03  0.00000000000E+00 0.  1.
         11    1    4    4    0    0  0.10951431717E+03  0.12426462610E+03 -0.96661759043E+02  0.19177741949E+03  0.00000000000E+00 0.  1.
        -11    1    4    4    0    0  0.18450344662E+03 -0.12474966162E+03 -0.16379157666E+02  0.22332101713E+03  0.00000000000E+00 0. -1.
          1    1    5    5  503    0 -0.34108876594E+03  0.44020182562E+03 -0.10188078643E+03  0.56612621223E+03  0.00000000000E+00 0. -1.
         -1    1    5    5    0  503 -0.13599733838E+02  0.64784847879E+02  0.61878136255E+01  0.66485474448E+02  0.00000000000E+00 0.  1.
<mgrwt>
<rscale>  0 0.19675907E+04</rscale>
<asrwt>0</asrwt>
<pdfrwt beam="1">  1        2 0.71550312E-01 0.19675907E+04</pdfrwt>
<pdfrwt beam="2">  1       -1 0.32016310E+00 0.19675907E+04</pdfrwt>
<totfact> 0.17421804E+00</totfact>
</mgrwt>
</event>
<event>
12    6  0.1705838E-008  0.1701811E+04  0.7818608E-02  0.8760332E-01
          2   -1    0    0  501    0  0.00000000000E+00  0.00000000000E+00  0.11217164295E+04  0.11217164295E+04  0.00000000000E+00 0. -1.
         -1   -1    0    0    0  501 -0.00000000000E+00 -0.00000000000E+00 -0.64547548777E+03  0.64547548777E+03  0.00000000000E+00 0.  1.
         24    2    1    2    0    0  0.10508287227E+03  0.53752037043E+03 -0.53281685670E+02  0.55620906494E+03  0.80987821443E+02 0.  0.
        254    2    1    2    0    0 -0.10508287227E+03 -0.53752037043E+03  0.52952262742E+03  0.12109828524E+04  0.94133665449E+03 0.  0.
         23    2    4    4    0    0  0.87996774177E+01 -0.77670857300E+03  0.27533905417E+03  0.83262249655E+03  0.11872230339E+03 0.  0.
         23    2    4    4    0    0 -0.11388254968E+03  0.23918820257E+03  0.25418357326E+03  0.37836035581E+03  0.91471517762E+02 0.  0.
          4    1    3    3  502    0  0.83415129953E+02  0.46006040384E+03 -0.16731707290E+02  0.46786067276E+03  0.00000000000E+00 0. -1.
         -3    1    3    3    0  502  0.21667742313E+02  0.77459966588E+02 -0.36549978381E+02  0.88348392178E+02  0.00000000000E+00 0.  1.
         11    1    5    5    0    0  0.20121432923E+02 -0.35576342571E+03  0.66120586709E+02  0.36241470599E+03  0.00000000000E+00 0.  1.
        -11    1    5    5    0    0 -0.11321755505E+02 -0.42094514729E+03  0.20921846746E+03  0.47020779056E+03  0.00000000000E+00 0. -1.
          3    1    6    6  503    0 -0.10102344394E+03  0.21868527609E+03  0.18110024004E+03  0.30137399215E+03  0.00000000000E+00 0. -1.
         -3    1    6    6    0  503 -0.12859105739E+02  0.20502926486E+02  0.73083333215E+02  0.76986363655E+02  0.00000000000E+00 0.  1.
<mgrwt>
<rscale>  0 0.17018113E+04</rscale>
<asrwt>0</asrwt>
<pdfrwt beam="1">  1        2 0.17257176E+00 0.17018113E+04</pdfrwt>
<pdfrwt beam="2">  1       -1 0.99303921E-01 0.17018113E+04</pdfrwt>
<totfact> 0.22204176E+01</totfact>
</mgrwt>
</event>
<event>
12    6  0.1705838E-008  0.1439669E+04  0.7818608E-02  0.8925594E-01
          2   -1    0    0  501    0  0.00000000000E+00  0.00000000000E+00  0.19398697882E+04  0.19398697882E+04  0.00000000000E+00 0. -1.
         -1   -1    0    0    0  501 -0.00000000000E+00 -0.00000000000E+00 -0.26711174983E+03  0.26711174983E+03  0.00000000000E+00 0.  1.
         24    2    1    2    0    0 -0.37361868718E+03  0.85015092864E+01  0.84109812928E+03  0.92390544264E+03  0.80572978074E+02 0.  0.
        254    2    1    2    0    0  0.37361868718E+03 -0.85015092864E+01  0.83165990912E+03  0.12830760954E+04  0.90275293583E+03 0.  0.
         23    2    4    4    0    0  0.61960263282E+02 -0.38448398682E+03  0.13417236446E+03  0.42677788769E+03  0.11166974385E+03 0.  0.
         23    2    4    4    0    0  0.31165842390E+03  0.37598247753E+03  0.69748754465E+03  0.85629820773E+03  0.90906265012E+02 0.  0.
          2    1    3    3  502    0 -0.32946468145E+03  0.34150075385E+02  0.73097744914E+03  0.80252179729E+03  0.00000000000E+00 0. -1.
         -1    1    3    3    0  502 -0.44154005731E+02 -0.25648566099E+02  0.11012068014E+03  0.12138364535E+03  0.00000000000E+00 0.  1.
         11    1    5    5    0    0  0.32463699108E+02 -0.48497025274E+02  0.55301378856E+02  0.80399600270E+02  0.00000000000E+00 0.  1.
        -11    1    5    5    0    0  0.29496564174E+02 -0.33598696155E+03  0.78870985609E+02  0.34637828742E+03  0.00000000000E+00 0. -1.
          4    1    6    6  503    0  0.14114351930E+02  0.44445450513E+02  0.36553649618E+02  0.59251854841E+02  0.00000000000E+00 0.  1.
         -4    1    6    6    0  503  0.29754407197E+03  0.33153702702E+03  0.66093389504E+03  0.79704635289E+03  0.00000000000E+00 0. -1.
<mgrwt>
<rscale>  0 0.14396694E+04</rscale>
<asrwt>0</asrwt>
<pdfrwt beam="1">  1        2 0.29844150E+00 0.14396694E+04</pdfrwt>
<pdfrwt beam="2">  1       -1 0.41094116E-01 0.14396694E+04</pdfrwt>
<totfact> 0.46255752E+01</totfact>
</mgrwt>
</event>
<event>
12    6  0.1705838E-008  0.2377376E+04  0.7818608E-02  0.8448022E-01
          2   -1    0    0  501    0  0.00000000000E+00  0.00000000000E+00  0.20951438937E+04  0.20951438937E+04  0.00000000000E+00 0. -1.
         -1   -1    0    0    0  501 -0.00000000000E+00 -0.00000000000E+00 -0.67440679877E+03  0.67440679877E+03  0.00000000000E+00 0.  1.
         24    2    1    2    0    0  0.40232759733E+03 -0.86878364039E+03  0.21124528300E+03  0.98372517438E+03  0.80238019272E+02 0.  0.
        254    2    1    2    0    0 -0.40232759733E+03  0.86878364039E+03  0.12094918119E+04  0.17858255181E+04  0.89980543928E+03 0.  0.
         23    2    4    4    0    0  0.10079484233E+03  0.74123208262E+03  0.90550845260E+03  0.11771626536E+04  0.78624136213E+02 0.  0.
         23    2    4    4    0    0 -0.50312243966E+03  0.12755155777E+03  0.30398335934E+03  0.60866286448E+03  0.93075295668E+02 0.  0.
          4    1    3    3  502    0  0.44714391456E+02 -0.15635638172E+03  0.19035460690E+02  0.16373467461E+03  0.00000000000E+00 0. -1.
         -3    1    3    3    0  502  0.35761320588E+03 -0.71242725867E+03  0.19220982231E+03  0.81999049977E+03  0.00000000000E+00 0.  1.
         11    1    5    5    0    0  0.68878348066E+02  0.25070955137E+03  0.29083409184E+03  0.39010764534E+03  0.00000000000E+00 0.  1.
        -11    1    5    5    0    0  0.31916494265E+02  0.49052253126E+03  0.61467436077E+03  0.78705500828E+03  0.00000000000E+00 0. -1.
          4    1    6    6  503    0 -0.14213432444E+03  0.31829340063E+02  0.39135613469E+02  0.15082065281E+03  0.00000000000E+00 0. -1.
         -4    1    6    6    0  503 -0.36098811522E+03  0.95722217705E+02  0.26484774588E+03  0.45784221167E+03  0.00000000000E+00 0.  1.
<mgrwt>
<rscale>  0 0.23773761E+04</rscale>
<asrwt>0</asrwt>
<pdfrwt beam="1">  1        2 0.32232983E+00 0.23773761E+04</pdfrwt>
<pdfrwt beam="2">  1       -1 0.10375489E+00 0.23773761E+04</pdfrwt>
<totfact> 0.53051474E+00</totfact>
</mgrwt>
</event>
<event>
12    6  0.1705838E-008  0.1933604E+04  0.7818608E-02  0.8638308E-01
         -1   -1    0    0    0  501 -0.00000000000E+00  0.00000000000E+00  0.72343579064E+03  0.72343579064E+03  0.00000000000E+00 0.  1.
          2   -1    0    0  501    0  0.00000000000E+00 -0.00000000000E+00 -0.12920374195E+04  0.12920374195E+04  0.00000000000E+00 0. -1.
         24    2    1    2    0    0 -0.44480708165E+03 -0.60394692993E+03 -0.28679471817E+03  0.80700575875E+03  0.80011563145E+02 0.  0.
        254    2    1    2    0    0  0.44480708165E+03  0.60394692993E+03 -0.28180691069E+03  0.12084674514E+04  0.90463982451E+03 0.  0.
         23    2    4    4    0    0  0.37829292995E+02  0.70477412271E+03 -0.28486395320E+02  0.71019529156E+03  0.73676712632E+02 0.  0.
         23    2    4    4    0    0  0.40697778865E+03 -0.10082719278E+03 -0.25332051537E+03  0.49827215983E+03  0.91141749453E+02 0.  0.
          2    1    3    3  502    0 -0.37219744063E+03 -0.47565150497E+03 -0.25818957141E+03  0.65683875021E+03  0.00000000000E+00 0. -1.
         -1    1    3    3    0  502 -0.72609641024E+02 -0.12829542496E+03 -0.28605146758E+02  0.15016700855E+03  0.00000000000E+00 0.  1.
         11    1    5    5    0    0 -0.13783405801E+01  0.54768996458E+03 -0.19301987133E+02  0.54803171791E+03  0.00000000000E+00 0. -1.
        -11    1    5    5    0    0  0.39207633575E+02  0.15708415813E+03 -0.91844081865E+01  0.16216357365E+03  0.00000000000E+00 0.  1.
          2    1    6    6  503    0  0.24369698480E+03 -0.25044721528E+02 -0.17954805369E+03  0.30373172712E+03  0.00000000000E+00 0. -1.
         -2    1    6    6    0  503  0.16328080385E+03 -0.75782471251E+02 -0.73772461685E+02  0.19454043271E+03  0.00000000000E+00 0.  1.
<mgrwt>
<rscale>  0 0.19336040E+04</rscale>
<asrwt>0</asrwt>
<pdfrwt beam="1">  1        2 0.19877499E+00 0.19336040E+04</pdfrwt>
<pdfrwt beam="2">  1       -1 0.11129781E+00 0.19336040E+04</pdfrwt>
<totfact> 0.13206528E+01</totfact>
</mgrwt>
</event>
<event>
12    6  0.1705838E-008  0.1240270E+04  0.7818608E-02  0.9078321E-01
          2   -1    0    0  501    0  0.00000000000E+00  0.00000000000E+00  0.99794973523E+03  0.99794973523E+03  0.00000000000E+00 0. -1.
         -1   -1    0    0    0  501 -0.00000000000E+00 -0.00000000000E+00 -0.38535719795E+03  0.38535719795E+03  0.00000000000E+00 0.  1.
         24    2    1    2    0    0 -0.41248956278E+02 -0.25791710963E+03  0.22749430888E+03  0.35757394330E+03  0.88784866510E+02 0.  0.
        254    2    1    2    0    0  0.41248956278E+02  0.25791710963E+03  0.38509822839E+03  0.10257329899E+04  0.91411422108E+03 0.  0.
         23    2    4    4    0    0 -0.38439941727E+03  0.22667800091E+03  0.14397444837E+02  0.45311437195E+03  0.77197924567E+02 0.  0.
         23    2    4    4    0    0  0.42564837355E+03  0.31239108722E+02  0.37070078356E+03  0.57261861793E+03  0.91217272742E+02 0.  0.
          2    1    3    3  502    0  0.64310632062E+01 -0.10792177885E+03  0.14196517857E+03  0.17844489583E+03  0.00000000000E+00 0. -1.
         -1    1    3    3    0  502 -0.47680019484E+02 -0.14999533078E+03  0.85529130316E+02  0.17912904747E+03  0.00000000000E+00 0.  1.
         11    1    5    5    0    0 -0.33709871636E+02  0.45514592125E+02 -0.10528267071E+02  0.57608835690E+02  0.00000000000E+00 0.  1.
        -11    1    5    5    0    0 -0.35068954564E+03  0.18116340878E+03  0.24925711908E+02  0.39550553626E+03  0.00000000000E+00 0. -1.
          3    1    6    6  503    0  0.41150769973E+03  0.47366763718E+02  0.34451560306E+03  0.53877007898E+03  0.00000000000E+00 0. -1.
         -3    1    6    6    0  503  0.14140673817E+02 -0.16127654996E+02  0.26185180493E+02  0.33848538951E+02  0.00000000000E+00 0.  1.
<mgrwt>
<rscale>  0 0.12402695E+04</rscale>
<asrwt>0</asrwt>
<pdfrwt beam="1">  1        2 0.15353073E+00 0.12402695E+04</pdfrwt>
<pdfrwt beam="2">  1       -1 0.59285723E-01 0.12402695E+04</pdfrwt>
<totfact> 0.81804881E+01</totfact>
</mgrwt>
</event>
<event>
12    6  0.1705838E-008  0.1276063E+04  0.7818608E-02  0.9048766E-01
         -1   -1    0    0    0  501 -0.00000000000E+00  0.00000000000E+00  0.75261176813E+03  0.75261176813E+03  0.00000000000E+00 0.  1.
          2   -1    0    0  501    0  0.00000000000E+00 -0.00000000000E+00 -0.54089548057E+03  0.54089548057E+03  0.00000000000E+00 0. -1.
         24    2    1    2    0    0 -0.19095000688E+03 -0.23920600447E+03  0.10310725646E+02  0.31659280331E+03  0.80270008980E+02 0.  0.
        254    2    1    2    0    0  0.19095000688E+03  0.23920600447E+03  0.20140556191E+03  0.97691444539E+03  0.90560268084E+03 0.  0.
         23    2    4    4    0    0  0.28054416415E+03  0.11116718602E+03 -0.30710321614E+03  0.43705859170E+03  0.75130925243E+02 0.  0.
         23    2    4    4    0    0 -0.89594157270E+02  0.12803881845E+03  0.50850877805E+03  0.53985585369E+03  0.91880973851E+02 0.  0.
          4    1    3    3  502    0  0.23649329302E+01 -0.27319021941E+01 -0.98511025440E+01  0.10492874663E+02  0.00000000000E+00 0. -1.
         -3    1    3    3    0  502 -0.19331493981E+03 -0.23647410227E+03  0.20161828190E+02  0.30609992865E+03  0.00000000000E+00 0.  1.
         11    1    5    5    0    0  0.38433880181E+02  0.28804223391E+02 -0.88196569579E+02  0.10042649708E+03  0.00000000000E+00 0. -1.
        -11    1    5    5    0    0  0.24211028397E+03  0.82362962627E+02 -0.21890664656E+03  0.33663209462E+03  0.00000000000E+00 0.  1.
          1    1    6    6  503    0 -0.86580407436E+01  0.70679868213E+02  0.30832341394E+03  0.31643946186E+03  0.00000000000E+00 0. -1.
         -1    1    6    6    0  503 -0.80936116526E+02  0.57358950236E+02  0.20018536411E+03  0.22341639182E+03  0.00000000000E+00 0.  1.
<mgrwt>
<rscale>  0 0.12760632E+04</rscale>
<asrwt>0</asrwt>
<pdfrwt beam="1">  1        2 0.83214689E-01 0.12760632E+04</pdfrwt>
<pdfrwt beam="2">  1       -1 0.11578643E+00 0.12760632E+04</pdfrwt>
<totfact> 0.42575217E+01</totfact>
</mgrwt>
</event>
<event>
11    6  0.1705838E-008  0.1764159E+04  0.7818608E-02  0.8725595E-01
         -1   -1    0    0    0  501 -0.00000000000E+00  0.00000000000E+00  0.98339617971E+03  0.98339617971E+03  0.00000000000E+00 0.  1.
          2   -1    0    0  501    0  0.00000000000E+00 -0.00000000000E+00 -0.79120162437E+03  0.79120162437E+03  0.00000000000E+00 0. -1.
         24    2    1    2    0    0 -0.64386442539E+03 -0.21397784902E+02 -0.27323885709E+02  0.65073507634E+03  0.87694249373E+02 0.  0.
        254    2    1    2    0    0  0.64386442539E+03  0.21397784902E+02  0.21951844105E+03  0.11238627277E+04  0.89434882532E+03 0.  0.
         23    2    4    4    0    0 -0.62022318460E+02  0.10381238684E+03 -0.22763106881E+03  0.27383683024E+03  0.92449588739E+02 0.  0.
          2    1    3    3  502    0 -0.28738499269E+03 -0.16952478545E+02  0.30775115831E+02  0.28952483194E+03  0.00000000000E+00 0. -1.
         -1    1    3    3    0  502 -0.35647943270E+03 -0.44453063574E+01 -0.58099001540E+02  0.36121024441E+03  0.00000000000E+00 0.  1.
         11    1    4    4    0    0  0.45440145872E+03 -0.94328113246E+02  0.23197616049E+03  0.51883660017E+03  0.00000000000E+00 0. -1.
        -11    1    4    4    0    0  0.25148528513E+03  0.11913511306E+02  0.21517334937E+03  0.33118929733E+03  0.00000000000E+00 0.  1.
          4    1    5    5  503    0 -0.23126458292E+02  0.70230193120E+02 -0.50847714802E+02  0.89736298115E+02  0.00000000000E+00 0. -1.
         -4    1    5    5    0  503 -0.38895860168E+02  0.33582193722E+02 -0.17678335401E+03  0.18410053212E+03  0.00000000000E+00 0.  1.
<mgrwt>
<rscale>  0 0.17641595E+04</rscale>
<asrwt>0</asrwt>
<pdfrwt beam="1">  1        2 0.12172333E+00 0.17641595E+04</pdfrwt>
<pdfrwt beam="2">  1       -1 0.15129172E+00 0.17641595E+04</pdfrwt>
<totfact> 0.12880198E+01</totfact>
</mgrwt>
</event>
<event>
12    6  0.1705838E-008  0.3639909E+04  0.7818608E-02  0.8081411E-01
         -1   -1    0    0    0  501 -0.00000000000E+00  0.00000000000E+00  0.13649576666E+04  0.13649576666E+04  0.00000000000E+00 0.  1.
          2   -1    0    0  501    0  0.00000000000E+00 -0.00000000000E+00 -0.24266206497E+04  0.24266206497E+04  0.00000000000E+00 0. -1.
         24    2    1    2    0    0 -0.90596293290E+03 -0.42493506408E+03  0.94251401197E+03  0.13769376307E+04  0.79283866898E+02 0.  0.
        254    2    1    2    0    0  0.90596293290E+03  0.42493506408E+03 -0.20041769951E+04  0.24146406856E+04  0.90134653075E+03 0.  0.
         23    2    4    4    0    0  0.92101025925E+03  0.25375646870E+03 -0.20003548405E+04  0.22195467508E+04  0.11097769119E+03 0.  0.
         23    2    4    4    0    0 -0.15047326356E+02  0.17117859538E+03 -0.38221546126E+01  0.19509393485E+03  0.92295725805E+02 0.  0.
          4    1    3    3  502    0 -0.25742867734E+03 -0.15957276559E+03  0.29734395076E+03  0.42443658712E+03  0.00000000000E+00 0. -1.
         -3    1    3    3    0  502 -0.64853425556E+03 -0.26536229849E+03  0.64517006120E+03  0.95250104355E+03  0.00000000000E+00 0.  1.
         11    1    5    5    0    0  0.81267094010E+03  0.18791936549E+03 -0.17669583687E+04  0.19539420722E+04  0.00000000000E+00 0. -1.
        -11    1    5    5    0    0  0.10833931915E+03  0.65837103214E+02 -0.23339647177E+03  0.26560467855E+03  0.00000000000E+00 0.  1.
          2    1    6    6  503    0  0.44815527745E+01 -0.85002915172E+01 -0.10500232222E+02  0.14233557105E+02  0.00000000000E+00 0.  1.
         -2    1    6    6    0  503 -0.19528879131E+02  0.17967888690E+03  0.66780776093E+01  0.18086037774E+03  0.00000000000E+00 0. -1.
<mgrwt>
<rscale>  0 0.36399090E+04</rscale>
<asrwt>0</asrwt>
<pdfrwt beam="1">  1        2 0.37332625E+00 0.36399090E+04</pdfrwt>
<pdfrwt beam="2">  1       -1 0.20999349E+00 0.36399090E+04</pdfrwt>
<totfact> 0.45561208E-01</totfact>
</mgrwt>
</event>
<event>
11    6  0.1705838E-008  0.1672149E+04  0.7818608E-02  0.8777410E-01
         -1   -1    0    0    0  501 -0.00000000000E+00  0.00000000000E+00  0.54333418411E+03  0.54333418411E+03  0.00000000000E+00 0.  1.
          2   -1    0    0  501    0  0.00000000000E+00 -0.00000000000E+00 -0.12865383408E+04  0.12865383408E+04  0.00000000000E+00 0. -1.
         24    2    1    2    0    0  0.48631101508E+03  0.36092962222E+02  0.11269145774E+03  0.50698623318E+03  0.80836691399E+02 0.  0.
        254    2    1    2    0    0 -0.48631101508E+03 -0.36092962222E+02 -0.85589561444E+03  0.13228862917E+04  0.88298908981E+03 0.  0.
         23    2    4    4    0    0 -0.72144693876E+02 -0.30395678337E+03 -0.71504638631E+03  0.78711525068E+03  0.10326906733E+03 0.  0.
          4    1    3    3  502    0  0.26469549136E+02 -0.12665952863E+02  0.19605503403E+02  0.35290780057E+02  0.00000000000E+00 0. -1.
         -3    1    3    3    0  502  0.45984146594E+03  0.48758915085E+02  0.93085954336E+02  0.47169545312E+03  0.00000000000E+00 0.  1.
         11    1    4    4    0    0 -0.34676558668E+02  0.91174884170E+02 -0.15275527487E+02  0.98735327845E+02  0.00000000000E+00 0.  1.
        -11    1    4    4    0    0 -0.37948976254E+03  0.17668893698E+03 -0.12557370064E+03  0.43703571320E+03  0.00000000000E+00 0. -1.
          2    1    5    5  503    0  0.84164154688E+00 -0.85782106652E+02 -0.30615129866E+03  0.31794322741E+03  0.00000000000E+00 0. -1.
         -2    1    5    5    0  503 -0.72986335423E+02 -0.21817467672E+03 -0.40889508765E+03  0.46917202328E+03  0.00000000000E+00 0.  1.
<mgrwt>
<rscale>  0 0.16721486E+04</rscale>
<asrwt>0</asrwt>
<pdfrwt beam="1">  1        2 0.19792897E+00 0.16721486E+04</pdfrwt>
<pdfrwt beam="2">  1       -1 0.83589875E-01 0.16721486E+04</pdfrwt>
<totfact> 0.25982260E+01</totfact>
</mgrwt>
</event>
<event>
11    6  0.1705838E-008  0.1545730E+04  0.7818608E-02  0.8854600E-01
          2   -1    0    0  501    0  0.00000000000E+00  0.00000000000E+00  0.99047248596E+03  0.99047248596E+03  0.00000000000E+00 0. -1.
         -1   -1    0    0    0  501 -0.00000000000E+00 -0.00000000000E+00 -0.60306587741E+03  0.60306587741E+03  0.00000000000E+00 0.  1.
         24    2    1    2    0    0 -0.43481829405E+03 -0.15651718863E+03  0.31911336685E+03  0.56730847858E+03  0.80255777260E+02 0.  0.
        254    2    1    2    0    0  0.43481829405E+03  0.15651718863E+03  0.68293241696E+02  0.10262298848E+04  0.91373914790E+03 0.  0.
         23    2    4    4    0    0  0.52405127414E+03 -0.21453483898E+03  0.19051215750E+03  0.60458300645E+03  0.92578585348E+02 0.  0.
          4    1    3    3  502    0 -0.42650455866E+03 -0.15159157284E+03  0.29232911251E+03  0.53883434702E+03  0.00000000000E+00 0. -1.
         -3    1    3    3    0  502 -0.83137353991E+01 -0.49256157825E+01  0.26784254344E+02  0.28474131557E+02  0.00000000000E+00 0.  1.
         11    1    4    4    0    0 -0.10634555115E+03  0.33614695211E+03 -0.13942486716E+03  0.37913512531E+03  0.00000000000E+00 0.  1.
        -11    1    4    4    0    0  0.17112571059E+02  0.34905075495E+02  0.17205951361E+02  0.42511753032E+02  0.00000000000E+00 0. -1.
          4    1    5    5  503    0  0.23508697967E+03 -0.52876056181E+02  0.10337715855E+03  0.26219954660E+03  0.00000000000E+00 0.  1.
         -4    1    5    5    0  503  0.28896429447E+03 -0.16165878280E+03  0.87134998952E+02  0.34238345985E+03  0.00000000000E+00 0. -1.
<mgrwt>
<rscale>  0 0.15457298E+04</rscale>
<asrwt>0</asrwt>
<pdfrwt beam="1">  1        2 0.15238038E+00 0.15457298E+04</pdfrwt>
<pdfrwt beam="2">  1       -1 0.92779366E-01 0.15457298E+04</pdfrwt>
<totfact> 0.31696060E+01</totfact>
</mgrwt>
</event>
<event>
11    6  0.1705838E-008  0.2019341E+04  0.7818608E-02  0.8597631E-01
         -1   -1    0    0    0  501 -0.00000000000E+00  0.00000000000E+00  0.24696141994E+04  0.24696141994E+04  0.00000000000E+00 0.  1.
          2   -1    0    0  501    0  0.00000000000E+00 -0.00000000000E+00 -0.41279111191E+03  0.41279111191E+03  0.00000000000E+00 0. -1.
         24    2    1    2    0    0  0.10325845076E+03  0.50829203876E+03  0.16799755065E+04  0.17602177086E+04  0.83818702077E+02 0.  0.
        254    2    1    2    0    0 -0.10325845076E+03 -0.50829203876E+03  0.37684758101E+03  0.11221876028E+04  0.92101455588E+03 0.  0.
         23    2    4    4    0    0 -0.34021622318E+03 -0.17727414015E+03  0.12903759455E+03  0.41521135861E+03  0.92609784760E+02 0.  0.
          2    1    3    3  502    0  0.80114525920E+02  0.34158850133E+03  0.10015320717E+04  0.10612104090E+04  0.00000000000E+00 0. -1.
         -1    1    3    3    0  502  0.23143924841E+02  0.16670353743E+03  0.67844343482E+03  0.69900729961E+03  0.00000000000E+00 0.  1.
         11    1    4    4    0    0 -0.10749009695E+03 -0.10016348825E+03  0.25268281066E+03  0.29229342812E+03  0.00000000000E+00 0.  1.
        -11    1    4    4    0    0  0.34444786936E+03 -0.23085441035E+03 -0.48728241959E+01  0.41468281602E+03  0.00000000000E+00 0. -1.
          3    1    5    5  503    0 -0.23266062504E+03 -0.10951550178E+03  0.40546862385E+02  0.26032414338E+03  0.00000000000E+00 0. -1.
         -3    1    5    5    0  503 -0.10755559814E+03 -0.67758638375E+02  0.88490732167E+02  0.15488721524E+03  0.00000000000E+00 0.  1.
<mgrwt>
<rscale>  0 0.20193413E+04</rscale>
<asrwt>0</asrwt>
<pdfrwt beam="1">  1        2 0.63506326E-01 0.20193413E+04</pdfrwt>
<pdfrwt beam="2">  1       -1 0.37994064E+00 0.20193413E+04</pdfrwt>
<totfact> 0.79802505E-01</totfact>
</mgrwt>
</event>
<event>
12    6  0.1705838E-008  0.3226219E+04  0.7818608E-02  0.8181927E-01
         -1   -1    0    0    0  501 -0.00000000000E+00  0.00000000000E+00  0.17304151822E+04  0.17304151822E+04  0.00000000000E+00 0.  1.
          2   -1    0    0  501    0  0.00000000000E+00 -0.00000000000E+00 -0.15037564395E+04  0.15037564395E+04  0.00000000000E+00 0. -1.
         24    2    1    2    0    0 -0.25348253831E+03  0.14628310592E+04  0.34164457064E+02  0.14869704755E+04  0.76064971731E+02 0.  0.
        254    2    1    2    0    0  0.25348253831E+03 -0.14628310592E+04  0.19249428564E+03  0.17472011462E+04  0.90084942709E+03 0.  0.
         23    2    4    4    0    0 -0.14494872074E+03  0.46162146551E+02  0.69856976058E+02  0.17900186982E+03  0.63408176728E+02 0.  0.
         23    2    4    4    0    0  0.39843125905E+03 -0.15089932058E+04  0.12263730958E+03  0.15681992764E+04  0.91657501350E+02 0.  0.
          2    1    3    3  502    0 -0.66016632711E+02  0.51781763280E+03  0.39822728986E+02  0.52352568837E+03  0.00000000000E+00 0. -1.
         -1    1    3    3    0  502 -0.18746590560E+03  0.94501342642E+03 -0.56582719220E+01  0.96344478717E+03  0.00000000000E+00 0.  1.
         11    1    5    5    0    0 -0.71966188385E+02  0.50693716446E+02  0.19345568537E+02  0.90128997442E+02  0.00000000000E+00 0. -1.
        -11    1    5    5    0    0 -0.72982532352E+02 -0.45315698956E+01  0.50511407521E+02  0.88872872374E+02  0.00000000000E+00 0.  1.
          4    1    6    6  503    0  0.30824097683E+03 -0.10879817261E+04  0.12445724147E+03  0.11376319005E+04  0.00000000000E+00 0. -1.
         -4    1    6    6    0  503  0.90190282212E+02 -0.42101147965E+03 -0.18199318930E+01  0.43056737586E+03  0.00000000000E+00 0.  1.
<mgrwt>
<rscale>  0 0.32262194E+04</rscale>
<asrwt>0</asrwt>
<pdfrwt beam="1">  1        2 0.23134714E+00 0.32262194E+04</pdfrwt>
<pdfrwt beam="2">  1       -1 0.26621772E+00 0.32262194E+04</pdfrwt>
<totfact> 0.66066679E-01</totfact>
</mgrwt>
</event>
<event>
12    6  0.1705838E-008  0.1933388E+04  0.7818608E-02  0.8638413E-01
         -1   -1    0    0    0  501 -0.00000000000E+00  0.00000000000E+00  0.44488737654E+03  0.44488737654E+03  0.00000000000E+00 0.  1.
          2   -1    0    0  501    0  0.00000000000E+00 -0.00000000000E+00 -0.21005247995E+04  0.21005247995E+04  0.00000000000E+00 0. -1.
         24    2    1    2    0    0 -0.59902287990E+03 -0.24699322706E+02 -0.12796129874E+04  0.14156881790E+04  0.85587121248E+02 0.  0.
        254    2    1    2    0    0  0.59902287990E+03  0.24699322706E+02 -0.37602443547E+03  0.11297239970E+04  0.88059267892E+03 0.  0.
         23    2    4    4    0    0  0.21747549418E+03  0.43194354066E+03 -0.25174905368E+03  0.55044724783E+03  0.75787688456E+02 0.  0.
         23    2    4    4    0    0  0.38154738572E+03 -0.40724421796E+03 -0.12427538179E+03  0.57927674918E+03  0.93225109379E+02 0.  0.
          2    1    3    3  502    0 -0.44989812424E+03 -0.12050098670E+02 -0.10395963111E+04  0.11328345056E+04  0.00000000000E+00 0. -1.
         -1    1    3    3    0  502 -0.14912475566E+03 -0.12649224036E+02 -0.24001667638E+03  0.28285367341E+03  0.00000000000E+00 0.  1.
         11    1    5    5    0    0  0.30016296799E+02  0.13496211786E+03 -0.74605122819E+02  0.15710402822E+03  0.00000000000E+00 0. -1.
        -11    1    5    5    0    0  0.18745919738E+03  0.29698142280E+03 -0.17714393087E+03  0.39334321961E+03  0.00000000000E+00 0.  1.
          3    1    6    6  503    0  0.23101269249E+03 -0.18352283368E+03 -0.82948827791E+02  0.30647675704E+03  0.00000000000E+00 0. -1.
         -3    1    6    6    0  503  0.15053469322E+03 -0.22372138428E+03 -0.41326553995E+02  0.27279999214E+03  0.00000000000E+00 0.  1.
<mgrwt>
<rscale>  0 0.19333877E+04</rscale>
<asrwt>0</asrwt>
<pdfrwt beam="1">  1        2 0.32315766E+00 0.19333877E+04</pdfrwt>
<pdfrwt beam="2">  1       -1 0.68444212E-01 0.19333877E+04</pdfrwt>
<totfact> 0.13492818E+01</totfact>
</mgrwt>
</event>
<event>
12    6  0.1705838E-008  0.1271310E+04  0.7818608E-02  0.9052631E-01
         -1   -1    0    0    0  501 -0.00000000000E+00  0.00000000000E+00  0.46202534003E+03  0.46202534003E+03  0.00000000000E+00 0.  1.
          2   -1    0    0  501    0  0.00000000000E+00 -0.00000000000E+00 -0.87453469827E+03  0.87453469827E+03  0.00000000000E+00 0. -1.
         24    2    1    2    0    0  0.15582605602E+03  0.19712485019E+03  0.89922076654E+02  0.27854796593E+03  0.79768559936E+02 0.  0.
        254    2    1    2    0    0 -0.15582605602E+03 -0.19712485019E+03 -0.50243143489E+03  0.10580120724E+04  0.89655576080E+03 0.  0.
         23    2    4    4    0    0  0.35879842936E+03 -0.57000118328E+02 -0.12619968314E+03  0.39877095226E+03  0.10538778837E+03 0.  0.
         23    2    4    4    0    0 -0.51462448539E+03 -0.14012473186E+03 -0.37623175174E+03  0.65924112011E+03  0.92602494503E+02 0.  0.
          4    1    3    3  502    0  0.64412066897E+01  0.52023133392E+01 -0.12220880951E+02  0.14761542566E+02  0.00000000000E+00 0. -1.
         -3    1    3    3    0  502  0.14938484933E+03  0.19192253685E+03  0.10214295760E+03  0.26378642336E+03  0.00000000000E+00 0.  1.
         11    1    5    5    0    0  0.34495773686E+03 -0.68190229987E+02 -0.97328052379E+02  0.36485407695E+03  0.00000000000E+00 0. -1.
        -11    1    5    5    0    0  0.13840692502E+02  0.11190111659E+02 -0.28871630764E+02  0.33916875310E+02  0.00000000000E+00 0.  1.
          1    1    6    6  503    0 -0.43135094444E+03 -0.91865107658E+02 -0.33812074564E+03  0.55572337895E+03  0.00000000000E+00 0. -1.
         -1    1    6    6    0  503 -0.83273540949E+02 -0.48259624202E+02 -0.38111006102E+02  0.10351774117E+03  0.00000000000E+00 0.  1.
<mgrwt>
<rscale>  0 0.12713099E+04</rscale>
<asrwt>0</asrwt>
<pdfrwt beam="1">  1        2 0.13454380E+00 0.12713099E+04</pdfrwt>
<pdfrwt beam="2">  1       -1 0.71080822E-01 0.12713099E+04</pdfrwt>
<totfact> 0.68404493E+01</totfact>
</mgrwt>
</event>
<event>
12    6  0.1705838E-008  0.1511586E+04  0.7818608E-02  0.8876785E-01
          2   -1    0    0  501    0  0.00000000000E+00  0.00000000000E+00  0.90626864284E+03  0.90626864284E+03  0.00000000000E+00 0. -1.
         -1   -1    0    0    0  501 -0.00000000000E+00 -0.00000000000E+00 -0.63030206700E+03  0.63030206700E+03  0.00000000000E+00 0.  1.
         24    2    1    2    0    0  0.27511154800E+03  0.26525325510E+03  0.36227411716E+03  0.53247389354E+03  0.78995304633E+02 0.  0.
        254    2    1    2    0    0 -0.27511154800E+03 -0.26525325510E+03 -0.86307541326E+02  0.10040968163E+04  0.92450839457E+03 0.  0.
         23    2    4    4    0    0  0.18043326910E+02 -0.10120586900E+03  0.38859556445E+03  0.41536978427E+03  0.10467738730E+03 0.  0.
         23    2    4    4    0    0 -0.29315487491E+03 -0.16404738610E+03 -0.47490310578E+03  0.58872703202E+03  0.90637921365E+02 0.  0.
          4    1    3    3  502    0  0.27026608696E+03  0.27094562535E+03  0.35390581366E+03  0.52125292767E+03  0.00000000000E+00 0. -1.
         -3    1    3    3    0  502  0.48454610390E+01 -0.56923702482E+01  0.83683034991E+01  0.11220965875E+02  0.00000000000E+00 0.  1.
         11    1    5    5    0    0  0.30311811277E+02 -0.88682413225E+01  0.25723174450E+02  0.40732460162E+02  0.00000000000E+00 0.  1.
        -11    1    5    5    0    0 -0.12268484367E+02 -0.92337627678E+02  0.36287239000E+03  0.37463732411E+03  0.00000000000E+00 0. -1.
          1    1    6    6  503    0 -0.50733955741E+02 -0.25053017124E+02 -0.14924543890E+03  0.15961136854E+03  0.00000000000E+00 0.  1.
         -1    1    6    6    0  503 -0.24242091917E+03 -0.13899436898E+03 -0.32565766687E+03  0.42911566349E+03  0.00000000000E+00 0. -1.
<mgrwt>
<rscale>  0 0.15115859E+04</rscale>
<asrwt>0</asrwt>
<pdfrwt beam="1">  1        2 0.13942595E+00 0.15115859E+04</pdfrwt>
<pdfrwt beam="2">  1       -1 0.96969548E-01 0.15115859E+04</pdfrwt>
<totfact> 0.32713952E+01</totfact>
</mgrwt>
</event>
<event>
12    6  0.1705838E-008  0.1546961E+04  0.7818608E-02  0.8853811E-01
         -1   -1    0    0    0  501 -0.00000000000E+00  0.00000000000E+00  0.63820714024E+03  0.63820714024E+03  0.00000000000E+00 0.  1.
          2   -1    0    0  501    0  0.00000000000E+00 -0.00000000000E+00 -0.93742656595E+03  0.93742656595E+03  0.00000000000E+00 0. -1.
         24    2    1    2    0    0 -0.17043640917E+01  0.33400683626E+03  0.28779178576E+03  0.44763869627E+03  0.77413299383E+02 0.  0.
        254    2    1    2    0    0  0.17043640917E+01 -0.33400683626E+03 -0.58701121147E+03  0.11279950099E+04  0.90345288116E+03 0.  0.
         23    2    4    4    0    0 -0.37078959212E+03 -0.19004175925E+03 -0.58055485540E+03  0.71850105175E+03  0.74826662079E+02 0.  0.
         23    2    4    4    0    0  0.37249395621E+03 -0.14396507701E+03 -0.64563560795E+01  0.40949395817E+03  0.90365515688E+02 0.  0.
          2    1    3    3  502    0 -0.14370631723E+02  0.33115743075E+02  0.89012405418E+01  0.37180634458E+02  0.00000000000E+00 0. -1.
         -1    1    3    3    0  502  0.12666267631E+02  0.30089109318E+03  0.27889054522E+03  0.41045806181E+03  0.00000000000E+00 0.  1.
         11    1    5    5    0    0 -0.18939218355E+03 -0.11534018259E+03 -0.25052754993E+03  0.33456958944E+03  0.00000000000E+00 0. -1.
        -11    1    5    5    0    0 -0.18139740858E+03 -0.74701576657E+02 -0.33002730547E+03  0.38393146231E+03  0.00000000000E+00 0.  1.
          4    1    6    6  503    0 -0.30125271933E+01 -0.10312776949E+02  0.13957860174E+01  0.10834062354E+02  0.00000000000E+00 0. -1.
         -4    1    6    6    0  503  0.37550648341E+03 -0.13365230006E+03 -0.78521420969E+01  0.39865989581E+03  0.00000000000E+00 0.  1.
<mgrwt>
<rscale>  0 0.15469613E+04</rscale>
<asrwt>0</asrwt>
<pdfrwt beam="1">  1        2 0.14421947E+00 0.15469613E+04</pdfrwt>
<pdfrwt beam="2">  1       -1 0.98185714E-01 0.15469613E+04</pdfrwt>
<totfact> 0.30225725E+01</totfact>
</mgrwt>
</event>
<event>
12    6  0.1705838E-008  0.1976544E+04  0.7818608E-02  0.8617666E-01
          2   -1    0    0  501    0  0.00000000000E+00  0.00000000000E+00  0.16235293445E+04  0.16235293445E+04  0.00000000000E+00 0. -1.
         -1   -1    0    0    0  501 -0.00000000000E+00 -0.00000000000E+00 -0.60157915755E+03  0.60157915755E+03  0.00000000000E+00 0.  1.
         24    2    1    2    0    0 -0.18657165219E+03 -0.54837320474E+03 -0.19798481559E+03  0.61705592027E+03  0.77703722292E+02 0.  0.
        254    2    1    2    0    0  0.18657165219E+03  0.54837320474E+03  0.12199350025E+04  0.16080525817E+04  0.87296594564E+03 0.  0.
         23    2    4    4    0    0  0.45744144686E+03  0.53122765494E+03  0.10700706813E+04  0.12849765373E+04  0.12106997934E+03 0.  0.
         23    2    4    4    0    0 -0.27086979467E+03  0.17145549794E+02  0.14986432121E+03  0.32307604440E+03  0.90853729422E+02 0.  0.
          2    1    3    3  502    0 -0.56016696193E+02 -0.13935591430E+03 -0.17112279673E+02  0.15116471552E+03  0.00000000000E+00 0. -1.
         -1    1    3    3    0  502 -0.13055495600E+03 -0.40901729044E+03 -0.18087253591E+03  0.46589120475E+03  0.00000000000E+00 0.  1.
         11    1    5    5    0    0  0.18060059612E+03  0.12446642552E+03  0.33685696508E+03  0.40197149317E+03  0.00000000000E+00 0.  1.
        -11    1    5    5    0    0  0.27684085074E+03  0.40676122942E+03  0.73321371620E+03  0.88300504417E+03  0.00000000000E+00 0. -1.
          3    1    6    6  503    0 -0.23696312278E+03 -0.11822998390E+02  0.10383061442E+03  0.25898282055E+03  0.00000000000E+00 0. -1.
         -3    1    6    6    0  503 -0.33906671887E+02  0.28968548184E+02  0.46033706787E+02  0.64093223845E+02  0.00000000000E+00 0.  1.
<mgrwt>
<rscale>  0 0.19765439E+04</rscale>
<asrwt>0</asrwt>
<pdfrwt beam="1">  1        2 0.24977374E+00 0.19765439E+04</pdfrwt>
<pdfrwt beam="2">  1       -1 0.92550640E-01 0.19765439E+04</pdfrwt>
<totfact> 0.13023014E+01</totfact>
</mgrwt>
</event>
<event>
11    6  0.1705838E-008  0.1816347E+04  0.7818608E-02  0.8697654E-01
          2   -1    0    0  501    0  0.00000000000E+00  0.00000000000E+00  0.38671145872E+03  0.38671145872E+03  0.00000000000E+00 0. -1.
         -1   -1    0    0    0  501 -0.00000000000E+00 -0.00000000000E+00 -0.21328028061E+04  0.21328028061E+04  0.00000000000E+00 0.  1.
         24    2    1    2    0    0  0.40317472531E+03 -0.97015875676E+02  0.88466236482E+02  0.43145585437E+03  0.79786841078E+02 0.  0.
        254    2    1    2    0    0 -0.40317472531E+03  0.97015875676E+02 -0.18345575839E+04  0.20880584105E+04  0.90687620859E+03 0.  0.
         23    2    4    4    0    0 -0.32998828993E+03 -0.61427533978E+02 -0.57249354528E+03  0.66982796021E+03  0.90857159716E+02 0.  0.
          4    1    3    3  502    0  0.38113045125E+03 -0.78261789908E+02  0.65607882386E+02  0.39457537032E+03  0.00000000000E+00 0. -1.
         -3    1    3    3    0  502  0.22044274059E+02 -0.18754085768E+02  0.22858354096E+02  0.36880484050E+02  0.00000000000E+00 0.  1.
         11    1    4    4    0    0 -0.34414729250E+03  0.35456758612E+02 -0.60520593568E+03  0.69711459979E+03  0.00000000000E+00 0. -1.
        -11    1    4    4    0    0  0.27096085712E+03  0.12298665104E+03 -0.65685810290E+03  0.72111585045E+03  0.00000000000E+00 0.  1.
          1    1    5    5  503    0 -0.42545272349E+02 -0.40416526951E+02 -0.11528710124E+03  0.12936271318E+03  0.00000000000E+00 0. -1.
         -1    1    5    5    0  503 -0.28744301758E+03 -0.21011007026E+02 -0.45720644404E+03  0.54046524703E+03  0.00000000000E+00 0.  1.
<mgrwt>
<rscale>  0 0.18163472E+04</rscale>
<asrwt>0</asrwt>
<pdfrwt beam="1">  1        2 0.59494072E-01 0.18163472E+04</pdfrwt>
<pdfrwt beam="2">  1       -1 0.32812350E+00 0.18163472E+04</pdfrwt>
<totfact> 0.19322661E+00</totfact>
</mgrwt>
</event>
<event>
12    6  0.1705838E-008  0.1360156E+04  0.7818608E-02  0.8983175E-01
          2   -1    0    0  501    0  0.00000000000E+00  0.00000000000E+00  0.35460980537E+03  0.35460980537E+03  0.00000000000E+00 0. -1.
         -1   -1    0    0    0  501 -0.00000000000E+00 -0.00000000000E+00 -0.13042680774E+04  0.13042680774E+04  0.00000000000E+00 0.  1.
         24    2    1    2    0    0 -0.20602885225E+03 -0.80238423839E+02  0.77721423989E+02  0.24794352278E+03  0.80927610384E+02 0.  0.
        254    2    1    2    0    0  0.20602885225E+03  0.80238423839E+02 -0.10273796960E+04  0.14109343600E+04  0.94145665635E+03 0.  0.
         23    2    4    4    0    0  0.56751830582E+03 -0.17978485869E+02 -0.56094328152E+03  0.80558390155E+03  0.10912288470E+03 0.  0.
         23    2    4    4    0    0 -0.36148945357E+03  0.98216909708E+02 -0.46643641453E+03  0.60535045846E+03  0.92547622149E+02 0.  0.
          2    1    3    3  502    0 -0.13641014278E+03 -0.47489731442E+02  0.89778093010E+02  0.17006795004E+03  0.00000000000E+00 0. -1.
         -1    1    3    3    0  502 -0.69618709475E+02 -0.32748692397E+02 -0.12056669022E+02  0.77875572746E+02  0.00000000000E+00 0.  1.
         11    1    5    5    0    0  0.33976630870E+03 -0.54706180716E+02 -0.37768347842E+03  0.51095862906E+03  0.00000000000E+00 0. -1.
        -11    1    5    5    0    0  0.22775199712E+03  0.36727694846E+02 -0.18325980309E+03  0.29462527249E+03  0.00000000000E+00 0.  1.
          2    1    6    6  503    0 -0.30886389487E+03  0.11551893484E+03 -0.41157030307E+03  0.52738187704E+03  0.00000000000E+00 0. -1.
         -2    1    6    6    0  503 -0.52625558701E+02 -0.17302025133E+02 -0.54866111463E+02  0.77968581425E+02  0.00000000000E+00 0.  1.
<mgrwt>
<rscale>  0 0.13601562E+04</rscale>
<asrwt>0</asrwt>
<pdfrwt beam="1">  1        2 0.54555355E-01 0.13601562E+04</pdfrwt>
<pdfrwt beam="2">  1       -1 0.20065663E+00 0.13601562E+04</pdfrwt>
<totfact> 0.15155144E+01</totfact>
</mgrwt>
</event>
<event>
12    6  0.1705838E-008  0.1867160E+04  0.7818608E-02  0.8671378E-01
         -1   -1    0    0    0  501 -0.00000000000E+00  0.00000000000E+00  0.73022997227E+03  0.73022997227E+03  0.00000000000E+00 0.  1.
          2   -1    0    0  501    0  0.00000000000E+00 -0.00000000000E+00 -0.11935573038E+04  0.11935573038E+04  0.00000000000E+00 0. -1.
         24    2    1    2    0    0  0.60579587070E+03  0.23214298988E+03  0.13124526108E+03  0.66664147248E+03  0.79413661088E+02 0.  0.
        254    2    1    2    0    0 -0.60579587070E+03 -0.23214298988E+03 -0.59457259265E+03  0.12571458036E+04  0.89778616550E+03 0.  0.
         23    2    4    4    0    0 -0.31149253564E+03  0.24686351116E+03  0.27045640576E+02  0.41405615730E+03  0.11287976711E+03 0.  0.
         23    2    4    4    0    0 -0.29430333506E+03 -0.47900650104E+03 -0.62161823322E+03  0.84308964633E+03  0.91264685442E+02 0.  0.
          2    1    3    3  502    0  0.39985772703E+03  0.17988326734E+03  0.59966996124E+02  0.44253839648E+03  0.00000000000E+00 0. -1.
         -1    1    3    3    0  502  0.20593814367E+03  0.52259722539E+02  0.71278264952E+02  0.22410307600E+03  0.00000000000E+00 0.  1.
         11    1    5    5    0    0 -0.95919057607E+01  0.38786984476E+02 -0.19488130458E+02  0.44454719093E+02  0.00000000000E+00 0.  1.
        -11    1    5    5    0    0 -0.30190062988E+03  0.20807652669E+03  0.46533771034E+02  0.36960143821E+03  0.00000000000E+00 0. -1.
          3    1    6    6  503    0 -0.29014061336E+03 -0.43482022563E+03 -0.54958355175E+03  0.75848024661E+03  0.00000000000E+00 0. -1.
         -3    1    6    6    0  503 -0.41627216961E+01 -0.44186275410E+02 -0.72034681475E+02  0.84609399725E+02  0.00000000000E+00 0.  1.
<mgrwt>
<rscale>  0 0.18671597E+04</rscale>
<asrwt>0</asrwt>
<pdfrwt beam="1">  1        2 0.18362420E+00 0.18671597E+04</pdfrwt>
<pdfrwt beam="2">  1       -1 0.11234307E+00 0.18671597E+04</pdfrwt>
<totfact> 0.14854434E+01</totfact>
</mgrwt>
</event>
<event>
12    6  0.1705838E-008  0.1067811E+04  0.7818608E-02  0.9237146E-01
         -3   -1    0    0    0  501 -0.00000000000E+00  0.00000000000E+00  0.15484692705E+03  0.15484692705E+03  0.00000000000E+00 0.  1.
          2   -1    0    0  501    0  0.00000000000E+00 -0.00000000000E+00 -0.18408835425E+04  0.18408835425E+04  0.00000000000E+00 0. -1.
         24    2    1    2    0    0  0.42667193496E+02 -0.13607646365E+01 -0.55858846367E+01  0.90255975998E+02  0.79325897505E+02 0.  0.
        254    2    1    2    0    0 -0.42667193496E+02  0.13607646365E+01 -0.16804507309E+04  0.19054744936E+04  0.89727144488E+03 0.  0.
         23    2    4    4    0    0  0.24954771271E+03  0.16988294638E+03 -0.14548554615E+04  0.14896203419E+04  0.10597203680E+03 0.  0.
         23    2    4    4    0    0 -0.29221490620E+03 -0.16852218174E+03 -0.22559526934E+03  0.41585415173E+03  0.90841470800E+02 0.  0.
          2    1    3    3  502    0  0.32079768462E+02 -0.38890945041E+02  0.23193509815E+01  0.50467777242E+02  0.00000000000E+00 0. -1.
         -1    1    3    3    0  502  0.10587425033E+02  0.37530180405E+02 -0.79052356182E+01  0.39788198756E+02  0.00000000000E+00 0.  1.
         11    1    5    5    0    0  0.24953498910E+03  0.16471700959E+03 -0.12711166517E+04  0.13058089241E+04  0.00000000000E+00 0. -1.
        -11    1    5    5    0    0  0.12723605077E-01  0.51659367905E+01 -0.18373880980E+03  0.18381141774E+03  0.00000000000E+00 0.  1.
          1    1    6    6  503    0 -0.28066275393E+03 -0.16172520491E+03 -0.18483904397E+03  0.37295052691E+03  0.00000000000E+00 0. -1.
         -1    1    6    6    0  503 -0.11552152269E+02 -0.67969768343E+01 -0.40756225372E+02  0.42903624820E+02  0.00000000000E+00 0.  1.
<mgrwt>
<rscale>  0 0.10678111E+04</rscale>
<asrwt>0</asrwt>
<pdfrwt beam="1">  1        2 0.28321284E+00 0.10678111E+04</pdfrwt>
<pdfrwt beam="2">  1       -3 0.23822606E-01 0.10678111E+04</pdfrwt>
<totfact> 0.88179979E+01</totfact>
</mgrwt>
</event>
<event>
12    6  0.1705838E-008  0.2381361E+04  0.7818608E-02  0.8446515E-01
          2   -1    0    0  501    0  0.00000000000E+00  0.00000000000E+00  0.20983866586E+04  0.20983866586E+04  0.00000000000E+00 0. -1.
         -1   -1    0    0    0  501 -0.00000000000E+00 -0.00000000000E+00 -0.67562398749E+03  0.67562398749E+03  0.00000000000E+00 0.  1.
         24    2    1    2    0    0 -0.90021714311E+03  0.58495943733E+02  0.43696554899E+02  0.90650554190E+03  0.77654545301E+02 0.  0.
        254    2    1    2    0    0  0.90021714311E+03 -0.58495943733E+02  0.13790661162E+04  0.18675051042E+04  0.87860075184E+03 0.  0.
         23    2    4    4    0    0  0.81502931126E+02 -0.12464385605E+03 -0.85858486676E+02  0.18558239689E+03  0.69930877786E+02 0.  0.
         23    2    4    4    0    0  0.81871421199E+03  0.66147912317E+02  0.14649246029E+04  0.16819227073E+04  0.90506320160E+02 0.  0.
          4    1    3    3  502    0 -0.63311790360E+03  0.58439604015E+02  0.61725710669E+02  0.63879850543E+03  0.00000000000E+00 0. -1.
         -3    1    3    3    0  502 -0.26709923951E+03  0.56339717658E-01 -0.18029155770E+02  0.26770703648E+03  0.00000000000E+00 0.  1.
         11    1    5    5    0    0  0.61851966597E+02 -0.33807412227E+02 -0.47727361685E+02  0.85126423317E+02  0.00000000000E+00 0. -1.
        -11    1    5    5    0    0  0.19650964529E+02 -0.90836443822E+02 -0.38131124991E+02  0.10045597357E+03  0.00000000000E+00 0.  1.
          4    1    6    6  503    0  0.17724021901E+03 -0.25165805518E+01  0.38748151468E+03  0.42610134080E+03  0.00000000000E+00 0. -1.
         -4    1    6    6    0  503  0.64147399297E+03  0.68664492869E+02  0.10774430882E+04  0.12558213665E+04  0.00000000000E+00 0.  1.
<mgrwt>
<rscale>  0 0.23813613E+04</rscale>
<asrwt>0</asrwt>
<pdfrwt beam="1">  1        2 0.32282871E+00 0.23813613E+04</pdfrwt>
<pdfrwt beam="2">  1       -1 0.10394215E+00 0.23813613E+04</pdfrwt>
<totfact> 0.52591831E+00</totfact>
</mgrwt>
</event>
<event>
11    6  0.1705838E-008  0.1438339E+04  0.7818608E-02  0.8926525E-01
          2   -1    0    0  501    0  0.00000000000E+00  0.00000000000E+00  0.11267873269E+04  0.11267873269E+04  0.00000000000E+00 0. -1.
         -1   -1    0    0    0  501 -0.00000000000E+00 -0.00000000000E+00 -0.45900836375E+03  0.45900836375E+03  0.00000000000E+00 0.  1.
         24    2    1    2    0    0  0.34721264613E+03  0.16580617717E+03 -0.60639845407E+01  0.39283894778E+03  0.78976939456E+02 0.  0.
        254    2    1    2    0    0 -0.34721264613E+03 -0.16580617717E+03  0.67384294768E+03  0.11929567429E+04  0.90610880261E+03 0.  0.
         23    2    4    4    0    0 -0.23688359488E+03 -0.49129272635E+03  0.41793382557E+03  0.69335220461E+03  0.92661840021E+02 0.  0.
          4    1    3    3  502    0  0.85129391738E+01 -0.83610620568E+01  0.95411276767E-01  0.11932585445E+02  0.00000000000E+00 0. -1.
         -3    1    3    3    0  502  0.33869970696E+03  0.17416723923E+03 -0.61593958175E+01  0.38090636234E+03  0.00000000000E+00 0.  1.
         11    1    4    4    0    0 -0.11275016407E+03  0.35954497181E+03  0.18257435000E+03  0.41871061549E+03  0.00000000000E+00 0. -1.
        -11    1    4    4    0    0  0.24211128140E+01 -0.34058422626E+02  0.73334772100E+02  0.80893922751E+02  0.00000000000E+00 0.  1.
          1    1    5    5  503    0 -0.18641698710E+03 -0.45305349306E+03  0.37143403876E+03  0.61479427925E+03  0.00000000000E+00 0. -1.
         -1    1    5    5    0  503 -0.50466607778E+02 -0.38239233295E+02  0.46499786812E+02  0.78557925362E+02  0.00000000000E+00 0.  1.
<mgrwt>
<rscale>  0 0.14383391E+04</rscale>
<asrwt>0</asrwt>
<pdfrwt beam="1">  1        2 0.17335190E+00 0.14383391E+04</pdfrwt>
<pdfrwt beam="2">  1       -1 0.70616672E-01 0.14383391E+04</pdfrwt>
<totfact> 0.47051970E+01</totfact>
</mgrwt>
</event>
<event>
12    6  0.1705838E-008  0.2911659E+04  0.7818608E-02  0.8269417E-01
         -1   -1    0    0    0  501 -0.00000000000E+00  0.00000000000E+00  0.13666139737E+04  0.13666139737E+04  0.00000000000E+00 0.  1.
          2   -1    0    0  501    0  0.00000000000E+00 -0.00000000000E+00 -0.15508691199E+04  0.15508691199E+04  0.00000000000E+00 0. -1.
         24    2    1    2    0    0 -0.12252441535E+04  0.43749413547E+03  0.10484302697E+03  0.13076054535E+04  0.78839124238E+02 0.  0.
        254    2    1    2    0    0  0.12252441535E+04 -0.43749413547E+03 -0.28909817314E+03  0.16098776401E+04  0.90305255002E+03 0.  0.
         23    2    4    4    0    0  0.13297733244E+02  0.13237226703E+03 -0.19150214323E+03  0.26399091981E+03  0.12376949582E+03 0.  0.
         23    2    4    4    0    0  0.12119464202E+04 -0.56986640250E+03 -0.97596029915E+02  0.13458867203E+04  0.91237253944E+02 0.  0.
          2    1    3    3  502    0 -0.55661427933E+03  0.18171742615E+03  0.83094605116E+02  0.59139275640E+03  0.00000000000E+00 0. -1.
         -1    1    3    3    0  502 -0.66862987415E+03  0.25577670932E+03  0.21748421850E+02  0.71621269710E+03  0.00000000000E+00 0.  1.
         11    1    5    5    0    0 -0.18415358361E+02  0.13495822004E+03 -0.18774647533E+03  0.23195168803E+03  0.00000000000E+00 0.  1.
        -11    1    5    5    0    0  0.31713091605E+02 -0.25859530149E+01 -0.37556678986E+01  0.32039231787E+02  0.00000000000E+00 0. -1.
          2    1    6    6  503    0  0.11977512997E+03 -0.87618290187E+02 -0.14055484868E+02  0.14906576800E+03  0.00000000000E+00 0. -1.
         -2    1    6    6    0  503  0.10921712903E+04 -0.48224811231E+03 -0.83540545047E+02  0.11968209523E+04  0.00000000000E+00 0.  1.
<mgrwt>
<rscale>  0 0.29116589E+04</rscale>
<asrwt>0</asrwt>
<pdfrwt beam="1">  1        2 0.23859525E+00 0.29116589E+04</pdfrwt>
<pdfrwt beam="2">  1       -1 0.21024830E+00 0.29116589E+04</pdfrwt>
<totfact> 0.14939747E+00</totfact>
</mgrwt>
</event>
<event>
12    6  0.1705838E-008  0.3340543E+04  0.7818608E-02  0.8152655E-01
         -1   -1    0    0    0  501 -0.00000000000E+00  0.00000000000E+00  0.12441369789E+04  0.12441369789E+04  0.00000000000E+00 0.  1.
          2   -1    0    0  501    0  0.00000000000E+00 -0.00000000000E+00 -0.22423626988E+04  0.22423626988E+04  0.00000000000E+00 0. -1.
         24    2    1    2    0    0  0.14336377769E+03 -0.12832645620E+04 -0.13495602763E+04  0.18693946637E+04  0.77474901395E+02 0.  0.
        254    2    1    2    0    0 -0.14336377769E+03  0.12832645620E+04  0.35133455636E+03  0.16171050140E+04  0.90789401749E+03 0.  0.
         23    2    4    4    0    0 -0.33375682116E+03  0.56385864254E+03  0.53102371284E+03  0.84646304090E+03  0.71995219102E+02 0.  0.
         23    2    4    4    0    0  0.19039304347E+03  0.71940591950E+03 -0.17968915649E+03  0.77064197313E+03  0.88354228995E+02 0.  0.
          2    1    3    3  502    0  0.13935661021E+03 -0.12802694957E+04 -0.13476299681E+04  0.18640323971E+04  0.00000000000E+00 0. -1.
         -1    1    3    3    0  502  0.40071674745E+01 -0.29950663085E+01 -0.19303082120E+01  0.53622666061E+01  0.00000000000E+00 0.  1.
         11    1    5    5    0    0 -0.22933362562E+03  0.41236738057E+03  0.41911724102E+03  0.63111015688E+03  0.00000000000E+00 0. -1.
        -11    1    5    5    0    0 -0.10442319555E+03  0.15149126197E+03  0.11190647182E+03  0.21535288402E+03  0.00000000000E+00 0.  1.
          4    1    6    6  503    0  0.17652707859E+03  0.53383910583E+03 -0.11726703773E+03  0.57436709388E+03  0.00000000000E+00 0. -1.
         -4    1    6    6    0  503  0.13865964883E+02  0.18556681367E+03 -0.62422118754E+02  0.19627487926E+03  0.00000000000E+00 0.  1.
<mgrwt>
<rscale>  0 0.33405427E+04</rscale>
<asrwt>0</asrwt>
<pdfrwt beam="1">  1        2 0.34497888E+00 0.33405427E+04</pdfrwt>
<pdfrwt beam="2">  1       -1 0.19140569E+00 0.33405427E+04</pdfrwt>
<totfact> 0.79897478E-01</totfact>
</mgrwt>
</event>
<event>
11    6  0.1705838E-008  0.3080090E+04  0.7818608E-02  0.8221223E-01
          2   -1    0    0  501    0  0.00000000000E+00  0.00000000000E+00  0.10543538343E+04  0.10543538343E+04  0.00000000000E+00 0. -1.
         -1   -1    0    0    0  501 -0.00000000000E+00 -0.00000000000E+00 -0.22494710949E+04  0.22494710949E+04  0.00000000000E+00 0.  1.
         24    2    1    2    0    0  0.64863570001E+03  0.12194595421E+04 -0.34131733023E+03  0.14258843329E+04  0.94014704352E+02 0.  0.
        254    2    1    2    0    0 -0.64863570001E+03 -0.12194595421E+04 -0.85379993040E+03  0.18779405963E+04  0.94333277044E+03 0.  0.
         23    2    4    4    0    0  0.11667743663E+03 -0.63635279565E+03 -0.54819630527E+03  0.85317881275E+03  0.94002088544E+02 0.  0.
          2    1    3    3  502    0  0.76492416995E+02  0.12929379482E+03 -0.67117251182E+02  0.16453783955E+03  0.00000000000E+00 0. -1.
         -1    1    3    3    0  502  0.57214328302E+03  0.10901657473E+04 -0.27420007905E+03  0.12613464933E+04  0.00000000000E+00 0.  1.
         11    1    4    4    0    0 -0.32482618703E+03 -0.30719173611E+03 -0.64176855144E+02  0.45166080553E+03  0.00000000000E+00 0. -1.
        -11    1    4    4    0    0 -0.44048694961E+03 -0.27591501037E+03 -0.24142676999E+03  0.57310097801E+03  0.00000000000E+00 0.  1.
          4    1    5    5  503    0  0.10230824316E+03 -0.62494600463E+03 -0.54278684674E+03  0.83405158492E+03  0.00000000000E+00 0. -1.
         -4    1    5    5    0  503  0.14369193477E+02 -0.11406791026E+02 -0.54094585359E+01  0.19127227827E+02  0.00000000000E+00 0.  1.
<mgrwt>
<rscale>  0 0.30800899E+04</rscale>
<asrwt>0</asrwt>
<pdfrwt beam="1">  1        2 0.16220828E+00 0.30800899E+04</pdfrwt>
<pdfrwt beam="2">  1       -1 0.34607248E+00 0.30800899E+04</pdfrwt>
<totfact> 0.37174377E-01</totfact>
</mgrwt>
</event>
<event>
12    6  0.1705838E-008  0.2008588E+04  0.7818608E-02  0.8602616E-01
          2   -1    0    0  501    0  0.00000000000E+00  0.00000000000E+00  0.39974516144E+04  0.39974516144E+04  0.00000000000E+00 0. -1.
         -1   -1    0    0    0  501 -0.00000000000E+00 -0.00000000000E+00 -0.25231225309E+03  0.25231225309E+03  0.00000000000E+00 0.  1.
         24    2    1    2    0    0 -0.23336981383E+03 -0.10249249970E+03 -0.10612339635E+03  0.28622549693E+03  0.75476336291E+02 0.  0.
        254    2    1    2    0    0  0.23336981383E+03  0.10249249970E+03  0.38512627576E+04  0.39635383705E+04  0.90135753390E+03 0.  0.
         23    2    4    4    0    0  0.18357740391E+03 -0.38362838894E+03  0.16819606140E+04  0.17380616269E+04  0.10485851372E+03 0.  0.
         23    2    4    4    0    0  0.49792409913E+02  0.48612088864E+03  0.21693021436E+04  0.22254767436E+04  0.89900742916E+02 0.  0.
          2    1    3    3  502    0 -0.41981646810E+02  0.49667483969E+01  0.34037695489E+00  0.42275798218E+02  0.00000000000E+00 0. -1.
         -1    1    3    3    0  502 -0.19138816702E+03 -0.10745924810E+03 -0.10646377330E+03  0.24394969871E+03  0.00000000000E+00 0.  1.
         11    1    5    5    0    0  0.16796491438E+03 -0.38548806351E+03  0.15847197278E+04  0.16395578292E+04  0.00000000000E+00 0.  1.
        -11    1    5    5    0    0  0.15612489530E+02  0.18596745722E+01  0.97240886192E+02  0.98503797725E+02  0.00000000000E+00 0. -1.
          4    1    6    6  503    0  0.21130758343E+02  0.30066464081E+02  0.10630336039E+03  0.11247624479E+03  0.00000000000E+00 0. -1.
         -4    1    6    6    0  503  0.28661651570E+02  0.45605442456E+03  0.20629987832E+04  0.21130004988E+04  0.00000000000E+00 0.  1.
<mgrwt>
<rscale>  0 0.20085876E+04</rscale>
<asrwt>0</asrwt>
<pdfrwt beam="1">  1        2 0.61499251E+00 0.20085876E+04</pdfrwt>
<pdfrwt beam="2">  1       -1 0.38817273E-01 0.20085876E+04</pdfrwt>
<totfact> 0.23616603E+00</totfact>
</mgrwt>
</event>
<event>
12    6  0.1705838E-008  0.1443863E+04  0.7818608E-02  0.8922666E-01
         -1   -1    0    0    0  501 -0.00000000000E+00  0.00000000000E+00  0.35901762403E+03  0.35901762403E+03  0.00000000000E+00 0.  1.
          2   -1    0    0  501    0  0.00000000000E+00 -0.00000000000E+00 -0.14516975188E+04  0.14516975188E+04  0.00000000000E+00 0. -1.
         24    2    1    2    0    0  0.26268901332E+03 -0.61188755682E+02  0.88125540817E+02  0.29484925514E+03  0.80127340955E+02 0.  0.
        254    2    1    2    0    0 -0.26268901332E+03  0.61188755682E+02 -0.11808054356E+04  0.15158658877E+04  0.91148139378E+03 0.  0.
         23    2    4    4    0    0  0.43116371959E+02  0.33506787195E+03 -0.99634805050E+03  0.10577988303E+04  0.10999739677E+03 0.  0.
         23    2    4    4    0    0 -0.30580538528E+03 -0.27387911627E+03 -0.18445738509E+03  0.45806705740E+03  0.85288909941E+02 0.  0.
          2    1    3    3  502    0  0.35947753537E+02 -0.23184779023E+02 -0.11489097691E+02  0.44291921706E+02  0.00000000000E+00 0. -1.
         -1    1    3    3    0  502  0.22674125979E+03 -0.38003976659E+02  0.99614638507E+02  0.25055733343E+03  0.00000000000E+00 0.  1.
         11    1    5    5    0    0  0.17919333400E+02  0.13661490229E+03 -0.57637341062E+03  0.59261373803E+03  0.00000000000E+00 0.  1.
        -11    1    5    5    0    0  0.25197038559E+02  0.19845296967E+03 -0.41997463988E+03  0.46518509226E+03  0.00000000000E+00 0. -1.
          3    1    6    6  503    0 -0.22130373284E+03 -0.18341138083E+03 -0.16868808584E+03  0.33327278181E+03  0.00000000000E+00 0. -1.
         -3    1    6    6    0  503 -0.84501652440E+02 -0.90467735441E+02 -0.15769299250E+02  0.12479427559E+03  0.00000000000E+00 0.  1.
<mgrwt>
<rscale>  0 0.14438629E+04</rscale>
<asrwt>0</asrwt>
<pdfrwt beam="1">  1        2 0.22333808E+00 0.14438629E+04</pdfrwt>
<pdfrwt beam="2">  1       -1 0.55233481E-01 0.14438629E+04</pdfrwt>
<totfact> 0.49529544E+01</totfact>
</mgrwt>
</event>
<event>
11    6  0.1705838E-008  0.1179967E+04  0.7818608E-02  0.9130574E-01
          2   -1    0    0  501    0  0.00000000000E+00  0.00000000000E+00  0.21033745300E+04  0.21033745300E+04  0.00000000000E+00 0. -1.
         -1   -1    0    0    0  501 -0.00000000000E+00 -0.00000000000E+00 -0.16548676144E+03  0.16548676144E+03  0.00000000000E+00 0.  1.
         24    2    1    2    0    0  0.27249342058E+03 -0.10690214805E+03  0.42437556449E+03  0.52183482930E+03  0.80846990195E+02 0.  0.
        254    2    1    2    0    0 -0.27249342058E+03  0.10690214805E+03  0.15135122041E+04  0.17470264621E+04  0.82201066538E+03 0.  0.
         23    2    4    4    0    0 -0.10012837335E+03 -0.17532892220E+03  0.41546535895E+02  0.22635795483E+03  0.93519446983E+02 0.  0.
          2    1    3    3  502    0  0.71013577949E+02  0.69640134211E+01  0.83713652810E+02  0.10999727907E+03  0.00000000000E+00 0. -1.
         -1    1    3    3    0  502  0.20147984263E+03 -0.11386616147E+03  0.34066191168E+03  0.41183755023E+03  0.00000000000E+00 0.  1.
         11    1    4    4    0    0 -0.20698293308E+03  0.22685326478E+03  0.10610554251E+04  0.11046008118E+04  0.00000000000E+00 0.  1.
        -11    1    4    4    0    0  0.34617885851E+02  0.55377805470E+02  0.41091024306E+03  0.41606769547E+03  0.00000000000E+00 0. -1.
          1    1    5    5  503    0 -0.29810229550E+02 -0.25333886049E+02 -0.26516715659E+02  0.47260890570E+02  0.00000000000E+00 0. -1.
         -1    1    5    5    0  503 -0.70318143800E+02 -0.14999503615E+03  0.68063251553E+02  0.17909706426E+03  0.00000000000E+00 0.  1.
<mgrwt>
<rscale>  0 0.11799672E+04</rscale>
<asrwt>0</asrwt>
<pdfrwt beam="1">  1        2 0.32359606E+00 0.11799672E+04</pdfrwt>
<pdfrwt beam="2">  1       -1 0.25459503E-01 0.11799672E+04</pdfrwt>
<totfact> 0.89591856E+01</totfact>
</mgrwt>
</event>
<event>
12    6  0.1705838E-008  0.1275955E+04  0.7818608E-02  0.9048853E-01
          2   -1    0    0  501    0  0.00000000000E+00  0.00000000000E+00  0.55521403306E+03  0.55521403306E+03  0.00000000000E+00 0. -1.
         -1   -1    0    0    0  501 -0.00000000000E+00 -0.00000000000E+00 -0.73307854834E+03  0.73307854834E+03  0.00000000000E+00 0.  1.
         24    2    1    2    0    0 -0.12068091451E+03  0.25661001551E+03  0.92317259313E+02  0.30853529353E+03  0.79113638547E+02 0.  0.
        254    2    1    2    0    0  0.12068091451E+03 -0.25661001551E+03 -0.27018177460E+03  0.97975728786E+03  0.89806100495E+03 0.  0.
         23    2    4    4    0    0  0.29320003516E+03  0.19089818072E+03  0.94332759445E+02  0.37047663047E+03  0.77109585648E+02 0.  0.
         23    2    4    4    0    0 -0.17251912065E+03 -0.44750819623E+03 -0.36451453404E+03  0.60928065739E+03  0.91244952019E+02 0.  0.
          4    1    3    3  502    0  0.17381165332E-03 -0.12564000795E+01  0.12895402617E+02  0.12956463632E+02  0.00000000000E+00 0. -1.
         -3    1    3    3    0  502 -0.12068108832E+03  0.25786641559E+03  0.79421856696E+02  0.29557882990E+03  0.00000000000E+00 0.  1.
         11    1    5    5    0    0  0.29669518787E+03  0.18113135111E+03  0.93987266412E+02  0.36009749667E+03  0.00000000000E+00 0.  1.
        -11    1    5    5    0    0 -0.34951527070E+01  0.97668296051E+01  0.34549303250E+00  0.10379133799E+02  0.00000000000E+00 0. -1.
          1    1    6    6  503    0 -0.27775270840E+01 -0.14872616345E+02 -0.39129163590E+02  0.41952363663E+02  0.00000000000E+00 0. -1.
         -1    1    6    6    0  503 -0.16974159356E+03 -0.43263557988E+03 -0.32538537045E+03  0.56732829373E+03  0.00000000000E+00 0.  1.
<mgrwt>
<rscale>  0 0.12759553E+04</rscale>
<asrwt>0</asrwt>
<pdfrwt beam="1">  1        2 0.85417543E-01 0.12759553E+04</pdfrwt>
<pdfrwt beam="2">  1       -1 0.11278132E+00 0.12759553E+04</pdfrwt>
<totfact> 0.43959913E+01</totfact>
</mgrwt>
</event>
<event>
12    6  0.1705838E-008  0.2012782E+04  0.7818608E-02  0.8600668E-01
         -1   -1    0    0    0  501 -0.00000000000E+00  0.00000000000E+00  0.86766209759E+03  0.86766209759E+03  0.00000000000E+00 0.  1.
          2   -1    0    0  501    0  0.00000000000E+00 -0.00000000000E+00 -0.11673014451E+04  0.11673014451E+04  0.00000000000E+00 0. -1.
         24    2    1    2    0    0  0.36349794430E+03  0.18871321906E+02  0.59657769893E+03  0.70267706026E+03  0.73233993828E+02 0.  0.
        254    2    1    2    0    0 -0.36349794430E+03 -0.18871321906E+02 -0.89621704644E+03  0.13322864824E+04  0.91613066461E+03 0.  0.
         23    2    4    4    0    0 -0.23029159941E+02 -0.42229353124E+03 -0.26715729823E+03  0.50518062062E+03  0.70514315679E+02 0.  0.
         23    2    4    4    0    0 -0.34046878436E+03  0.40342220933E+03 -0.62905974821E+03  0.82710586182E+03  0.98587360887E+02 0.  0.
          2    1    3    3  502    0  0.52976106824E+02 -0.23329429526E+02  0.95676566885E+02  0.11182457524E+03  0.00000000000E+00 0. -1.
         -1    1    3    3    0  502  0.31052183747E+03  0.42200751433E+02  0.50090113205E+03  0.59085248502E+03  0.00000000000E+00 0.  1.
         11    1    5    5    0    0 -0.19541618014E+02 -0.18642546756E+03 -0.78902146097E+02  0.20337619932E+03  0.00000000000E+00 0. -1.
        -11    1    5    5    0    0 -0.34875419266E+01 -0.23586806368E+03 -0.18825515213E+03  0.30180442130E+03  0.00000000000E+00 0.  1.
          2    1    6    6  503    0 -0.13718283495E+03  0.19901266442E+03 -0.35400412631E+03  0.42865381399E+03  0.00000000000E+00 0. -1.
         -2    1    6    6    0  503 -0.20328594940E+03  0.20440954491E+03 -0.27505562190E+03  0.39845204782E+03  0.00000000000E+00 0.  1.
<mgrwt>
<rscale>  0 0.20127824E+04</rscale>
<asrwt>0</asrwt>
<pdfrwt beam="1">  1        2 0.17958484E+00 0.20127824E+04</pdfrwt>
<pdfrwt beam="2">  1       -1 0.13348648E+00 0.20127824E+04</pdfrwt>
<totfact> 0.99448334E+00</totfact>
</mgrwt>
</event>
<event>
11    6  0.1705838E-008  0.2237559E+04  0.7818608E-02  0.8502956E-01
          2   -1    0    0  501    0  0.00000000000E+00  0.00000000000E+00  0.18940936070E+04  0.18940936070E+04  0.00000000000E+00 0. -1.
         -1   -1    0    0    0  501 -0.00000000000E+00 -0.00000000000E+00 -0.66082645264E+03  0.66082645264E+03  0.00000000000E+00 0.  1.
         24    2    1    2    0    0  0.37320429116E+03  0.64639694236E+03  0.11543319217E+04  0.13768982352E+04  0.79095604514E+02 0.  0.
        254    2    1    2    0    0 -0.37320429116E+03 -0.64639694236E+03  0.78935232643E+02  0.11780218244E+04  0.90796156185E+03 0.  0.
         23    2    4    4    0    0 -0.36176275201E+03 -0.24048707876E+03  0.41787914500E+03  0.60942374891E+03  0.89822058109E+02 0.  0.
          4    1    3    3  502    0  0.34661537414E+03  0.56698728214E+03  0.10564693639E+04  0.12480962754E+04  0.00000000000E+00 0. -1.
         -3    1    3    3    0  502  0.26588917015E+02  0.79409660220E+02  0.97862557798E+02  0.12880195986E+03  0.00000000000E+00 0.  1.
         11    1    4    4    0    0 -0.54456400664E+02 -0.40350216130E+03 -0.33113445799E+03  0.52481379843E+03  0.00000000000E+00 0. -1.
        -11    1    4    4    0    0  0.43014861513E+02 -0.24077022985E+01 -0.78094543621E+01  0.43784277072E+02  0.00000000000E+00 0.  1.
          4    1    5    5  503    0 -0.28263009624E+03 -0.18627307581E+03  0.37245537806E+03  0.50328961714E+03  0.00000000000E+00 0. -1.
         -4    1    5    5    0  503 -0.79132655768E+02 -0.54214002951E+02  0.45423766939E+02  0.10613413178E+03  0.00000000000E+00 0.  1.
<mgrwt>
<rscale>  0 0.22375586E+04</rscale>
<asrwt>0</asrwt>
<pdfrwt beam="1">  1        2 0.29139901E+00 0.22375586E+04</pdfrwt>
<pdfrwt beam="2">  1       -1 0.10166561E+00 0.22375586E+04</pdfrwt>
<totfact> 0.72818085E+00</totfact>
</mgrwt>
</event>
<event>
12    6  0.1705838E-008  0.1961105E+04  0.7818608E-02  0.8625025E-01
          2   -1    0    0  501    0  0.00000000000E+00  0.00000000000E+00  0.23471647166E+04  0.23471647166E+04  0.00000000000E+00 0. -1.
         -1   -1    0    0    0  501 -0.00000000000E+00 -0.00000000000E+00 -0.40963587343E+03  0.40963587343E+03  0.00000000000E+00 0.  1.
         24    2    1    2    0    0 -0.30266596226E+02 -0.31878665338E+03 -0.22083019580E+03  0.39636929858E+03  0.76168551607E+02 0.  0.
        254    2    1    2    0    0  0.30266596226E+02  0.31878665338E+03  0.21583590390E+04  0.23604312914E+04  0.90032279949E+03 0.  0.
         23    2    4    4    0    0 -0.55550021709E+02 -0.25230524999E+03  0.30403001075E+03  0.41610956781E+03  0.11819128945E+03 0.  0.
         23    2    4    4    0    0  0.85816617935E+02  0.57109190337E+03  0.18543290282E+04  0.19443217236E+04  0.91325604689E+02 0.  0.
          2    1    3    3  502    0 -0.20475193676E+02 -0.19997492714E+02 -0.90889128291E+01  0.30029012760E+02  0.00000000000E+00 0. -1.
         -1    1    3    3    0  502 -0.97914025499E+01 -0.29878916067E+03 -0.21174128297E+03  0.36634028582E+03  0.00000000000E+00 0.  1.
         11    1    5    5    0    0 -0.66906475275E+02 -0.24669648610E+03  0.31026260221E+03  0.40199317782E+03  0.00000000000E+00 0. -1.
        -11    1    5    5    0    0  0.11356453566E+02 -0.56087638865E+01 -0.62325914573E+01  0.14116389985E+02  0.00000000000E+00 0.  1.
          4    1    6    6  503    0  0.98848775854E+02  0.43985310848E+03  0.14980890647E+04  0.15644528383E+04  0.00000000000E+00 0. -1.
         -4    1    6    6    0  503 -0.13032157919E+02  0.13123879489E+03  0.35623996350E+03  0.37986888530E+03  0.00000000000E+00 0.  1.
<mgrwt>
<rscale>  0 0.19611047E+04</rscale>
<asrwt>0</asrwt>
<pdfrwt beam="1">  1        2 0.36110226E+00 0.19611047E+04</pdfrwt>
<pdfrwt beam="2">  1       -1 0.63020905E-01 0.19611047E+04</pdfrwt>
<totfact> 0.11551417E+01</totfact>
</mgrwt>
</event>
<event>
11    6  0.1705838E-008  0.1909434E+04  0.7818608E-02  0.8650175E-01
         -1   -1    0    0    0  501 -0.00000000000E+00  0.00000000000E+00  0.76527657742E+03  0.76527657742E+03  0.00000000000E+00 0.  1.
          2   -1    0    0  501    0  0.00000000000E+00 -0.00000000000E+00 -0.11910519820E+04  0.11910519820E+04  0.00000000000E+00 0. -1.
         24    2    1    2    0    0 -0.21027181167E+03  0.25250103689E+03 -0.84723102273E+03  0.91327399451E+03  0.91093220172E+02 0.  0.
        254    2    1    2    0    0  0.21027181167E+03 -0.25250103689E+03  0.42145561817E+03  0.10430545649E+04  0.89574939511E+03 0.  0.
         23    2    4    4    0    0  0.49705210389E+03 -0.92042424583E+02  0.45016847330E+03  0.68284002976E+03  0.89923578588E+02 0.  0.
          4    1    3    3  502    0 -0.16568227481E+03  0.13844671264E+03 -0.59305133826E+03  0.63113231436E+03  0.00000000000E+00 0. -1.
         -3    1    3    3    0  502 -0.44589536862E+02  0.11405432425E+03 -0.25417968447E+03  0.28214168014E+03  0.00000000000E+00 0.  1.
         11    1    4    4    0    0 -0.17144886485E+03 -0.40223976653E+02 -0.68442322256E+02  0.18893658468E+03  0.00000000000E+00 0.  1.
        -11    1    4    4    0    0 -0.11533142738E+03 -0.12023463565E+03  0.39729467130E+02  0.17127795045E+03  0.00000000000E+00 0. -1.
          1    1    5    5  503    0  0.46926389367E+02 -0.28899496735E+02  0.77308691963E+02  0.94941565100E+02  0.00000000000E+00 0. -1.
         -1    1    5    5    0  503  0.45012571452E+03 -0.63142927848E+02  0.37285978133E+03  0.58789846466E+03  0.00000000000E+00 0.  1.
<mgrwt>
<rscale>  0 0.19094336E+04</rscale>
<asrwt>0</asrwt>
<pdfrwt beam="1">  1        2 0.18323877E+00 0.19094336E+04</pdfrwt>
<pdfrwt beam="2">  1       -1 0.11773486E+00 0.19094336E+04</pdfrwt>
<totfact> 0.13272806E+01</totfact>
</mgrwt>
</event>
<event>
12    6  0.1705838E-008  0.1931674E+04  0.7818608E-02  0.8639249E-01
         -1   -1    0    0    0  501 -0.00000000000E+00  0.00000000000E+00  0.61335151514E+03  0.61335151514E+03  0.00000000000E+00 0.  1.
          2   -1    0    0  501    0  0.00000000000E+00 -0.00000000000E+00 -0.15208919552E+04  0.15208919552E+04  0.00000000000E+00 0. -1.
         24    2    1    2    0    0  0.14456592093E+03  0.10715042060E+02  0.46389519532E+03  0.49282244859E+03  0.81615537575E+02 0.  0.
        254    2    1    2    0    0 -0.14456592093E+03 -0.10715042060E+02 -0.13714356354E+04  0.16414210218E+04  0.89017591020E+03 0.  0.
         23    2    4    4    0    0  0.33863951847E+03 -0.75195652829E+02 -0.83784363932E+03  0.91304102457E+03  0.10644641337E+03 0.  0.
         23    2    4    4    0    0 -0.48320543940E+03  0.64480610770E+02 -0.53359199608E+03  0.72837999722E+03  0.90397766768E+02 0.  0.
          2    1    3    3  502    0  0.36240385571E+02  0.13543404806E+02  0.41448014196E+02  0.56698564716E+02  0.00000000000E+00 0. -1.
         -1    1    3    3    0  502  0.10832553535E+03 -0.28283627461E+01  0.42244718112E+03  0.43612388387E+03  0.00000000000E+00 0.  1.
         11    1    5    5    0    0  0.19942320425E+02 -0.45386172263E+00 -0.14951642595E+03  0.15084118722E+03  0.00000000000E+00 0. -1.
        -11    1    5    5    0    0  0.31869719805E+03 -0.74741791106E+02 -0.68832721337E+03  0.76219983735E+03  0.00000000000E+00 0.  1.
          2    1    6    6  503    0 -0.36836880901E+03  0.51241857797E+02 -0.34566151684E+03  0.50774323400E+03  0.00000000000E+00 0.  1.
         -2    1    6    6    0  503 -0.11483663039E+03  0.13238752973E+02 -0.18793047923E+03  0.22063676322E+03  0.00000000000E+00 0. -1.
<mgrwt>
<rscale>  0 0.19316743E+04</rscale>
<asrwt>0</asrwt>
<pdfrwt beam="1">  1        2 0.23398338E+00 0.19316743E+04</pdfrwt>
<pdfrwt beam="2">  1       -1 0.94361773E-01 0.19316743E+04</pdfrwt>
<totfact> 0.14294390E+01</totfact>
</mgrwt>
</event>
<event>
12    6  0.1705838E-008  0.1643056E+04  0.7818608E-02  0.8794525E-01
         -1   -1    0    0    0  501 -0.00000000000E+00  0.00000000000E+00  0.74184337305E+03  0.74184337305E+03  0.00000000000E+00 0.  1.
          2   -1    0    0  501    0  0.00000000000E+00 -0.00000000000E+00 -0.90977144960E+03  0.90977144960E+03  0.00000000000E+00 0. -1.
         24    2    1    2    0    0  0.40543728024E+02  0.49173582572E+03 -0.34675666443E+03  0.60831765838E+03  0.79763857675E+02 0.  0.
        254    2    1    2    0    0 -0.40543728024E+02 -0.49173582572E+03  0.17882858788E+03  0.10432971643E+04  0.90168807964E+03 0.  0.
         23    2    4    4    0    0  0.17174425144E+03 -0.67326981941E+03  0.60215869737E+01  0.70306925376E+03  0.10715306084E+03 0.  0.
         23    2    4    4    0    0 -0.21228797946E+03  0.18153399369E+03  0.17280700091E+03  0.34022791052E+03  0.88724260749E+02 0.  0.
          4    1    3    3  502    0  0.16364825451E+02  0.43874299047E+03 -0.28507516083E+03  0.52347976706E+03  0.00000000000E+00 0. -1.
         -3    1    3    3    0  502  0.24178902573E+02  0.52992835255E+02 -0.61681503600E+02  0.84837891324E+02  0.00000000000E+00 0.  1.
         11    1    5    5    0    0  0.16528218041E+03 -0.50691628667E+03  0.33962158603E+02  0.53426187312E+03  0.00000000000E+00 0.  1.
        -11    1    5    5    0    0  0.64620710281E+01 -0.16635353274E+03 -0.27940571629E+02  0.16880738064E+03  0.00000000000E+00 0. -1.
          1    1    6    6  503    0 -0.11338154420E+01  0.16989966259E+02  0.35499783444E+02  0.39372314074E+02  0.00000000000E+00 0. -1.
         -1    1    6    6    0  503 -0.21115416402E+03  0.16454402743E+03  0.13730721747E+03  0.30085559644E+03  0.00000000000E+00 0.  1.
<mgrwt>
<rscale>  0 0.16430556E+04</rscale>
<asrwt>0</asrwt>
<pdfrwt beam="1">  1        2 0.13996484E+00 0.16430556E+04</pdfrwt>
<pdfrwt beam="2">  1       -1 0.11412975E+00 0.16430556E+04</pdfrwt>
<totfact> 0.22024416E+01</totfact>
</mgrwt>
</event>
<event>
11    6  0.1705838E-008  0.1720107E+04  0.7818608E-02  0.8749979E-01
         -1   -1    0    0    0  501 -0.00000000000E+00  0.00000000000E+00  0.41079624953E+03  0.41079624953E+03  0.00000000000E+00 0.  1.
          2   -1    0    0  501    0  0.00000000000E+00 -0.00000000000E+00 -0.18006300011E+04  0.18006300011E+04  0.00000000000E+00 0. -1.
         24    2    1    2    0    0 -0.17549879775E+03 -0.14084576114E+03  0.23163121088E+03  0.33260682482E+03  0.79604809021E+02 0.  0.
        254    2    1    2    0    0  0.17549879775E+03  0.14084576114E+03 -0.16214649624E+04  0.18788194258E+04  0.92205013635E+03 0.  0.
         23    2    4    4    0    0  0.44303253916E+02  0.82396734022E+02 -0.16645897213E+04  0.16696491460E+04  0.90096227924E+02 0.  0.
          2    1    3    3  502    0 -0.12272479628E+02 -0.48999097019E+02  0.37954769036E+02  0.63182986298E+02  0.00000000000E+00 0. -1.
         -1    1    3    3    0  502 -0.16322631812E+03 -0.91846664117E+02  0.19367644184E+03  0.26942383852E+03  0.00000000000E+00 0.  1.
         11    1    4    4    0    0  0.10623718235E+03  0.94748288863E+02 -0.68960941723E+01  0.14251713325E+03  0.00000000000E+00 0.  1.
        -11    1    4    4    0    0  0.24958361483E+02 -0.36299261749E+02  0.50020853036E+02  0.66653146586E+02  0.00000000000E+00 0. -1.
          2    1    5    5  503    0 -0.16259250460E+02  0.37449692171E+01 -0.69545007252E+02  0.71518501478E+02  0.00000000000E+00 0. -1.
         -2    1    5    5    0  503  0.60562504376E+02  0.78651764805E+02 -0.15950447140E+04  0.15981306445E+04  0.00000000000E+00 0.  1.
<mgrwt>
<rscale>  0 0.17201070E+04</rscale>
<asrwt>0</asrwt>
<pdfrwt beam="1">  1        2 0.27702000E+00 0.17201070E+04</pdfrwt>
<pdfrwt beam="2">  1       -1 0.63199424E-01 0.17201070E+04</pdfrwt>
<totfact> 0.23691509E+01</totfact>
</mgrwt>
</event>
<event>
11    6  0.1705838E-008  0.4082259E+04  0.7818608E-02  0.7988155E-01
          2   -1    0    0  501    0  0.00000000000E+00  0.00000000000E+00  0.17466413618E+04  0.17466413618E+04  0.00000000000E+00 0. -1.
         -1   -1    0    0    0  501 -0.00000000000E+00 -0.00000000000E+00 -0.23852696365E+04  0.23852696365E+04  0.00000000000E+00 0.  1.
         24    2    1    2    0    0 -0.10994514495E+04 -0.59217189787E+03 -0.18084288096E+04  0.21991165403E+04  0.78979441328E+02 0.  0.
        254    2    1    2    0    0  0.10994514495E+04  0.59217189787E+03  0.11698005348E+04  0.19327944580E+04  0.89877699087E+03 0.  0.
         23    2    4    4    0    0  0.90295659522E+03  0.11818479624E+03  0.90060238135E+03  0.12843369725E+04  0.95595766668E+02 0.  0.
          2    1    3    3  502    0 -0.74819882050E+02 -0.37691357333E+02 -0.15908837208E+03  0.17979923053E+03  0.00000000000E+00 0. -1.
         -3    1    3    3    0  502 -0.10246315674E+04 -0.55448054054E+03 -0.16493404375E+04  0.20193173098E+04  0.00000000000E+00 0.  1.
         11    1    4    4    0    0  0.18788399826E+03  0.50351942616E+03  0.20126044189E+03  0.57387975639E+03  0.00000000000E+00 0.  1.
        -11    1    4    4    0    0  0.86108559686E+01 -0.29532324540E+02  0.67937711551E+02  0.74577729142E+02  0.00000000000E+00 0. -1.
          1    1    5    5  503    0  0.90608564545E+02  0.38387785641E+02  0.79044696661E+02  0.12622043466E+03  0.00000000000E+00 0. -1.
         -1    1    5    5    0  503  0.81234803068E+03  0.79797010604E+02  0.82155768469E+03  0.11581165378E+04  0.00000000000E+00 0.  1.
<mgrwt>
<rscale>  0 0.40822595E+04</rscale>
<asrwt>0</asrwt>
<pdfrwt beam="1">  1        2 0.26871406E+00 0.40822595E+04</pdfrwt>
<pdfrwt beam="2">  1       -1 0.36696456E+00 0.40822595E+04</pdfrwt>
<totfact> 0.98653023E-02</totfact>
</mgrwt>
</event>
<event>
12    6  0.1705838E-008  0.2169873E+04  0.7818608E-02  0.8531073E-01
          2   -1    0    0  501    0  0.00000000000E+00  0.00000000000E+00  0.10039380365E+04  0.10039380365E+04  0.00000000000E+00 0. -1.
         -1   -1    0    0    0  501 -0.00000000000E+00 -0.00000000000E+00 -0.11724699619E+04  0.11724699619E+04  0.00000000000E+00 0.  1.
         24    2    1    2    0    0 -0.19464789939E+03  0.45982127440E+03 -0.79214085744E+03  0.93959638055E+03  0.77658297636E+02 0.  0.
        254    2    1    2    0    0  0.19464789939E+03 -0.45982127440E+03  0.62360893198E+03  0.12368116178E+04  0.94418825921E+03 0.  0.
         23    2    4    4    0    0  0.48694272360E+03 -0.21209802647E+03  0.47669067951E+02  0.53893539019E+03  0.77975803081E+02 0.  0.
         23    2    4    4    0    0 -0.29229482420E+03 -0.24772324792E+03  0.57593986403E+03  0.69787622764E+03  0.92311593559E+02 0.  0.
          2    1    3    3  502    0 -0.73726081836E+02  0.91771659124E+02 -0.17352479249E+03  0.20968649496E+03  0.00000000000E+00 0. -1.
         -1    1    3    3    0  502 -0.12092181756E+03  0.36804961527E+03 -0.61861606496E+03  0.72990988559E+03  0.00000000000E+00 0.  1.
         11    1    5    5    0    0  0.21617271328E+03 -0.60070699900E+02 -0.25079944520E+01  0.22437785317E+03  0.00000000000E+00 0. -1.
        -11    1    5    5    0    0  0.27077001031E+03 -0.15202732657E+03  0.50177062403E+02  0.31455753703E+03  0.00000000000E+00 0.  1.
          1    1    6    6  503    0 -0.15041922958E+03 -0.17745556774E+03  0.38513460256E+03  0.44993897947E+03  0.00000000000E+00 0. -1.
         -1    1    6    6    0  503 -0.14187559463E+03 -0.70267680181E+02  0.19080526146E+03  0.24793724817E+03  0.00000000000E+00 0.  1.
<mgrwt>
<rscale>  0 0.21698730E+04</rscale>
<asrwt>0</asrwt>
<pdfrwt beam="1">  1        2 0.15445201E+00 0.21698730E+04</pdfrwt>
<pdfrwt beam="2">  1       -1 0.18037999E+00 0.21698730E+04</pdfrwt>
<totfact> 0.54120433E+00</totfact>
</mgrwt>
</event>
<event>
12    6  0.1705838E-008  0.2774212E+04  0.7818608E-02  0.8311319E-01
         -1   -1    0    0    0  501 -0.00000000000E+00  0.00000000000E+00  0.95585767262E+03  0.95585767262E+03  0.00000000000E+00 0.  1.
          2   -1    0    0  501    0  0.00000000000E+00 -0.00000000000E+00 -0.20129181370E+04  0.20129181370E+04  0.00000000000E+00 0. -1.
         24    2    1    2    0    0 -0.78458392463E+03  0.88153467022E+03 -0.68443208965E+02  0.11849715935E+04  0.82449347463E+02 0.  0.
        254    2    1    2    0    0  0.78458392463E+03 -0.88153467022E+03 -0.98861725540E+03  0.17838042161E+04  0.90106497779E+03 0.  0.
         23    2    4    4    0    0  0.31087333929E+03 -0.80328688119E+03 -0.96341067521E+03  0.12946997308E+04  0.78582550182E+02 0.  0.
         23    2    4    4    0    0  0.47371058534E+03 -0.78247789033E+02 -0.25206580189E+02  0.48910448535E+03  0.89796384962E+02 0.  0.
          2    1    3    3  502    0 -0.25214119875E+03  0.29908266334E+03  0.14702983422E+02  0.39146111089E+03  0.00000000000E+00 0. -1.
         -1    1    3    3    0  502 -0.53244272588E+03  0.58245200688E+03 -0.83146192386E+02  0.79351048258E+03  0.00000000000E+00 0.  1.
         11    1    5    5    0    0  0.29802288343E+03 -0.70756402118E+03 -0.87012296445E+03  0.11604216718E+04  0.00000000000E+00 0.  1.
        -11    1    5    5    0    0  0.12850455860E+02 -0.95722860005E+02 -0.93287710756E+02  0.13427805897E+03  0.00000000000E+00 0. -1.
          3    1    6    6  503    0  0.24935299377E+03 -0.67258652693E+01 -0.42292476447E+02  0.25300356979E+03  0.00000000000E+00 0. -1.
         -3    1    6    6    0  503  0.22435759157E+03 -0.71521923764E+02  0.17085896258E+02  0.23610091555E+03  0.00000000000E+00 0.  1.
<mgrwt>
<rscale>  0 0.27742121E+04</rscale>
<asrwt>0</asrwt>
<pdfrwt beam="1">  1        2 0.30967971E+00 0.27742121E+04</pdfrwt>
<pdfrwt beam="2">  1       -1 0.14705503E+00 0.27742121E+04</pdfrwt>
<totfact> 0.23989068E+00</totfact>
</mgrwt>
</event>
<event>
11    6  0.1705838E-008  0.1568424E+04  0.7818608E-02  0.8840184E-01
          2   -1    0    0  501    0  0.00000000000E+00  0.00000000000E+00  0.10312741276E+04  0.10312741276E+04  0.00000000000E+00 0. -1.
         -1   -1    0    0    0  501 -0.00000000000E+00 -0.00000000000E+00 -0.59633882513E+03  0.59633882513E+03  0.00000000000E+00 0.  1.
         24    2    1    2    0    0 -0.21736112574E+02 -0.31338908945E+03  0.57329000928E+03  0.65858678623E+03  0.79937102060E+02 0.  0.
        254    2    1    2    0    0  0.21736112574E+02  0.31338908945E+03 -0.13835470683E+03  0.96902616647E+03  0.90619231206E+03 0.  0.
         23    2    4    4    0    0 -0.14867339470E+02  0.48856388516E+03  0.21870318623E+03  0.54336191696E+03  0.92170393671E+02 0.  0.
          2    1    3    3  502    0  0.11218221377E+02 -0.26454959546E+03  0.48180965450E+03  0.54977529966E+03  0.00000000000E+00 0. -1.
         -3    1    3    3    0  502 -0.32954333951E+02 -0.48839493992E+02  0.91480354777E+02  0.10881148657E+03  0.00000000000E+00 0.  1.
         11    1    4    4    0    0  0.56505051170E+02 -0.11111561156E+03 -0.33101011990E+03  0.35370496097E+03  0.00000000000E+00 0.  1.
        -11    1    4    4    0    0 -0.19901599125E+02 -0.64059184146E+02 -0.26047773153E+02  0.71959288542E+02  0.00000000000E+00 0. -1.
          1    1    5    5  503    0 -0.47151731304E+01  0.38369291518E+02 -0.75819860950E+01  0.39394439993E+02  0.00000000000E+00 0. -1.
         -1    1    5    5    0  503 -0.10152166340E+02  0.45019459364E+03  0.22628517232E+03  0.50396747697E+03  0.00000000000E+00 0.  1.
<mgrwt>
<rscale>  0 0.15684244E+04</rscale>
<asrwt>0</asrwt>
<pdfrwt beam="1">  1        2 0.15865756E+00 0.15684244E+04</pdfrwt>
<pdfrwt beam="2">  1       -1 0.91744435E-01 0.15684244E+04</pdfrwt>
<totfact> 0.30543207E+01</totfact>
</mgrwt>
</event>
<event>
12    6  0.1705838E-008  0.2090771E+04  0.7818608E-02  0.8565320E-01
          2   -1    0    0  501    0  0.00000000000E+00  0.00000000000E+00  0.10787222231E+04  0.10787222231E+04  0.00000000000E+00 0. -1.
         -1   -1    0    0    0  501 -0.00000000000E+00 -0.00000000000E+00 -0.10130792098E+04  0.10130792098E+04  0.00000000000E+00 0.  1.
         24    2    1    2    0    0 -0.25708235817E+03 -0.15113848390E+03 -0.73813142109E+03  0.80007407163E+03  0.79663951016E+02 0.  0.
        254    2    1    2    0    0  0.25708235817E+03  0.15113848390E+03  0.80377443440E+03  0.12917273612E+04  0.96621532492E+03 0.  0.
         23    2    4    4    0    0 -0.12752091152E+03 -0.25232129175E+03 -0.99300897111E+01  0.30170879730E+03  0.10489029764E+03 0.  0.
         23    2    4    4    0    0  0.38460326969E+03  0.40345977565E+03  0.81370452411E+03  0.99001856392E+03  0.85570080746E+02 0.  0.
          4    1    3    3  502    0 -0.62543294124E+02 -0.77986356023E+02 -0.26857011665E+03  0.28657188090E+03  0.00000000000E+00 0. -1.
         -3    1    3    3    0  502 -0.19453906405E+03 -0.73152127874E+02 -0.46956130444E+03  0.51350219073E+03  0.00000000000E+00 0.  1.
         11    1    5    5    0    0 -0.70380085013E+02 -0.68474380995E+02 -0.41521302497E+02  0.10661198704E+03  0.00000000000E+00 0. -1.
        -11    1    5    5    0    0 -0.57140826507E+02 -0.18384691076E+03  0.31591212786E+02  0.19509681026E+03  0.00000000000E+00 0.  1.
          2    1    6    6  503    0  0.65131305719E+02  0.30651206687E+02  0.12466602839E+03  0.14395555596E+03  0.00000000000E+00 0. -1.
         -2    1    6    6    0  503  0.31947196397E+03  0.37280856896E+03  0.68903849572E+03  0.84606300796E+03  0.00000000000E+00 0.  1.
<mgrwt>
<rscale>  0 0.20907712E+04</rscale>
<asrwt>0</asrwt>
<pdfrwt beam="1">  1        2 0.16595727E+00 0.20907712E+04</pdfrwt>
<pdfrwt beam="2">  1       -1 0.15585834E+00 0.20907712E+04</pdfrwt>
<totfact> 0.74244711E+00</totfact>
</mgrwt>
</event>
<event>
11    6  0.1705838E-008  0.1123429E+04  0.7818608E-02  0.9182653E-01
         -1   -1    0    0    0  501 -0.00000000000E+00  0.00000000000E+00  0.23546237233E+03  0.23546237233E+03  0.00000000000E+00 0.  1.
          2   -1    0    0  501    0  0.00000000000E+00 -0.00000000000E+00 -0.13400144706E+04  0.13400144706E+04  0.00000000000E+00 0. -1.
         24    2    1    2    0    0 -0.16035147929E+03  0.69669792712E+02 -0.33882585393E+03  0.38887440654E+03  0.76510573422E+02 0.  0.
        254    2    1    2    0    0  0.16035147929E+03 -0.69669792712E+02 -0.76572624434E+03  0.11866024364E+04  0.88945049544E+03 0.  0.
         23    2    4    4    0    0  0.39755827967E+03 -0.27816440032E+03 -0.28088446719E+03  0.56903210784E+03  0.97331580238E+02 0.  0.
          4    1    3    3  502    0 -0.15433558383E+03  0.56101848740E+02 -0.33569133951E+03  0.37370518500E+03  0.00000000000E+00 0. -1.
         -3    1    3    3    0  502 -0.60158954555E+01  0.13567943972E+02 -0.31345144213E+01  0.15169221549E+02  0.00000000000E+00 0.  1.
         11    1    4    4    0    0 -0.17741678670E+03  0.20766124618E+03 -0.23387861759E+03  0.35958186430E+03  0.00000000000E+00 0. -1.
        -11    1    4    4    0    0 -0.59790013681E+02  0.83336142826E+00 -0.25096315956E+03  0.25798846425E+03  0.00000000000E+00 0.  1.
          2    1    5    5  503    0  0.30083714864E+03 -0.25148317878E+03 -0.24561037650E+03  0.46267832914E+03  0.00000000000E+00 0. -1.
         -2    1    5    5    0  503  0.96721131029E+02 -0.26681221533E+02 -0.35274090687E+02  0.10635377870E+03  0.00000000000E+00 0.  1.
<mgrwt>
<rscale>  0 0.11234287E+04</rscale>
<asrwt>0</asrwt>
<pdfrwt beam="1">  1        2 0.20615607E+00 0.11234287E+04</pdfrwt>
<pdfrwt beam="2">  1       -1 0.36224981E-01 0.11234287E+04</pdfrwt>
<totfact> 0.12902877E+02</totfact>
</mgrwt>
</event>
<event>
11    6  0.1705838E-008  0.1970615E+04  0.7818608E-02  0.8620483E-01
          2   -1    0    0  501    0  0.00000000000E+00  0.00000000000E+00  0.99966176863E+03  0.99966176863E+03  0.00000000000E+00 0. -1.
         -1   -1    0    0    0  501 -0.00000000000E+00 -0.00000000000E+00 -0.97115982663E+03  0.97115982663E+03  0.00000000000E+00 0.  1.
         24    2    1    2    0    0  0.97612604189E+02 -0.69020757168E+03  0.36440843695E+03  0.79071371270E+03  0.80746232322E+02 0.  0.
        254    2    1    2    0    0 -0.97612604189E+02  0.69020757168E+03 -0.33590649494E+03  0.11801078826E+04  0.89101443795E+03 0.  0.
         23    2    4    4    0    0  0.26132162267E+03  0.13375005006E+03 -0.36296251795E+03  0.47572577000E+03  0.91625064459E+02 0.  0.
          2    1    3    3  502    0  0.91981145292E+02 -0.63051814056E+03  0.35677470889E+03  0.73027518756E+03  0.00000000000E+00 0. -1.
         -1    1    3    3    0  502  0.56314588969E+01 -0.59689431126E+02  0.76337280537E+01  0.60438525143E+02  0.00000000000E+00 0.  1.
         11    1    4    4    0    0 -0.98844163313E+02  0.24805771567E+03 -0.94147278798E+02  0.28313690863E+03  0.00000000000E+00 0. -1.
        -11    1    4    4    0    0 -0.26009006354E+03  0.30839980596E+03  0.12120330181E+03  0.42124520393E+03  0.00000000000E+00 0.  1.
          4    1    5    5  503    0  0.13378036329E+03  0.27285951761E+02 -0.20619744402E+03  0.24730364875E+03  0.00000000000E+00 0. -1.
         -4    1    5    5    0  503  0.12754125938E+03  0.10646409830E+03 -0.15676507394E+03  0.22842212125E+03  0.00000000000E+00 0.  1.
<mgrwt>
<rscale>  0 0.19706155E+04</rscale>
<asrwt>0</asrwt>
<pdfrwt beam="1">  1        2 0.15379412E+00 0.19706155E+04</pdfrwt>
<pdfrwt beam="2">  1       -1 0.14940920E+00 0.19706155E+04</pdfrwt>
<totfact> 0.94412115E+00</totfact>
</mgrwt>
</event>
<event>
11    6  0.1705838E-008  0.2184584E+04  0.7818608E-02  0.8524872E-01
          2   -1    0    0  501    0  0.00000000000E+00  0.00000000000E+00  0.12011508693E+04  0.12011508693E+04  0.00000000000E+00 0. -1.
         -1   -1    0    0    0  501 -0.00000000000E+00 -0.00000000000E+00 -0.99329853300E+03  0.99329853300E+03  0.00000000000E+00 0.  1.
         24    2    1    2    0    0 -0.22269338287E+03  0.40470555724E+03  0.86454060334E+03  0.98340942762E+03  0.79276204968E+02 0.  0.
        254    2    1    2    0    0  0.22269338287E+03 -0.40470555724E+03 -0.65668826706E+03  0.12110399747E+04  0.90664183078E+03 0.  0.
         23    2    4    4    0    0  0.49976943146E+03 -0.47988860240E+03 -0.50022440835E+03  0.85921157436E+03  0.89204907168E+02 0.  0.
          4    1    3    3  502    0 -0.21491251183E+03  0.36623039027E+03  0.82400481926E+03  0.92698221594E+03  0.00000000000E+00 0. -1.
         -3    1    3    3    0  502 -0.77808710388E+01  0.38475166965E+02  0.40535784074E+02  0.56427211677E+02  0.00000000000E+00 0.  1.
         11    1    4    4    0    0 -0.25136186869E+03  0.84759788544E+02 -0.90326437657E+02  0.28022468864E+03  0.00000000000E+00 0. -1.
        -11    1    4    4    0    0 -0.25714179898E+02 -0.95767433828E+01 -0.66137421050E+02  0.71603711670E+02  0.00000000000E+00 0.  1.
          1    1    5    5  503    0  0.49753219502E+03 -0.47639662481E+03 -0.48250456104E+03  0.84101288970E+03  0.00000000000E+00 0. -1.
         -1    1    5    5    0  503  0.22372364339E+01 -0.34919775857E+01 -0.17719847317E+02  0.18198684657E+02  0.00000000000E+00 0.  1.
<mgrwt>
<rscale>  0 0.21845836E+04</rscale>
<asrwt>0</asrwt>
<pdfrwt beam="1">  1        2 0.18479244E+00 0.21845836E+04</pdfrwt>
<pdfrwt beam="2">  1       -1 0.15281516E+00 0.21845836E+04</pdfrwt>
<totfact> 0.65457893E+00</totfact>
</mgrwt>
</event>
<event>
11    6  0.1705838E-008  0.4686070E+04  0.7818608E-02  0.7878847E-01
          2   -1    0    0  501    0  0.00000000000E+00  0.00000000000E+00  0.18225249241E+04  0.18225249241E+04  0.00000000000E+00 0. -1.
         -3   -1    0    0    0  501 -0.00000000000E+00 -0.00000000000E+00 -0.30122019045E+04  0.30122019045E+04  0.00000000000E+00 0.  1.
         24    2    1    2    0    0  0.15645262072E+04 -0.16216311732E+04 -0.48218816601E+03  0.23057621754E+04  0.81264180072E+02 0.  0.
        254    2    1    2    0    0 -0.15645262072E+04  0.16216311732E+04 -0.70748881440E+03  0.25289646532E+04  0.90426316944E+03 0.  0.
         23    2    4    4    0    0 -0.85152224944E+03  0.90317755424E+03 -0.15579711544E+03  0.12543678181E+04  0.91356697343E+02 0.  0.
          4    1    3    3  502    0  0.73178035475E+02 -0.10265914178E+03 -0.26319852605E+02  0.12878920338E+03  0.00000000000E+00 0. -1.
         -3    1    3    3    0  502  0.14913481717E+04 -0.15189720314E+04 -0.45586831340E+03  0.21769729720E+04  0.00000000000E+00 0.  1.
         11    1    4    4    0    0 -0.60643689887E+03  0.31509459563E+03 -0.15901696300E+03  0.70166709416E+03  0.00000000000E+00 0. -1.
        -11    1    4    4    0    0 -0.10656705887E+03  0.40335902335E+03 -0.39267473597E+03  0.57292974091E+03  0.00000000000E+00 0.  1.
          1    1    5    5  503    0 -0.36961263537E+02  0.58380806134E+02  0.75803803132E+01  0.69511982369E+02  0.00000000000E+00 0. -1.
         -1    1    5    5    0  503 -0.81456098590E+03  0.84479674810E+03 -0.16337749575E+03  0.11848558357E+04  0.00000000000E+00 0.  1.
<mgrwt>
<rscale>  0 0.46860700E+04</rscale>
<asrwt>0</asrwt>
<pdfrwt beam="1">  1        2 0.28038845E+00 0.46860700E+04</pdfrwt>
<pdfrwt beam="2">  1       -3 0.46341567E+00 0.46860700E+04</pdfrwt>
<totfact> 0.18641568E-02</totfact>
</mgrwt>
</event>
<event>
12    6  0.1765131E-008  0.1356555E+04  0.7818608E-02  0.8985881E-01
         -1   -1    0    0    0  501 -0.00000000000E+00  0.00000000000E+00  0.35846823656E+03  0.35846823656E+03  0.00000000000E+00 0.  1.
          2   -1    0    0  501    0  0.00000000000E+00 -0.00000000000E+00 -0.12834060393E+04  0.12834060393E+04  0.00000000000E+00 0. -1.
         24    2    1    2    0    0  0.36906474858E+03 -0.31015338942E+02 -0.22621981161E+03  0.44134417006E+03  0.80240472256E+02 0.  0.
        254    2    1    2    0    0 -0.36906474858E+03  0.31015338942E+02 -0.69871799115E+03  0.12005301058E+04  0.90326904293E+03 0.  0.
         23    2    4    4    0    0 -0.36238458271E+03  0.20902701692E+03  0.41677614671E+02  0.43350274484E+03  0.10570111935E+03 0.  0.
         23    2    4    4    0    0 -0.66801658698E+01 -0.17801167798E+03 -0.74039560583E+03  0.76702736098E+03  0.91719884687E+02 0.  0.
          2    1    3    3  502    0  0.32058046371E+03 -0.24332146703E+02 -0.16032093657E+03  0.35925852778E+03  0.00000000000E+00 0. -1.
         -1    1    3    3    0  502  0.48484284867E+02 -0.66831922398E+01 -0.65898875043E+02  0.82085642286E+02  0.00000000000E+00 0.  1.
         11    1    5    5    0    0 -0.53659554138E+02  0.10468871515E+02  0.37712411500E+02  0.66416647026E+02  0.00000000000E+00 0. -1.
        -11    1    5    5    0    0 -0.30872502857E+03  0.19855814541E+03  0.39652031708E+01  0.36708609782E+03  0.00000000000E+00 0.  1.
          1    1    6    6  503    0  0.19016793296E+02 -0.42874688138E+02 -0.82463394532E+02  0.94868797547E+02  0.00000000000E+00 0. -1.
         -1    1    6    6    0  503 -0.25696959166E+02 -0.13513698984E+03 -0.65793221129E+03  0.67215856343E+03  0.00000000000E+00 0.  1.
<mgrwt>
<rscale>  0 0.13565549E+04</rscale>
<asrwt>0</asrwt>
<pdfrwt beam="1">  1        2 0.19744708E+00 0.13565549E+04</pdfrwt>
<pdfrwt beam="2">  1       -1 0.55148960E-01 0.13565549E+04</pdfrwt>
<totfact> 0.62523761E+01</totfact>
</mgrwt>
</event>
<event>
12    6  0.2287549E-008  0.1291696E+04  0.7818608E-02  0.9036176E-01
          2   -1    0    0  501    0  0.00000000000E+00  0.00000000000E+00  0.11939714970E+04  0.11939714970E+04  0.00000000000E+00 0. -1.
         -3   -1    0    0    0  501 -0.00000000000E+00 -0.00000000000E+00 -0.34935491638E+03  0.34935491638E+03  0.00000000000E+00 0.  1.
         24    2    1    2    0    0  0.26484915373E+03 -0.16818586437E+02  0.43364139860E+03  0.51819878632E+03  0.10028549487E+03 0.  0.
        254    2    1    2    0    0 -0.26484915373E+03  0.16818586437E+02  0.41097518207E+03  0.10251276271E+04  0.90086520218E+03 0.  0.
         23    2    4    4    0    0 -0.18333989097E+03 -0.27396777203E+03  0.57583805006E+03  0.66808953869E+03  0.77989204871E+02 0.  0.
         23    2    4    4    0    0 -0.81509262760E+02  0.29078635847E+03 -0.16486286799E+03  0.35703808842E+03  0.95372769439E+02 0.  0.
          2    1    3    3  502    0  0.21438085919E+03 -0.21282100185E+02  0.26180384543E+03  0.33904768700E+03  0.00000000000E+00 0. -1.
         -1    1    3    3    0  502  0.50468294534E+02  0.44635137479E+01  0.17183755317E+03  0.17915109932E+03  0.00000000000E+00 0.  1.
         11    1    5    5    0    0 -0.10788788563E+03 -0.18213754659E+03  0.43520980636E+03  0.48396431407E+03  0.00000000000E+00 0. -1.
        -11    1    5    5    0    0 -0.75452005336E+02 -0.91830225442E+02  0.14062824370E+03  0.18412522462E+03  0.00000000000E+00 0.  1.
          2    1    6    6  503    0 -0.66819691221E+02  0.16213521201E+03 -0.14178172901E+03  0.22550999266E+03  0.00000000000E+00 0. -1.
         -2    1    6    6    0  503 -0.14689571540E+02  0.12865114646E+03 -0.23081138986E+02  0.13152809576E+03  0.00000000000E+00 0.  1.
<mgrwt>
<rscale>  0 0.12916963E+04</rscale>
<asrwt>0</asrwt>
<pdfrwt beam="1">  1        2 0.18368792E+00 0.12916963E+04</pdfrwt>
<pdfrwt beam="2">  1       -3 0.53746911E-01 0.12916963E+04</pdfrwt>
<totfact> 0.40872924E+01</totfact>
</mgrwt>
</event>
<event>
12    6  0.1705838E-008  0.1358693E+04  0.7818608E-02  0.8984273E-01
         -1   -1    0    0    0  501 -0.00000000000E+00  0.00000000000E+00  0.33225714745E+03  0.33225714745E+03  0.00000000000E+00 0.  1.
          2   -1    0    0  501    0  0.00000000000E+00 -0.00000000000E+00 -0.13890201818E+04  0.13890201818E+04  0.00000000000E+00 0. -1.
         24    2    1    2    0    0  0.12136086741E+02  0.34060666316E+03 -0.11917707350E+03  0.36979556391E+03  0.79908701975E+02 0.  0.
        254    2    1    2    0    0 -0.12136086741E+02 -0.34060666316E+03 -0.93758596084E+03  0.13514817653E+04  0.91174302545E+03 0.  0.
         23    2    4    4    0    0 -0.29452047921E+03 -0.11489884099E+03  0.71539340367E+01  0.33584656172E+03  0.11312682224E+03 0.  0.
         23    2    4    4    0    0  0.28238439247E+03 -0.22570782218E+03 -0.94473989488E+03  0.10156352036E+04  0.91084750293E+02 0.  0.
          4    1    3    3  502    0  0.26879078955E+02  0.38054739090E+02 -0.88821418147E+01  0.47429321056E+02  0.00000000000E+00 0. -1.
         -3    1    3    3    0  502 -0.14742992214E+02  0.30255192407E+03 -0.11029493168E+03  0.32236624286E+03  0.00000000000E+00 0.  1.
         11    1    5    5    0    0 -0.27365315251E+02 -0.54849856927E+02 -0.67824702086E+01  0.61671461681E+02  0.00000000000E+00 0.  1.
        -11    1    5    5    0    0 -0.26715516396E+03 -0.60048984059E+02  0.13936404245E+02  0.27417510004E+03  0.00000000000E+00 0. -1.
          3    1    6    6  503    0  0.16591928434E+03 -0.17852885522E+03 -0.55551074721E+03  0.60662505003E+03  0.00000000000E+00 0. -1.
         -3    1    6    6    0  503  0.11646510813E+03 -0.47178966958E+02 -0.38922914767E+03  0.40901015358E+03  0.00000000000E+00 0.  1.
<mgrwt>
<rscale>  0 0.13586933E+04</rscale>
<asrwt>0</asrwt>
<pdfrwt beam="1">  1        2 0.21369542E+00 0.13586933E+04</pdfrwt>
<pdfrwt beam="2">  1       -1 0.51116483E-01 0.13586933E+04</pdfrwt>
<totfact> 0.62843686E+01</totfact>
</mgrwt>
</event>
<event>
11    6  0.1705838E-008  0.1345015E+04  0.7818608E-02  0.8994610E-01
          2   -1    0    0  501    0  0.00000000000E+00  0.00000000000E+00  0.18660595315E+04  0.18660595315E+04  0.00000000000E+00 0. -1.
         -1   -1    0    0    0  501 -0.00000000000E+00 -0.00000000000E+00 -0.24236450097E+03  0.24236450097E+03  0.00000000000E+00 0.  1.
         24    2    1    2    0    0  0.30321554320E+03 -0.46482665886E+02  0.14005363155E+03  0.34680830741E+03  0.80998015493E+02 0.  0.
        254    2    1    2    0    0 -0.30321554320E+03  0.46482665886E+02  0.14836413990E+04  0.17616157251E+04  0.89888701077E+03 0.  0.
         23    2    4    4    0    0  0.27279724436E+03  0.17734824884E+03  0.45140369122E+03  0.56392408098E+03  0.91511413298E+02 0.  0.
          2    1    3    3  502    0  0.28141329055E+03 -0.28669144154E+02  0.14555442026E+03  0.31812175213E+03  0.00000000000E+00 0. -1.
         -1    1    3    3    0  502  0.21802252650E+02 -0.17813521732E+02 -0.55007887122E+01  0.28686555276E+02  0.00000000000E+00 0.  1.
         11    1    4    4    0    0 -0.38050791741E+02 -0.26820017553E+02  0.29789516531E+02  0.55268357935E+02  0.00000000000E+00 0. -1.
        -11    1    4    4    0    0 -0.53796199582E+03 -0.10404556540E+03  0.10024481912E+04  0.11424232861E+04  0.00000000000E+00 0.  1.
          1    1    5    5  503    0  0.29317369539E+02  0.24513695968E+02  0.14389376750E+02  0.40834833291E+02  0.00000000000E+00 0. -1.
         -1    1    5    5    0  503  0.24347987482E+03  0.15283455287E+03  0.43701431447E+03  0.52308924768E+03  0.00000000000E+00 0.  1.
<mgrwt>
<rscale>  0 0.13450154E+04</rscale>
<asrwt>0</asrwt>
<pdfrwt beam="1">  1        2 0.28708607E+00 0.13450154E+04</pdfrwt>
<pdfrwt beam="2">  1       -1 0.37286848E-01 0.13450154E+04</pdfrwt>
<totfact> 0.61124444E+01</totfact>
</mgrwt>
</event>
<event>
12    6  0.1971037E-008  0.2905921E+04  0.7818608E-02  0.8271118E-01
         -1   -1    0    0    0  501 -0.00000000000E+00  0.00000000000E+00  0.82068003823E+03  0.82068003823E+03  0.00000000000E+00 0.  1.
          2   -1    0    0  501    0  0.00000000000E+00 -0.00000000000E+00 -0.25723724236E+04  0.25723724236E+04  0.00000000000E+00 0. -1.
         24    2    1    2    0    0 -0.36178239752E+03  0.83680957466E+03  0.30340610556E+03  0.96413486684E+03  0.79774740175E+02 0.  0.
        254    2    1    2    0    0  0.36178239752E+03 -0.83680957466E+03 -0.20550984910E+04  0.24289175950E+04  0.91927912433E+03 0.  0.
         23    2    4    4    0    0  0.17265148495E+03 -0.64162834829E+03 -0.47599360913E+03  0.82405547526E+03  0.10489059917E+03 0.  0.
         23    2    4    4    0    0  0.18913091257E+03 -0.19518122638E+03 -0.15791048818E+04  0.16048621198E+04  0.90244015737E+02 0.  0.
          4    1    3    3  502    0 -0.14384587801E+03  0.30273231271E+03  0.73238899669E+02  0.34307787192E+03  0.00000000000E+00 0. -1.
         -3    1    3    3    0  502 -0.21793651951E+03  0.53407726196E+03  0.23016720589E+03  0.62105699492E+03  0.00000000000E+00 0.  1.
         11    1    5    5    0    0  0.66425564232E+02 -0.39554665999E+03 -0.24330340080E+03  0.46911199159E+03  0.00000000000E+00 0. -1.
        -11    1    5    5    0    0  0.10622592071E+03 -0.24608168829E+03 -0.23269020833E+03  0.35494348366E+03  0.00000000000E+00 0.  1.
          2    1    6    6  503    0  0.14794741296E+03 -0.15068326136E+03 -0.96852533997E+03  0.99127958539E+03  0.00000000000E+00 0. -1.
         -2    1    6    6    0  503  0.41183499615E+02 -0.44497965015E+02 -0.61057954188E+03  0.61358253438E+03  0.00000000000E+00 0.  1.
<mgrwt>
<rscale>  0 0.29059213E+04</rscale>
<asrwt>0</asrwt>
<pdfrwt beam="1">  1        2 0.39574960E+00 0.29059213E+04</pdfrwt>
<pdfrwt beam="2">  1       -1 0.12625847E+00 0.29059213E+04</pdfrwt>
<totfact> 0.16900948E+00</totfact>
</mgrwt>
</event>
<event>
11    6  0.1705838E-008  0.1416286E+04  0.7818608E-02  0.8942114E-01
          2   -1    0    0  501    0  0.00000000000E+00  0.00000000000E+00  0.14562621329E+04  0.14562621329E+04  0.00000000000E+00 0. -1.
         -1   -1    0    0    0  501 -0.00000000000E+00 -0.00000000000E+00 -0.34435167167E+03  0.34435167167E+03  0.00000000000E+00 0.  1.
         24    2    1    2    0    0  0.11802948969E+03  0.53968960542E+02  0.82882702095E+03  0.84272606308E+03  0.79933582391E+02 0.  0.
        254    2    1    2    0    0 -0.11802948969E+03 -0.53968960542E+02  0.28308344030E+03  0.95788774151E+03  0.90585268229E+03 0.  0.
         23    2    4    4    0    0 -0.25852444114E+03  0.25079695941E+03  0.44751482545E+03  0.58150568676E+03  0.90251555209E+02 0.  0.
          4    1    3    3  502    0  0.73245700533E+02  0.50028088849E+01  0.26412352272E+03  0.27413718463E+03  0.00000000000E+00 0. -1.
         -3    1    3    3    0  502  0.44783789156E+02  0.48966151657E+02  0.56470349823E+03  0.56858887845E+03  0.00000000000E+00 0.  1.
         11    1    4    4    0    0  0.14845830758E+02 -0.71541412842E+02 -0.26626225370E+02  0.77765855745E+02  0.00000000000E+00 0.  1.
        -11    1    4    4    0    0  0.12564912069E+03 -0.23322450711E+03 -0.13780515978E+03  0.29861619901E+03  0.00000000000E+00 0. -1.
          3    1    5    5  503    0  0.76038100719E+01  0.55205715363E+01  0.11868481670E+02  0.15137882773E+02  0.00000000000E+00 0.  1.
         -3    1    5    5    0  503 -0.26612825121E+03  0.24527638788E+03  0.43564634378E+03  0.56636780398E+03  0.00000000000E+00 0. -1.
<mgrwt>
<rscale>  0 0.14162857E+04</rscale>
<asrwt>0</asrwt>
<pdfrwt beam="1">  1        2 0.22404033E+00 0.14162857E+04</pdfrwt>
<pdfrwt beam="2">  1       -1 0.52977181E-01 0.14162857E+04</pdfrwt>
<totfact> 0.53482152E+01</totfact>
</mgrwt>
</event>
<event>
12    6  0.1705838E-008  0.1582257E+04  0.7818608E-02  0.8831523E-01
         -1   -1    0    0    0  501 -0.00000000000E+00  0.00000000000E+00  0.13735762215E+04  0.13735762215E+04  0.00000000000E+00 0.  1.
          2   -1    0    0  501    0  0.00000000000E+00 -0.00000000000E+00 -0.45566015895E+03  0.45566015895E+03  0.00000000000E+00 0. -1.
         24    2    1    2    0    0  0.38595892885E+03  0.30777434944E+03  0.50587637266E+03  0.71149366808E+03  0.81381757009E+02 0.  0.
        254    2    1    2    0    0 -0.38595892885E+03 -0.30777434944E+03  0.41203968986E+03  0.11177427123E+04  0.91426621945E+03 0.  0.
         23    2    4    4    0    0 -0.40207828348E+03 -0.57080144035E+03  0.44956729880E+03  0.83715308843E+03  0.10598729620E+03 0.  0.
         23    2    4    4    0    0  0.16119354631E+02  0.26302709091E+03 -0.37527608939E+02  0.28058962391E+03  0.88764471866E+02 0.  0.
          4    1    3    3  502    0  0.21662563171E+03  0.13630662065E+03  0.30172951354E+03  0.39566002892E+03  0.00000000000E+00 0. -1.
         -3    1    3    3    0  502  0.16933329713E+03  0.17146772878E+03  0.20414685912E+03  0.31583363915E+03  0.00000000000E+00 0.  1.
         11    1    5    5    0    0 -0.37659093851E+03 -0.49252765158E+03  0.36660164791E+03  0.72027841200E+03  0.00000000000E+00 0. -1.
        -11    1    5    5    0    0 -0.25487344967E+02 -0.78273788773E+02  0.82965650890E+02  0.11687467643E+03  0.00000000000E+00 0.  1.
          3    1    6    6  503    0  0.21012758371E+02  0.21984624937E+03  0.34276697108E+01  0.22087475704E+03  0.00000000000E+00 0. -1.
         -3    1    6    6    0  503 -0.48934037393E+01  0.43180841545E+02 -0.40955278650E+02  0.59714866875E+02  0.00000000000E+00 0.  1.
<mgrwt>
<rscale>  0 0.15822566E+04</rscale>
<asrwt>0</asrwt>
<pdfrwt beam="1">  1        2 0.70101563E-01 0.15822566E+04</pdfrwt>
<pdfrwt beam="2">  1       -1 0.21131942E+00 0.15822566E+04</pdfrwt>
<totfact> 0.94784678E+00</totfact>
</mgrwt>
</event>
<event>
11    6  0.1705838E-008  0.1649509E+04  0.7818608E-02  0.8790697E-01
          2   -1    0    0  501    0  0.00000000000E+00  0.00000000000E+00  0.20928596785E+04  0.20928596785E+04  0.00000000000E+00 0. -1.
         -1   -1    0    0    0  501 -0.00000000000E+00 -0.00000000000E+00 -0.32501921173E+03  0.32501921173E+03  0.00000000000E+00 0.  1.
         24    2    1    2    0    0  0.13607826395E+02 -0.44755907844E+03  0.12010501130E+04  0.12842952148E+04  0.79990769697E+02 0.  0.
        254    2    1    2    0    0 -0.13607826395E+02  0.44755907844E+03  0.56679035379E+03  0.11335836754E+04  0.87365115601E+03 0.  0.
         23    2    4    4    0    0  0.14600046715E+03 -0.98420596868E+02 -0.57903005506E+02  0.20973597019E+03  0.98151254940E+02 0.  0.
          2    1    3    3  502    0  0.19842636019E+02 -0.30354126707E+03  0.91014352202E+03  0.95963131551E+03  0.00000000000E+00 0. -1.
         -1    1    3    3    0  502 -0.62348096239E+01 -0.14401781136E+03  0.29090659093E+03  0.32466389927E+03  0.00000000000E+00 0.  1.
         11    1    4    4    0    0  0.86944749130E+02  0.28172892832E+03  0.16096081087E+03  0.33591510994E+03  0.00000000000E+00 0.  1.
        -11    1    4    4    0    0 -0.24655304268E+03  0.26425074699E+03  0.46373254842E+03  0.58793259529E+03  0.00000000000E+00 0. -1.
          4    1    5    5  503    0  0.85572900649E+02 -0.10603915748E+03 -0.19284966392E+02  0.13761880022E+03  0.00000000000E+00 0. -1.
         -4    1    5    5    0  503  0.60427566505E+02  0.76185606103E+01 -0.38618039114E+02  0.72117169970E+02  0.00000000000E+00 0.  1.
<mgrwt>
<rscale>  0 0.16495085E+04</rscale>
<asrwt>0</asrwt>
<pdfrwt beam="1">  1        2 0.32197840E+00 0.16495085E+04</pdfrwt>
<pdfrwt beam="2">  1       -1 0.50002957E-01 0.16495085E+04</pdfrwt>
<totfact> 0.25904150E+01</totfact>
</mgrwt>
</event>
<event>
12    6  0.1705838E-008  0.2011350E+04  0.7818608E-02  0.8601333E-01
         -1   -1    0    0    0  501 -0.00000000000E+00  0.00000000000E+00  0.50040287504E+03  0.50040287504E+03  0.00000000000E+00 0.  1.
          2   -1    0    0  501    0  0.00000000000E+00 -0.00000000000E+00 -0.20211355698E+04  0.20211355698E+04  0.00000000000E+00 0. -1.
         24    2    1    2    0    0  0.54454507049E+03 -0.57181429576E+03 -0.44678364818E+03  0.91070242095E+03  0.79135002541E+02 0.  0.
        254    2    1    2    0    0 -0.54454507049E+03  0.57181429576E+03 -0.10739490466E+04  0.16108360239E+04  0.90439218183E+03 0.  0.
         23    2    4    4    0    0 -0.74537832297E+03  0.26068769337E+03 -0.57561463200E+03  0.98283386696E+03  0.10527719435E+03 0.  0.
         23    2    4    4    0    0  0.20083325248E+03  0.31112660239E+03 -0.49833441456E+03  0.62800215691E+03  0.94423314541E+02 0.  0.
          4    1    3    3  502    0  0.86108914322E+02 -0.11710345442E+03 -0.54827213843E+02  0.15535117489E+03  0.00000000000E+00 0. -1.
         -3    1    3    3    0  502  0.45843615616E+03 -0.45471084134E+03 -0.39195643433E+03  0.75535124606E+03  0.00000000000E+00 0.  1.
         11    1    5    5    0    0 -0.59877402746E+03  0.19451484674E+03 -0.40629600952E+03  0.74929487448E+03  0.00000000000E+00 0. -1.
        -11    1    5    5    0    0 -0.14660429550E+03  0.66172846623E+02 -0.16931862249E+03  0.23353899248E+03  0.00000000000E+00 0.  1.
          4    1    6    6  503    0  0.10984246391E+03  0.24851438267E+03 -0.35280814994E+03  0.44530703558E+03  0.00000000000E+00 0. -1.
         -4    1    6    6    0  503  0.90990788573E+02  0.62612219722E+02 -0.14552626462E+03  0.18269512133E+03  0.00000000000E+00 0.  1.
<mgrwt>
<rscale>  0 0.20113498E+04</rscale>
<asrwt>0</asrwt>
<pdfrwt beam="1">  1        2 0.31094393E+00 0.20113498E+04</pdfrwt>
<pdfrwt beam="2">  1       -1 0.76985058E-01 0.20113498E+04</pdfrwt>
<totfact> 0.11629057E+01</totfact>
</mgrwt>
</event>
<event>
12    6  0.1705838E-008  0.1735779E+04  0.7818608E-02  0.8741217E-01
          2   -1    0    0  501    0  0.00000000000E+00  0.00000000000E+00  0.31132455420E+04  0.31132455420E+04  0.00000000000E+00 0. -1.
         -1   -1    0    0    0  501 -0.00000000000E+00 -0.00000000000E+00 -0.24194448506E+03  0.24194448506E+03  0.00000000000E+00 0.  1.
         24    2    1    2    0    0 -0.31130766992E+03 -0.52702100189E+03  0.81983960709E+03  0.10265469751E+04  0.83654700846E+02 0.  0.
        254    2    1    2    0    0  0.31130766992E+03  0.52702100189E+03  0.20514614498E+04  0.23286430519E+04  0.91619909483E+03 0.  0.
         23    2    4    4    0    0  0.89278769668E+02  0.73878847596E+03  0.16628125368E+04  0.18254236723E+04  0.11596094191E+03 0.  0.
         23    2    4    4    0    0  0.22202890025E+03 -0.21176747407E+03  0.38864891307E+03  0.50321937963E+03  0.89663095999E+02 0.  0.
          2    1    3    3  502    0 -0.28706994295E+03 -0.42615980326E+03  0.67156997410E+03  0.84559302278E+03  0.00000000000E+00 0. -1.
         -1    1    3    3    0  502 -0.24237726970E+02 -0.10086119863E+03  0.14826963299E+03  0.18095395233E+03  0.00000000000E+00 0.  1.
         11    1    5    5    0    0  0.77913718478E+02  0.71195511186E+03  0.15283571019E+04  0.16878465747E+04  0.00000000000E+00 0.  1.
        -11    1    5    5    0    0  0.11365051190E+02  0.26833364094E+02  0.13445543482E+03  0.13757709755E+03  0.00000000000E+00 0. -1.
          4    1    6    6  503    0 -0.53635901444E+00  0.23279600970E+01  0.29316116970E+02  0.29413292801E+02  0.00000000000E+00 0. -1.
         -4    1    6    6    0  503  0.22256525927E+03 -0.21409543417E+03  0.35933279610E+03  0.47380608683E+03  0.00000000000E+00 0.  1.
<mgrwt>
<rscale>  0 0.17357795E+04</rscale>
<asrwt>0</asrwt>
<pdfrwt beam="1">  1        2 0.47896082E+00 0.17357795E+04</pdfrwt>
<pdfrwt beam="2">  1       -1 0.37222231E-01 0.17357795E+04</pdfrwt>
<totfact> 0.11131576E+01</totfact>
</mgrwt>
</event>
<event>
12    6  0.1705838E-008  0.1716824E+04  0.7818608E-02  0.8751827E-01
          2   -1    0    0  501    0  0.00000000000E+00  0.00000000000E+00  0.64082086241E+03  0.64082086241E+03  0.00000000000E+00 0. -1.
         -1   -1    0    0    0  501 -0.00000000000E+00 -0.00000000000E+00 -0.11498868784E+04  0.11498868784E+04  0.00000000000E+00 0.  1.
         24    2    1    2    0    0  0.53337176635E+03 -0.31700322910E+03 -0.24365858880E+03  0.67170031639E+03  0.82675986492E+02 0.  0.
        254    2    1    2    0    0 -0.53337176635E+03  0.31700322910E+03 -0.26540742720E+03  0.11190074244E+04  0.89261415243E+03 0.  0.
         23    2    4    4    0    0  0.73073182846E+02 -0.19090778896E+03 -0.22240735964E+03  0.32163488997E+03  0.11044679666E+03 0.  0.
         23    2    4    4    0    0 -0.60644494920E+03  0.50791101806E+03 -0.43000067567E+02  0.79737253446E+03  0.90580760801E+02 0.  0.
          4    1    3    3  502    0  0.42113400544E+03 -0.22241035575E+03 -0.15815535418E+03  0.50182998410E+03  0.00000000000E+00 0. -1.
         -3    1    3    3    0  502  0.11223776091E+03 -0.94592873353E+02 -0.85503234618E+02  0.16987033229E+03  0.00000000000E+00 0.  1.
         11    1    5    5    0    0  0.63922340546E+02 -0.34167537397E+02 -0.94662243095E+02  0.11922426976E+03  0.00000000000E+00 0.  1.
        -11    1    5    5    0    0  0.91508422996E+01 -0.15674025156E+03 -0.12774511654E+03  0.20241062021E+03  0.00000000000E+00 0. -1.
          4    1    6    6  503    0 -0.18169078237E+03  0.19420599082E+03 -0.42568207111E+02  0.26933169053E+03  0.00000000000E+00 0. -1.
         -4    1    6    6    0  503 -0.42475416683E+03  0.31370502724E+03 -0.43186045625E+00  0.52804084393E+03  0.00000000000E+00 0.  1.
<mgrwt>
<rscale>  0 0.17168244E+04</rscale>
<asrwt>0</asrwt>
<pdfrwt beam="1">  1        2 0.98587825E-01 0.17168244E+04</pdfrwt>
<pdfrwt beam="2">  1       -1 0.17690567E+00 0.17168244E+04</pdfrwt>
<totfact> 0.10881238E+01</totfact>
</mgrwt>
</event>
<event>
11    6  0.1705838E-008  0.1338075E+04  0.7818608E-02  0.8999904E-01
         -1   -1    0    0    0  501 -0.00000000000E+00  0.00000000000E+00  0.21927961541E+03  0.21927961541E+03  0.00000000000E+00 0.  1.
          2   -1    0    0  501    0  0.00000000000E+00 -0.00000000000E+00 -0.20412818335E+04  0.20412818335E+04  0.00000000000E+00 0. -1.
         24    2    1    2    0    0 -0.10266500226E+02 -0.15782889215E+03  0.41178709049E+02  0.18227138358E+03  0.80695792760E+02 0.  0.
        254    2    1    2    0    0  0.10266500226E+02  0.15782889215E+03 -0.18631809271E+04  0.20782900653E+04  0.90710036276E+03 0.  0.
         23    2    4    4    0    0 -0.35192707275E+02 -0.14287558540E+02  0.80932662046E+02  0.12065974680E+03  0.81030967774E+02 0.  0.
          4    1    3    3  502    0  0.14578772414E+02  0.27557316207E+01  0.93206925353E+00  0.14866183605E+02  0.00000000000E+00 0. -1.
         -3    1    3    3    0  502 -0.24845272640E+02 -0.16058462377E+03  0.40246639796E+02  0.16740519998E+03  0.00000000000E+00 0.  1.
         11    1    4    4    0    0 -0.65273235609E+01 -0.12236695542E+02 -0.22068034009E+02  0.26064166890E+02  0.00000000000E+00 0. -1.
        -11    1    4    4    0    0  0.51986531061E+02  0.18435314623E+03 -0.19220455552E+04  0.19315661516E+04  0.00000000000E+00 0.  1.
          3    1    5    5  503    0  0.22250865997E+02 -0.84643995751E+01  0.34876602863E+01  0.24060566744E+02  0.00000000000E+00 0. -1.
         -3    1    5    5    0  503 -0.57443573271E+02 -0.58231589653E+01  0.77445001759E+02  0.96599180059E+02  0.00000000000E+00 0.  1.
<mgrwt>
<rscale>  0 0.13380755E+04</rscale>
<asrwt>0</asrwt>
<pdfrwt beam="1">  1        2 0.31404336E+00 0.13380755E+04</pdfrwt>
<pdfrwt beam="2">  1       -1 0.33735325E-01 0.13380755E+04</pdfrwt>
<totfact> 0.58542670E+01</totfact>
</mgrwt>
</event>
<event>
11    6  0.1705838E-008  0.2732895E+04  0.7818608E-02  0.8324410E-01
          2   -1    0    0  501    0  0.00000000000E+00  0.00000000000E+00  0.12090911222E+04  0.12090911222E+04  0.00000000000E+00 0. -1.
         -1   -1    0    0    0  501 -0.00000000000E+00 -0.00000000000E+00 -0.15442827136E+04  0.15442827136E+04  0.00000000000E+00 0.  1.
         24    2    1    2    0    0 -0.17431827501E+03 -0.39801014063E+03  0.99608329989E+03  0.10896374695E+04  0.79554645706E+02 0.  0.
        254    2    1    2    0    0  0.17431827501E+03  0.39801014063E+03 -0.13312748913E+04  0.16637363662E+04  0.89829111489E+03 0.  0.
         23    2    4    4    0    0  0.19211057558E+03  0.58385577718E+03 -0.10677443093E+04  0.12353881416E+04  0.91169669107E+02 0.  0.
          4    1    3    3  502    0 -0.14176611569E+03 -0.35113158289E+03  0.91701880809E+03  0.99212625933E+03  0.00000000000E+00 0. -1.
         -3    1    3    3    0  502 -0.32552159325E+02 -0.46878557742E+02  0.79064491791E+02  0.97511210201E+02  0.00000000000E+00 0.  1.
         11    1    4    4    0    0  0.85045385511E+02 -0.11664109832E+03 -0.82785126008E+01  0.14459044638E+03  0.00000000000E+00 0.  1.
        -11    1    4    4    0    0 -0.10283768608E+03 -0.69204538222E+02 -0.25525206937E+03  0.28375777823E+03  0.00000000000E+00 0. -1.
          3    1    5    5  503    0  0.15430118831E+03  0.51650515816E+03 -0.98013431025E+03  0.11185927325E+04  0.00000000000E+00 0.  1.
         -3    1    5    5    0  503  0.37809387277E+02  0.67350619013E+02 -0.87609999052E+02  0.11679540908E+03  0.00000000000E+00 0. -1.
<mgrwt>
<rscale>  0 0.27328948E+04</rscale>
<asrwt>0</asrwt>
<pdfrwt beam="1">  1        2 0.18601402E+00 0.27328948E+04</pdfrwt>
<pdfrwt beam="2">  1       -1 0.23758195E+00 0.27328948E+04</pdfrwt>
<totfact> 0.15682877E+00</totfact>
</mgrwt>
</event>
<event>
12    6  0.1705838E-008  0.2655491E+04  0.7818608E-02  0.8349593E-01
          2   -1    0    0  501    0  0.00000000000E+00  0.00000000000E+00  0.22657336346E+04  0.22657336346E+04  0.00000000000E+00 0. -1.
         -1   -1    0    0    0  501 -0.00000000000E+00 -0.00000000000E+00 -0.77807385501E+03  0.77807385501E+03  0.00000000000E+00 0.  1.
         24    2    1    2    0    0 -0.47623251582E+03 -0.64836457811E+03  0.16363418569E+04  0.18252910846E+04  0.83059231435E+02 0.  0.
        254    2    1    2    0    0  0.47623251582E+03  0.64836457811E+03 -0.14868207727E+03  0.12185164050E+04  0.90305140153E+03 0.  0.
         23    2    4    4    0    0  0.32264341264E+03 -0.12425487026E+03 -0.21580648150E+03  0.42268881059E+03  0.11205065209E+03 0.  0.
         23    2    4    4    0    0  0.15358910318E+03  0.77261944837E+03  0.67124404227E+02  0.79582759438E+03  0.91134240082E+02 0.  0.
          4    1    3    3  502    0 -0.45405503988E+03 -0.61523989167E+03  0.15889526520E+04  0.17633651448E+04  0.00000000000E+00 0. -1.
         -3    1    3    3    0  502 -0.22177475943E+02 -0.33124686435E+02  0.47389204830E+02  0.61925939840E+02  0.00000000000E+00 0.  1.
         11    1    5    5    0    0  0.31348448426E+02 -0.22513122590E+02  0.10551562382E+02  0.40011265616E+02  0.00000000000E+00 0. -1.
        -11    1    5    5    0    0  0.29129496421E+03 -0.10174174767E+03 -0.22635804388E+03  0.38267754497E+03  0.00000000000E+00 0.  1.
          4    1    6    6  503    0  0.45055975879E+02  0.16456573252E+03  0.50505000108E+02  0.17794009194E+03  0.00000000000E+00 0. -1.
         -4    1    6    6    0  503  0.10853312730E+03  0.60805371585E+03  0.16619404119E+02  0.61788750244E+03  0.00000000000E+00 0.  1.
<mgrwt>
<rscale>  0 0.26554910E+04</rscale>
<asrwt>0</asrwt>
<pdfrwt beam="1">  1        2 0.34857440E+00 0.26554910E+04</pdfrwt>
<pdfrwt beam="2">  1       -1 0.11970367E+00 0.26554910E+04</pdfrwt>
<totfact> 0.29566620E+00</totfact>
</mgrwt>
</event>
<event>
12    6  0.1705838E-008  0.1660533E+04  0.7818608E-02  0.8784200E-01
         -1   -1    0    0    0  501 -0.00000000000E+00  0.00000000000E+00  0.28347760770E+03  0.28347760770E+03  0.00000000000E+00 0.  1.
          2   -1    0    0  501    0  0.00000000000E+00 -0.00000000000E+00 -0.24317341831E+04  0.24317341831E+04  0.00000000000E+00 0. -1.
         24    2    1    2    0    0  0.13317472413E+03 -0.11813443521E+02  0.16510431376E+03  0.22708330166E+03  0.80201788495E+02 0.  0.
        254    2    1    2    0    0 -0.13317472413E+03  0.11813443521E+02 -0.23133608891E+04  0.24881284891E+04  0.90623932293E+03 0.  0.
         23    2    4    4    0    0 -0.33016995635E+03  0.31378876727E+03 -0.77364729180E+03  0.90415419829E+03  0.10718718033E+03 0.  0.
         23    2    4    4    0    0  0.19699523222E+03 -0.30197532375E+03 -0.15397135973E+04  0.15839742908E+04  0.90886602680E+02 0.  0.
          2    1    3    3  502    0 -0.20573723402E+01  0.17383041825E+02  0.20511451601E+02  0.26965210379E+02  0.00000000000E+00 0. -1.
         -1    1    3    3    0  502  0.13523209647E+03 -0.29196485346E+02  0.14459286215E+03  0.20011809128E+03  0.00000000000E+00 0.  1.
         11    1    5    5    0    0 -0.61522964467E+02  0.16821876382E+02 -0.71285168056E+02  0.95653676702E+02  0.00000000000E+00 0. -1.
        -11    1    5    5    0    0 -0.26864699189E+03  0.29696689089E+03 -0.70236212374E+03  0.80850052159E+03  0.00000000000E+00 0.  1.
          2    1    6    6  503    0  0.12716669642E+03 -0.11433909193E+03 -0.75468409077E+03  0.77381708012E+03  0.00000000000E+00 0. -1.
         -2    1    6    6    0  503  0.69828535804E+02 -0.18763623182E+03 -0.78502950655E+03  0.81015721071E+03  0.00000000000E+00 0.  1.
<mgrwt>
<rscale>  0 0.16605327E+04</rscale>
<asrwt>0</asrwt>
<pdfrwt beam="1">  1        2 0.37411296E+00 0.16605327E+04</pdfrwt>
<pdfrwt beam="2">  1       -1 0.43611939E-01 0.16605327E+04</pdfrwt>
<totfact> 0.21545690E+01</totfact>
</mgrwt>
</event>
<event>
12    6  0.1705838E-008  0.1339227E+04  0.7818608E-02  0.8999023E-01
          2   -1    0    0  501    0  0.00000000000E+00  0.00000000000E+00  0.11024475065E+04  0.11024475065E+04  0.00000000000E+00 0. -1.
         -1   -1    0    0    0  501 -0.00000000000E+00 -0.00000000000E+00 -0.40671538393E+03  0.40671538393E+03  0.00000000000E+00 0.  1.
         24    2    1    2    0    0 -0.22794517517E+03 -0.16909503631E+02  0.49943454280E+03  0.55535203410E+03  0.82073656187E+02 0.  0.
        254    2    1    2    0    0  0.22794517517E+03  0.16909503631E+02  0.19629757979E+03  0.95381085635E+03  0.90497374308E+03 0.  0.
         23    2    4    4    0    0  0.10917286816E+03 -0.32440361410E+03 -0.20486061254E+03  0.40616252529E+03  0.76444139048E+02 0.  0.
         23    2    4    4    0    0  0.11877230701E+03  0.34131311773E+03  0.40115819233E+03  0.54764833106E+03  0.91593089201E+02 0.  0.
          2    1    3    3  502    0 -0.17401241472E+03 -0.26908837644E+02  0.44272390003E+03  0.47645446548E+03  0.00000000000E+00 0. -1.
         -1    1    3    3    0  502 -0.53932760447E+02  0.99993340133E+01  0.56710642772E+02  0.78897568618E+02  0.00000000000E+00 0.  1.
         11    1    5    5    0    0  0.52148323548E+02 -0.21149926749E+03 -0.16588748907E+03  0.27380658653E+03  0.00000000000E+00 0.  1.
        -11    1    5    5    0    0  0.57024544607E+02 -0.11290434661E+03 -0.38973123471E+02  0.13235593876E+03  0.00000000000E+00 0. -1.
          1    1    6    6  503    0  0.70497119451E+02  0.16382323585E+03  0.13304652668E+03  0.22250679701E+03  0.00000000000E+00 0. -1.
         -1    1    6    6    0  503  0.48275187560E+02  0.17748988189E+03  0.26811166565E+03  0.32514153405E+03  0.00000000000E+00 0.  1.
<mgrwt>
<rscale>  0 0.13392272E+04</rscale>
<asrwt>0</asrwt>
<pdfrwt beam="1">  1        2 0.16960731E+00 0.13392272E+04</pdfrwt>
<pdfrwt beam="2">  1       -1 0.62571598E-01 0.13392272E+04</pdfrwt>
<totfact> 0.62704229E+01</totfact>
</mgrwt>
</event>
<event>
12    6  0.1705838E-008  0.1641152E+04  0.7818608E-02  0.8795658E-01
          2   -1    0    0  501    0  0.00000000000E+00  0.00000000000E+00  0.50890681678E+03  0.50890681678E+03  0.00000000000E+00 0. -1.
         -1   -1    0    0    0  501 -0.00000000000E+00 -0.00000000000E+00 -0.13231199394E+04  0.13231199394E+04  0.00000000000E+00 0.  1.
         24    2    1    2    0    0 -0.33987525665E+03 -0.12388901532E+03 -0.78510373499E+03  0.86804059182E+03  0.79012126578E+02 0.  0.
        254    2    1    2    0    0  0.33987525665E+03  0.12388901532E+03 -0.29109387637E+02  0.96398616437E+03  0.89306119076E+03 0.  0.
         23    2    4    4    0    0  0.62855501759E+03  0.89570932933E+02  0.53650835204E+02  0.64678687445E+03  0.11113274353E+03 0.  0.
         23    2    4    4    0    0 -0.28867976094E+03  0.34318082389E+02 -0.82760222841E+02  0.31719928992E+03  0.96189395906E+02 0.  0.
          2    1    3    3  502    0 -0.10920173725E+02  0.22911397487E+01 -0.53303512020E+01  0.12365765624E+02  0.00000000000E+00 0. -1.
         -1    1    3    3    0  502 -0.32895508293E+03 -0.12618015507E+03 -0.77977338379E+03  0.85567482620E+03  0.00000000000E+00 0.  1.
         11    1    5    5    0    0  0.52042503530E+03  0.81340193575E+02  0.21770053920E+01  0.52674774210E+03  0.00000000000E+00 0.  1.
        -11    1    5    5    0    0  0.10812998229E+03  0.82307393588E+01  0.51473829812E+02  0.12003913235E+03  0.00000000000E+00 0. -1.
          3    1    6    6  503    0 -0.18360688350E+02  0.14578925796E+02  0.16377517410E+02  0.28598654349E+02  0.00000000000E+00 0. -1.
         -3    1    6    6    0  503 -0.27031907259E+03  0.19739156593E+02 -0.99137740252E+02  0.28860063557E+03  0.00000000000E+00 0.  1.
<mgrwt>
<rscale>  0 0.16411517E+04</rscale>
<asrwt>0</asrwt>
<pdfrwt beam="1">  1        2 0.78293357E-01 0.16411517E+04</pdfrwt>
<pdfrwt beam="2">  1       -1 0.20355691E+00 0.16411517E+04</pdfrwt>
<totfact> 0.93744286E+00</totfact>
</mgrwt>
</event>
<event>
12    6  0.1705838E-008  0.2332620E+04  0.7818608E-02  0.8465169E-01
         -1   -1    0    0    0  501 -0.00000000000E+00  0.00000000000E+00  0.46934256304E+03  0.46934256304E+03  0.00000000000E+00 0.  1.
          2   -1    0    0  501    0  0.00000000000E+00 -0.00000000000E+00 -0.28982659503E+04  0.28982659503E+04  0.00000000000E+00 0. -1.
         24    2    1    2    0    0  0.41706430729E+03 -0.61011248813E+03 -0.19056114263E+04  0.20449819562E+04  0.66456065950E+02 0.  0.
        254    2    1    2    0    0 -0.41706430729E+03  0.61011248813E+03 -0.52331196102E+03  0.13226265572E+04  0.96400503970E+03 0.  0.
         23    2    4    4    0    0 -0.92120152182E+02 -0.25217306899E+03 -0.19755764170E+03  0.34098118738E+03  0.71845453519E+02 0.  0.
         23    2    4    4    0    0 -0.32494415511E+03  0.86228555712E+03 -0.32575431932E+03  0.98164536977E+03  0.91578761123E+02 0.  0.
          2    1    3    3  502    0  0.26617390342E+03 -0.42628213769E+03 -0.12285817326E+04  0.13273952243E+04  0.00000000000E+00 0. -1.
         -1    1    3    3    0  502  0.15089040387E+03 -0.18383035044E+03 -0.67702969368E+03  0.71758673193E+03  0.00000000000E+00 0.  1.
         11    1    5    5    0    0 -0.62847502234E+02 -0.12977558530E+03 -0.64897422224E+02  0.15812395925E+03  0.00000000000E+00 0. -1.
        -11    1    5    5    0    0 -0.29272649948E+02 -0.12239748369E+03 -0.13266021948E+03  0.18285722814E+03  0.00000000000E+00 0.  1.
          3    1    6    6  503    0 -0.10909165823E+03  0.19758835498E+03 -0.10337577967E+03  0.24825128346E+03  0.00000000000E+00 0. -1.
         -3    1    6    6    0  503 -0.21585249688E+03  0.66469720214E+03 -0.22237853965E+03  0.73339408631E+03  0.00000000000E+00 0.  1.
<mgrwt>
<rscale>  0 0.23326205E+04</rscale>
<asrwt>0</asrwt>
<pdfrwt beam="1">  1        2 0.44588707E+00 0.23326205E+04</pdfrwt>
<pdfrwt beam="2">  1       -1 0.72206547E-01 0.23326205E+04</pdfrwt>
<totfact> 0.40107981E+00</totfact>
</mgrwt>
</event>
<event>
11    6  0.1705838E-008  0.2752732E+04  0.7818608E-02  0.8318095E-01
          2   -1    0    0  501    0  0.00000000000E+00  0.00000000000E+00  0.12559371541E+04  0.12559371541E+04  0.00000000000E+00 0. -1.
         -1   -1    0    0    0  501 -0.00000000000E+00 -0.00000000000E+00 -0.15083423956E+04  0.15083423956E+04  0.00000000000E+00 0.  1.
         24    2    1    2    0    0  0.26202885061E+03  0.95624365595E+03 -0.82835222422E+03  0.12945351486E+04  0.81196031955E+02 0.  0.
        254    2    1    2    0    0 -0.26202885061E+03 -0.95624365595E+03  0.57594698269E+03  0.14697444010E+04  0.91944147683E+03 0.  0.
         23    2    4    4    0    0 -0.38819101278E+03 -0.90265226497E+03  0.25636019161E+03  0.10193932049E+04  0.89266928316E+02 0.  0.
          4    1    3    3  502    0  0.45407730879E+02  0.87748527222E+02 -0.66361832687E+02  0.11901915346E+03  0.00000000000E+00 0. -1.
         -3    1    3    3    0  502  0.21662111973E+03  0.86849512873E+03 -0.76199039153E+03  0.11755159952E+04  0.00000000000E+00 0.  1.
         11    1    4    4    0    0 -0.88414045260E+02 -0.36894546663E+02  0.59561560817E+02  0.11280882279E+03  0.00000000000E+00 0. -1.
        -11    1    4    4    0    0  0.21457620744E+03 -0.16696844313E+02  0.26002523026E+03  0.33754237331E+03  0.00000000000E+00 0.  1.
          2    1    5    5  503    0 -0.49240695657E+02 -0.20673381773E+03  0.59048524577E+02  0.22056800710E+03  0.00000000000E+00 0. -1.
         -2    1    5    5    0  503 -0.33895031712E+03 -0.69591844724E+03  0.19731166704E+03  0.79882519780E+03  0.00000000000E+00 0.  1.
<mgrwt>
<rscale>  0 0.27527319E+04</rscale>
<asrwt>0</asrwt>
<pdfrwt beam="1">  1        2 0.19322110E+00 0.27527319E+04</pdfrwt>
<pdfrwt beam="2">  1       -1 0.23205267E+00 0.27527319E+04</pdfrwt>
<totfact> 0.15974024E+00</totfact>
</mgrwt>
</event>
<event>
11    6  0.1705838E-008  0.1319311E+04  0.7818608E-02  0.9014390E-01
         -1   -1    0    0    0  501 -0.00000000000E+00  0.00000000000E+00  0.45330734004E+03  0.45330734004E+03  0.00000000000E+00 0.  1.
          2   -1    0    0  501    0  0.00000000000E+00 -0.00000000000E+00 -0.95993388293E+03  0.95993388293E+03  0.00000000000E+00 0. -1.
         24    2    1    2    0    0  0.15990949595E+03 -0.26513657622E+03  0.29488463675E+02  0.32051109058E+03  0.77390818266E+02 0.  0.
        254    2    1    2    0    0 -0.15990949595E+03  0.26513657622E+03 -0.53611500657E+03  0.10927301324E+04  0.90042844859E+03 0.  0.
         23    2    4    4    0    0 -0.13125716838E+03 -0.10432260099E+03 -0.63325382959E+03  0.66237030845E+03  0.98042661616E+02 0.  0.
          4    1    3    3  502    0  0.39954963503E+02 -0.23312517040E+02  0.20018134283E+02  0.50404347624E+02  0.00000000000E+00 0. -1.
         -3    1    3    3    0  502  0.11995453245E+03 -0.24182405918E+03  0.94703293921E+01  0.27010674296E+03  0.00000000000E+00 0.  1.
         11    1    4    4    0    0 -0.57484344717E+02  0.40522419140E+02 -0.30090809836E+02  0.76498190679E+02  0.00000000000E+00 0.  1.
        -11    1    4    4    0    0  0.28832017142E+02  0.32893675807E+03  0.12722963286E+03  0.35386163327E+03  0.00000000000E+00 0. -1.
          2    1    5    5  503    0 -0.10193180583E+03 -0.47360032907E+02 -0.52221606525E+03  0.53417476968E+03  0.00000000000E+00 0. -1.
         -2    1    5    5    0  503 -0.29325362544E+02 -0.56962568081E+02 -0.11103776434E+03  0.12819553877E+03  0.00000000000E+00 0.  1.
<mgrwt>
<rscale>  0 0.13193105E+04</rscale>
<asrwt>0</asrwt>
<pdfrwt beam="1">  1        2 0.14768213E+00 0.13193105E+04</pdfrwt>
<pdfrwt beam="2">  1       -1 0.69739592E-01 0.13193105E+04</pdfrwt>
<totfact> 0.62116317E+01</totfact>
</mgrwt>
</event>
<event>
12    6  0.1705838E-008  0.1575545E+04  0.7818608E-02  0.8835714E-01
          2   -1    0    0  501    0  0.00000000000E+00  0.00000000000E+00  0.88551722143E+03  0.88551722143E+03  0.00000000000E+00 0. -1.
         -1   -1    0    0    0  501 -0.00000000000E+00 -0.00000000000E+00 -0.70081727506E+03  0.70081727506E+03  0.00000000000E+00 0.  1.
         24    2    1    2    0    0 -0.12575750339E+03  0.41645125178E+03 -0.21352044726E+03  0.49113803922E+03  0.79868625928E+02 0.  0.
        254    2    1    2    0    0  0.12575750339E+03 -0.41645125178E+03  0.39822039362E+03  0.10951964573E+04  0.92283758232E+03 0.  0.
         23    2    4    4    0    0 -0.20711930565E+03  0.17153758259E+03  0.29720483560E+03  0.40587904424E+03  0.63902544834E+02 0.  0.
         23    2    4    4    0    0  0.33287680903E+03 -0.58798883437E+03  0.10101555802E+03  0.68931741303E+03  0.91741558750E+02 0.  0.
          2    1    3    3  502    0 -0.82057810392E+02  0.32359310112E+03 -0.12794419063E+03  0.35751320991E+03  0.00000000000E+00 0. -1.
         -1    1    3    3    0  502 -0.43699692995E+02  0.92858150653E+02 -0.85576256633E+02  0.13362482932E+03  0.00000000000E+00 0.  1.
         11    1    5    5    0    0 -0.94055940948E+02  0.11787909149E+03  0.17406977786E+03  0.23030911359E+03  0.00000000000E+00 0. -1.
        -11    1    5    5    0    0 -0.11306336470E+03  0.53658491105E+02  0.12313505774E+03  0.17556993065E+03  0.00000000000E+00 0.  1.
          1    1    6    6  503    0  0.56317357368E+02 -0.18046101266E+03  0.18538645593E+02  0.18995131801E+03  0.00000000000E+00 0. -1.
         -1    1    6    6    0  503  0.27655945166E+03 -0.40752782171E+03  0.82476912429E+02  0.49936609502E+03  0.00000000000E+00 0.  1.
<mgrwt>
<rscale>  0 0.15755453E+04</rscale>
<asrwt>0</asrwt>
<pdfrwt beam="1">  1        2 0.13623342E+00 0.15755453E+04</pdfrwt>
<pdfrwt beam="2">  1       -1 0.10781804E+00 0.15755453E+04</pdfrwt>
<totfact> 0.26323449E+01</totfact>
</mgrwt>
</event>
<event>
11    6  0.1705838E-008  0.1772770E+04  0.7818608E-02  0.8720915E-01
         -1   -1    0    0    0  501 -0.00000000000E+00  0.00000000000E+00  0.26590112316E+03  0.26590112316E+03  0.00000000000E+00 0.  1.
          2   -1    0    0  501    0  0.00000000000E+00 -0.00000000000E+00 -0.29547775358E+04  0.29547775358E+04  0.00000000000E+00 0. -1.
         24    2    1    2    0    0  0.26764833816E+03 -0.63641599725E+03 -0.11723084319E+04  0.13628390890E+04  0.79764456145E+02 0.  0.
        254    2    1    2    0    0 -0.26764833816E+03  0.63641599725E+03 -0.15165679807E+04  0.18578395700E+04  0.82154030521E+03 0.  0.
         23    2    4    4    0    0 -0.42053854796E+03  0.12508366251E+03 -0.36580545875E+03  0.57888271558E+03  0.93770847299E+02 0.  0.
          2    1    3    3  502    0  0.18513812938E+03 -0.40851568601E+03 -0.82966147700E+03  0.94313273673E+03  0.00000000000E+00 0. -1.
         -1    1    3    3    0  502  0.82510208778E+02 -0.22790031124E+03 -0.34264695487E+03  0.41970635222E+03  0.00000000000E+00 0.  1.
         11    1    4    4    0    0  0.58908826957E+01  0.88312205393E+01  0.37638192598E+01  0.11263182968E+02  0.00000000000E+00 0. -1.
        -11    1    4    4    0    0  0.14699932710E+03  0.50250111420E+03 -0.11545263412E+04  0.12676936714E+04  0.00000000000E+00 0.  1.
          1    1    5    5  503    0 -0.12552345158E+03  0.65525045913E+02 -0.74381073483E+02  0.15994440482E+03  0.00000000000E+00 0. -1.
         -1    1    5    5    0  503 -0.29501509638E+03  0.59558616598E+02 -0.29142438527E+03  0.41893831077E+03  0.00000000000E+00 0.  1.
<mgrwt>
<rscale>  0 0.17727703E+04</rscale>
<asrwt>0</asrwt>
<pdfrwt beam="1">  1        2 0.45458115E+00 0.17727703E+04</pdfrwt>
<pdfrwt beam="2">  1       -1 0.40907866E-01 0.17727703E+04</pdfrwt>
<totfact> 0.11743579E+01</totfact>
</mgrwt>
</event>
<event>
12    6  0.1705838E-008  0.2406401E+04  0.7818608E-02  0.8437111E-01
         -1   -1    0    0    0  501 -0.00000000000E+00  0.00000000000E+00  0.13878351954E+04  0.13878351954E+04  0.00000000000E+00 0.  1.
          2   -1    0    0  501    0  0.00000000000E+00 -0.00000000000E+00 -0.10431294864E+04  0.10431294864E+04  0.00000000000E+00 0. -1.
         24    2    1    2    0    0 -0.29028464287E+03 -0.37790360506E+03  0.10748352976E+04  0.11784391469E+04  0.79822286704E+02 0.  0.
        254    2    1    2    0    0  0.29028464287E+03  0.37790360506E+03 -0.73012958860E+03  0.12525255349E+04  0.89925229544E+03 0.  0.
         23    2    4    4    0    0  0.31920990052E+02 -0.14156765851E+03  0.11330649673E+03  0.22452906370E+03  0.12850909190E+03 0.  0.
         23    2    4    4    0    0  0.25836365282E+03  0.51947126357E+03 -0.84343608533E+03  0.10279964712E+04  0.93755767884E+02 0.  0.
          2    1    3    3  502    0 -0.14745246941E+02 -0.35074268027E+01  0.15922157620E+02  0.21982708054E+02  0.00000000000E+00 0. -1.
         -1    1    3    3    0  502 -0.27553939593E+03 -0.37439617826E+03  0.10589131400E+04  0.11564564389E+04  0.00000000000E+00 0.  1.
         11    1    5    5    0    0  0.40324469752E+02 -0.11691734024E+03  0.14029414777E+03  0.18702453103E+03  0.00000000000E+00 0.  1.
        -11    1    5    5    0    0 -0.84034796996E+01 -0.24650318270E+02 -0.26987651038E+02  0.37504532665E+02  0.00000000000E+00 0. -1.
          3    1    6    6  503    0  0.12968731454E+03  0.31619498004E+03 -0.42540951110E+03  0.54568426502E+03  0.00000000000E+00 0. -1.
         -3    1    6    6    0  503  0.12867633828E+03  0.20327628353E+03 -0.41802657423E+03  0.48231220619E+03  0.00000000000E+00 0.  1.
<mgrwt>
<rscale>  0 0.24064013E+04</rscale>
<asrwt>0</asrwt>
<pdfrwt beam="1">  1        2 0.16048146E+00 0.24064013E+04</pdfrwt>
<pdfrwt beam="2">  1       -1 0.21351311E+00 0.24064013E+04</pdfrwt>
<totfact> 0.29482548E+00</totfact>
</mgrwt>
</event>
<event>
11    6  0.1705838E-008  0.1875962E+04  0.7818608E-02  0.8666915E-01
          2   -1    0    0  501    0  0.00000000000E+00  0.00000000000E+00  0.13771931634E+04  0.13771931634E+04  0.00000000000E+00 0. -1.
         -1   -1    0    0    0  501 -0.00000000000E+00 -0.00000000000E+00 -0.63884169723E+03  0.63884169723E+03  0.00000000000E+00 0.  1.
         24    2    1    2    0    0  0.32549793467E+03  0.82703881093E+02  0.94719562911E+03  0.10081295832E+04  0.79729914300E+02 0.  0.
        254    2    1    2    0    0 -0.32549793467E+03 -0.82703881093E+02 -0.20884416289E+03  0.10079052775E+04  0.92707514616E+03 0.  0.
         23    2    4    4    0    0 -0.39462564606E+03  0.57596441952E+02  0.25195826629E+03  0.48024913489E+03  0.90052834240E+02 0.  0.
          4    1    3    3  502    0  0.25313448314E+03  0.36179119703E+02  0.64227766611E+03  0.69130788774E+03  0.00000000000E+00 0. -1.
         -3    1    3    3    0  502  0.72363451530E+02  0.46524761390E+02  0.30491796300E+03  0.31682169543E+03  0.00000000000E+00 0.  1.
         11    1    4    4    0    0 -0.51145023856E+02  0.16513531607E+02 -0.15005831407E+03  0.15939262158E+03  0.00000000000E+00 0. -1.
        -11    1    4    4    0    0  0.12027273524E+03 -0.15681385465E+03 -0.31074411511E+03  0.36826352104E+03  0.00000000000E+00 0.  1.
          3    1    5    5  503    0 -0.72269931309E+02  0.28311423643E+02  0.88232956997E+02  0.11751397526E+03  0.00000000000E+00 0. -1.
         -3    1    5    5    0  503 -0.32235571475E+03  0.29285018309E+02  0.16372530930E+03  0.36273515963E+03  0.00000000000E+00 0.  1.
<mgrwt>
<rscale>  0 0.18759621E+04</rscale>
<asrwt>0</asrwt>
<pdfrwt beam="1">  1        2 0.21187587E+00 0.18759621E+04</pdfrwt>
<pdfrwt beam="2">  1       -1 0.98283338E-01 0.18759621E+04</pdfrwt>
<totfact> 0.15815775E+01</totfact>
</mgrwt>
</event>
<event>
12    6  0.1705838E-008  0.2242773E+04  0.7818608E-02  0.8500833E-01
          2   -1    0    0  501    0  0.00000000000E+00  0.00000000000E+00  0.23698400740E+04  0.23698400740E+04  0.00000000000E+00 0. -1.
         -1   -1    0    0    0  501 -0.00000000000E+00 -0.00000000000E+00 -0.53062992834E+03  0.53062992834E+03  0.00000000000E+00 0.  1.
         24    2    1    2    0    0 -0.42893211645E+02 -0.11983547986E+03 -0.42992870870E+03  0.45529707116E+03  0.79097146645E+02 0.  0.
        254    2    1    2    0    0  0.42893211645E+02  0.11983547986E+03  0.22691388544E+04  0.24451729312E+04  0.90204165825E+03 0.  0.
         23    2    4    4    0    0  0.98561749278E+02  0.32004918360E+03  0.29982342941E+03  0.46276935809E+03  0.11007039395E+03 0.  0.
         23    2    4    4    0    0 -0.55668537633E+02 -0.20021370374E+03  0.19693154250E+04  0.19824035731E+04  0.92391397951E+02 0.  0.
          2    1    3    3  502    0  0.15808075184E+02  0.70645552276E-01 -0.58734842980E+02  0.60825011399E+02  0.00000000000E+00 0. -1.
         -1    1    3    3    0  502 -0.58701286829E+02 -0.11990612541E+03 -0.37119386572E+03  0.39447205976E+03  0.00000000000E+00 0.  1.
         11    1    5    5    0    0  0.94040164417E+02  0.21560953269E+03  0.26074099922E+03  0.35116504920E+03  0.00000000000E+00 0. -1.
        -11    1    5    5    0    0  0.45215848604E+01  0.10443965092E+03  0.39082430187E+02  0.11160430889E+03  0.00000000000E+00 0.  1.
          3    1    6    6  503    0 -0.75650416728E+02 -0.13004662995E+03  0.14885907995E+04  0.14961743481E+04  0.00000000000E+00 0. -1.
         -3    1    6    6    0  503  0.19981879096E+02 -0.70167073795E+02  0.48072462545E+03  0.48622922500E+03  0.00000000000E+00 0.  1.
<mgrwt>
<rscale>  0 0.22427733E+04</rscale>
<asrwt>0</asrwt>
<pdfrwt beam="1">  1        2 0.36459078E+00 0.22427733E+04</pdfrwt>
<pdfrwt beam="2">  1       -1 0.81635374E-01 0.22427733E+04</pdfrwt>
<totfact> 0.64045414E+00</totfact>
</mgrwt>
</event>
<event>
12    6  0.1705838E-008  0.2077707E+04  0.7818608E-02  0.8571128E-01
          2   -1    0    0  501    0  0.00000000000E+00  0.00000000000E+00  0.19898273597E+04  0.19898273597E+04  0.00000000000E+00 0. -1.
         -1   -1    0    0    0  501 -0.00000000000E+00 -0.00000000000E+00 -0.54236701519E+03  0.54236701519E+03  0.00000000000E+00 0.  1.
         24    2    1    2    0    0 -0.41122147423E+03  0.68431732355E+03  0.92023567154E+03  0.12207089452E+04  0.76833179702E+02 0.  0.
        254    2    1    2    0    0  0.41122147423E+03 -0.68431732355E+03  0.52722467296E+03  0.13114854297E+04  0.89701442372E+03 0.  0.
         23    2    4    4    0    0  0.18173334996E+03 -0.22572253051E+03 -0.24166000816E+03  0.38290649900E+03  0.65116481562E+02 0.  0.
         23    2    4    4    0    0  0.22948812427E+03 -0.45859479304E+03  0.76888468112E+03  0.92857893070E+03  0.90006634627E+02 0.  0.
          2    1    3    3  502    0 -0.37470459671E+03  0.64956140250E+03  0.84075760819E+03  0.11265908335E+04  0.00000000000E+00 0. -1.
         -1    1    3    3    0  502 -0.36516877524E+02  0.34755921047E+02  0.79478063350E+02  0.94118111678E+02  0.00000000000E+00 0.  1.
         11    1    5    5    0    0  0.48124010914E+02 -0.21595998784E+02 -0.36515069220E+02  0.64153393285E+02  0.00000000000E+00 0.  1.
        -11    1    5    5    0    0  0.13360933904E+03 -0.20412653172E+03 -0.20514493894E+03  0.31875310572E+03  0.00000000000E+00 0. -1.
          3    1    6    6  503    0  0.20150156409E+03 -0.34527687159E+03  0.54266029817E+03  0.67401720868E+03  0.00000000000E+00 0. -1.
         -3    1    6    6    0  503  0.27986560184E+02 -0.11331792145E+03  0.22622438295E+03  0.25456172202E+03  0.00000000000E+00 0.  1.
<mgrwt>
<rscale>  0 0.20777071E+04</rscale>
<asrwt>0</asrwt>
<pdfrwt beam="1">  1        2 0.30612728E+00 0.20777071E+04</pdfrwt>
<pdfrwt beam="2">  1       -1 0.83441081E-01 0.20777071E+04</pdfrwt>
<totfact> 0.10138061E+01</totfact>
</mgrwt>
</event>
<event>
11    6  0.3041398E-008  0.2110970E+04  0.7818608E-02  0.8556426E-01
          2   -1    0    0  501    0  0.00000000000E+00  0.00000000000E+00  0.20254956188E+04  0.20254956188E+04  0.00000000000E+00 0. -1.
         -1   -1    0    0    0  501 -0.00000000000E+00 -0.00000000000E+00 -0.55001280957E+03  0.55001280957E+03  0.00000000000E+00 0.  1.
         24    2    1    2    0    0 -0.44362489559E+03 -0.48628387038E+03 -0.77263246573E+02  0.66770538296E+03  0.81153056537E+02 0.  0.
        254    2    1    2    0    0  0.44362489559E+03  0.48628387038E+03  0.15527460558E+04  0.19078030454E+04  0.89186158998E+03 0.  0.
         23    2    4    4    0    0  0.28870986594E+03 -0.21292811423E+03  0.40267251170E+03  0.54656010429E+03  0.88831455030E+02 0.  0.
          4    1    3    3  502    0 -0.80806012024E+02 -0.10945545649E+03 -0.46193706354E+02  0.14368008575E+03  0.00000000000E+00 0. -1.
         -3    1    3    3    0  502 -0.36281888356E+03 -0.37682841389E+03 -0.31069540219E+02  0.52402529721E+03  0.00000000000E+00 0.  1.
         11    1    4    4    0    0  0.68550940712E+01  0.26859171631E+03  0.49888882010E+03  0.56663794191E+03  0.00000000000E+00 0. -1.
        -11    1    4    4    0    0  0.14805993558E+03  0.43062026830E+03  0.65118472401E+03  0.79460499922E+03  0.00000000000E+00 0.  1.
          1    1    5    5  503    0  0.17620018505E+03 -0.76640948354E+02  0.19296038066E+03  0.27231241008E+03  0.00000000000E+00 0. -1.
         -1    1    5    5    0  503  0.11250968088E+03 -0.13628716588E+03  0.20971213104E+03  0.27424769421E+03  0.00000000000E+00 0.  1.
<mgrwt>
<rscale>  0 0.21109700E+04</rscale>
<asrwt>0</asrwt>
<pdfrwt beam="1">  1        2 0.31161471E+00 0.21109700E+04</pdfrwt>
<pdfrwt beam="2">  1       -1 0.84617356E-01 0.21109700E+04</pdfrwt>
<totfact> 0.93696841E+00</totfact>
</mgrwt>
</event>
<event>
12    6  0.1705838E-008  0.9993627E+03  0.7818608E-02  0.9309244E-01
          2   -1    0    0  501    0  0.00000000000E+00  0.00000000000E+00  0.89879776040E+03  0.89879776040E+03  0.00000000000E+00 0. -1.
         -1   -1    0    0    0  501 -0.00000000000E+00 -0.00000000000E+00 -0.27779492042E+03  0.27779492042E+03  0.00000000000E+00 0.  1.
         24    2    1    2    0    0 -0.91263354408E+02 -0.17114915838E+02  0.47653486965E+00  0.12196674316E+03  0.79080586429E+02 0.  0.
        254    2    1    2    0    0  0.91263354408E+02  0.17114915838E+02  0.62052630512E+03  0.10546259377E+04  0.84767980561E+03 0.  0.
         23    2    4    4    0    0 -0.21787044760E+03 -0.31304785792E+03  0.25406242983E+03  0.46388786768E+03  0.71956530261E+02 0.  0.
         23    2    4    4    0    0  0.30913380201E+03  0.33016277376E+03  0.36646387529E+03  0.59073806998E+03  0.10052129478E+03 0.  0.
          4    1    3    3  502    0 -0.33568696352E+02  0.91490849338E+01  0.35363175625E+02  0.49609649466E+02  0.00000000000E+00 0. -1.
         -3    1    3    3    0  502 -0.57694658056E+02 -0.26264000772E+02 -0.34886640755E+02  0.72357093695E+02  0.00000000000E+00 0.  1.
         11    1    5    5    0    0 -0.21409282487E+03 -0.29470191732E+03  0.22148757935E+03  0.42631174689E+03  0.00000000000E+00 0.  1.
        -11    1    5    5    0    0 -0.37776227362E+01 -0.18345940596E+02  0.32574850479E+02  0.37576120790E+02  0.00000000000E+00 0. -1.
          1    1    6    6  503    0  0.56125038743E+02  0.11886338426E+03  0.78979405945E+02  0.15335015701E+03  0.00000000000E+00 0. -1.
         -1    1    6    6    0  503  0.25300876327E+03  0.21129938949E+03  0.28748446935E+03  0.43738791296E+03  0.00000000000E+00 0.  1.
<mgrwt>
<rscale>  0 0.99936270E+03</rscale>
<asrwt>0</asrwt>
<pdfrwt beam="1">  1        2 0.13827658E+00 0.99936270E+03</pdfrwt>
<pdfrwt beam="2">  1       -1 0.42737680E-01 0.99936270E+03</pdfrwt>
<totfact> 0.18022075E+02</totfact>
</mgrwt>
</event>
<event>
12    6  0.1705838E-008  0.1268687E+04  0.7818608E-02  0.9054772E-01
          2   -1    0    0  501    0  0.00000000000E+00  0.00000000000E+00  0.23187248789E+04  0.23187248789E+04  0.00000000000E+00 0. -1.
         -1   -1    0    0    0  501 -0.00000000000E+00 -0.00000000000E+00 -0.17354006678E+03  0.17354006678E+03  0.00000000000E+00 0.  1.
         24    2    1    2    0    0 -0.28142421632E+03 -0.26435391347E+02  0.31406165521E+03  0.43019425838E+03  0.80832896880E+02 0.  0.
        254    2    1    2    0    0  0.28142421632E+03  0.26435391347E+02  0.18311231570E+04  0.20620706873E+04  0.90511053702E+03 0.  0.
         23    2    4    4    0    0  0.77474148668E+02 -0.36069127483E+03  0.13661130527E+04  0.14171798512E+04  0.77675083691E+02 0.  0.
         23    2    4    4    0    0  0.20395006765E+03  0.38712666618E+03  0.46501010427E+03  0.64489083610E+03  0.90482637241E+02 0.  0.
          4    1    3    3  502    0 -0.10408186649E+03 -0.17825165096E+02  0.17613961344E+03  0.20536780387E+03  0.00000000000E+00 0. -1.
         -3    1    3    3    0  502 -0.17734234983E+03 -0.86102262507E+01  0.13792204177E+03  0.22482645451E+03  0.00000000000E+00 0.  1.
         11    1    5    5    0    0  0.81102670568E+02 -0.28315869563E+03  0.11636401102E+04  0.12003394504E+04  0.00000000000E+00 0.  1.
        -11    1    5    5    0    0 -0.36285218997E+01 -0.77532579203E+02  0.20247294244E+03  0.21684040083E+03  0.00000000000E+00 0. -1.
          2    1    6    6  503    0  0.17676701129E+03  0.26810987416E+03  0.37183331599E+03  0.49131405006E+03  0.00000000000E+00 0. -1.
         -2    1    6    6    0  503  0.27183056363E+02  0.11901679202E+03  0.93176788281E+02  0.15357678604E+03  0.00000000000E+00 0.  1.
<mgrwt>
<rscale>  0 0.12686870E+04</rscale>
<asrwt>0</asrwt>
<pdfrwt beam="1">  1        2 0.35672688E+00 0.12686870E+04</pdfrwt>
<pdfrwt beam="2">  1       -1 0.26698473E-01 0.12686870E+04</pdfrwt>
<totfact> 0.62105262E+01</totfact>
</mgrwt>
</event>
<event>
11    6  0.1705838E-008  0.3235977E+04  0.7818608E-02  0.8179380E-01
          2   -1    0    0  501    0  0.00000000000E+00  0.00000000000E+00  0.31662258181E+04  0.31662258181E+04  0.00000000000E+00 0. -1.
         -1   -1    0    0    0  501 -0.00000000000E+00 -0.00000000000E+00 -0.82681601257E+03  0.82681601257E+03  0.00000000000E+00 0.  1.
         24    2    1    2    0    0 -0.42149351988E+03  0.53399222950E+03 -0.56617879130E+03  0.88872598518E+03  0.80442305675E+02 0.  0.
        254    2    1    2    0    0  0.42149351988E+03 -0.53399222950E+03  0.29055885968E+04  0.31043158455E+04  0.85529368405E+03 0.  0.
         23    2    4    4    0    0 -0.14651310962E+03  0.11163216054E+03  0.68424944433E+03  0.71424799570E+03  0.89582736903E+02 0.  0.
          4    1    3    3  502    0 -0.72587420324E+02  0.13387633114E+03 -0.99698112781E+02  0.18202065630E+03  0.00000000000E+00 0. -1.
         -1    1    3    3    0  502 -0.34890609956E+03  0.40011589837E+03 -0.46648067852E+03  0.70670532888E+03  0.00000000000E+00 0.  1.
         11    1    4    4    0    0  0.57417738272E+03 -0.64376756867E+03  0.22220204300E+04  0.23835878714E+04  0.00000000000E+00 0.  1.
        -11    1    4    4    0    0 -0.61707532139E+01 -0.18568213714E+01 -0.68127749237E+00  0.64799783837E+01  0.00000000000E+00 0. -1.
          1    1    5    5  503    0 -0.69765716038E+02  0.65383801397E+02  0.50359992776E+03  0.51259651175E+03  0.00000000000E+00 0. -1.
         -1    1    5    5    0  503 -0.76747393584E+02  0.46248359145E+02  0.18064951656E+03  0.20165148395E+03  0.00000000000E+00 0.  1.
<mgrwt>
<rscale>  0 0.32359766E+04</rscale>
<asrwt>0</asrwt>
<pdfrwt beam="1">  1        2 0.48711166E+00 0.32359766E+04</pdfrwt>
<pdfrwt beam="2">  1       -1 0.12720247E+00 0.32359766E+04</pdfrwt>
<totfact> 0.69612568E-01</totfact>
</mgrwt>
</event>
<event>
12    6  0.1705838E-008  0.1636734E+04  0.7818608E-02  0.8798294E-01
          2   -1    0    0  501    0  0.00000000000E+00  0.00000000000E+00  0.20370223250E+04  0.20370223250E+04  0.00000000000E+00 0. -1.
         -1   -1    0    0    0  501 -0.00000000000E+00 -0.00000000000E+00 -0.32877613590E+03  0.32877613590E+03  0.00000000000E+00 0.  1.
         24    2    1    2    0    0  0.27583117580E+03  0.21920081716E+03  0.12087508097E+04  0.12615689477E+04  0.79660869034E+02 0.  0.
        254    2    1    2    0    0 -0.27583117580E+03 -0.21920081716E+03  0.49949537937E+03  0.11042295132E+04  0.91961695720E+03 0.  0.
         23    2    4    4    0    0 -0.34446120094E+03  0.17487923740E+03 -0.65915594542E+02  0.40552244750E+03  0.10424645411E+03 0.  0.
         23    2    4    4    0    0  0.68630025147E+02 -0.39408005456E+03  0.56541097391E+03  0.69870706567E+03  0.92156521447E+02 0.  0.
          2    1    3    3  502    0  0.22277395373E+03  0.15033046484E+03  0.99891153118E+03  0.10344330477E+04  0.00000000000E+00 0. -1.
         -1    1    3    3    0  502  0.53057222068E+02  0.68870352319E+02  0.20983927853E+03  0.22713589998E+03  0.00000000000E+00 0.  1.
         11    1    5    5    0    0 -0.23368296419E+03  0.17047189787E+03 -0.46454618329E+02  0.29296147747E+03  0.00000000000E+00 0. -1.
        -11    1    5    5    0    0 -0.11077823675E+03  0.44073395294E+01 -0.19460976212E+02  0.11256097003E+03  0.00000000000E+00 0.  1.
          4    1    6    6  503    0  0.75064257071E+02 -0.17964400567E+03  0.29641842830E+03  0.35464136265E+03  0.00000000000E+00 0.  1.
         -4    1    6    6    0  503 -0.64342319248E+01 -0.21443604889E+03  0.26899254561E+03  0.34406570302E+03  0.00000000000E+00 0. -1.
<mgrwt>
<rscale>  0 0.16367337E+04</rscale>
<asrwt>0</asrwt>
<pdfrwt beam="1">  1        2 0.31338804E+00 0.16367337E+04</pdfrwt>
<pdfrwt beam="2">  1       -1 0.50580945E-01 0.16367337E+04</pdfrwt>
<totfact> 0.27252825E+01</totfact>
</mgrwt>
</event>
<event>
11    6  0.1705838E-008  0.1091313E+04  0.7818608E-02  0.9213701E-01
         -1   -1    0    0    0  501 -0.00000000000E+00  0.00000000000E+00  0.37400786112E+03  0.37400786112E+03  0.00000000000E+00 0.  1.
          2   -1    0    0  501    0  0.00000000000E+00 -0.00000000000E+00 -0.79608179331E+03  0.79608179331E+03  0.00000000000E+00 0. -1.
         24    2    1    2    0    0  0.41519051505E+01  0.10785625780E+03 -0.19463316031E+03  0.23605539813E+03  0.78675747425E+02 0.  0.
        254    2    1    2    0    0 -0.41519051505E+01 -0.10785625780E+03 -0.22744077187E+03  0.93403425629E+03  0.89946677346E+03 0.  0.
         23    2    4    4    0    0 -0.19798369751E+03 -0.42999521078E+03 -0.19895632192E+02  0.48288019575E+03  0.93188097396E+02 0.  0.
          2    1    3    3  502    0  0.14043985195E+02  0.86370138683E+02 -0.19350979612E+03  0.21237484684E+03  0.00000000000E+00 0. -1.
         -1    1    3    3    0  502 -0.98920800446E+01  0.21486119116E+02 -0.11233641868E+01  0.23680551290E+02  0.00000000000E+00 0.  1.
         11    1    4    4    0    0  0.79574122319E+02  0.67496825021E+02 -0.17066806137E+01  0.10435887643E+03  0.00000000000E+00 0.  1.
        -11    1    4    4    0    0  0.11425767004E+03  0.25464212796E+03 -0.20583845907E+03  0.34679518411E+03  0.00000000000E+00 0. -1.
          3    1    5    5  503    0 -0.15570528844E+03 -0.34056439546E+03  0.22744221743E+02  0.37516069081E+03  0.00000000000E+00 0. -1.
         -3    1    5    5    0  503 -0.42278409065E+02 -0.89430815313E+02 -0.42639853934E+02  0.10771950494E+03  0.00000000000E+00 0.  1.
<mgrwt>
<rscale>  0 0.10913127E+04</rscale>
<asrwt>0</asrwt>
<pdfrwt beam="1">  1        2 0.12247412E+00 0.10913127E+04</pdfrwt>
<pdfrwt beam="2">  1       -1 0.57539672E-01 0.10913127E+04</pdfrwt>
<totfact> 0.12027107E+02</totfact>
</mgrwt>
</event>
<event>
11    6  0.1705838E-008  0.2145236E+04  0.7818608E-02  0.8541574E-01
         -1   -1    0    0    0  501 -0.00000000000E+00  0.00000000000E+00  0.40480896354E+03  0.40480896354E+03  0.00000000000E+00 0.  1.
          2   -1    0    0  501    0  0.00000000000E+00 -0.00000000000E+00 -0.28421045981E+04  0.28421045981E+04  0.00000000000E+00 0. -1.
         24    2    1    2    0    0 -0.29512709646E+03  0.76873857389E+02  0.24657496120E+03  0.40042663918E+03  0.80825050929E+02 0.  0.
        254    2    1    2    0    0  0.29512709646E+03 -0.76873857389E+02 -0.26838705958E+04  0.28464869225E+04  0.89795146415E+03 0.  0.
         23    2    4    4    0    0  0.58320817186E+03  0.17457240687E+02 -0.19193076963E+04  0.20076364366E+04  0.80159225029E+02 0.  0.
          2    1    3    3  502    0 -0.65708996285E+02  0.16497920561E+02  0.16014612138E+02  0.69615525406E+02  0.00000000000E+00 0. -1.
         -1    1    3    3    0  502 -0.22941810018E+03  0.60375936829E+02  0.23056034906E+03  0.33081111377E+03  0.00000000000E+00 0.  1.
         11    1    4    4    0    0 -0.24947590281E+03 -0.69866438525E+01 -0.54596505116E+03  0.60030398663E+03  0.00000000000E+00 0.  1.
        -11    1    4    4    0    0 -0.38605172588E+02 -0.87344454224E+02 -0.21859784832E+03  0.23854649929E+03  0.00000000000E+00 0. -1.
          1    1    5    5  503    0  0.48360328875E+03  0.32089455903E+02 -0.16656435374E+04  0.17347248392E+04  0.00000000000E+00 0. -1.
         -1    1    5    5    0  503  0.99604883118E+02 -0.14632215216E+02 -0.25366415891E+03  0.27291159736E+03  0.00000000000E+00 0.  1.
<mgrwt>
<rscale>  0 0.21452360E+04</rscale>
<asrwt>0</asrwt>
<pdfrwt beam="1">  1        2 0.43724686E+00 0.21452360E+04</pdfrwt>
<pdfrwt beam="2">  1       -1 0.62278303E-01 0.21452360E+04</pdfrwt>
<totfact> 0.59627982E+00</totfact>
</mgrwt>
</event>
<event>
12    6  0.1705838E-008  0.3061973E+04  0.7818608E-02  0.8226252E-01
         -1   -1    0    0    0  501 -0.00000000000E+00  0.00000000000E+00  0.18606298764E+04  0.18606298764E+04  0.00000000000E+00 0.  1.
          2   -1    0    0  501    0  0.00000000000E+00 -0.00000000000E+00 -0.12597452562E+04  0.12597452562E+04  0.00000000000E+00 0. -1.
         24    2    1    2    0    0  0.91293468957E+03  0.77634326490E+03 -0.45591397037E+03  0.12846844880E+04  0.79987954503E+02 0.  0.
        254    2    1    2    0    0 -0.91293468957E+03 -0.77634326490E+03  0.10567985905E+04  0.18356906447E+04  0.90375786004E+03 0.  0.
         23    2    4    4    0    0 -0.96594853569E+03 -0.70019355822E+03  0.56175373621E+03  0.13239439472E+04  0.11803695436E+03 0.  0.
         23    2    4    4    0    0  0.53013846116E+02 -0.76149706678E+02  0.49504485433E+03  0.51174669748E+03  0.90587134143E+02 0.  0.
          4    1    3    3  502    0  0.69584235066E+03  0.56676574549E+03 -0.37191397229E+03  0.97146280938E+03  0.00000000000E+00 0. -1.
         -3    1    3    3    0  502  0.21709233892E+03  0.20957751941E+03 -0.83999998074E+02  0.31322167858E+03  0.00000000000E+00 0.  1.
         11    1    5    5    0    0 -0.28635616363E+03 -0.15427637366E+03  0.18604989969E+03  0.37472071879E+03  0.00000000000E+00 0.  1.
        -11    1    5    5    0    0 -0.67959237206E+03 -0.54591718457E+03  0.37570383652E+03  0.94922322841E+03  0.00000000000E+00 0. -1.
          1    1    6    6  503    0  0.68952882644E+02 -0.61407157883E+02  0.26393875526E+03  0.27962297043E+03  0.00000000000E+00 0. -1.
         -1    1    6    6    0  503 -0.15939036528E+02 -0.14742548795E+02  0.23110609907E+03  0.23212372704E+03  0.00000000000E+00 0.  1.
<mgrwt>
<rscale>  0 0.30619730E+04</rscale>
<asrwt>0</asrwt>
<pdfrwt beam="1">  1        2 0.19380696E+00 0.30619730E+04</pdfrwt>
<pdfrwt beam="2">  1       -1 0.28625075E+00 0.30619730E+04</pdfrwt>
<totfact> 0.68654893E-01</totfact>
</mgrwt>
</event>
<event>
11    6  0.1705838E-008  0.1671881E+04  0.7818608E-02  0.8777566E-01
          2   -1    0    0  501    0  0.00000000000E+00  0.00000000000E+00  0.58966766262E+03  0.58966766262E+03  0.00000000000E+00 0. -1.
         -1   -1    0    0    0  501 -0.00000000000E+00 -0.00000000000E+00 -0.11850681142E+04  0.11850681142E+04  0.00000000000E+00 0.  1.
         24    2    1    2    0    0 -0.21843873245E+03  0.22751325081E+03 -0.74164610080E+03  0.80987616194E+03  0.79891800085E+02 0.  0.
        254    2    1    2    0    0  0.21843873245E+03 -0.22751325081E+03  0.14624564920E+03  0.96485961491E+03  0.90004918057E+03 0.  0.
         23    2    4    4    0    0  0.49833826306E+03 -0.29302319985E+02  0.56060215580E+02  0.51057982648E+03  0.91374838134E+02 0.  0.
          4    1    3    3  502    0 -0.42029921681E+02  0.66861864974E+01 -0.10603583123E+03  0.11425767769E+03  0.00000000000E+00 0. -1.
         -3    1    3    3    0  502 -0.17640881077E+03  0.22082706432E+03 -0.63561026957E+03  0.69561848425E+03  0.00000000000E+00 0.  1.
         11    1    4    4    0    0 -0.27984721446E+03 -0.23335780354E+03  0.75215253406E+01  0.36445425125E+03  0.00000000000E+00 0.  1.
        -11    1    4    4    0    0 -0.52316159762E-01  0.35146872710E+02  0.82663908275E+02  0.89825537179E+02  0.00000000000E+00 0. -1.
          3    1    5    5  503    0  0.66014259039E+02 -0.31709517567E+02  0.23977515440E+02  0.77060347439E+02  0.00000000000E+00 0. -1.
         -3    1    5    5    0  503  0.43232400403E+03  0.24071975823E+01  0.32082700141E+02  0.43351947904E+03  0.00000000000E+00 0.  1.
<mgrwt>
<rscale>  0 0.16718808E+04</rscale>
<asrwt>0</asrwt>
<pdfrwt beam="1">  1        2 0.90718104E-01 0.16718808E+04</pdfrwt>
<pdfrwt beam="2">  1       -1 0.18231817E+00 0.16718808E+04</pdfrwt>
<totfact> 0.11051738E+01</totfact>
</mgrwt>
</event>
<event>
12    6  0.1705838E-008  0.1531996E+04  0.7818608E-02  0.8863451E-01
         -1   -1    0    0    0  501 -0.00000000000E+00  0.00000000000E+00  0.25826901533E+03  0.25826901533E+03  0.00000000000E+00 0.  1.
          2   -1    0    0  501    0  0.00000000000E+00 -0.00000000000E+00 -0.22718665436E+04  0.22718665436E+04  0.00000000000E+00 0. -1.
         24    2    1    2    0    0 -0.21861999702E+03  0.41529311569E+03 -0.98075401354E+03  0.10901686484E+04  0.79537235586E+02 0.  0.
        254    2    1    2    0    0  0.21861999702E+03 -0.41529311569E+03 -0.10328435147E+04  0.14399669105E+04  0.88683476616E+03 0.  0.
         23    2    4    4    0    0  0.60809409321E+01  0.14839024144E+03  0.58130955599E+02  0.19027836308E+03  0.10377863874E+03 0.  0.
         23    2    4    4    0    0  0.21253905609E+03 -0.56368335713E+03 -0.10909744703E+04  0.12496885474E+04  0.92652000847E+02 0.  0.
          2    1    3    3  502    0 -0.14133236947E+03  0.30386514884E+03 -0.76714492895E+03  0.83715005187E+03  0.00000000000E+00 0. -1.
         -1    1    3    3    0  502 -0.77287627555E+02  0.11142796685E+03 -0.21360908459E+03  0.25301859653E+03  0.00000000000E+00 0.  1.
         11    1    5    5    0    0 -0.22501508490E+02  0.50816526274E+02 -0.23054999051E+02  0.60167850287E+02  0.00000000000E+00 0. -1.
        -11    1    5    5    0    0  0.28582449422E+02  0.97573715167E+02  0.81185954650E+02  0.13011051279E+03  0.00000000000E+00 0.  1.
          3    1    6    6  503    0  0.16197954385E+02 -0.44538162730E+01 -0.28879788516E+02  0.33410363517E+02  0.00000000000E+00 0. -1.
         -3    1    6    6    0  503  0.19634110171E+03 -0.55922954086E+03 -0.10620946818E+04  0.12162781839E+04  0.00000000000E+00 0.  1.
<mgrwt>
<rscale>  0 0.15319957E+04</rscale>
<asrwt>0</asrwt>
<pdfrwt beam="1">  1        2 0.34951792E+00 0.15319957E+04</pdfrwt>
<pdfrwt beam="2">  1       -1 0.39733696E-01 0.15319957E+04</pdfrwt>
<totfact> 0.31876178E+01</totfact>
</mgrwt>
</event>
<event>
11    6  0.1705838E-008  0.2344648E+04  0.7818608E-02  0.8460522E-01
         -1   -1    0    0    0  501 -0.00000000000E+00  0.00000000000E+00  0.81710488250E+03  0.81710488250E+03  0.00000000000E+00 0.  1.
          2   -1    0    0  501    0  0.00000000000E+00 -0.00000000000E+00 -0.16819669002E+04  0.16819669002E+04  0.00000000000E+00 0. -1.
         24    2    1    2    0    0 -0.42112715876E+03  0.63738472548E+03 -0.10537339778E+04  0.13038338029E+04  0.77588127357E+02 0.  0.
        254    2    1    2    0    0  0.42112715876E+03 -0.63738472548E+03  0.18887196009E+03  0.11952379798E+04  0.89961871863E+03 0.  0.
         23    2    4    4    0    0 -0.16769572026E+03 -0.39516952877E+03 -0.14600581090E+03  0.46238641912E+03  0.90568718155E+02 0.  0.
          2    1    3    3  502    0 -0.39838281586E+03  0.62186795612E+03 -0.10304459189E+04  0.12677726194E+04  0.00000000000E+00 0. -1.
         -1    1    3    3    0  502 -0.22744342905E+02  0.15516769355E+02 -0.23288058884E+02  0.36061183453E+02  0.00000000000E+00 0.  1.
         11    1    4    4    0    0  0.53915292577E+03 -0.17523613782E+03  0.30834842533E+03  0.64534667642E+03  0.00000000000E+00 0.  1.
        -11    1    4    4    0    0  0.49669953255E+02 -0.66979058884E+02  0.26529345669E+02  0.87504884246E+02  0.00000000000E+00 0. -1.
          1    1    5    5  503    0  0.11071811217E+02 -0.28895505344E+02 -0.66617822723E+01  0.31653034227E+02  0.00000000000E+00 0. -1.
         -1    1    5    5    0  503 -0.17876753148E+03 -0.36627402343E+03 -0.13934402863E+03  0.43073338489E+03  0.00000000000E+00 0.  1.
<mgrwt>
<rscale>  0 0.23446478E+04</rscale>
<asrwt>0</asrwt>
<pdfrwt beam="1">  1        2 0.25876413E+00 0.23446478E+04</pdfrwt>
<pdfrwt beam="2">  1       -1 0.12570845E+00 0.23446478E+04</pdfrwt>
<totfact> 0.56963158E+00</totfact>
</mgrwt>
</event>
<event>
11    6  0.1705838E-008  0.1637014E+04  0.7818608E-02  0.8798126E-01
         -1   -1    0    0    0  501 -0.00000000000E+00  0.00000000000E+00  0.42331115061E+03  0.42331115061E+03  0.00000000000E+00 0.  1.
          2   -1    0    0  501    0  0.00000000000E+00 -0.00000000000E+00 -0.15826508351E+04  0.15826508351E+04  0.00000000000E+00 0. -1.
         24    2    1    2    0    0  0.52222851045E+03  0.58000558236E+02 -0.15181372492E+03  0.55497083357E+03  0.94119802145E+02 0.  0.
        254    2    1    2    0    0 -0.52222851045E+03 -0.58000558236E+02 -0.10075259596E+04  0.14509911522E+04  0.90231927969E+03 0.  0.
         23    2    4    4    0    0 -0.53926538013E+03 -0.57691172110E+02 -0.20052345176E+03  0.58540840009E+03  0.91421653056E+02 0.  0.
          2    1    3    3  502    0  0.54599054629E+02 -0.20237408961E+02 -0.41378538346E+01  0.58375776844E+02  0.00000000000E+00 0. -1.
         -1    1    3    3    0  502  0.46762945583E+03  0.78237967197E+02 -0.14767587108E+03  0.49659505673E+03  0.00000000000E+00 0.  1.
         11    1    4    4    0    0 -0.49424628014E+02  0.56464715973E+02 -0.25570811269E+02  0.79277515054E+02  0.00000000000E+00 0. -1.
        -11    1    4    4    0    0  0.66461497692E+02 -0.56774102099E+02 -0.78143169657E+03  0.78630523701E+03  0.00000000000E+00 0.  1.
          1    1    5    5  503    0 -0.27024430894E+03 -0.40477447940E+02 -0.14801312466E+03  0.31077048666E+03  0.00000000000E+00 0. -1.
         -1    1    5    5    0  503 -0.26902107119E+03 -0.17213724171E+02 -0.52510327101E+02  0.27463791344E+03  0.00000000000E+00 0.  1.
<mgrwt>
<rscale>  0 0.16370140E+04</rscale>
<asrwt>0</asrwt>
<pdfrwt beam="1">  1        2 0.24348475E+00 0.16370140E+04</pdfrwt>
<pdfrwt beam="2">  1       -1 0.65124792E-01 0.16370140E+04</pdfrwt>
<totfact> 0.29699036E+01</totfact>
</mgrwt>
</event>
<event>
11    6  0.1705838E-008  0.1615055E+04  0.7818608E-02  0.8811352E-01
          2   -1    0    0  501    0  0.00000000000E+00  0.00000000000E+00  0.24854890902E+04  0.24854890902E+04  0.00000000000E+00 0. -1.
         -1   -1    0    0    0  501 -0.00000000000E+00 -0.00000000000E+00 -0.26236297147E+03  0.26236297147E+03  0.00000000000E+00 0.  1.
         24    2    1    2    0    0 -0.81611040399E+02  0.71124953900E+02 -0.15430406249E+03  0.20472270225E+03  0.79890676147E+02 0.  0.
        254    2    1    2    0    0  0.81611040399E+02 -0.71124953900E+02  0.23774301813E+04  0.25431293595E+04  0.89644495158E+03 0.  0.
         23    2    4    4    0    0  0.34383707000E+02  0.31844516205E+03  0.18741450521E+04  0.19033235842E+04  0.87358052751E+02 0.  0.
          2    1    3    3  502    0  0.89190689821E+01  0.22268222970E+01  0.37955142148E+01  0.99455747549E+01  0.00000000000E+00 0. -1.
         -1    1    3    3    0  502 -0.90530109381E+02  0.68898131603E+02 -0.15809957670E+03  0.19477712750E+03  0.00000000000E+00 0.  1.
         11    1    4    4    0    0  0.23460645133E+02 -0.59113527375E+02  0.87190678219E+02  0.10792138508E+03  0.00000000000E+00 0.  1.
        -11    1    4    4    0    0  0.23766688266E+02 -0.33045658857E+03  0.41609445094E+03  0.53188439017E+03  0.00000000000E+00 0. -1.
          1    1    5    5  503    0  0.59727955008E+02  0.21274478255E+03  0.11458501946E+04  0.11669620558E+04  0.00000000000E+00 0. -1.
         -1    1    5    5    0  503 -0.25344248008E+02  0.10570037950E+03  0.72829485746E+03  0.73636152842E+03  0.00000000000E+00 0.  1.
<mgrwt>
<rscale>  0 0.16150546E+04</rscale>
<asrwt>0</asrwt>
<pdfrwt beam="1">  1        2 0.38238292E+00 0.16150546E+04</pdfrwt>
<pdfrwt beam="2">  1       -1 0.40363536E-01 0.16150546E+04</pdfrwt>
<totfact> 0.23237941E+01</totfact>
</mgrwt>
</event>
<event>
12    6  0.1705838E-008  0.1403459E+04  0.7818608E-02  0.8951319E-01
          2   -1    0    0  501    0  0.00000000000E+00  0.00000000000E+00  0.15446012816E+04  0.15446012816E+04  0.00000000000E+00 0. -1.
         -1   -1    0    0    0  501 -0.00000000000E+00 -0.00000000000E+00 -0.31880328597E+03  0.31880328597E+03  0.00000000000E+00 0.  1.
         24    2    1    2    0    0  0.41780686390E+03 -0.75994651011E+01  0.36520062197E+03  0.56072573154E+03  0.80134414113E+02 0.  0.
        254    2    1    2    0    0 -0.41780686390E+03  0.75994651011E+01  0.86059737363E+03  0.13026788360E+04  0.88415156103E+03 0.  0.
         23    2    4    4    0    0 -0.63928457611E+03  0.19123637948E+03  0.60204833940E+03  0.90539734902E+03  0.10966327808E+03 0.  0.
         23    2    4    4    0    0  0.22147771221E+03 -0.18363691438E+03  0.25854903423E+03  0.39728148698E+03  0.90609510884E+02 0.  0.
          2    1    3    3  502    0 -0.77367425370E+00 -0.11668931848E+01  0.14621564365E+02  0.14688442941E+02  0.00000000000E+00 0. -1.
         -1    1    3    3    0  502  0.41858053815E+03 -0.64325719163E+01  0.35057905761E+03  0.54603728860E+03  0.00000000000E+00 0.  1.
         11    1    5    5    0    0 -0.52965804107E+03  0.19393401284E+03  0.53146217340E+03  0.77498392471E+03  0.00000000000E+00 0. -1.
        -11    1    5    5    0    0 -0.10962653504E+03 -0.26976333627E+01  0.70586165998E+02  0.13041342431E+03  0.00000000000E+00 0.  1.
          4    1    6    6  503    0  0.18887917806E+03 -0.17758822342E+03  0.19093763835E+03  0.32197841968E+03  0.00000000000E+00 0. -1.
         -4    1    6    6    0  503  0.32598534148E+02 -0.60486909624E+01  0.67611395880E+02  0.75303067294E+02  0.00000000000E+00 0.  1.
<mgrwt>
<rscale>  0 0.14034585E+04</rscale>
<asrwt>0</asrwt>
<pdfrwt beam="1">  1        2 0.23763096E+00 0.14034585E+04</pdfrwt>
<pdfrwt beam="2">  1       -1 0.49046660E-01 0.14034585E+04</pdfrwt>
<totfact> 0.55295762E+01</totfact>
</mgrwt>
</event>
<event>
11    6  0.1705838E-008  0.2122277E+04  0.7818608E-02  0.8551493E-01
         -1   -1    0    0    0  501 -0.00000000000E+00  0.00000000000E+00  0.58737159458E+03  0.58737159458E+03  0.00000000000E+00 0.  1.
          2   -1    0    0  501    0  0.00000000000E+00 -0.00000000000E+00 -0.19170397212E+04  0.19170397212E+04  0.00000000000E+00 0. -1.
         24    2    1    2    0    0  0.43370566235E+03 -0.22523749166E+03 -0.13955823032E+04  0.14812380424E+04  0.87084120139E+02 0.  0.
        254    2    1    2    0    0 -0.43370566235E+03  0.22523749166E+03  0.65914176621E+02  0.10231732734E+04  0.89649670352E+03 0.  0.
         23    2    4    4    0    0 -0.49052881694E+03  0.13764255355E+03 -0.31082485107E+03  0.60404754628E+03  0.93259623238E+02 0.  0.
          2    1    3    3  502    0  0.30727246232E+03 -0.13893799177E+03 -0.10609603461E+04  0.11132641140E+04  0.00000000000E+00 0. -1.
         -1    1    3    3    0  502  0.12643320003E+03 -0.86299499887E+02 -0.33462195717E+03  0.36797392839E+03  0.00000000000E+00 0.  1.
         11    1    4    4    0    0  0.74187836573E+02  0.24348018467E+02  0.68135881110E+02  0.10362991553E+03  0.00000000000E+00 0. -1.
        -11    1    4    4    0    0 -0.17364681988E+02  0.63246919640E+02  0.30860314658E+03  0.31549581155E+03  0.00000000000E+00 0.  1.
          4    1    5    5  503    0 -0.19629634773E+03  0.46807968584E+02 -0.17648027543E+03  0.26808306487E+03  0.00000000000E+00 0. -1.
         -4    1    5    5    0  503 -0.29423246921E+03  0.90834584969E+02 -0.13434457564E+03  0.33596448141E+03  0.00000000000E+00 0.  1.
<mgrwt>
<rscale>  0 0.21222768E+04</rscale>
<asrwt>0</asrwt>
<pdfrwt beam="1">  1        2 0.29492919E+00 0.21222768E+04</pdfrwt>
<pdfrwt beam="2">  1       -1 0.90364860E-01 0.21222768E+04</pdfrwt>
<totfact> 0.93145478E+00</totfact>
</mgrwt>
</event>
<event>
11    6  0.1705838E-008  0.1226627E+04  0.7818608E-02  0.9089864E-01
         -3   -1    0    0    0  501 -0.00000000000E+00  0.00000000000E+00  0.84696697707E+03  0.84696697707E+03  0.00000000000E+00 0.  1.
          4   -1    0    0  501    0  0.00000000000E+00 -0.00000000000E+00 -0.44411823859E+03  0.44411823859E+03  0.00000000000E+00 0. -1.
         24    2    1    2    0    0 -0.15200292082E+02  0.93064347954E+01  0.35602324847E+03  0.36474142998E+03  0.77240524902E+02 0.  0.
        254    2    1    2    0    0  0.15200292082E+02 -0.93064347954E+01  0.46825490010E+02  0.92634378567E+03  0.92498785080E+03 0.  0.
         23    2    4    4    0    0  0.12614199805E+03  0.46781115258E+02 -0.38827376381E+03  0.42043922280E+03  0.88951379899E+02 0.  0.
          2    1    3    3  502    0 -0.15001218420E+02 -0.29026086762E+02  0.85760442103E+02  0.91773654697E+02  0.00000000000E+00 0. -1.
         -1    1    3    3    0  502 -0.19907366198E+00  0.38332521557E+02  0.27026280637E+03  0.27296777528E+03  0.00000000000E+00 0.  1.
         11    1    4    4    0    0 -0.64320308354E+02  0.13313860108E+02  0.41466733300E+03  0.41983729944E+03  0.00000000000E+00 0. -1.
        -11    1    4    4    0    0 -0.46621397615E+02 -0.69401410162E+02  0.20431920817E+02  0.86067263442E+02  0.00000000000E+00 0.  1.
          2    1    5    5  503    0  0.11520795846E+03  0.48981457355E+02 -0.38958913358E+03  0.40920868742E+03  0.00000000000E+00 0. -1.
         -2    1    5    5    0  503  0.10934039594E+02 -0.22003420965E+01  0.13153697718E+01  0.11230535375E+02  0.00000000000E+00 0.  1.
<mgrwt>
<rscale>  0 0.12266271E+04</rscale>
<asrwt>0</asrwt>
<pdfrwt beam="1">  1        4 0.68325883E-01 0.12266271E+04</pdfrwt>
<pdfrwt beam="2">  1       -3 0.13030261E+00 0.12266271E+04</pdfrwt>
<totfact> 0.20527322E+00</totfact>
</mgrwt>
</event>
<event>
12    6  0.1705838E-008  0.1483587E+04  0.7818608E-02  0.8895442E-01
          2   -1    0    0  501    0  0.00000000000E+00  0.00000000000E+00  0.12555436569E+04  0.12555436569E+04  0.00000000000E+00 0. -1.
         -1   -1    0    0    0  501 -0.00000000000E+00 -0.00000000000E+00 -0.43826220155E+03  0.43826220155E+03  0.00000000000E+00 0.  1.
         24    2    1    2    0    0  0.24323497186E+03 -0.36884879210E+03  0.41779302177E+03  0.61325113603E+03  0.79456049724E+02 0.  0.
        254    2    1    2    0    0 -0.24323497186E+03  0.36884879210E+03  0.39948843357E+03  0.10805547224E+04  0.90155133886E+03 0.  0.
         23    2    4    4    0    0 -0.55245597322E+03  0.15793829622E+03  0.89326911619E+02  0.58596181574E+03  0.72248492003E+02 0.  0.
         23    2    4    4    0    0  0.30922100136E+03  0.21091049587E+03  0.31016152195E+03  0.49459290667E+03  0.91220111153E+02 0.  0.
          2    1    3    3  502    0  0.24196915164E+03 -0.36790340319E+03  0.39848631043E+03  0.59387989023E+03  0.00000000000E+00 0. -1.
         -1    1    3    3    0  502  0.12658202164E+01 -0.94538890986E+00  0.19306711341E+02  0.19371245799E+02  0.00000000000E+00 0.  1.
         11    1    5    5    0    0 -0.14939935435E+02 -0.62083466114E+01 -0.28629957302E+01  0.16429911229E+02  0.00000000000E+00 0. -1.
        -11    1    5    5    0    0 -0.53751603779E+03  0.16414664284E+03  0.92189907350E+02  0.56953190451E+03  0.00000000000E+00 0.  1.
          1    1    6    6  503    0  0.80780032588E+02  0.98123358097E+02  0.13503398484E+03  0.18543943521E+03  0.00000000000E+00 0. -1.
         -1    1    6    6    0  503  0.22844096878E+03  0.11278713777E+03  0.17512753711E+03  0.30915347146E+03  0.00000000000E+00 0.  1.
<mgrwt>
<rscale>  0 0.14835866E+04</rscale>
<asrwt>0</asrwt>
<pdfrwt beam="1">  1        2 0.19316056E+00 0.14835866E+04</pdfrwt>
<pdfrwt beam="2">  1       -1 0.67424955E-01 0.14835866E+04</pdfrwt>
<totfact> 0.43134454E+01</totfact>
</mgrwt>
</event>
<event>
11    6  0.1705838E-008  0.1719611E+04  0.7818608E-02  0.8750258E-01
          2   -1    0    0  501    0  0.00000000000E+00  0.00000000000E+00  0.12831677406E+04  0.12831677406E+04  0.00000000000E+00 0. -1.
         -1   -1    0    0    0  501 -0.00000000000E+00 -0.00000000000E+00 -0.57612506675E+03  0.57612506675E+03  0.00000000000E+00 0.  1.
         24    2    1    2    0    0 -0.14731316831E+03 -0.48503378877E+03 -0.12676206335E+03  0.52832345868E+03  0.78090399412E+02 0.  0.
        254    2    1    2    0    0  0.14731316831E+03  0.48503378877E+03  0.83380473716E+03  0.13309693486E+04  0.90514646409E+03 0.  0.
         23    2    4    4    0    0 -0.23916914236E+03  0.43357216650E+03  0.74570806048E+03  0.89950856010E+03  0.88591399129E+02 0.  0.
          2    1    3    3  502    0  0.26306470868E+01 -0.93882264297E+02 -0.26485452100E+02  0.97582165514E+02  0.00000000000E+00 0. -1.
         -1    1    3    3    0  502 -0.14994381540E+03 -0.39115152447E+03 -0.10027661125E+03  0.43074129317E+03  0.00000000000E+00 0.  1.
         11    1    4    4    0    0  0.30530133668E+03  0.12907083740E+02 -0.54711030722E-01  0.30557405318E+03  0.00000000000E+00 0.  1.
        -11    1    4    4    0    0  0.81180973994E+02  0.38554538526E+02  0.88151387710E+02  0.12588673534E+03  0.00000000000E+00 0. -1.
          1    1    5    5  503    0 -0.47985910196E+02  0.35239652148E+02  0.11409677137E+03  0.12869558616E+03  0.00000000000E+00 0. -1.
         -1    1    5    5    0  503 -0.19118323216E+03  0.39833251436E+03  0.63161128911E+03  0.77081297393E+03  0.00000000000E+00 0.  1.
<mgrwt>
<rscale>  0 0.17196105E+04</rscale>
<asrwt>0</asrwt>
<pdfrwt beam="1">  1        2 0.19741042E+00 0.17196105E+04</pdfrwt>
<pdfrwt beam="2">  1       -1 0.88634626E-01 0.17196105E+04</pdfrwt>
<totfact> 0.22885518E+01</totfact>
</mgrwt>
</event>
<event>
12    6  0.1705838E-008  0.2177455E+04  0.7818608E-02  0.8527871E-01
          2   -1    0    0  501    0  0.00000000000E+00  0.00000000000E+00  0.86927227639E+03  0.86927227639E+03  0.00000000000E+00 0. -1.
         -1   -1    0    0    0  501 -0.00000000000E+00 -0.00000000000E+00 -0.13635856317E+04  0.13635856317E+04  0.00000000000E+00 0.  1.
         24    2    1    2    0    0 -0.73248659351E+03  0.17669347837E+02 -0.72905357480E+03  0.10365970887E+04  0.78521296122E+02 0.  0.
        254    2    1    2    0    0  0.73248659351E+03 -0.17669347837E+02  0.23474021946E+03  0.11962608194E+04  0.91601755540E+03 0.  0.
         23    2    4    4    0    0 -0.12046889289E+03  0.22222749757E+03  0.76338703066E+02  0.29143828580E+03  0.12333232347E+03 0.  0.
         23    2    4    4    0    0  0.85295548640E+03 -0.23989684540E+03  0.15840151639E+03  0.90482253357E+03  0.92353768969E+02 0.  0.
          4    1    3    3  502    0 -0.37325870889E+01  0.55443911002E+01 -0.14193681726E+02  0.15688629003E+02  0.00000000000E+00 0. -1.
         -3    1    3    3    0  502 -0.72875400642E+03  0.12124956736E+02 -0.71485989307E+03  0.10209084597E+04  0.00000000000E+00 0.  1.
         11    1    5    5    0    0 -0.79626551692E+02  0.30582502122E+02  0.21709725435E+02  0.88016983298E+02  0.00000000000E+00 0. -1.
        -11    1    5    5    0    0 -0.40842341201E+02  0.19164499544E+03  0.54628977630E+02  0.20342130250E+03  0.00000000000E+00 0.  1.
          1    1    6    6  503    0  0.28877682156E+03 -0.10292971950E+03  0.15693212163E+02  0.30697370691E+03  0.00000000000E+00 0. -1.
         -1    1    6    6    0  503  0.56417866484E+03 -0.13696712590E+03  0.14270830423E+03  0.59784882666E+03  0.00000000000E+00 0.  1.
<mgrwt>
<rscale>  0 0.21774546E+04</rscale>
<asrwt>0</asrwt>
<pdfrwt beam="1">  1        2 0.13373420E+00 0.21774546E+04</pdfrwt>
<pdfrwt beam="2">  1       -1 0.20978240E+00 0.21774546E+04</pdfrwt>
<totfact> 0.41470129E+00</totfact>
</mgrwt>
</event>
<event>
11    6  0.1705838E-008  0.1478705E+04  0.7818608E-02  0.8898738E-01
         -1   -1    0    0    0  501 -0.00000000000E+00  0.00000000000E+00  0.37494871321E+03  0.37494871321E+03  0.00000000000E+00 0.  1.
          2   -1    0    0  501    0  0.00000000000E+00 -0.00000000000E+00 -0.14579123160E+04  0.14579123160E+04  0.00000000000E+00 0. -1.
         24    2    1    2    0    0  0.45092958844E+03  0.40853041785E+02 -0.25180285586E+03  0.52403456902E+03  0.78746978090E+02 0.  0.
        254    2    1    2    0    0 -0.45092958844E+03 -0.40853041785E+02 -0.83116074691E+03  0.13088264602E+04  0.90398675371E+03 0.  0.
         23    2    4    4    0    0  0.21888121171E+03 -0.17378348915E+02 -0.20251665635E+02  0.24005603292E+03  0.94898773064E+02 0.  0.
          4    1    3    3  502    0  0.15411795910E+02 -0.13688346260E+02 -0.98735969061E+01  0.22855681840E+02  0.00000000000E+00 0. -1.
         -3    1    3    3    0  502  0.43551779253E+03  0.54541388045E+02 -0.24192925895E+03  0.50117888718E+03  0.00000000000E+00 0.  1.
         11    1    4    4    0    0 -0.65714335441E+03 -0.85014346405E+01 -0.71613040836E+03  0.97198375728E+03  0.00000000000E+00 0.  1.
        -11    1    4    4    0    0 -0.12667445744E+02 -0.14973258230E+02 -0.94778672920E+02  0.96786669971E+02  0.00000000000E+00 0. -1.
          2    1    5    5  503    0  0.13887357914E+03  0.25907805265E+02  0.15915727673E+02  0.14216327143E+03  0.00000000000E+00 0.  1.
         -2    1    5    5    0  503  0.80007632579E+02 -0.43286154179E+02 -0.36167393309E+02  0.97892761496E+02  0.00000000000E+00 0. -1.
<mgrwt>
<rscale>  0 0.14787053E+04</rscale>
<asrwt>0</asrwt>
<pdfrwt beam="1">  1        2 0.22429420E+00 0.14787053E+04</pdfrwt>
<pdfrwt beam="2">  1       -1 0.57684418E-01 0.14787053E+04</pdfrwt>
<totfact> 0.45016020E+01</totfact>
</mgrwt>
</event>
<event>
12    6  0.1705838E-008  0.1821134E+04  0.7818608E-02  0.8695141E-01
         -1   -1    0    0    0  501 -0.00000000000E+00  0.00000000000E+00  0.36073225965E+03  0.36073225965E+03  0.00000000000E+00 0.  1.
          2   -1    0    0  501    0  0.00000000000E+00 -0.00000000000E+00 -0.22984690730E+04  0.22984690730E+04  0.00000000000E+00 0. -1.
         24    2    1    2    0    0  0.40020133962E+03  0.49118996201E+03 -0.39804068469E+03  0.75284368202E+03  0.83117578629E+02 0.  0.
        254    2    1    2    0    0 -0.40020133962E+03 -0.49118996201E+03 -0.15396961287E+04  0.19063576506E+04  0.92849697496E+03 0.  0.
         23    2    4    4    0    0  0.28239375792E+03 -0.27867102076E+03 -0.58874635771E+03  0.71305517457E+03  0.66495382796E+02 0.  0.
         23    2    4    4    0    0 -0.68259509754E+03 -0.21251894124E+03 -0.95094977095E+03  0.11933024761E+04  0.92547095899E+02 0.  0.
          2    1    3    3  502    0  0.72022335007E+02  0.14540418927E+03 -0.10374490020E+03  0.19259439066E+03  0.00000000000E+00 0. -1.
         -1    1    3    3    0  502  0.32817900461E+03  0.34578577273E+03 -0.29429578450E+03  0.56024929136E+03  0.00000000000E+00 0.  1.
         11    1    5    5    0    0  0.13327430181E+03 -0.98547356901E+02 -0.20436065222E+03  0.26312905057E+03  0.00000000000E+00 0.  1.
        -11    1    5    5    0    0  0.14911945610E+03 -0.18012366386E+03 -0.38438570549E+03  0.44992612400E+03  0.00000000000E+00 0. -1.
          3    1    6    6  503    0 -0.65874890490E+03 -0.19136153428E+03 -0.92802566601E+03  0.11540368249E+04  0.00000000000E+00 0. -1.
         -3    1    6    6    0  503 -0.23846192636E+02 -0.21157406963E+02 -0.22924104940E+02  0.39265651146E+02  0.00000000000E+00 0.  1.
<mgrwt>
<rscale>  0 0.18211336E+04</rscale>
<asrwt>0</asrwt>
<pdfrwt beam="1">  1        2 0.35361064E+00 0.18211336E+04</pdfrwt>
<pdfrwt beam="2">  1       -1 0.55497269E-01 0.18211336E+04</pdfrwt>
<totfact> 0.16012581E+01</totfact>
</mgrwt>
</event>
<event>
12    6  0.1705838E-008  0.1264715E+04  0.7818608E-02  0.9058024E-01
          2   -1    0    0  501    0  0.00000000000E+00  0.00000000000E+00  0.58313775759E+03  0.58313775759E+03  0.00000000000E+00 0. -1.
         -1   -1    0    0    0  501 -0.00000000000E+00 -0.00000000000E+00 -0.68573142644E+03  0.68573142644E+03  0.00000000000E+00 0.  1.
         24    2    1    2    0    0 -0.13418324177E+03  0.23662313860E+03  0.15550149244E+03  0.32310880373E+03  0.78885567799E+02 0.  0.
        254    2    1    2    0    0  0.13418324177E+03 -0.23662313860E+03 -0.25809516129E+03  0.94576038029E+03  0.86824762168E+03 0.  0.
         23    2    4    4    0    0  0.37127439488E+01 -0.35979549400E+03 -0.50402075420E+03  0.62828479586E+03  0.10601076399E+03 0.  0.
         23    2    4    4    0    0  0.13047049782E+03  0.12317235540E+03  0.24592559290E+03  0.31747558443E+03  0.90096445723E+02 0.  0.
          4    1    3    3  502    0 -0.56745140682E+02  0.13679301948E+03  0.12335358866E+03  0.19273932916E+03  0.00000000000E+00 0. -1.
         -3    1    3    3    0  502 -0.77438101085E+02  0.99830119117E+02  0.32147903780E+02  0.13036947457E+03  0.00000000000E+00 0.  1.
         11    1    5    5    0    0  0.14593839756E+01 -0.25890583686E+03 -0.27333720931E+03  0.37649381423E+03  0.00000000000E+00 0. -1.
        -11    1    5    5    0    0  0.22533599732E+01 -0.10088965714E+03 -0.23068354488E+03  0.25179098162E+03  0.00000000000E+00 0.  1.
          3    1    6    6  503    0  0.10688827334E+03  0.13512560833E+03  0.22691704001E+03  0.28491292714E+03  0.00000000000E+00 0. -1.
         -3    1    6    6    0  503  0.23582224477E+02 -0.11953252933E+02  0.19008552895E+02  0.32562657295E+02  0.00000000000E+00 0.  1.
<mgrwt>
<rscale>  0 0.12647148E+04</rscale>
<asrwt>0</asrwt>
<pdfrwt beam="1">  1        2 0.89713501E-01 0.12647148E+04</pdfrwt>
<pdfrwt beam="2">  1       -1 0.10549714E+00 0.12647148E+04</pdfrwt>
<totfact> 0.48564553E+01</totfact>
</mgrwt>
</event>
<event>
12    6  0.2226861E-008  0.1562075E+04  0.7818608E-02  0.8844192E-01
         -1   -1    0    0    0  501 -0.00000000000E+00  0.00000000000E+00  0.47767667484E+03  0.47767667484E+03  0.00000000000E+00 0.  1.
          2   -1    0    0  501    0  0.00000000000E+00 -0.00000000000E+00 -0.12770548923E+04  0.12770548923E+04  0.00000000000E+00 0. -1.
         24    2    1    2    0    0  0.18355983674E+03  0.26977130645E+03 -0.72419741264E+03  0.79814756058E+03  0.78146430161E+02 0.  0.
        254    2    1    2    0    0 -0.18355983674E+03 -0.26977130645E+03 -0.75180804817E+02  0.95658400656E+03  0.89606363431E+03 0.  0.
         23    2    4    4    0    0  0.15967178361E+03 -0.35097118009E+03 -0.32454062773E+03  0.51496374918E+03  0.10576008788E+03 0.  0.
         23    2    4    4    0    0 -0.34323162034E+03  0.81199873641E+02  0.24935982291E+03  0.44162025738E+03  0.91906287908E+02 0.  0.
          2    1    3    3  502    0  0.18211949443E+03  0.26064679852E+03 -0.72160313445E+03  0.78855269163E+03  0.00000000000E+00 0. -1.
         -1    1    3    3    0  502  0.14403423077E+01  0.91245079244E+01 -0.25942781848E+01  0.95948689479E+01  0.00000000000E+00 0.  1.
         11    1    5    5    0    0  0.38446300847E+02 -0.11212762602E+03 -0.42292268176E+02  0.12585451328E+03  0.00000000000E+00 0.  1.
        -11    1    5    5    0    0  0.12122548276E+03 -0.23884355407E+03 -0.28224835956E+03  0.38910923590E+03  0.00000000000E+00 0. -1.
          2    1    6    6  503    0 -0.20172623323E+03  0.10913331091E+02  0.17374785576E+03  0.26645992447E+03  0.00000000000E+00 0. -1.
         -2    1    6    6    0  503 -0.14150538711E+03  0.70286542550E+02  0.75611967157E+02  0.17516033290E+03  0.00000000000E+00 0.  1.
<mgrwt>
<rscale>  0 0.15620747E+04</rscale>
<asrwt>0</asrwt>
<pdfrwt beam="1">  1        2 0.19646998E+00 0.15620747E+04</pdfrwt>
<pdfrwt beam="2">  1       -1 0.73488720E-01 0.15620747E+04</pdfrwt>
<totfact> 0.34877277E+01</totfact>
</mgrwt>
</event>
<event>
11    6  0.1705838E-008  0.1262959E+04  0.7818608E-02  0.9059466E-01
          2   -1    0    0  501    0  0.00000000000E+00  0.00000000000E+00  0.92968269349E+03  0.92968269349E+03  0.00000000000E+00 0. -1.
         -1   -1    0    0    0  501 -0.00000000000E+00 -0.00000000000E+00 -0.42892738009E+03  0.42892738009E+03  0.00000000000E+00 0.  1.
         24    2    1    2    0    0  0.16477205091E+03 -0.29945788793E+02  0.43232388547E+03  0.47065114503E+03  0.81006045105E+02 0.  0.
        254    2    1    2    0    0 -0.16477205091E+03  0.29945788793E+02  0.68431427922E+02  0.88795892855E+03  0.86933400913E+03 0.  0.
         23    2    4    4    0    0 -0.36697403767E+03 -0.40533192289E+02  0.18613074142E+03  0.42317938189E+03  0.90129087196E+02 0.  0.
          2    1    3    3  502    0  0.15235144502E+03 -0.51527963682E+02  0.36467537595E+03  0.39856520629E+03  0.00000000000E+00 0. -1.
         -1    1    3    3    0  502  0.12420605882E+02  0.21582174889E+02  0.67648509523E+02  0.72085938741E+02  0.00000000000E+00 0.  1.
         11    1    4    4    0    0  0.22997762424E+03  0.69898911403E+02 -0.23981762697E+03  0.33954095434E+03  0.00000000000E+00 0.  1.
        -11    1    4    4    0    0 -0.27775637475E+02  0.58006968013E+00  0.12211831348E+03  0.12523859231E+03  0.00000000000E+00 0. -1.
          1    1    5    5  503    0 -0.10983877789E+03 -0.12318475791E+02  0.10403011090E+03  0.15178460379E+03  0.00000000000E+00 0. -1.
         -1    1    5    5    0  503 -0.25713525978E+03 -0.28214716499E+02  0.82100630512E+02  0.27139477810E+03  0.00000000000E+00 0.  1.
<mgrwt>
<rscale>  0 0.12629590E+04</rscale>
<asrwt>0</asrwt>
<pdfrwt beam="1">  1        2 0.14302811E+00 0.12629590E+04</pdfrwt>
<pdfrwt beam="2">  1       -1 0.65988828E-01 0.12629590E+04</pdfrwt>
<totfact> 0.73097261E+01</totfact>
</mgrwt>
</event>
<event>
12    6  0.1705838E-008  0.2632884E+04  0.7818608E-02  0.8357116E-01
         -1   -1    0    0    0  501 -0.00000000000E+00  0.00000000000E+00  0.71410134991E+03  0.71410134991E+03  0.00000000000E+00 0.  1.
          2   -1    0    0  501    0  0.00000000000E+00 -0.00000000000E+00 -0.24268533080E+04  0.24268533080E+04  0.00000000000E+00 0. -1.
         24    2    1    2    0    0 -0.11604906592E+03  0.64199310025E+03 -0.18987126918E+04  0.20092351833E+04  0.79332270009E+02 0.  0.
        254    2    1    2    0    0  0.11604906592E+03 -0.64199310025E+03  0.18596073376E+03  0.11317194746E+04  0.90586149511E+03 0.  0.
         23    2    4    4    0    0 -0.27904070070E+03 -0.50976284633E+03 -0.13243376919E+03  0.60054123575E+03  0.73411174070E+02 0.  0.
         23    2    4    4    0    0  0.39508976661E+03 -0.13223025392E+03  0.31839450294E+03  0.53117823889E+03  0.84820388051E+02 0.  0.
          2    1    3    3  502    0 -0.90460041411E+02  0.32042362864E+03 -0.89273655859E+03  0.95280264689E+03  0.00000000000E+00 0. -1.
         -1    1    3    3    0  502 -0.25589024506E+02  0.32156947161E+03 -0.10059761332E+04  0.10564325364E+04  0.00000000000E+00 0.  1.
         11    1    5    5    0    0 -0.83541033066E+02 -0.21979267522E+03 -0.36922945367E+02  0.23801518477E+03  0.00000000000E+00 0. -1.
        -11    1    5    5    0    0 -0.19549966763E+03 -0.28997017111E+03 -0.95510823820E+02  0.36252605098E+03  0.00000000000E+00 0.  1.
          2    1    6    6  503    0  0.39395656158E+02 -0.12543422042E+02  0.38861510596E+01  0.41526585830E+02  0.00000000000E+00 0. -1.
         -2    1    6    6    0  503  0.35569411046E+03 -0.11968683188E+03  0.31450835188E+03  0.48965165306E+03  0.00000000000E+00 0.  1.
<mgrwt>
<rscale>  0 0.26328838E+04</rscale>
<asrwt>0</asrwt>
<pdfrwt beam="1">  1        2 0.37336204E+00 0.26328838E+04</pdfrwt>
<pdfrwt beam="2">  1       -1 0.10986175E+00 0.26328838E+04</pdfrwt>
<totfact> 0.29455706E+00</totfact>
</mgrwt>
</event>
<event>
12    6  0.1705838E-008  0.1932403E+04  0.7818608E-02  0.8638894E-01
          2   -1    0    0  501    0  0.00000000000E+00  0.00000000000E+00  0.16141789354E+04  0.16141789354E+04  0.00000000000E+00 0. -1.
         -1   -1    0    0    0  501 -0.00000000000E+00 -0.00000000000E+00 -0.57834039792E+03  0.57834039792E+03  0.00000000000E+00 0.  1.
         24    2    1    2    0    0 -0.57495787719E+02  0.47280683535E+03 -0.25336837516E+03  0.54470384875E+03  0.75197607328E+02 0.  0.
        254    2    1    2    0    0  0.57495787719E+02 -0.47280683535E+03  0.12892069126E+04  0.16478154846E+04  0.90905959015E+03 0.  0.
         23    2    4    4    0    0 -0.29919072256E+03  0.49359172364E+02  0.18673957163E+03  0.37374944880E+03  0.11342648059E+03 0.  0.
         23    2    4    4    0    0  0.35668651028E+03 -0.52216600772E+03  0.11024673410E+04  0.12740660358E+04  0.89036056267E+02 0.  0.
          4    1    3    3  502    0 -0.23552359566E+02  0.28996501002E+03 -0.19327315450E+03  0.34926914110E+03  0.00000000000E+00 0. -1.
         -3    1    3    3    0  502 -0.33943428153E+02  0.18284182533E+03 -0.60095220659E+02  0.19543470764E+03  0.00000000000E+00 0.  1.
         11    1    5    5    0    0 -0.25729470937E+03 -0.21735248074E+01  0.15066800193E+03  0.29817132405E+03  0.00000000000E+00 0. -1.
        -11    1    5    5    0    0 -0.41896013186E+02  0.51532697171E+02  0.36071569701E+02  0.75578124741E+02  0.00000000000E+00 0.  1.
          3    1    6    6  503    0  0.34561242177E+03 -0.49718603520E+03  0.10095487120E+04  0.11772130230E+04  0.00000000000E+00 0. -1.
         -3    1    6    6    0  503  0.11074088514E+02 -0.24979972518E+02  0.92918629028E+02  0.96853012776E+02  0.00000000000E+00 0.  1.
<mgrwt>
<rscale>  0 0.19324025E+04</rscale>
<asrwt>0</asrwt>
<pdfrwt beam="1">  1        2 0.24833522E+00 0.19324025E+04</pdfrwt>
<pdfrwt beam="2">  1       -1 0.88975447E-01 0.19324025E+04</pdfrwt>
<totfact> 0.14435039E+01</totfact>
</mgrwt>
</event>
<event>
11    6  0.1705838E-008  0.1211622E+04  0.7818608E-02  0.9102744E-01
         -1   -1    0    0    0  501 -0.00000000000E+00  0.00000000000E+00  0.39789236025E+03  0.39789236025E+03  0.00000000000E+00 0.  1.
          2   -1    0    0  501    0  0.00000000000E+00 -0.00000000000E+00 -0.92237815112E+03  0.92237815112E+03  0.00000000000E+00 0. -1.
         24    2    1    2    0    0 -0.11568978275E+03 -0.18732277258E+03  0.29079351650E+02  0.23616588485E+03  0.80341580260E+02 0.  0.
        254    2    1    2    0    0  0.11568978275E+03  0.18732277258E+03 -0.55356514252E+03  0.10841046265E+04  0.90574528830E+03 0.  0.
         23    2    4    4    0    0 -0.23652655343E+03 -0.20921345833E+03 -0.39176707750E+03  0.51134884869E+03  0.91000661641E+02 0.  0.
          2    1    3    3  502    0 -0.93729936751E+02 -0.15450674787E+03 -0.94973569732E+01  0.18096363162E+03  0.00000000000E+00 0. -1.
         -1    1    3    3    0  502 -0.21959845998E+02 -0.32816024710E+02  0.38576708623E+02  0.55202253235E+02  0.00000000000E+00 0.  1.
         11    1    4    4    0    0  0.21159420142E+03  0.15400005042E+03 -0.12491502635E+03  0.28998600899E+03  0.00000000000E+00 0. -1.
        -11    1    4    4    0    0  0.14062213476E+03  0.24253618049E+03 -0.36883038676E+02  0.28276976884E+03  0.00000000000E+00 0.  1.
          3    1    5    5  503    0 -0.10261279973E+03 -0.41563681901E+02 -0.10006706324E+03  0.14923251478E+03  0.00000000000E+00 0. -1.
         -3    1    5    5    0  503 -0.13391375370E+03 -0.16764977643E+03 -0.29170001425E+03  0.36211633391E+03  0.00000000000E+00 0.  1.
<mgrwt>
<rscale>  0 0.12116224E+04</rscale>
<asrwt>0</asrwt>
<pdfrwt beam="1">  1        2 0.14190433E+00 0.12116224E+04</pdfrwt>
<pdfrwt beam="2">  1       -1 0.61214210E-01 0.12116224E+04</pdfrwt>
<totfact> 0.86247642E+01</totfact>
</mgrwt>
</event>
<event>
12    6  0.1705838E-008  0.2499119E+04  0.7818608E-02  0.8403300E-01
          2   -1    0    0  501    0  0.00000000000E+00  0.00000000000E+00  0.47436942389E+03  0.47436942389E+03  0.00000000000E+00 0. -1.
         -3   -1    0    0    0  501 -0.00000000000E+00 -0.00000000000E+00 -0.32915246964E+04  0.32915246964E+04  0.00000000000E+00 0.  1.
         24    2    1    2    0    0  0.36708393730E+03 -0.10024246304E+04 -0.15150963720E+04  0.18550816305E+04  0.78772344896E+02 0.  0.
        254    2    1    2    0    0 -0.36708393730E+03  0.10024246304E+04 -0.13020589005E+04  0.19108124899E+04  0.90346069882E+03 0.  0.
         23    2    4    4    0    0  0.15855059904E+03  0.91570224615E+02 -0.61480707052E+03  0.65121385058E+03  0.11210863806E+03 0.  0.
         23    2    4    4    0    0 -0.52563453634E+03  0.91085440583E+03 -0.68725182997E+03  0.12595986393E+04  0.91248232126E+02 0.  0.
          2    1    3    3  502    0  0.10678610944E+02 -0.77024352685E+01 -0.12487494856E+02  0.18146563546E+02  0.00000000000E+00 0. -1.
         -1    1    3    3    0  502  0.35640532636E+03 -0.99472219518E+03 -0.15026088772E+04  0.18369350669E+04  0.00000000000E+00 0.  1.
         11    1    5    5    0    0  0.98698278451E+02  0.76723565704E+02 -0.53992563765E+03  0.55420894065E+03  0.00000000000E+00 0. -1.
        -11    1    5    5    0    0  0.59852320594E+02  0.14846658911E+02 -0.74881432870E+02  0.97004909927E+02  0.00000000000E+00 0.  1.
          1    1    6    6  503    0 -0.41224967324E+03  0.75871607416E+03 -0.52999931482E+03  0.10131629425E+04  0.00000000000E+00 0. -1.
         -1    1    6    6    0  503 -0.11338486310E+03  0.15213833167E+03 -0.15725251515E+03  0.24643569681E+03  0.00000000000E+00 0.  1.
<mgrwt>
<rscale>  0 0.24991188E+04</rscale>
<asrwt>0</asrwt>
<pdfrwt beam="1">  1        2 0.72979909E-01 0.24991188E+04</pdfrwt>
<pdfrwt beam="2">  1       -3 0.50638843E+00 0.24991188E+04</pdfrwt>
<totfact> 0.10155117E-01</totfact>
</mgrwt>
</event>
<event>
12    6  0.1705838E-008  0.1763053E+04  0.7818608E-02  0.8726198E-01
          2   -1    0    0  501    0  0.00000000000E+00  0.00000000000E+00  0.23684527136E+04  0.23684527136E+04  0.00000000000E+00 0. -1.
         -1   -1    0    0    0  501 -0.00000000000E+00 -0.00000000000E+00 -0.32809993701E+03  0.32809993701E+03  0.00000000000E+00 0.  1.
         24    2    1    2    0    0 -0.83632455487E+02  0.63790030400E+03  0.91265614001E+03  0.11195326977E+04  0.80629063196E+02 0.  0.
        254    2    1    2    0    0  0.83632455487E+02 -0.63790030400E+03  0.11276966365E+04  0.15770199529E+04  0.89519888423E+03 0.  0.
         23    2    4    4    0    0  0.42766901538E+03 -0.41197394992E+03  0.36735298667E+03  0.70869540564E+03  0.12115130636E+03 0.  0.
         23    2    4    4    0    0 -0.34403655989E+03 -0.22592635407E+03  0.76034364988E+03  0.86832454726E+03  0.80381474572E+02 0.  0.
          4    1    3    3  502    0 -0.46988369027E+02  0.31951214039E+03  0.52710366331E+03  0.61817003046E+03  0.00000000000E+00 0. -1.
         -3    1    3    3    0  502 -0.36644086460E+02  0.31838816361E+03  0.38555247670E+03  0.50136266722E+03  0.00000000000E+00 0.  1.
         11    1    5    5    0    0  0.67274680524E+02 -0.34459982478E+02  0.10199491956E+02  0.76271899597E+02  0.00000000000E+00 0. -1.
        -11    1    5    5    0    0  0.36039433486E+03 -0.37751396745E+03  0.35715349471E+03  0.63242350604E+03  0.00000000000E+00 0.  1.
          3    1    6    6  503    0 -0.40159715203E+02 -0.29373874704E+02  0.47075770776E+02  0.68496389937E+02  0.00000000000E+00 0. -1.
         -3    1    6    6    0  503 -0.30387684469E+03 -0.19655247937E+03  0.71326787910E+03  0.79982815732E+03  0.00000000000E+00 0.  1.
<mgrwt>
<rscale>  0 0.17630532E+04</rscale>
<asrwt>0</asrwt>
<pdfrwt beam="1">  1        2 0.36437733E+00 0.17630532E+04</pdfrwt>
<pdfrwt beam="2">  1       -1 0.50476915E-01 0.17630532E+04</pdfrwt>
<totfact> 0.17627866E+01</totfact>
</mgrwt>
</event>
<event>
12    6  0.1705838E-008  0.1605266E+04  0.7818608E-02  0.8817319E-01
          4   -1    0    0  501    0  0.00000000000E+00  0.00000000000E+00  0.12307462297E+04  0.12307462297E+04  0.00000000000E+00 0. -1.
         -3   -1    0    0    0  501 -0.00000000000E+00 -0.00000000000E+00 -0.52343861456E+03  0.52343861456E+03  0.00000000000E+00 0.  1.
         24    2    1    2    0    0  0.35324391386E+03  0.11479991110E+03  0.68254181034E+03  0.78113994929E+03  0.79724621417E+02 0.  0.
        254    2    1    2    0    0 -0.35324391386E+03 -0.11479991110E+03  0.24765804834E+02  0.97304489500E+03  0.89902321456E+03 0.  0.
         23    2    4    4    0    0 -0.42829021638E+03  0.29197605685E+03  0.12345872339E+03  0.53820238754E+03  0.75744480700E+02 0.  0.
         23    2    4    4    0    0  0.75046302524E+02 -0.40677596794E+03 -0.98692918552E+02  0.43484250745E+03  0.90824437775E+02 0.  0.
          2    1    3    3  502    0  0.31880444270E+03  0.12228965917E+03  0.58414270302E+03  0.67661933974E+03  0.00000000000E+00 0. -1.
         -1    1    3    3    0  502  0.34439471158E+02 -0.74897480725E+01  0.98399107319E+02  0.10452060955E+03  0.00000000000E+00 0.  1.
         11    1    5    5    0    0 -0.15304617061E+03  0.11799967102E+03  0.10467210508E+02  0.19353711581E+03  0.00000000000E+00 0. -1.
        -11    1    5    5    0    0 -0.27524404577E+03  0.17397638583E+03  0.11299151288E+03  0.34466527173E+03  0.00000000000E+00 0.  1.
          1    1    6    6  503    0  0.12201618626E+02 -0.25725690790E+02 -0.32164461940E+02  0.42956294948E+02  0.00000000000E+00 0. -1.
         -1    1    6    6    0  503  0.62844683898E+02 -0.38105027715E+03 -0.66528456612E+02  0.39188621251E+03  0.00000000000E+00 0.  1.
<mgrwt>
<rscale>  0 0.16052665E+04</rscale>
<asrwt>0</asrwt>
<pdfrwt beam="1">  1        4 0.18934557E+00 0.16052665E+04</pdfrwt>
<pdfrwt beam="2">  1       -3 0.80529018E-01 0.16052665E+04</pdfrwt>
<totfact> 0.48681353E-01</totfact>
</mgrwt>
</event>
<event>
11    6  0.1705838E-008  0.1650971E+04  0.7818608E-02  0.8789832E-01
          2   -1    0    0  501    0  0.00000000000E+00  0.00000000000E+00  0.28997688893E+04  0.28997688893E+04  0.00000000000E+00 0. -1.
         -1   -1    0    0    0  501 -0.00000000000E+00 -0.00000000000E+00 -0.23499337165E+03  0.23499337165E+03  0.00000000000E+00 0.  1.
         24    2    1    2    0    0  0.41455291755E+03  0.31713453667E+03  0.14314025050E+04  0.15253111783E+04  0.72336874995E+02 0.  0.
        254    2    1    2    0    0 -0.41455291755E+03 -0.31713453667E+03  0.12333730126E+04  0.16094510826E+04  0.89257793123E+03 0.  0.
         23    2    4    4    0    0 -0.48041787514E+02  0.10949256017E+03 -0.34411145048E+02  0.15450357018E+03  0.91600175846E+02 0.  0.
          4    1    3    3  502    0  0.35863108709E+02  0.82289774877E+01  0.74611878498E+02  0.83191412115E+02  0.00000000000E+00 0. -1.
         -3    1    3    3    0  502  0.37868980884E+03  0.30890555918E+03  0.13567906265E+04  0.14421197662E+04  0.00000000000E+00 0.  1.
         11    1    4    4    0    0 -0.35157766134E+03 -0.20868776078E+03  0.11171025099E+04  0.11895694394E+04  0.00000000000E+00 0.  1.
        -11    1    4    4    0    0 -0.14933468694E+02 -0.21793933606E+03  0.15068164772E+03  0.26537807304E+03  0.00000000000E+00 0. -1.
          3    1    5    5  503    0 -0.25565368235E+01 -0.44682678252E+01  0.19727450987E+02  0.20388075444E+02  0.00000000000E+00 0. -1.
         -3    1    5    5    0  503 -0.45485250690E+02  0.11396082800E+03 -0.54138596035E+02  0.13411549474E+03  0.00000000000E+00 0.  1.
<mgrwt>
<rscale>  0 0.16509712E+04</rscale>
<asrwt>0</asrwt>
<pdfrwt beam="1">  1        2 0.44611827E+00 0.16509712E+04</pdfrwt>
<pdfrwt beam="2">  1       -1 0.36152828E-01 0.16509712E+04</pdfrwt>
<totfact> 0.16073283E+01</totfact>
</mgrwt>
</event>
<event>
12    6  0.1705838E-008  0.2665595E+04  0.7818608E-02  0.8346255E-01
         -1   -1    0    0    0  501 -0.00000000000E+00  0.00000000000E+00  0.18139955212E+04  0.18139955212E+04  0.00000000000E+00 0.  1.
          2   -1    0    0  501    0  0.00000000000E+00 -0.00000000000E+00 -0.97924705981E+03  0.97924705981E+03  0.00000000000E+00 0. -1.
         24    2    1    2    0    0  0.62006207527E+03 -0.98088004274E+03  0.52381302141E+03  0.12755808093E+04  0.78253973012E+02 0.  0.
        254    2    1    2    0    0 -0.62006207527E+03  0.98088004274E+03  0.31093543994E+03  0.15176617716E+04  0.92736927373E+03 0.  0.
         23    2    4    4    0    0 -0.30930577899E+03 -0.40944627746E+02 -0.13576946855E+03  0.35618254143E+03  0.10529067753E+03 0.  0.
         23    2    4    4    0    0 -0.31075629629E+03  0.10218246705E+04  0.44670490849E+03  0.11614792302E+04  0.93774165195E+02 0.  0.
          4    1    3    3  502    0  0.26484072202E+03 -0.46183159073E+03  0.20558770379E+03  0.57069723162E+03  0.00000000000E+00 0. -1.
         -3    1    3    3    0  502  0.35522135325E+03 -0.51904845202E+03  0.31822531762E+03  0.70488357771E+03  0.00000000000E+00 0.  1.
         11    1    5    5    0    0 -0.18410342974E+03 -0.38694286753E+02 -0.26489825655E+02  0.18998166104E+03  0.00000000000E+00 0. -1.
        -11    1    5    5    0    0 -0.12520234925E+03 -0.22503409926E+01 -0.10927964289E+03  0.16620088039E+03  0.00000000000E+00 0.  1.
          3    1    6    6  503    0 -0.27960715349E+03  0.89834836820E+03  0.42460851007E+03  0.10322317268E+04  0.00000000000E+00 0. -1.
         -3    1    6    6    0  503 -0.31149142798E+02  0.12347630229E+03  0.22096398417E+02  0.12924750344E+03  0.00000000000E+00 0.  1.
<mgrwt>
<rscale>  0 0.26655955E+04</rscale>
<asrwt>0</asrwt>
<pdfrwt beam="1">  1        2 0.15065339E+00 0.26655955E+04</pdfrwt>
<pdfrwt beam="2">  1       -1 0.27907623E+00 0.26655955E+04</pdfrwt>
<totfact> 0.11756614E+00</totfact>
</mgrwt>
</event>
<event>
11    6  0.1705838E-008  0.1626539E+04  0.7818608E-02  0.8804408E-01
          2   -1    0    0  501    0  0.00000000000E+00  0.00000000000E+00  0.34470425431E+04  0.34470425431E+04  0.00000000000E+00 0. -1.
         -1   -1    0    0    0  501 -0.00000000000E+00 -0.00000000000E+00 -0.19187671646E+03  0.19187671646E+03  0.00000000000E+00 0.  1.
         24    2    1    2    0    0 -0.24459321084E+02  0.53654714949E+03  0.15086099158E+04  0.16033841958E+04  0.80348610153E+02 0.  0.
        254    2    1    2    0    0  0.24459321084E+02 -0.53654714949E+03  0.17465559109E+04  0.20355350638E+04  0.89691936328E+03 0.  0.
         23    2    4    4    0    0 -0.34183980832E+03 -0.46300811447E+03  0.83699753243E+03  0.10197914963E+04  0.90437038999E+02 0.  0.
          2    1    3    3  502    0 -0.17570023246E+02  0.45952633225E+03  0.11962695588E+04  0.12816138315E+04  0.00000000000E+00 0. -1.
         -1    1    3    3    0  502 -0.68892978382E+01  0.77020817238E+02  0.31234035705E+03  0.32177036432E+03  0.00000000000E+00 0.  1.
         11    1    4    4    0    0  0.23797012632E+02  0.71324295369E+02  0.21701498823E+03  0.22967141319E+03  0.00000000000E+00 0. -1.
        -11    1    4    4    0    0  0.34250211677E+03 -0.14486333039E+03  0.69254339020E+03  0.78607215432E+03  0.00000000000E+00 0.  1.
          4    1    5    5  503    0  0.38869238001E+01 -0.38357719936E+01  0.20905249775E+02  0.21606730238E+02  0.00000000000E+00 0. -1.
         -4    1    5    5    0  503 -0.34572673212E+03 -0.45917234248E+03  0.81609228266E+03  0.99818476607E+03  0.00000000000E+00 0.  1.
<mgrwt>
<rscale>  0 0.16265389E+04</rscale>
<asrwt>0</asrwt>
<pdfrwt beam="1">  1        2 0.53031419E+00 0.16265389E+04</pdfrwt>
<pdfrwt beam="2">  1       -1 0.29519497E-01 0.16265389E+04</pdfrwt>
<totfact> 0.10230992E+01</totfact>
</mgrwt>
</event>
<event>
11    6  0.1705838E-008  0.2525907E+04  0.7818608E-02  0.8393814E-01
         -1   -1    0    0    0  501 -0.00000000000E+00  0.00000000000E+00  0.94876669921E+03  0.94876669921E+03  0.00000000000E+00 0.  1.
          2   -1    0    0  501    0  0.00000000000E+00 -0.00000000000E+00 -0.16811844857E+04  0.16811844857E+04  0.00000000000E+00 0. -1.
         24    2    1    2    0    0 -0.60325517907E+02  0.78396805833E+03  0.48930217201E+03  0.92981771524E+03  0.83061925410E+02 0.  0.
        254    2    1    2    0    0  0.60325517907E+02 -0.78396805833E+03 -0.12217199585E+04  0.17001334697E+04  0.88295474014E+03 0.  0.
         23    2    4    4    0    0 -0.94937986641E+02 -0.91900196967E+03 -0.99042211196E+03  0.13574842825E+04  0.90828276103E+02 0.  0.
          4    1    3    3  502    0 -0.33270369786E+02  0.26461465714E+03  0.12292641560E+03  0.29366432867E+03  0.00000000000E+00 0. -1.
         -3    1    3    3    0  502 -0.27055148121E+02  0.51935340118E+03  0.36637575640E+03  0.63615338657E+03  0.00000000000E+00 0.  1.
         11    1    4    4    0    0  0.25332205710E+02  0.77435699224E+02 -0.13506108079E+02  0.82585853001E+02  0.00000000000E+00 0.  1.
        -11    1    4    4    0    0  0.12993129884E+03  0.57598212116E+02 -0.21779173847E+03  0.26006333421E+03  0.00000000000E+00 0. -1.
          1    1    5    5  503    0 -0.38951812841E+02 -0.71861396489E+03 -0.74731196984E+03  0.10374962431E+04  0.00000000000E+00 0. -1.
         -1    1    5    5    0  503 -0.55986173800E+02 -0.20038800477E+03 -0.24311014212E+03  0.31998803933E+03  0.00000000000E+00 0.  1.
<mgrwt>
<rscale>  0 0.25259072E+04</rscale>
<asrwt>0</asrwt>
<pdfrwt beam="1">  1        2 0.25864377E+00 0.25259072E+04</pdfrwt>
<pdfrwt beam="2">  1       -1 0.14596411E+00 0.25259072E+04</pdfrwt>
<totfact> 0.38215505E+00</totfact>
</mgrwt>
</event>
<event>
11    6  0.1705838E-008  0.1016191E+04  0.7818608E-02  0.9290963E-01
         -1   -1    0    0    0  501 -0.00000000000E+00  0.00000000000E+00  0.70924683626E+02  0.70924683626E+02  0.00000000000E+00 0.  1.
          2   -1    0    0  501    0  0.00000000000E+00 -0.00000000000E+00 -0.36399325655E+04  0.36399325655E+04  0.00000000000E+00 0. -1.
         24    2    1    2    0    0 -0.30630003002E+02  0.50741565178E+02 -0.25421268059E+03  0.27286538304E+03  0.79489161343E+02 0.  0.
        254    2    1    2    0    0  0.30630003002E+02 -0.50741565178E+02 -0.33147952013E+04  0.34379918661E+04  0.91016918277E+03 0.  0.
         23    2    4    4    0    0 -0.25514130248E+03  0.27782463849E+03 -0.20857656813E+04  0.21214149026E+04  0.87744503426E+02 0.  0.
          4    1    3    3  502    0 -0.43040746632E+02  0.63865497736E+02 -0.23070032856E+03  0.24321584913E+03  0.00000000000E+00 0. -1.
         -3    1    3    3    0  502  0.12410743630E+02 -0.13123932557E+02 -0.23512352028E+02  0.29649533910E+02  0.00000000000E+00 0.  1.
         11    1    4    4    0    0  0.95361120066E+02 -0.10344196103E+02 -0.18055077044E+03  0.20444883546E+03  0.00000000000E+00 0. -1.
        -11    1    4    4    0    0  0.19041018541E+03 -0.31822200757E+03 -0.10484787496E+04  0.11121281280E+04  0.00000000000E+00 0.  1.
          1    1    5    5  503    0 -0.16235830753E+02  0.45949943736E+02 -0.16643817755E+03  0.17342625659E+03  0.00000000000E+00 0. -1.
         -1    1    5    5    0  503 -0.23890547172E+03  0.23187469476E+03 -0.19193275037E+04  0.19479886460E+04  0.00000000000E+00 0.  1.
<mgrwt>
<rscale>  0 0.10161911E+04</rscale>
<asrwt>0</asrwt>
<pdfrwt beam="1">  1        2 0.55998971E+00 0.10161911E+04</pdfrwt>
<pdfrwt beam="2">  1       -1 0.10911488E-01 0.10161911E+04</pdfrwt>
<totfact> 0.42065743E+01</totfact>
</mgrwt>
</event>
<event>
12    6  0.2447454E-008  0.2839058E+04  0.7818608E-02  0.8291244E-01
          2   -1    0    0  501    0  0.00000000000E+00  0.00000000000E+00  0.93892714396E+03  0.93892714396E+03  0.00000000000E+00 0. -1.
         -1   -1    0    0    0  501 -0.00000000000E+00 -0.00000000000E+00 -0.21461335681E+04  0.21461335681E+04  0.00000000000E+00 0.  1.
         24    2    1    2    0    0 -0.10506445909E+04 -0.63268810823E+03 -0.92667855241E+03  0.15392390488E+04  0.79846171248E+02 0.  0.
        254    2    1    2    0    0  0.10506445909E+04  0.63268810823E+03 -0.28052787170E+03  0.15458216633E+04  0.89817616814E+03 0.  0.
         23    2    4    4    0    0  0.57323478781E+02 -0.17405860046E+03 -0.13938113031E+03  0.25515658192E+03  0.10997910801E+03 0.  0.
         23    2    4    4    0    0  0.99332111216E+03  0.80674670869E+03 -0.14114674139E+03  0.12906650813E+04  0.91470572949E+02 0.  0.
          2    1    3    3  502    0 -0.15669840116E+03 -0.10857772296E+03 -0.17800829627E+03  0.26082650247E+03  0.00000000000E+00 0. -1.
         -1    1    3    3    0  502 -0.89394618978E+03 -0.52411038527E+03 -0.74867025615E+03  0.12784125463E+04  0.00000000000E+00 0.  1.
         11    1    5    5    0    0 -0.21434737401E+02 -0.42789707723E+02  0.39570327310E+00  0.47859833217E+02  0.00000000000E+00 0. -1.
        -11    1    5    5    0    0  0.78758216182E+02 -0.13126889274E+03 -0.13977683359E+03  0.20729674871E+03  0.00000000000E+00 0.  1.
          3    1    6    6  503    0  0.24496072858E+00  0.82544078234E+01 -0.35105942993E+01  0.89732673318E+01  0.00000000000E+00 0. -1.
         -3    1    6    6    0  503  0.99307615143E+03  0.79849230087E+03 -0.13763614709E+03  0.12816918140E+04  0.00000000000E+00 0.  1.
<mgrwt>
<rscale>  0 0.28390583E+04</rscale>
<asrwt>0</asrwt>
<pdfrwt beam="1">  1        2 0.14445033E+00 0.28390583E+04</pdfrwt>
<pdfrwt beam="2">  1       -1 0.33017439E+00 0.28390583E+04</pdfrwt>
<totfact> 0.57313301E-01</totfact>
</mgrwt>
</event>
<event>
11    6  0.1705838E-008  0.1692361E+04  0.7818608E-02  0.8765733E-01
         -1   -1    0    0    0  501 -0.00000000000E+00  0.00000000000E+00  0.75111805627E+03  0.75111805627E+03  0.00000000000E+00 0.  1.
          2   -1    0    0  501    0  0.00000000000E+00 -0.00000000000E+00 -0.95327377914E+03  0.95327377914E+03  0.00000000000E+00 0. -1.
         24    2    1    2    0    0  0.46912534910E+03 -0.23360427523E+03 -0.36950389961E+03  0.64627568220E+03  0.80557898397E+02 0.  0.
        254    2    1    2    0    0 -0.46912534910E+03  0.23360427523E+03  0.16734817674E+03  0.10581161532E+04  0.90385553650E+03 0.  0.
         23    2    4    4    0    0 -0.58640868933E+03  0.42040113641E+02 -0.18262339171E+03  0.62225433446E+03  0.90590460159E+02 0.  0.
          4    1    3    3  502    0  0.40590422193E+03 -0.16853979858E+03 -0.30658239304E+03  0.53587000738E+03  0.00000000000E+00 0. -1.
         -3    1    3    3    0  502  0.63221127176E+02 -0.65064476653E+02 -0.62921506562E+02  0.11040567482E+03  0.00000000000E+00 0.  1.
         11    1    4    4    0    0  0.89868443619E+02  0.85104968901E+02  0.27842929726E+03  0.30469996138E+03  0.00000000000E+00 0. -1.
        -11    1    4    4    0    0  0.27414896612E+02  0.10645919269E+03  0.71542271188E+02  0.13116185738E+03  0.00000000000E+00 0.  1.
          2    1    5    5  503    0 -0.10674488942E+03  0.42967169568E+02 -0.40283516618E+02  0.12191558879E+03  0.00000000000E+00 0. -1.
         -2    1    5    5    0  503 -0.47966379991E+03 -0.92705592689E+00 -0.14233987509E+03  0.50033874567E+03  0.00000000000E+00 0.  1.
<mgrwt>
<rscale>  0 0.16923607E+04</rscale>
<asrwt>0</asrwt>
<pdfrwt beam="1">  1        2 0.14665751E+00 0.16923607E+04</pdfrwt>
<pdfrwt beam="2">  1       -1 0.11555662E+00 0.16923607E+04</pdfrwt>
<totfact> 0.19917368E+01</totfact>
</mgrwt>
</event>
<event>
12    6  0.1705838E-008  0.1613843E+04  0.7818608E-02  0.8812089E-01
         -1   -1    0    0    0  501 -0.00000000000E+00  0.00000000000E+00  0.64131753369E+03  0.64131753369E+03  0.00000000000E+00 0.  1.
          2   -1    0    0  501    0  0.00000000000E+00 -0.00000000000E+00 -0.10152879175E+04  0.10152879175E+04  0.00000000000E+00 0. -1.
         24    2    1    2    0    0 -0.33306704429E+03  0.44269133312E+03 -0.19984228706E+03  0.59343299333E+03  0.72914370762E+02 0.  0.
        254    2    1    2    0    0  0.33306704429E+03 -0.44269133312E+03 -0.17412809670E+03  0.10631724578E+04  0.89056488174E+03 0.  0.
         23    2    4    4    0    0 -0.92623882040E+02  0.19460054178E+03 -0.15372730565E+03  0.29125350243E+03  0.12144119480E+03 0.  0.
         23    2    4    4    0    0  0.42569092633E+03 -0.63729187489E+03 -0.20400791057E+02  0.77191895538E+03  0.89938772717E+02 0.  0.
          2    1    3    3  502    0 -0.26704500459E+03  0.34501554754E+03 -0.12521453756E+03  0.45390245971E+03  0.00000000000E+00 0. -1.
         -1    1    3    3    0  502 -0.66022039694E+02  0.97675785584E+02 -0.74627749499E+02  0.13953053361E+03  0.00000000000E+00 0.  1.
         11    1    5    5    0    0 -0.29204266081E+02 -0.10596606840E+02 -0.92804937047E+01  0.32423830700E+02  0.00000000000E+00 0.  1.
        -11    1    5    5    0    0 -0.63419615959E+02  0.20519714862E+03 -0.14444681194E+03  0.25882967173E+03  0.00000000000E+00 0. -1.
          3    1    6    6  503    0  0.39322600087E+03 -0.57182887426E+03 -0.43326266773E+02  0.69533597246E+03  0.00000000000E+00 0. -1.
         -3    1    6    6    0  503  0.32464925453E+02 -0.65463000630E+02  0.22925475717E+02  0.76582982920E+02  0.00000000000E+00 0.  1.
<mgrwt>
<rscale>  0 0.16138425E+04</rscale>
<asrwt>0</asrwt>
<pdfrwt beam="1">  1        2 0.15619814E+00 0.16138425E+04</pdfrwt>
<pdfrwt beam="2">  1       -1 0.98664236E-01 0.16138425E+04</pdfrwt>
<totfact> 0.26457014E+01</totfact>
</mgrwt>
</event>
<event>
12    6  0.1705838E-008  0.2154841E+04  0.7818608E-02  0.8537463E-01
         -1   -1    0    0    0  501 -0.00000000000E+00  0.00000000000E+00  0.20451837881E+04  0.20451837881E+04  0.00000000000E+00 0.  1.
          2   -1    0    0  501    0  0.00000000000E+00 -0.00000000000E+00 -0.56759457712E+03  0.56759457712E+03  0.00000000000E+00 0. -1.
         24    2    1    2    0    0 -0.41869942064E+02 -0.32873090044E+03 -0.38535484447E+03  0.51469554161E+03  0.81216054104E+02 0.  0.
        254    2    1    2    0    0  0.41869942064E+02  0.32873090044E+03  0.18629440555E+04  0.20980828236E+04  0.90640712931E+03 0.  0.
         23    2    4    4    0    0 -0.34245470720E+03  0.21491496708E+03  0.40695669982E+03  0.58492705979E+03  0.11429015786E+03 0.  0.
         23    2    4    4    0    0  0.38432464926E+03  0.11381593336E+03  0.14559873556E+04  0.15131557638E+04  0.95297865385E+02 0.  0.
          2    1    3    3  502    0 -0.44718645956E+01 -0.20428995154E+03 -0.28415158984E+03  0.34999501122E+03  0.00000000000E+00 0. -1.
         -1    1    3    3    0  502 -0.37398077469E+02 -0.12444094890E+03 -0.10120325463E+03  0.16470053038E+03  0.00000000000E+00 0.  1.
         11    1    5    5    0    0 -0.70050167132E+02 -0.46277706615E+01  0.63670634152E+02  0.94775481164E+02  0.00000000000E+00 0.  1.
        -11    1    5    5    0    0 -0.27240454006E+03  0.21954273774E+03  0.34328606567E+03  0.49015157862E+03  0.00000000000E+00 0. -1.
          1    1    6    6  503    0  0.29423565750E+03  0.42912515449E+02  0.10479140180E+04  0.10892841206E+04  0.00000000000E+00 0. -1.
         -1    1    6    6    0  503  0.90088991765E+02  0.70903417908E+02  0.40807333761E+03  0.42387164328E+03  0.00000000000E+00 0.  1.
<mgrwt>
<rscale>  0 0.21548413E+04</rscale>
<asrwt>0</asrwt>
<pdfrwt beam="1">  1        2 0.87322244E-01 0.21548413E+04</pdfrwt>
<pdfrwt beam="2">  1       -1 0.31464365E+00 0.21548413E+04</pdfrwt>
<totfact> 0.14741843E+00</totfact>
</mgrwt>
</event>
<event>
12    6  0.1705838E-008  0.1337747E+04  0.7818608E-02  0.9000155E-01
          2   -1    0    0  501    0  0.00000000000E+00  0.00000000000E+00  0.18407713083E+04  0.18407713083E+04  0.00000000000E+00 0. -1.
         -1   -1    0    0    0  501 -0.00000000000E+00 -0.00000000000E+00 -0.24304594753E+03  0.24304594753E+03  0.00000000000E+00 0.  1.
         24    2    1    2    0    0  0.36961633678E+02  0.14735251457E+00 -0.11592843758E+03  0.14826884601E+03  0.84723455900E+02 0.  0.
        254    2    1    2    0    0 -0.36961633678E+02 -0.14735251457E+00  0.17136537984E+04  0.19355484099E+04  0.89909516853E+03 0.  0.
         23    2    4    4    0    0 -0.87419549123E+02 -0.29115116693E+03  0.15576331103E+04  0.15886438820E+04  0.71814329939E+02 0.  0.
         23    2    4    4    0    0  0.50457915445E+02  0.29100381441E+03  0.15602068807E+03  0.34690452782E+03  0.93654017964E+02 0.  0.
          2    1    3    3  502    0  0.60426954678E+02  0.16200893202E+02 -0.66907116488E+02  0.91599388802E+02  0.00000000000E+00 0. -1.
         -1    1    3    3    0  502 -0.23465321000E+02 -0.16053540687E+02 -0.49021321096E+02  0.56669457208E+02  0.00000000000E+00 0.  1.
         11    1    5    5    0    0 -0.55705990240E+01 -0.23414653175E+02  0.53324706722E+02  0.58504716936E+02  0.00000000000E+00 0. -1.
        -11    1    5    5    0    0 -0.81848950099E+02 -0.26773651375E+03  0.15043084036E+04  0.15301391651E+04  0.00000000000E+00 0.  1.
          2    1    6    6  503    0 -0.13102272579E+01  0.67439166399E+01 -0.11147892357E+02  0.13094755099E+02  0.00000000000E+00 0. -1.
         -2    1    6    6    0  503  0.51768142703E+02  0.28425989777E+03  0.16716858042E+03  0.33380977272E+03  0.00000000000E+00 0.  1.
<mgrwt>
<rscale>  0 0.13377474E+04</rscale>
<asrwt>0</asrwt>
<pdfrwt beam="1">  1        2 0.28319558E+00 0.13377474E+04</pdfrwt>
<pdfrwt beam="2">  1       -1 0.37391686E-01 0.13377474E+04</pdfrwt>
<totfact> 0.62840392E+01</totfact>
</mgrwt>
</event>
<event>
11    6  0.1705838E-008  0.2136896E+04  0.7818608E-02  0.8545162E-01
          2   -1    0    0  501    0  0.00000000000E+00  0.00000000000E+00  0.12491206621E+04  0.12491206621E+04  0.00000000000E+00 0. -1.
         -1   -1    0    0    0  501 -0.00000000000E+00 -0.00000000000E+00 -0.91390766282E+03  0.91390766282E+03  0.00000000000E+00 0.  1.
         24    2    1    2    0    0 -0.79184916371E+03 -0.10712900272E+03  0.54926462888E+03  0.97284900360E+03  0.79005252771E+02 0.  0.
        254    2    1    2    0    0  0.79184916371E+03  0.10712900272E+03 -0.21405162962E+03  0.11901793213E+04  0.85569094619E+03 0.  0.
         23    2    4    4    0    0  0.24601524666E+03  0.13212000928E+03  0.29405768575E+03  0.41806956796E+03  0.10165157482E+03 0.  0.
          2    1    3    3  502    0 -0.57563951315E+03 -0.10398057011E+03  0.42915213252E+03  0.72549594134E+03  0.00000000000E+00 0. -1.
         -1    1    3    3    0  502 -0.21620965056E+03 -0.31484326021E+01  0.12011249637E+03  0.24735306226E+03  0.00000000000E+00 0.  1.
         11    1    4    4    0    0 -0.69776522434E+01  0.18614094895E+01 -0.58761576706E+02  0.59203677023E+02  0.00000000000E+00 0. -1.
        -11    1    4    4    0    0  0.55281156930E+03 -0.26852416056E+02 -0.44934773866E+03  0.71290607631E+03  0.00000000000E+00 0.  1.
          1    1    5    5  503    0  0.14354160913E+03  0.64353155413E+02  0.93857456368E+02  0.18317954110E+03  0.00000000000E+00 0. -1.
         -1    1    5    5    0  503  0.10247363753E+03  0.67766853868E+02  0.20020022938E+03  0.23489002685E+03  0.00000000000E+00 0.  1.
<mgrwt>
<rscale>  0 0.21368958E+04</rscale>
<asrwt>0</asrwt>
<pdfrwt beam="1">  1        2 0.19217241E+00 0.21368958E+04</pdfrwt>
<pdfrwt beam="2">  1       -1 0.14060118E+00 0.21368958E+04</pdfrwt>
<totfact> 0.76878798E+00</totfact>
</mgrwt>
</event>
<event>
12    6  0.1705838E-008  0.1880255E+04  0.7818608E-02  0.8664747E-01
          2   -1    0    0  501    0  0.00000000000E+00  0.00000000000E+00  0.15884964182E+04  0.15884964182E+04  0.00000000000E+00 0. -1.
         -1   -1    0    0    0  501 -0.00000000000E+00 -0.00000000000E+00 -0.55640043291E+03  0.55640043291E+03  0.00000000000E+00 0.  1.
         24    2    1    2    0    0  0.65146668022E+03 -0.27178020486E+03  0.61171541554E+03  0.93744271100E+03  0.79559861818E+02 0.  0.
        254    2    1    2    0    0 -0.65146668022E+03  0.27178020486E+03  0.42038056978E+03  0.12074541401E+04  0.88484595377E+03 0.  0.
         23    2    4    4    0    0 -0.53339489334E+03  0.47033477521E+03  0.57352793946E+03  0.91604027185E+03  0.66862315845E+02 0.  0.
         23    2    4    4    0    0 -0.11807178688E+03 -0.19855457036E+03 -0.15314736969E+03  0.29141386829E+03  0.90017006852E+02 0.  0.
          4    1    3    3  502    0  0.22988958420E+03 -0.11858701286E+03  0.18209447938E+03  0.31633921660E+03  0.00000000000E+00 0. -1.
         -3    1    3    3    0  502  0.42157709602E+03 -0.15319319200E+03  0.42962093617E+03  0.62110349440E+03  0.00000000000E+00 0.  1.
         11    1    5    5    0    0 -0.39595046002E+03  0.37734930286E+03  0.41543477172E+03  0.68684446035E+03  0.00000000000E+00 0. -1.
        -11    1    5    5    0    0 -0.13744443333E+03  0.92985472352E+02  0.15809316775E+03  0.22919581150E+03  0.00000000000E+00 0.  1.
          4    1    6    6  503    0 -0.13326209188E+03 -0.17875399623E+03 -0.13694834348E+03  0.26166127930E+03  0.00000000000E+00 0. -1.
         -4    1    6    6    0  503  0.15190305001E+02 -0.19800574129E+02 -0.16199026205E+02  0.29752588994E+02  0.00000000000E+00 0.  1.
<mgrwt>
<rscale>  0 0.18802554E+04</rscale>
<asrwt>0</asrwt>
<pdfrwt beam="1">  1        2 0.24438406E+00 0.18802554E+04</pdfrwt>
<pdfrwt beam="2">  1       -1 0.85600067E-01 0.18802554E+04</pdfrwt>
<totfact> 0.16308508E+01</totfact>
</mgrwt>
</event>
<event>
12    6  0.1705838E-008  0.1786344E+04  0.7818608E-02  0.8713596E-01
         -1   -1    0    0    0  501 -0.00000000000E+00  0.00000000000E+00  0.58271329919E+03  0.58271329919E+03  0.00000000000E+00 0.  1.
          2   -1    0    0  501    0  0.00000000000E+00 -0.00000000000E+00 -0.13690366637E+04  0.13690366637E+04  0.00000000000E+00 0. -1.
         24    2    1    2    0    0  0.29071191604E+03  0.38720340687E+02 -0.94122354379E+03  0.98921132637E+03  0.81391682118E+02 0.  0.
        254    2    1    2    0    0 -0.29071191604E+03 -0.38720340687E+02  0.15490017932E+03  0.96253863649E+03  0.90358944121E+03 0.  0.
         23    2    4    4    0    0 -0.31091661195E+03 -0.12364919253E+03  0.49024587737E+03  0.60436374480E+03  0.11382553912E+03 0.  0.
         23    2    4    4    0    0  0.20204695911E+02  0.84928851840E+02 -0.33534569804E+03  0.35817489168E+03  0.90616644303E+02 0.  0.
          4    1    3    3  502    0  0.14875871862E+03  0.59913221689E+02 -0.52395163502E+03  0.54794531328E+03  0.00000000000E+00 0. -1.
         -3    1    3    3    0  502  0.14195319742E+03 -0.21192881002E+02 -0.41727190877E+03  0.44126601309E+03  0.00000000000E+00 0.  1.
         11    1    5    5    0    0 -0.29680760109E+03 -0.11040411164E+03  0.39054128100E+03  0.50279848060E+03  0.00000000000E+00 0. -1.
        -11    1    5    5    0    0 -0.14109010863E+02 -0.13245080892E+02  0.99704596366E+02  0.10156526420E+03  0.00000000000E+00 0.  1.
          2    1    6    6  503    0  0.50538172004E+02  0.31171623788E+02 -0.21326660028E+03  0.22137845368E+03  0.00000000000E+00 0. -1.
         -2    1    6    6    0  503 -0.30333476093E+02  0.53757228052E+02 -0.12207909777E+03  0.13679643801E+03  0.00000000000E+00 0.  1.
<mgrwt>
<rscale>  0 0.17863436E+04</rscale>
<asrwt>0</asrwt>
<pdfrwt beam="1">  1        2 0.21062102E+00 0.17863436E+04</pdfrwt>
<pdfrwt beam="2">  1       -1 0.89648200E-01 0.17863436E+04</pdfrwt>
<totfact> 0.19787949E+01</totfact>
</mgrwt>
</event>
<event>
11    6  0.1705838E-008  0.1737059E+04  0.7818608E-02  0.8740506E-01
         -1   -1    0    0    0  501 -0.00000000000E+00  0.00000000000E+00  0.73734870359E+03  0.73734870359E+03  0.00000000000E+00 0.  1.
          2   -1    0    0  501    0  0.00000000000E+00 -0.00000000000E+00 -0.10230488379E+04  0.10230488379E+04  0.00000000000E+00 0. -1.
         24    2    1    2    0    0  0.62364794521E+03  0.22883507660E+02 -0.18022411459E+03  0.65437420763E+03  0.79148326883E+02 0.  0.
        254    2    1    2    0    0 -0.62364794521E+03 -0.22883507660E+02 -0.10547601974E+03  0.11060233339E+04  0.90702922217E+03 0.  0.
         23    2    4    4    0    0 -0.10115860280E+03  0.29153788643E+02  0.33460599661E+03  0.36227050459E+03  0.90530322062E+02 0.  0.
          4    1    3    3  502    0  0.83300754572E+02  0.14196351324E+02 -0.51079622918E+02  0.98740467796E+02  0.00000000000E+00 0. -1.
         -3    1    3    3    0  502  0.54034719064E+03  0.86871563356E+01 -0.12914449167E+03  0.55563373984E+03  0.00000000000E+00 0.  1.
         11    1    4    4    0    0 -0.42561185954E+03 -0.71421102594E+02 -0.47235569615E+03  0.63981742127E+03  0.00000000000E+00 0. -1.
        -11    1    4    4    0    0 -0.96877482869E+02  0.19383806290E+02  0.32273679798E+02  0.10393540802E+03  0.00000000000E+00 0.  1.
          1    1    5    5  503    0 -0.90663887211E+02 -0.15872109542E+02  0.20676301398E+03  0.22632456397E+03  0.00000000000E+00 0. -1.
         -1    1    5    5    0  503 -0.10494715594E+02  0.45025898186E+02  0.12784298263E+03  0.13594594062E+03  0.00000000000E+00 0.  1.
<mgrwt>
<rscale>  0 0.17370593E+04</rscale>
<asrwt>0</asrwt>
<pdfrwt beam="1">  1        2 0.15739213E+00 0.17370593E+04</pdfrwt>
<pdfrwt beam="2">  1       -1 0.11343826E+00 0.17370593E+04</pdfrwt>
<totfact> 0.18694548E+01</totfact>
</mgrwt>
</event>
<event>
11    6  0.1705838E-008  0.1591750E+04  0.7818608E-02  0.8825632E-01
         -1   -1    0    0    0  501 -0.00000000000E+00  0.00000000000E+00  0.59770437312E+03  0.59770437312E+03  0.00000000000E+00 0.  1.
          2   -1    0    0  501    0  0.00000000000E+00 -0.00000000000E+00 -0.10597501293E+04  0.10597501293E+04  0.00000000000E+00 0. -1.
         24    2    1    2    0    0  0.80822834045E+02  0.94029234459E+02 -0.69840697892E+03  0.71392374442E+03  0.80876308083E+02 0.  0.
        254    2    1    2    0    0 -0.80822834045E+02 -0.94029234459E+02  0.23636122277E+03  0.94353075797E+03  0.90499162215E+03 0.  0.
         23    2    4    4    0    0 -0.21291914056E+03 -0.16350918087E+03 -0.27427355201E+03  0.39426807259E+03  0.90285763467E+02 0.  0.
          2    1    3    3  502    0  0.68781328024E+02  0.94889813771E+02 -0.68822138306E+03  0.69812865572E+03  0.00000000000E+00 0. -1.
         -1    1    3    3    0  502  0.12041506021E+02 -0.86057931140E+00 -0.10185595865E+02  0.15795088702E+02  0.00000000000E+00 0.  1.
         11    1    4    4    0    0  0.18539103283E+02  0.22450861859E+02  0.58090613329E+01  0.29689808728E+02  0.00000000000E+00 0.  1.
        -11    1    4    4    0    0  0.11355720323E+03  0.47029084555E+02  0.50482571344E+03  0.51957287665E+03  0.00000000000E+00 0. -1.
          3    1    5    5  503    0 -0.18097206197E+03 -0.11979506474E+03 -0.25920522609E+03  0.33806670049E+03  0.00000000000E+00 0. -1.
         -3    1    5    5    0  503 -0.31947078583E+02 -0.43714116132E+02 -0.15068325922E+02  0.56201372095E+02  0.00000000000E+00 0.  1.
<mgrwt>
<rscale>  0 0.15917503E+04</rscale>
<asrwt>0</asrwt>
<pdfrwt beam="1">  1        2 0.16303848E+00 0.15917503E+04</pdfrwt>
<pdfrwt beam="2">  1       -1 0.91954519E-01 0.15917503E+04</pdfrwt>
<totfact> 0.29101805E+01</totfact>
</mgrwt>
</event>
<event>
11    6  0.1705838E-008  0.1559927E+04  0.7818608E-02  0.8845552E-01
          2   -1    0    0  501    0  0.00000000000E+00  0.00000000000E+00  0.36205659071E+04  0.36205659071E+04  0.00000000000E+00 0. -1.
         -1   -1    0    0    0  501 -0.00000000000E+00 -0.00000000000E+00 -0.16802437061E+03  0.16802437061E+03  0.00000000000E+00 0.  1.
         24    2    1    2    0    0  0.21899317546E+03 -0.32608754536E+03  0.19934018468E+04  0.20333267115E+04  0.80470459564E+02 0.  0.
        254    2    1    2    0    0 -0.21899317546E+03  0.32608754536E+03  0.14591396897E+04  0.17552635662E+04  0.89306800113E+03 0.  0.
         23    2    4    4    0    0 -0.20705214353E+03  0.47759947484E+03  0.12546828044E+04  0.13614286820E+04  0.91034433602E+02 0.  0.
          2    1    3    3  502    0  0.12792527472E+03 -0.24284973585E+03  0.12525983246E+04  0.12823195518E+04  0.00000000000E+00 0. -1.
         -1    1    3    3    0  502  0.91067900731E+02 -0.83237809513E+02  0.74080352218E+03  0.75100715972E+03  0.00000000000E+00 0.  1.
         11    1    4    4    0    0 -0.88655627408E+02 -0.20739234257E+03  0.84461481230E+02  0.24084257481E+03  0.00000000000E+00 0.  1.
        -11    1    4    4    0    0  0.76714595485E+02  0.55880413093E+02  0.11999540415E+03  0.15299230943E+03  0.00000000000E+00 0. -1.
          3    1    5    5  503    0 -0.10237313549E+03  0.13463151946E+03  0.36935824532E+03  0.40624059163E+03  0.00000000000E+00 0. -1.
         -3    1    5    5    0  503 -0.10467900805E+03  0.34296795538E+03  0.88532455904E+03  0.95518809037E+03  0.00000000000E+00 0.  1.
<mgrwt>
<rscale>  0 0.15599273E+04</rscale>
<asrwt>0</asrwt>
<pdfrwt beam="1">  1        2 0.55701008E+00 0.15599273E+04</pdfrwt>
<pdfrwt beam="2">  1       -1 0.25849906E-01 0.15599273E+04</pdfrwt>
<totfact> 0.98057230E+00</totfact>
</mgrwt>
</event>
<event>
12    6  0.1705838E-008  0.2185586E+04  0.7818608E-02  0.8524452E-01
          2   -1    0    0  501    0  0.00000000000E+00  0.00000000000E+00  0.33573870378E+04  0.33573870378E+04  0.00000000000E+00 0. -1.
         -1   -1    0    0    0  501 -0.00000000000E+00 -0.00000000000E+00 -0.35569213016E+03  0.35569213016E+03  0.00000000000E+00 0.  1.
         24    2    1    2    0    0 -0.41099088370E+03 -0.57888977819E+03  0.22008651182E+04  0.23138786475E+04  0.78741634972E+02 0.  0.
        254    2    1    2    0    0  0.41099088370E+03  0.57888977819E+03  0.80082978947E+03  0.13992005205E+04  0.90133615429E+03 0.  0.
         23    2    4    4    0    0  0.48397340965E+03  0.72819841695E+03  0.82553297722E+03  0.12085154060E+04  0.12042256599E+03 0.  0.
         23    2    4    4    0    0 -0.72982525955E+02 -0.14930863875E+03 -0.24703187751E+02  0.19068511446E+03  0.90172316658E+02 0.  0.
          4    1    3    3  502    0 -0.28614247854E+03 -0.43060904822E+03  0.16971608682E+04  0.17741636573E+04  0.00000000000E+00 0. -1.
         -3    1    3    3    0  502 -0.12484840516E+03 -0.14828072997E+03  0.50370425005E+03  0.53971499022E+03  0.00000000000E+00 0.  1.
         11    1    5    5    0    0  0.20967924783E+03  0.31130030611E+03  0.27388358171E+03  0.46463478549E+03  0.00000000000E+00 0. -1.
        -11    1    5    5    0    0  0.27429416182E+03  0.41689811084E+03  0.55164939550E+03  0.74388062052E+03  0.00000000000E+00 0.  1.
          1    1    6    6  503    0 -0.65573367372E+02 -0.74182906416E+02  0.22656115591E+02  0.10156903902E+03  0.00000000000E+00 0. -1.
         -1    1    6    6    0  503 -0.74091585834E+01 -0.75125732339E+02 -0.47359303342E+02  0.89116075449E+02  0.00000000000E+00 0.  1.
<mgrwt>
<rscale>  0 0.21855856E+04</rscale>
<asrwt>0</asrwt>
<pdfrwt beam="1">  1        2 0.51652106E+00 0.21855856E+04</pdfrwt>
<pdfrwt beam="2">  1       -1 0.54721868E-01 0.21855856E+04</pdfrwt>
<totfact> 0.35911705E+00</totfact>
</mgrwt>
</event>
<event>
12    6  0.1705838E-008  0.2725234E+04  0.7818608E-02  0.8326864E-01
         -1   -1    0    0    0  501 -0.00000000000E+00  0.00000000000E+00  0.16118075630E+04  0.16118075630E+04  0.00000000000E+00 0.  1.
          2   -1    0    0  501    0  0.00000000000E+00 -0.00000000000E+00 -0.11519518079E+04  0.11519518079E+04  0.00000000000E+00 0. -1.
         24    2    1    2    0    0 -0.19523572822E+03 -0.47193685681E+03 -0.90954883600E+03  0.10462238519E+04  0.80398238656E+02 0.  0.
        254    2    1    2    0    0  0.19523572822E+03  0.47193685681E+03  0.13694045911E+04  0.17175355191E+04  0.90211858353E+03 0.  0.
         23    2    4    4    0    0  0.29446538759E+03 -0.11856866834E+03  0.15710331085E+03  0.36251475999E+03  0.77247053878E+02 0.  0.
         23    2    4    4    0    0 -0.99229659369E+02  0.59050552516E+03  0.12123012803E+04  0.13550207591E+04  0.88676732605E+02 0.  0.
          2    1    3    3  502    0 -0.37866279943E+02 -0.18063430674E+03 -0.36261912145E+03  0.40688479349E+03  0.00000000000E+00 0. -1.
         -1    1    3    3    0  502 -0.15736944827E+03 -0.29130255007E+03 -0.54692971454E+03  0.63933905839E+03  0.00000000000E+00 0.  1.
         11    1    5    5    0    0  0.15644744822E+03 -0.97682170293E+02  0.66314216295E+02  0.19599792277E+03  0.00000000000E+00 0. -1.
        -11    1    5    5    0    0  0.13801793936E+03 -0.20886498049E+02  0.90789094558E+02  0.16651683722E+03  0.00000000000E+00 0.  1.
          2    1    6    6  503    0 -0.10179774847E+03  0.53621880307E+03  0.11456680040E+04  0.12690344999E+04  0.00000000000E+00 0. -1.
         -2    1    6    6    0  503  0.25680890990E+01  0.54286722083E+02  0.66633276230E+02  0.85986259235E+02  0.00000000000E+00 0.  1.
<mgrwt>
<rscale>  0 0.27252337E+04</rscale>
<asrwt>0</asrwt>
<pdfrwt beam="1">  1        2 0.17722336E+00 0.27252337E+04</pdfrwt>
<pdfrwt beam="2">  1       -1 0.24797039E+00 0.27252337E+04</pdfrwt>
<totfact> 0.14519963E+00</totfact>
</mgrwt>
</event>
<event>
12    6  0.1705838E-008  0.1598681E+04  0.7818608E-02  0.8821359E-01
          2   -1    0    0  501    0  0.00000000000E+00  0.00000000000E+00  0.36231843147E+03  0.36231843147E+03  0.00000000000E+00 0. -1.
         -1   -1    0    0    0  501 -0.00000000000E+00 -0.00000000000E+00 -0.17634908249E+04  0.17634908249E+04  0.00000000000E+00 0.  1.
         24    2    1    2    0    0 -0.52622460146E+03 -0.81954088250E+02 -0.56700899793E+03  0.78190709188E+03  0.79061323203E+02 0.  0.
        254    2    1    2    0    0  0.52622460146E+03  0.81954088250E+02 -0.83416339547E+03  0.13439021645E+04  0.90918405922E+03 0.  0.
         23    2    4    4    0    0 -0.14805526842E+03  0.60632607117E+02 -0.58783931535E+03  0.61989951165E+03  0.11455858029E+03 0.  0.
         23    2    4    4    0    0  0.67427986989E+03  0.21321481133E+02 -0.24632408012E+03  0.72400265281E+03  0.91631546653E+02 0.  0.
          2    1    3    3  502    0 -0.11488425362E+03  0.13209923469E+02 -0.13687935436E+03  0.17918942898E+03  0.00000000000E+00 0. -1.
         -1    1    3    3    0  502 -0.41134034784E+03 -0.95164011719E+02 -0.43012964357E+03  0.60271766289E+03  0.00000000000E+00 0.  1.
         11    1    5    5    0    0 -0.97883108618E+02  0.26673273752E+02 -0.51620850839E+03  0.52608344454E+03  0.00000000000E+00 0.  1.
        -11    1    5    5    0    0 -0.50172159805E+02  0.33959333365E+02 -0.71630806966E+02  0.93816067114E+02  0.00000000000E+00 0. -1.
          1    1    6    6  503    0  0.41219628992E+02  0.11245062557E+02 -0.38814598544E+02  0.57724191690E+02  0.00000000000E+00 0. -1.
         -1    1    6    6    0  503  0.63306024090E+03  0.10076418576E+02 -0.20750948157E+03  0.66627846112E+03  0.00000000000E+00 0.  1.
<mgrwt>
<rscale>  0 0.15986810E+04</rscale>
<asrwt>0</asrwt>
<pdfrwt beam="1">  1        2 0.55741297E-01 0.15986810E+04</pdfrwt>
<pdfrwt beam="2">  1       -1 0.27130628E+00 0.15986810E+04</pdfrwt>
<totfact> 0.49471891E+00</totfact>
</mgrwt>
</event>
<event>
11    6  0.1705838E-008  0.1914851E+04  0.7818608E-02  0.8647499E-01
          2   -1    0    0  501    0  0.00000000000E+00  0.00000000000E+00  0.11569728106E+04  0.11569728106E+04  0.00000000000E+00 0. -1.
         -1   -1    0    0    0  501 -0.00000000000E+00 -0.00000000000E+00 -0.79229507215E+03  0.79229507215E+03  0.00000000000E+00 0.  1.
         24    2    1    2    0    0 -0.51460251182E+03 -0.22419756708E+03  0.64147145844E+03  0.85690592440E+03  0.87873983832E+02 0.  0.
        254    2    1    2    0    0  0.51460251182E+03  0.22419756708E+03 -0.27679372001E+03  0.10923619583E+04  0.89529860401E+03 0.  0.
         23    2    4    4    0    0  0.60877484838E+03 -0.13796398361E+03 -0.42698553432E+02  0.63221663783E+03  0.90740475507E+02 0.  0.
          2    1    3    3  502    0 -0.42940806685E+03 -0.19959790341E+03  0.58122074668E+03  0.74969871768E+03  0.00000000000E+00 0. -1.
         -1    1    3    3    0  502 -0.85194444963E+02 -0.24599663676E+02  0.60250711753E+02  0.10720720672E+03  0.00000000000E+00 0.  1.
         11    1    4    4    0    0 -0.44132590584E+02  0.31150734319E+03 -0.22826915167E+03  0.38870466426E+03  0.00000000000E+00 0. -1.
        -11    1    4    4    0    0 -0.50039745981E+02  0.50654207504E+02 -0.58260149071E+01  0.71440656250E+02  0.00000000000E+00 0.  1.
          1    1    5    5  503    0  0.50785275586E+03 -0.10025566406E+03 -0.37851757061E+01  0.51766779634E+03  0.00000000000E+00 0. -1.
         -1    1    5    5    0  503  0.10092209252E+03 -0.37708319552E+02 -0.38913377726E+02  0.11454884150E+03  0.00000000000E+00 0.  1.
<mgrwt>
<rscale>  0 0.19148513E+04</rscale>
<asrwt>0</asrwt>
<pdfrwt beam="1">  1        2 0.17799582E+00 0.19148513E+04</pdfrwt>
<pdfrwt beam="2">  1       -1 0.12189155E+00 0.19148513E+04</pdfrwt>
<totfact> 0.12777330E+01</totfact>
</mgrwt>
</event>
<event>
11    6  0.1705838E-008  0.2350562E+04  0.7818608E-02  0.8458248E-01
          2   -1    0    0  501    0  0.00000000000E+00  0.00000000000E+00  0.16864483650E+04  0.16864483650E+04  0.00000000000E+00 0. -1.
         -1   -1    0    0    0  501 -0.00000000000E+00 -0.00000000000E+00 -0.81904994547E+03  0.81904994547E+03  0.00000000000E+00 0.  1.
         24    2    1    2    0    0  0.63403361533E+03  0.30017058955E+03 -0.39444924528E+03  0.80878658942E+03  0.80277842106E+02 0.  0.
        254    2    1    2    0    0 -0.63403361533E+03 -0.30017058955E+03  0.12618476648E+04  0.16967117210E+04  0.89133053741E+03 0.  0.
         23    2    4    4    0    0  0.17148833145E+03 -0.14585214312E+02  0.44346950911E+02  0.20339984222E+03  0.98913434180E+02 0.  0.
          4    1    3    3  502    0  0.20895364926E+03  0.69180767772E+02 -0.94324454457E+02  0.23946755287E+03  0.00000000000E+00 0. -1.
         -3    1    3    3    0  502  0.42507996607E+03  0.23098982178E+03 -0.30012479082E+03  0.56931903656E+03  0.00000000000E+00 0.  1.
         11    1    4    4    0    0 -0.77938049168E+03 -0.29356242107E+03  0.11451720705E+04  0.14159914961E+04  0.00000000000E+00 0.  1.
        -11    1    4    4    0    0 -0.26141455094E+02  0.79770458283E+01  0.72328643363E+02  0.77320382729E+02  0.00000000000E+00 0. -1.
          1    1    5    5  503    0  0.37287789285E+02  0.12734390424E+02 -0.28166275100E+02  0.48434316164E+02  0.00000000000E+00 0. -1.
         -1    1    5    5    0  503  0.13420054216E+03 -0.27319604736E+02  0.72513226011E+02  0.15496552606E+03  0.00000000000E+00 0.  1.
<mgrwt>
<rscale>  0 0.23505620E+04</rscale>
<asrwt>0</asrwt>
<pdfrwt beam="1">  1        2 0.25945359E+00 0.23505620E+04</pdfrwt>
<pdfrwt beam="2">  1       -1 0.12600768E+00 0.23505620E+04</pdfrwt>
<totfact> 0.56273168E+00</totfact>
</mgrwt>
</event>
<event>
12    6  0.1705838E-008  0.1707846E+04  0.7818608E-02  0.8756902E-01
         -1   -1    0    0    0  501 -0.00000000000E+00  0.00000000000E+00  0.15164642491E+03  0.15164642491E+03  0.00000000000E+00 0.  1.
          2   -1    0    0  501    0  0.00000000000E+00 -0.00000000000E+00 -0.48084511415E+04  0.48084511415E+04  0.00000000000E+00 0. -1.
         24    2    1    2    0    0  0.41798119040E+03 -0.82746689735E+02 -0.40410344881E+03  0.59265862783E+03  0.79933482405E+02 0.  0.
        254    2    1    2    0    0 -0.41798119040E+03  0.82746689735E+02 -0.42527012678E+04  0.43674389386E+04  0.89860977015E+03 0.  0.
         23    2    4    4    0    0 -0.30318648029E+03 -0.32265825403E+03 -0.11430334730E+04  0.12280511636E+04  0.74523480859E+02 0.  0.
         23    2    4    4    0    0 -0.11479471011E+03  0.40540494377E+03 -0.31096677948E+04  0.31393877751E+04  0.90503116614E+02 0.  0.
          2    1    3    3  502    0  0.55514615284E+02 -0.33142233114E+02 -0.87794207822E+02  0.10903257794E+03  0.00000000000E+00 0. -1.
         -1    1    3    3    0  502  0.36246657512E+03 -0.49604456621E+02 -0.31630924098E+03  0.48362604988E+03  0.00000000000E+00 0.  1.
         11    1    5    5    0    0 -0.20586071258E+03 -0.25404201871E+03 -0.89639410957E+03  0.95416894726E+03  0.00000000000E+00 0.  1.
        -11    1    5    5    0    0 -0.97325767707E+02 -0.68616235323E+02 -0.24663936344E+03  0.27388221630E+03  0.00000000000E+00 0. -1.
          1    1    6    6  503    0 -0.75711336568E+02  0.11351670306E+03 -0.97347236411E+03  0.98298865306E+03  0.00000000000E+00 0. -1.
         -1    1    6    6    0  503 -0.39083373544E+02  0.29188824070E+03 -0.21361954307E+04  0.21563991220E+04  0.00000000000E+00 0.  1.
<mgrwt>
<rscale>  0 0.17078459E+04</rscale>
<asrwt>0</asrwt>
<pdfrwt beam="1">  1        2 0.73976163E+00 0.17078459E+04</pdfrwt>
<pdfrwt beam="2">  1       -1 0.23330222E-01 0.17078459E+04</pdfrwt>
<totfact> 0.10276328E+00</totfact>
</mgrwt>
</event>
<event>
11    6  0.1705838E-008  0.1420152E+04  0.7818608E-02  0.8939360E-01
         -1   -1    0    0    0  501 -0.00000000000E+00  0.00000000000E+00  0.35802399075E+03  0.35802399075E+03  0.00000000000E+00 0.  1.
          2   -1    0    0  501    0  0.00000000000E+00 -0.00000000000E+00 -0.14083070698E+04  0.14083070698E+04  0.00000000000E+00 0. -1.
         24    2    1    2    0    0  0.29298810414E+03  0.19048471775E+03 -0.60517421781E+03  0.70329472720E+03  0.79127634510E+02 0.  0.
        254    2    1    2    0    0 -0.29298810414E+03 -0.19048471775E+03 -0.44510886123E+03  0.10630363333E+04  0.89988771010E+03 0.  0.
         23    2    4    4    0    0 -0.30273112011E+03 -0.46636161439E+03 -0.41528872718E+03  0.69974301755E+03  0.89645285632E+02 0.  0.
          2    1    3    3  502    0  0.17368652598E+03  0.15654662135E+03 -0.41200920120E+03  0.47373561808E+03  0.00000000000E+00 0. -1.
         -1    1    3    3    0  502  0.11930157816E+03  0.33938096396E+02 -0.19316501661E+03  0.22955910913E+03  0.00000000000E+00 0.  1.
         11    1    4    4    0    0 -0.75323234564E+02  0.15558802881E+02 -0.44817615273E+02  0.89018451183E+02  0.00000000000E+00 0.  1.
        -11    1    4    4    0    0  0.85066250531E+02  0.26031809375E+03  0.14997481215E+02  0.27427486461E+03  0.00000000000E+00 0. -1.
          3    1    5    5  503    0 -0.30887967339E+03 -0.45623971949E+03 -0.40258574909E+03  0.68237571736E+03  0.00000000000E+00 0. -1.
         -3    1    5    5    0  503  0.61485532766E+01 -0.10121894896E+02 -0.12702978086E+02  0.17367300191E+02  0.00000000000E+00 0.  1.
<mgrwt>
<rscale>  0 0.14201517E+04</rscale>
<asrwt>0</asrwt>
<pdfrwt beam="1">  1        2 0.21666262E+00 0.14201517E+04</pdfrwt>
<pdfrwt beam="2">  1       -1 0.55080615E-01 0.14201517E+04</pdfrwt>
<totfact> 0.52812384E+01</totfact>
</mgrwt>
</event>
<event>
12    6  0.1705838E-008  0.1446847E+04  0.7818608E-02  0.8920589E-01
          2   -1    0    0  501    0  0.00000000000E+00  0.00000000000E+00  0.35904066844E+03  0.35904066844E+03  0.00000000000E+00 0. -1.
         -1   -1    0    0    0  501 -0.00000000000E+00 -0.00000000000E+00 -0.14576102768E+04  0.14576102768E+04  0.00000000000E+00 0.  1.
         24    2    1    2    0    0  0.28794313385E+03 -0.82568127001E+02 -0.74885511687E+03  0.81031683062E+03  0.78106568178E+02 0.  0.
        254    2    1    2    0    0 -0.28794313385E+03  0.82568127001E+02 -0.34971449148E+03  0.10063341146E+04  0.89480689580E+03 0.  0.
         23    2    4    4    0    0 -0.28813323929E+03  0.29525485461E+03 -0.55136102310E+03  0.69887713268E+03  0.11930664708E+03 0.  0.
         23    2    4    4    0    0  0.19010544550E+00 -0.21268672761E+03  0.20164653162E+03  0.30745698194E+03  0.92912818230E+02 0.  0.
          2    1    3    3  502    0  0.19239642626E+02 -0.28546136565E+02 -0.64356724763E+02  0.72985161392E+02  0.00000000000E+00 0. -1.
         -1    1    3    3    0  502  0.26870349122E+03 -0.54021990435E+02 -0.68449839211E+03  0.73733166923E+03  0.00000000000E+00 0.  1.
         11    1    5    5    0    0 -0.21642410319E+03  0.22285231630E+03 -0.31957835954E+03  0.44568248250E+03  0.00000000000E+00 0.  1.
        -11    1    5    5    0    0 -0.71709136105E+02  0.72402538307E+02 -0.23178266356E+03  0.25319465018E+03  0.00000000000E+00 0. -1.
          4    1    6    6  503    0  0.44994266164E+02 -0.85420627827E+02  0.73059394511E+02  0.12107370801E+03  0.00000000000E+00 0.  1.
         -4    1    6    6    0  503 -0.44804160718E+02 -0.12726609978E+03  0.12858713711E+03  0.18638327393E+03  0.00000000000E+00 0. -1.
<mgrwt>
<rscale>  0 0.14468467E+04</rscale>
<asrwt>0</asrwt>
<pdfrwt beam="1">  1        2 0.55237027E-01 0.14468467E+04</pdfrwt>
<pdfrwt beam="2">  1       -1 0.22424773E+00 0.14468467E+04</pdfrwt>
<totfact> 0.10279272E+01</totfact>
</mgrwt>
</event>
<event>
12    6  0.1705838E-008  0.2012753E+04  0.7818608E-02  0.8600681E-01
          2   -1    0    0  501    0  0.00000000000E+00  0.00000000000E+00  0.29790910823E+04  0.29790910823E+04  0.00000000000E+00 0. -1.
         -1   -1    0    0    0  501 -0.00000000000E+00 -0.00000000000E+00 -0.33996742614E+03  0.33996742614E+03  0.00000000000E+00 0.  1.
         24    2    1    2    0    0  0.27090498786E+02 -0.59575055681E+03  0.16659668345E+03  0.62434244231E+03  0.79977554748E+02 0.  0.
        254    2    1    2    0    0 -0.27090498786E+02  0.59575055681E+03  0.24725269728E+04  0.26947160662E+04  0.89019796967E+03 0.  0.
         23    2    4    4    0    0 -0.81651881609E+02 -0.10793785894E+03  0.80739148337E+02  0.19931570426E+03  0.12202593465E+03 0.  0.
         23    2    4    4    0    0  0.54561382823E+02  0.70368841576E+03  0.23917878244E+04  0.24954003619E+04  0.90662220385E+02 0.  0.
          4    1    3    3  502    0 -0.53780157325E+01 -0.88977330969E+02  0.53922269553E+02  0.10418013070E+03  0.00000000000E+00 0. -1.
         -3    1    3    3    0  502  0.32468514519E+02 -0.50677322584E+03  0.11267441390E+03  0.52016231161E+03  0.00000000000E+00 0.  1.
         11    1    5    5    0    0 -0.14040733900E+02  0.21004057781E+01 -0.27407182580E+02  0.30865961346E+02  0.00000000000E+00 0.  1.
        -11    1    5    5    0    0 -0.67611147710E+02 -0.11003826472E+03  0.10814633092E+03  0.16844974292E+03  0.00000000000E+00 0. -1.
          1    1    6    6  503    0  0.45778433587E+01  0.17443229555E+03  0.46649466113E+03  0.49806109188E+03  0.00000000000E+00 0. -1.
         -1    1    6    6    0  503  0.49983539464E+02  0.52925612021E+03  0.19252931633E+04  0.19973392700E+04  0.00000000000E+00 0.  1.
<mgrwt>
<rscale>  0 0.20127533E+04</rscale>
<asrwt>0</asrwt>
<pdfrwt beam="1">  1        2 0.45832169E+00 0.20127533E+04</pdfrwt>
<pdfrwt beam="2">  1       -1 0.52302683E-01 0.20127533E+04</pdfrwt>
<totfact> 0.69954922E+00</totfact>
</mgrwt>
</event>
<event>
11    6  0.1705838E-008  0.2020695E+04  0.7818608E-02  0.8597006E-01
          2   -1    0    0  501    0  0.00000000000E+00  0.00000000000E+00  0.27316818765E+04  0.27316818765E+04  0.00000000000E+00 0. -1.
         -1   -1    0    0    0  501 -0.00000000000E+00 -0.00000000000E+00 -0.37368999219E+03  0.37368999219E+03  0.00000000000E+00 0.  1.
         24    2    1    2    0    0  0.75324569125E+03 -0.14333136872E+03  0.50040204601E+03  0.91879821622E+03  0.76583299954E+02 0.  0.
        254    2    1    2    0    0 -0.75324569125E+03  0.14333136872E+03  0.18575898383E+04  0.21865736525E+04  0.86170840641E+03 0.  0.
         23    2    4    4    0    0 -0.54043851262E+03  0.21998102203E+03  0.47647090275E+03  0.75879743114E+03  0.91014198652E+02 0.  0.
          4    1    3    3  502    0  0.21651873226E+03 -0.36835172560E+02  0.10335423561E+03  0.24273295898E+03  0.00000000000E+00 0. -1.
         -3    1    3    3    0  502  0.53672695899E+03 -0.10649619616E+03  0.39704781039E+03  0.67606525724E+03  0.00000000000E+00 0.  1.
         11    1    4    4    0    0  0.64847030260E+02 -0.50341854273E+02  0.36124424702E+03  0.37045491713E+03  0.00000000000E+00 0.  1.
        -11    1    4    4    0    0 -0.27765420889E+03 -0.26307799043E+02  0.10198746885E+04  0.10573213042E+04  0.00000000000E+00 0. -1.
          1    1    5    5  503    0 -0.10051567347E+02  0.46655074573E+01  0.32626555146E+02  0.34457119245E+02  0.00000000000E+00 0. -1.
         -1    1    5    5    0  503 -0.53038694528E+03  0.21531551457E+03  0.44384434761E+03  0.72434031190E+03  0.00000000000E+00 0.  1.
<mgrwt>
<rscale>  0 0.20206951E+04</rscale>
<asrwt>0</asrwt>
<pdfrwt beam="1">  1        2 0.42025874E+00 0.20206951E+04</pdfrwt>
<pdfrwt beam="2">  1       -1 0.57490770E-01 0.20206951E+04</pdfrwt>
<totfact> 0.82335722E+00</totfact>
</mgrwt>
</event>
<event>
12    6  0.1705838E-008  0.4457554E+04  0.7818608E-02  0.7918110E-01
         -1   -1    0    0    0  501 -0.00000000000E+00  0.00000000000E+00  0.14172397453E+04  0.14172397453E+04  0.00000000000E+00 0.  1.
          2   -1    0    0  501    0  0.00000000000E+00 -0.00000000000E+00 -0.35050156939E+04  0.35050156939E+04  0.00000000000E+00 0. -1.
         24    2    1    2    0    0 -0.38087465262E+03 -0.74012392703E+03  0.11720772815E+04  0.14397787362E+04  0.79678900229E+02 0.  0.
        254    2    1    2    0    0  0.38087465262E+03  0.74012392703E+03 -0.32598532300E+04  0.34824767030E+04  0.89897273450E+03 0.  0.
         23    2    4    4    0    0  0.45710030960E+03  0.60288274646E+03 -0.32026531776E+04  0.32928686305E+04  0.11656819010E+03 0.  0.
         23    2    4    4    0    0 -0.76225656980E+02  0.13724118057E+03 -0.57200052408E+02  0.18960807247E+03  0.89631929146E+02 0.  0.
          4    1    3    3  502    0 -0.14811410152E+02 -0.21439531783E+02  0.17496141384E+02  0.31387041228E+02  0.00000000000E+00 0. -1.
         -1    1    3    3    0  502 -0.36606324247E+03 -0.71868439525E+03  0.11545811401E+04  0.14083916950E+04  0.00000000000E+00 0.  1.
         11    1    5    5    0    0  0.56425504666E+02  0.24057306300E+02 -0.27730393475E+03  0.28400715448E+03  0.00000000000E+00 0.  1.
        -11    1    5    5    0    0  0.40067480494E+03  0.57882544016E+03 -0.29253492428E+04  0.30088614760E+04  0.00000000000E+00 0. -1.
          4    1    6    6  503    0 -0.52200952050E+02  0.14348602827E+03 -0.35784613604E+02  0.15682384472E+03  0.00000000000E+00 0. -1.
         -4    1    6    6    0  503 -0.24024704930E+02 -0.62448476940E+01 -0.21415438804E+02  0.32784227746E+02  0.00000000000E+00 0.  1.
<mgrwt>
<rscale>  0 0.44575543E+04</rscale>
<asrwt>0</asrwt>
<pdfrwt beam="1">  1        2 0.53923317E+00 0.44575543E+04</pdfrwt>
<pdfrwt beam="2">  1       -1 0.21803689E+00 0.44575543E+04</pdfrwt>
<totfact> 0.78799961E-02</totfact>
</mgrwt>
</event>
<event>
11    6  0.1705838E-008  0.1624883E+04  0.7818608E-02  0.8805406E-01
         -1   -1    0    0    0  501 -0.00000000000E+00  0.00000000000E+00  0.18796064061E+03  0.18796064061E+03  0.00000000000E+00 0.  1.
          2   -1    0    0  501    0  0.00000000000E+00 -0.00000000000E+00 -0.35116994751E+04  0.35116994751E+04  0.00000000000E+00 0. -1.
         24    2    1    2    0    0  0.51103005778E+03 -0.10831883248E+03 -0.82734288029E+03  0.98241907478E+03  0.88126655924E+02 0.  0.
        254    2    1    2    0    0 -0.51103005778E+03  0.10831883248E+03 -0.24963959542E+04  0.27172410409E+04  0.93729473751E+03 0.  0.
         23    2    4    4    0    0 -0.50707039072E+03  0.12404637128E+03 -0.25055443824E+04  0.25608932585E+04  0.88959235881E+02 0.  0.
          4    1    3    3  502    0  0.19316227024E+03 -0.59989769482E+02 -0.39331343081E+03  0.44227354651E+03  0.00000000000E+00 0. -1.
         -3    1    3    3    0  502  0.31786778754E+03 -0.48329063000E+02 -0.43402944948E+03  0.54014552827E+03  0.00000000000E+00 0.  1.
         11    1    4    4    0    0 -0.13896819311E+02  0.15936382105E+02 -0.68614940757E+02  0.71799024761E+02  0.00000000000E+00 0.  1.
        -11    1    4    4    0    0  0.99371522498E+01 -0.31663920902E+02  0.77763368953E+02  0.84548757723E+02  0.00000000000E+00 0. -1.
          3    1    5    5  503    0 -0.39947588170E+03  0.12796056555E+03 -0.18883679785E+04  0.19343961613E+04  0.00000000000E+00 0. -1.
         -3    1    5    5    0  503 -0.10759450903E+03 -0.39141942689E+01 -0.61717640386E+03  0.62649709718E+03  0.00000000000E+00 0.  1.
<mgrwt>
<rscale>  0 0.16248831E+04</rscale>
<asrwt>0</asrwt>
<pdfrwt beam="1">  1        2 0.54026147E+00 0.16248831E+04</pdfrwt>
<pdfrwt beam="2">  1       -1 0.28917021E-01 0.16248831E+04</pdfrwt>
<totfact> 0.95716140E+00</totfact>
</mgrwt>
</event>
<event>
11    6  0.1705838E-008  0.1794546E+04  0.7818608E-02  0.8709205E-01
         -1   -1    0    0    0  501 -0.00000000000E+00  0.00000000000E+00  0.29371527457E+03  0.29371527457E+03  0.00000000000E+00 0.  1.
          2   -1    0    0  501    0  0.00000000000E+00 -0.00000000000E+00 -0.27410852532E+04  0.27410852532E+04  0.00000000000E+00 0. -1.
         24    2    1    2    0    0  0.23772412283E+03 -0.50001092677E+03 -0.29990871835E+03  0.63472565402E+03  0.80048304519E+02 0.  0.
        254    2    1    2    0    0 -0.23772412283E+03  0.50001092677E+03 -0.21474612603E+04  0.24000748738E+04  0.91773953265E+03 0.  0.
         23    2    4    4    0    0  0.24337375524E+03  0.38698683058E+03 -0.15000387465E+04  0.15706592212E+04  0.88682334185E+02 0.  0.
          4    1    3    3  502    0  0.17520865595E+02 -0.53802293943E+02 -0.59490614418E+02  0.82102379799E+02  0.00000000000E+00 0. -1.
         -3    1    3    3    0  502  0.22020325724E+03 -0.44620863283E+03 -0.24041810393E+03  0.55262327422E+03  0.00000000000E+00 0.  1.
         11    1    4    4    0    0 -0.39651191941E+03  0.35288564319E+02 -0.44832499392E+03  0.59955173687E+03  0.00000000000E+00 0.  1.
        -11    1    4    4    0    0 -0.84585958658E+02  0.77735531875E+02 -0.19909751989E+03  0.22986391570E+03  0.00000000000E+00 0. -1.
          1    1    5    5  503    0  0.40310930810E+02  0.18814589964E+02 -0.11945558077E+03  0.12746997966E+03  0.00000000000E+00 0. -1.
         -1    1    5    5    0  503  0.20306282443E+03  0.36817224062E+03 -0.13805831657E+04  0.14431892415E+04  0.00000000000E+00 0.  1.
<mgrwt>
<rscale>  0 0.17945457E+04</rscale>
<asrwt>0</asrwt>
<pdfrwt beam="1">  1        2 0.42170543E+00 0.17945457E+04</pdfrwt>
<pdfrwt beam="2">  1       -1 0.45186965E-01 0.17945457E+04</pdfrwt>
<totfact> 0.13143810E+01</totfact>
</mgrwt>
</event>
<event>
11    6  0.1705838E-008  0.2389167E+04  0.7818608E-02  0.8443571E-01
         -1   -1    0    0    0  501 -0.00000000000E+00  0.00000000000E+00  0.90909951713E+03  0.90909951713E+03  0.00000000000E+00 0.  1.
          2   -1    0    0  501    0  0.00000000000E+00 -0.00000000000E+00 -0.15697173300E+04  0.15697173300E+04  0.00000000000E+00 0. -1.
         24    2    1    2    0    0  0.39530167198E+03 -0.39306445175E+03 -0.10722130829E+04  0.12110783262E+04  0.79414998191E+02 0.  0.
        254    2    1    2    0    0 -0.39530167198E+03  0.39306445175E+03  0.41159527002E+03  0.12677385209E+04  0.10615965411E+04 0.  0.
         23    2    4    4    0    0 -0.18353401191E+03  0.41341986969E+03  0.23745884749E+03  0.51910191274E+03  0.92083491331E+02 0.  0.
          2    1    3    3  502    0  0.38276716390E+03 -0.36819394102E+03 -0.10445712360E+04  0.11718389595E+04  0.00000000000E+00 0. -1.
         -1    1    3    3    0  502  0.12534508085E+02 -0.24870510723E+02 -0.27641846857E+02  0.39239366639E+02  0.00000000000E+00 0.  1.
         11    1    4    4    0    0 -0.26550760330E+03 -0.27292134042E+03  0.27681456143E+03  0.47075115177E+03  0.00000000000E+00 0. -1.
        -11    1    4    4    0    0  0.53739943230E+02  0.25256592247E+03 -0.10267813890E+03  0.27788545644E+03  0.00000000000E+00 0.  1.
          2    1    5    5  503    0 -0.28833471853E+02  0.12438185880E+03  0.30056130910E+02  0.13117006863E+03  0.00000000000E+00 0. -1.
         -2    1    5    5    0  503 -0.15470054006E+03  0.28903801089E+03  0.20740271658E+03  0.38793184412E+03  0.00000000000E+00 0.  1.
<mgrwt>
<rscale>  0 0.23891666E+04</rscale>
<asrwt>0</asrwt>
<pdfrwt beam="1">  1        2 0.24149497E+00 0.23891666E+04</pdfrwt>
<pdfrwt beam="2">  1       -1 0.13986147E+00 0.23891666E+04</pdfrwt>
<totfact> 0.49956678E+00</totfact>
</mgrwt>
</event>
<event>
12    6  0.1705838E-008  0.2663482E+04  0.7818608E-02  0.8346952E-01
         -1   -1    0    0    0  501 -0.00000000000E+00  0.00000000000E+00  0.57959554593E+03  0.57959554593E+03  0.00000000000E+00 0.  1.
          2   -1    0    0  501    0  0.00000000000E+00 -0.00000000000E+00 -0.30599512638E+04  0.30599512638E+04  0.00000000000E+00 0. -1.
         24    2    1    2    0    0  0.85904995623E+03  0.80345698300E+03 -0.12843234544E+04  0.17431979205E+04  0.75777989435E+02 0.  0.
        254    2    1    2    0    0 -0.85904995623E+03 -0.80345698300E+03 -0.11960322635E+04  0.18963488893E+04  0.88438452252E+03 0.  0.
         23    2    4    4    0    0 -0.61477362084E+03 -0.13146506845E+03 -0.92433897998E+03  0.11251553653E+04  0.12783730665E+03 0.  0.
         23    2    4    4    0    0 -0.24427633539E+03 -0.67199191455E+03 -0.27169328354E+03  0.77119352402E+03  0.98377588507E+02 0.  0.
          4    1    3    3  502    0  0.69751612800E+02  0.39302526877E+02 -0.88097078925E+02  0.11904230938E+03  0.00000000000E+00 0. -1.
         -3    1    3    3    0  502  0.78929834343E+03  0.76415445612E+03 -0.11962263755E+04  0.16241556111E+04  0.00000000000E+00 0.  1.
         11    1    5    5    0    0 -0.54143160464E+02 -0.38094016137E+02 -0.52829399031E+02  0.84696996950E+02  0.00000000000E+00 0.  1.
        -11    1    5    5    0    0 -0.56063046038E+03 -0.93371052314E+02 -0.87150958095E+03  0.10404583683E+04  0.00000000000E+00 0. -1.
          4    1    6    6  503    0 -0.13061203719E+03 -0.32161890477E+03 -0.81184953239E+02  0.35649575144E+03  0.00000000000E+00 0. -1.
         -4    1    6    6    0  503 -0.11366429820E+03 -0.35037300978E+03 -0.19050833031E+03  0.41469777258E+03  0.00000000000E+00 0.  1.
<mgrwt>
<rscale>  0 0.26634820E+04</rscale>
<asrwt>0</asrwt>
<pdfrwt beam="1">  1        2 0.47076173E+00 0.26634820E+04</pdfrwt>
<pdfrwt beam="2">  1       -1 0.89168547E-01 0.26634820E+04</pdfrwt>
<totfact> 0.19679961E+00</totfact>
</mgrwt>
</event>
<event>
11    6  0.1705838E-008  0.1966080E+04  0.7818608E-02  0.8622646E-01
          2   -1    0    0  501    0  0.00000000000E+00  0.00000000000E+00  0.22949573530E+04  0.22949573530E+04  0.00000000000E+00 0. -1.
         -3   -1    0    0    0  501 -0.00000000000E+00 -0.00000000000E+00 -0.42108297239E+03  0.42108297239E+03  0.00000000000E+00 0.  1.
         24    2    1    2    0    0  0.18765590772E+03 -0.75154152044E+03  0.80833195130E+03  0.11213995290E+04  0.64085594256E+02 0.  0.
        254    2    1    2    0    0 -0.18765590772E+03  0.75154152044E+03  0.10655424293E+04  0.15946407964E+04  0.89859290245E+03 0.  0.
         23    2    4    4    0    0  0.16293471149E+03  0.63422529015E+03  0.99667714715E+03  0.11959407559E+04  0.90108362683E+02 0.  0.
          2    1    3    3  502    0 -0.33354609398E+01 -0.14700363425E+02  0.24646272798E+02  0.28890565023E+02  0.00000000000E+00 0. -1.
         -1    1    3    3    0  502  0.19099136866E+03 -0.73684115702E+03  0.78368567850E+03  0.10925089639E+04  0.00000000000E+00 0.  1.
         11    1    4    4    0    0 -0.31800401622E+03  0.63192040478E+02  0.81417730119E+02  0.33428825150E+03  0.00000000000E+00 0. -1.
        -11    1    4    4    0    0 -0.32586602990E+02  0.54124189819E+02 -0.12552447985E+02  0.64411789049E+02  0.00000000000E+00 0.  1.
          4    1    5    5  503    0  0.12317875286E+03  0.55441968077E+03  0.90185292276E+03  0.10657827555E+04  0.00000000000E+00 0. -1.
         -4    1    5    5    0  503  0.39755958628E+02  0.79805609375E+02  0.94824224382E+02  0.13015800038E+03  0.00000000000E+00 0.  1.
<mgrwt>
<rscale>  0 0.19660798E+04</rscale>
<asrwt>0</asrwt>
<pdfrwt beam="1">  1        2 0.35307035E+00 0.19660798E+04</pdfrwt>
<pdfrwt beam="2">  1       -3 0.64781997E-01 0.19660798E+04</pdfrwt>
<totfact> 0.62930524E+00</totfact>
</mgrwt>
</event>
<event>
11    6  0.1705838E-008  0.1353061E+04  0.7818608E-02  0.8988514E-01
          2   -1    0    0  501    0  0.00000000000E+00  0.00000000000E+00  0.28799214374E+03  0.28799214374E+03  0.00000000000E+00 0. -1.
         -1   -1    0    0    0  501 -0.00000000000E+00 -0.00000000000E+00 -0.15892567058E+04  0.15892567058E+04  0.00000000000E+00 0.  1.
         24    2    1    2    0    0 -0.22339415472E+03 -0.22970533508E+03 -0.10845828818E+03  0.34731055470E+03  0.78688828959E+02 0.  0.
        254    2    1    2    0    0  0.22339415472E+03  0.22970533508E+03 -0.11928062739E+04  0.15299382948E+04  0.90291466357E+03 0.  0.
         23    2    4    4    0    0  0.11094938387E+03  0.16945371726E+03 -0.12976494720E+04  0.13166330144E+04  0.92757826281E+02 0.  0.
          2    1    3    3  502    0 -0.17128237811E+03 -0.18096048657E+03 -0.11732091046E+03  0.27540614877E+03  0.00000000000E+00 0. -1.
         -1    1    3    3    0  502 -0.52111776608E+02 -0.48744848516E+02  0.88626222827E+01  0.71904405928E+02  0.00000000000E+00 0.  1.
         11    1    4    4    0    0  0.13355879678E+03  0.37892884474E+02  0.11567016600E+03  0.18070254618E+03  0.00000000000E+00 0. -1.
        -11    1    4    4    0    0 -0.21114025936E+02  0.22358733354E+02 -0.10826967876E+02  0.32602734269E+02  0.00000000000E+00 0.  1.
          3    1    5    5  503    0  0.61223338741E+02  0.13117303516E+03 -0.10939566749E+04  0.11034925777E+04  0.00000000000E+00 0. -1.
         -3    1    5    5    0  503  0.49726045132E+02  0.38280682101E+02 -0.20369279706E+03  0.21314043671E+03  0.00000000000E+00 0.  1.
<mgrwt>
<rscale>  0 0.13530609E+04</rscale>
<asrwt>0</asrwt>
<pdfrwt beam="1">  1        2 0.44306484E-01 0.13530609E+04</pdfrwt>
<pdfrwt beam="2">  1       -1 0.24450103E+00 0.13530609E+04</pdfrwt>
<totfact> 0.97475071E+00</totfact>
</mgrwt>
</event>
<event>
11    6  0.1705838E-008  0.2418878E+04  0.7818608E-02  0.8432470E-01
          2   -1    0    0  501    0  0.00000000000E+00  0.00000000000E+00  0.60274716099E+03  0.60274716099E+03  0.00000000000E+00 0. -1.
         -1   -1    0    0    0  501 -0.00000000000E+00 -0.00000000000E+00 -0.24267923322E+04  0.24267923322E+04  0.00000000000E+00 0.  1.
         24    2    1    2    0    0 -0.81552047471E+02 -0.10174981515E+04 -0.50929991757E+03  0.11436242308E+04  0.80850172937E+02 0.  0.
        254    2    1    2    0    0  0.81552047471E+02  0.10174981515E+04 -0.13147452537E+04  0.18859152625E+04  0.88666119263E+03 0.  0.
         23    2    4    4    0    0 -0.10625691464E+03  0.61693944819E+03 -0.96755198364E+03  0.11557518628E+04  0.87753705211E+02 0.  0.
          4    1    3    3  502    0 -0.21614253120E+01 -0.12583871805E+03 -0.35420425693E+02  0.13074655359E+03  0.00000000000E+00 0. -1.
         -3    1    3    3    0  502 -0.79390622159E+02 -0.89165943341E+03 -0.47387949188E+03  0.10128776772E+04  0.00000000000E+00 0.  1.
         11    1    4    4    0    0  0.60418205663E+02  0.12085385373E+03 -0.39649591577E+03  0.41888545542E+03  0.00000000000E+00 0. -1.
        -11    1    4    4    0    0  0.12739075644E+03  0.27970484953E+03  0.49302645731E+02  0.31127794421E+03  0.00000000000E+00 0.  1.
          1    1    5    5  503    0  0.48540148556E+01  0.19481326142E+03 -0.32535095069E+03  0.37924795240E+03  0.00000000000E+00 0. -1.
         -1    1    5    5    0  503 -0.11111092949E+03  0.42212618678E+03 -0.64220103295E+03  0.77650391044E+03  0.00000000000E+00 0.  1.
<mgrwt>
<rscale>  0 0.24188776E+04</rscale>
<asrwt>0</asrwt>
<pdfrwt beam="1">  1        2 0.92730331E-01 0.24188776E+04</pdfrwt>
<pdfrwt beam="2">  1       -1 0.37335267E+00 0.24188776E+04</pdfrwt>
<totfact> 0.54845647E-01</totfact>
</mgrwt>
</event>
<event>
12    6  0.1705838E-008  0.2279382E+04  0.7818608E-02  0.8486095E-01
          2   -1    0    0  501    0  0.00000000000E+00  0.00000000000E+00  0.28915343389E+04  0.28915343389E+04  0.00000000000E+00 0. -1.
         -1   -1    0    0    0  501 -0.00000000000E+00 -0.00000000000E+00 -0.44920632179E+03  0.44920632179E+03  0.00000000000E+00 0.  1.
         24    2    1    2    0    0 -0.16793203068E+03 -0.10008548880E+03 -0.34278401807E+03  0.40244249666E+03  0.78998785321E+02 0.  0.
        254    2    1    2    0    0  0.16793203068E+03  0.10008548880E+03  0.27851120352E+04  0.29382981640E+04  0.91571217104E+03 0.  0.
         23    2    4    4    0    0  0.21974507515E+01 -0.25153775631E+03  0.24324729911E+03  0.36534408817E+03  0.10502848469E+03 0.  0.
         23    2    4    4    0    0  0.16573457992E+03  0.35162324511E+03  0.25418647361E+04  0.25729540759E+04  0.88935271187E+02 0.  0.
          2    1    3    3  502    0 -0.44956123296E+02 -0.50703498442E+02 -0.61524664662E+02  0.91526947604E+02  0.00000000000E+00 0. -1.
         -1    1    3    3    0  502 -0.12297590738E+03 -0.49381990355E+02 -0.28125935341E+03  0.31091554906E+03  0.00000000000E+00 0.  1.
         11    1    5    5    0    0 -0.11841474470E+02 -0.18304436240E+03  0.10739015005E+03  0.21255141367E+03  0.00000000000E+00 0. -1.
        -11    1    5    5    0    0  0.14038925221E+02 -0.68493393910E+02  0.13585714906E+03  0.15279267450E+03  0.00000000000E+00 0.  1.
          3    1    6    6  503    0  0.11578580194E+03  0.19410997119E+03  0.17065101003E+04  0.17214127208E+04  0.00000000000E+00 0. -1.
         -3    1    6    6    0  503  0.49948777980E+02  0.15751327392E+03  0.83535463576E+03  0.85154135506E+03  0.00000000000E+00 0.  1.
<mgrwt>
<rscale>  0 0.22793819E+04</rscale>
<asrwt>0</asrwt>
<pdfrwt beam="1">  1        2 0.44485143E+00 0.22793819E+04</pdfrwt>
<pdfrwt beam="2">  1       -1 0.69108667E-01 0.22793819E+04</pdfrwt>
<totfact> 0.44528717E+00</totfact>
</mgrwt>
</event>
<event>
12    6  0.1705838E-008  0.1678646E+04  0.7818608E-02  0.8773638E-01
         -1   -1    0    0    0  501 -0.00000000000E+00  0.00000000000E+00  0.12342667621E+04  0.12342667621E+04  0.00000000000E+00 0.  1.
          2   -1    0    0  501    0  0.00000000000E+00 -0.00000000000E+00 -0.57075421990E+03  0.57075421990E+03  0.00000000000E+00 0. -1.
         24    2    1    2    0    0  0.52082672216E+03  0.36846478204E+02  0.54825386033E+03  0.76138664376E+03  0.80679541761E+02 0.  0.
        254    2    1    2    0    0 -0.52082672216E+03 -0.36846478204E+02  0.11525868186E+03  0.10436343382E+04  0.89625327376E+03 0.  0.
         23    2    4    4    0    0 -0.20585280567E+03  0.38687238954E+03  0.20753491805E+03  0.49991086932E+03  0.12163269163E+03 0.  0.
         23    2    4    4    0    0 -0.31497391649E+03 -0.42371886774E+03 -0.92276236182E+02  0.54372346891E+03  0.91509889776E+02 0.  0.
          4    1    3    3  502    0  0.23867619330E+02  0.18167849937E+02  0.43151034881E+02  0.52552315222E+02  0.00000000000E+00 0. -1.
         -3    1    3    3    0  502  0.49695910283E+03  0.18678628267E+02  0.50510282545E+03  0.70883432854E+03  0.00000000000E+00 0.  1.
         11    1    5    5    0    0  0.12260052082E+02  0.17519557829E+02  0.27199499744E+02  0.34598505314E+02  0.00000000000E+00 0. -1.
        -11    1    5    5    0    0 -0.21811285775E+03  0.36935283171E+03  0.18033541830E+03  0.46531236401E+03  0.00000000000E+00 0.  1.
          1    1    6    6  503    0 -0.29899228182E+03 -0.42516729457E+03 -0.90232859324E+02  0.52754675799E+03  0.00000000000E+00 0.  1.
         -1    1    6    6    0  503 -0.15981634676E+02  0.14484268334E+01 -0.20433768579E+01  0.16176710920E+02  0.00000000000E+00 0. -1.
<mgrwt>
<rscale>  0 0.16786458E+04</rscale>
<asrwt>0</asrwt>
<pdfrwt beam="1">  1        2 0.87808342E-01 0.16786458E+04</pdfrwt>
<pdfrwt beam="2">  1       -1 0.18988719E+00 0.16786458E+04</pdfrwt>
<totfact> 0.10153011E+01</totfact>
</mgrwt>
</event>
<event>
12    6  0.1705838E-008  0.1341909E+04  0.7818608E-02  0.8996975E-01
          2   -1    0    0  501    0  0.00000000000E+00  0.00000000000E+00  0.15167021902E+04  0.15167021902E+04  0.00000000000E+00 0. -1.
         -1   -1    0    0    0  501 -0.00000000000E+00 -0.00000000000E+00 -0.29681516883E+03  0.29681516883E+03  0.00000000000E+00 0.  1.
         24    2    1    2    0    0  0.16265409748E+03  0.99370029808E+02 -0.10984533706E+03  0.23374444571E+03  0.78991832319E+02 0.  0.
        254    2    1    2    0    0 -0.16265409748E+03 -0.99370029808E+02  0.13297323585E+04  0.15797729134E+04  0.83136246872E+03 0.  0.
         23    2    4    4    0    0  0.16390081620E+03 -0.34251546306E+03  0.42052803202E+03  0.57940261066E+03  0.12117441782E+03 0.  0.
         23    2    4    4    0    0 -0.32655491368E+03  0.24314543325E+03  0.90920432644E+03  0.10003703027E+04  0.91271145248E+02 0.  0.
          2    1    3    3  502    0  0.10561061267E+03  0.84627632138E+02 -0.37482001333E+02  0.14042912110E+03  0.00000000000E+00 0. -1.
         -3    1    3    3    0  502  0.57043484815E+02  0.14742397670E+02 -0.72363335724E+02  0.93315324604E+02  0.00000000000E+00 0.  1.
         11    1    5    5    0    0  0.14433622845E+03 -0.32164072049E+03  0.42304297591E+03  0.55068235798E+03  0.00000000000E+00 0. -1.
        -11    1    5    5    0    0  0.19564587746E+02 -0.20874742568E+02 -0.25149438906E+01  0.28720252676E+02  0.00000000000E+00 0.  1.
          1    1    6    6  503    0 -0.26009036795E+03  0.20496740434E+03  0.80946125352E+03  0.87457770226E+03  0.00000000000E+00 0. -1.
         -1    1    6    6    0  503 -0.66464545730E+02  0.38178028916E+02  0.99743072924E+02  0.12579260045E+03  0.00000000000E+00 0.  1.
<mgrwt>
<rscale>  0 0.13419094E+04</rscale>
<asrwt>0</asrwt>
<pdfrwt beam="1">  1        2 0.23333879E+00 0.13419094E+04</pdfrwt>
<pdfrwt beam="2">  1       -1 0.45663873E-01 0.13419094E+04</pdfrwt>
<totfact> 0.65896826E+01</totfact>
</mgrwt>
</event>
<event>
12    6  0.1705838E-008  0.2279600E+04  0.7818608E-02  0.8486008E-01
         -1   -1    0    0    0  501 -0.00000000000E+00  0.00000000000E+00  0.38837984342E+03  0.38837984342E+03  0.00000000000E+00 0.  1.
          2   -1    0    0  501    0  0.00000000000E+00 -0.00000000000E+00 -0.33450354245E+04  0.33450354245E+04  0.00000000000E+00 0. -1.
         24    2    1    2    0    0 -0.11239025769E+02  0.29344592457E+03 -0.27565177661E+04  0.27732563870E+04  0.79523372417E+02 0.  0.
        254    2    1    2    0    0  0.11239025769E+02 -0.29344592457E+03 -0.20013781499E+03  0.96015888094E+03  0.89197147113E+03 0.  0.
         23    2    4    4    0    0 -0.37291966247E+03  0.47019016918E+00 -0.25452624132E+03  0.46486571551E+03  0.11066720473E+03 0.  0.
         23    2    4    4    0    0  0.38415868824E+03 -0.29391611474E+03  0.54388426331E+02  0.49529316543E+03  0.91611345099E+02 0.  0.
          2    1    3    3  502    0  0.34281912856E+02  0.13306442827E+03 -0.12829901521E+04  0.12903275251E+04  0.00000000000E+00 0. -1.
         -1    1    3    3    0  502 -0.45520938626E+02  0.16038149631E+03 -0.14735276140E+04  0.14829288619E+04  0.00000000000E+00 0.  1.
         11    1    5    5    0    0 -0.35718082657E+03 -0.24246443517E+01 -0.26584781276E+03  0.44526293504E+03  0.00000000000E+00 0. -1.
        -11    1    5    5    0    0 -0.15738835900E+02  0.28948345208E+01  0.11321571441E+02  0.19602780473E+02  0.00000000000E+00 0.  1.
          3    1    6    6  503    0  0.33577428678E+03 -0.28049961200E+03  0.27616180444E+02  0.43839144314E+03  0.00000000000E+00 0. -1.
         -3    1    6    6    0  503  0.48384401456E+02 -0.13416502746E+02  0.26772245887E+02  0.56901722294E+02  0.00000000000E+00 0.  1.
<mgrwt>
<rscale>  0 0.22796003E+04</rscale>
<asrwt>0</asrwt>
<pdfrwt beam="1">  1        2 0.51462082E+00 0.22796003E+04</pdfrwt>
<pdfrwt beam="2">  1       -1 0.59750747E-01 0.22796003E+04</pdfrwt>
<totfact> 0.30548314E+00</totfact>
</mgrwt>
</event>
<event>
12    6  0.1705838E-008  0.1422542E+04  0.7818608E-02  0.8937661E-01
         -1   -1    0    0    0  501 -0.00000000000E+00  0.00000000000E+00  0.44813888369E+03  0.44813888369E+03  0.00000000000E+00 0.  1.
          2   -1    0    0  501    0  0.00000000000E+00 -0.00000000000E+00 -0.11289049499E+04  0.11289049499E+04  0.00000000000E+00 0. -1.
         24    2    1    2    0    0 -0.33543256873E+03  0.22752199491E+03 -0.32466996026E+03  0.52607022166E+03  0.84012074668E+02 0.  0.
        254    2    1    2    0    0  0.33543256873E+03 -0.22752199491E+03 -0.35609610596E+03  0.10509736119E+04  0.90192007960E+03 0.  0.
         23    2    4    4    0    0 -0.27618301801E+03  0.54534030735E+02 -0.62054206147E+02  0.30969723177E+03  0.11318405770E+03 0.  0.
         23    2    4    4    0    0  0.61161558674E+03 -0.28205602565E+03 -0.29404189981E+03  0.74127638018E+03  0.96957750659E+02 0.  0.
          2    1    3    3  502    0 -0.24580630024E+03  0.12301847157E+03 -0.19566135347E+03  0.33739835036E+03  0.00000000000E+00 0. -1.
         -1    1    3    3    0  502 -0.89626268496E+02  0.10450352334E+03 -0.12900860680E+03  0.18867187131E+03  0.00000000000E+00 0.  1.
         11    1    5    5    0    0 -0.14896779890E+03  0.26949866996E+02 -0.90609361602E+02  0.17643060066E+03  0.00000000000E+00 0.  1.
        -11    1    5    5    0    0 -0.12721521911E+03  0.27584163740E+02  0.28555155454E+02  0.13326663110E+03  0.00000000000E+00 0. -1.
          2    1    6    6  503    0  0.37883998613E+03 -0.13070732667E+03 -0.20185423068E+03  0.44871959037E+03  0.00000000000E+00 0. -1.
         -2    1    6    6    0  503  0.23277560061E+03 -0.15134869898E+03 -0.92187669127E+02  0.29255678981E+03  0.00000000000E+00 0.  1.
<mgrwt>
<rscale>  0 0.14225417E+04</rscale>
<asrwt>0</asrwt>
<pdfrwt beam="1">  1        2 0.17367768E+00 0.14225417E+04</pdfrwt>
<pdfrwt beam="2">  1       -1 0.68944445E-01 0.14225417E+04</pdfrwt>
<totfact> 0.49336202E+01</totfact>
</mgrwt>
</event>
<event>
12    6  0.1705838E-008  0.2330688E+04  0.7818608E-02  0.8465918E-01
         -1   -1    0    0    0  501 -0.00000000000E+00  0.00000000000E+00  0.60471211901E+03  0.60471211901E+03  0.00000000000E+00 0.  1.
          2   -1    0    0  501    0  0.00000000000E+00 -0.00000000000E+00 -0.22457415081E+04  0.22457415081E+04  0.00000000000E+00 0. -1.
         24    2    1    2    0    0 -0.53528286641E+03 -0.11183049310E+03  0.31159542922E+03  0.63443471493E+03  0.79886730703E+02 0.  0.
        254    2    1    2    0    0  0.53528286641E+03  0.11183049310E+03 -0.19526248183E+04  0.22160189122E+04  0.89384692862E+03 0.  0.
         23    2    4    4    0    0  0.24146457770E+03 -0.31320408080E+03 -0.13857093499E+04  0.14448182935E+04  0.10443926629E+03 0.  0.
         23    2    4    4    0    0  0.29381828871E+03  0.42503457390E+03 -0.56691546848E+03  0.77120061874E+03  0.79835268794E+02 0.  0.
          4    1    3    3  502    0 -0.28171459891E+03 -0.32975653739E+02  0.12544514381E+03  0.31014027969E+03  0.00000000000E+00 0. -1.
         -3    1    3    3    0  502 -0.25356826750E+03 -0.78854839364E+02  0.18615028541E+03  0.32429443524E+03  0.00000000000E+00 0.  1.
         11    1    5    5    0    0  0.24029699473E+03 -0.25804982017E+03 -0.12340291694E+04  0.12834174481E+04  0.00000000000E+00 0.  1.
        -11    1    5    5    0    0  0.11675829699E+01 -0.55154260634E+02 -0.15168018049E+03  0.16140084532E+03  0.00000000000E+00 0. -1.
          1    1    6    6  503    0  0.28230660209E+02  0.66226710654E+02 -0.47206604772E+02  0.86089551712E+02  0.00000000000E+00 0. -1.
         -1    1    6    6    0  503  0.26558762850E+03  0.35880786325E+03 -0.51970886371E+03  0.68511106702E+03  0.00000000000E+00 0.  1.
<mgrwt>
<rscale>  0 0.23306884E+04</rscale>
<asrwt>0</asrwt>
<pdfrwt beam="1">  1        2 0.34549869E+00 0.23306884E+04</pdfrwt>
<pdfrwt beam="2">  1       -1 0.93032634E-01 0.23306884E+04</pdfrwt>
<totfact> 0.56181672E+00</totfact>
</mgrwt>
</event>
<event>
11    6  0.1705838E-008  0.2224200E+04  0.7818608E-02  0.8508422E-01
          2   -1    0    0  501    0  0.00000000000E+00  0.00000000000E+00  0.62704965749E+03  0.62704965749E+03  0.00000000000E+00 0. -1.
         -1   -1    0    0    0  501 -0.00000000000E+00 -0.00000000000E+00 -0.19723588370E+04  0.19723588370E+04  0.00000000000E+00 0.  1.
         24    2    1    2    0    0  0.62995099606E+03 -0.15271143968E+03 -0.13320532020E+04  0.14835075472E+04  0.79182500550E+02 0.  0.
        254    2    1    2    0    0 -0.62995099606E+03  0.15271143968E+03 -0.13255977580E+02  0.11159009474E+04  0.90824014564E+03 0.  0.
         23    2    4    4    0    0  0.12759795330E+03 -0.18845613735E+03  0.47771977346E+02  0.25029231721E+03  0.92558785870E+02 0.  0.
          2    1    3    3  502    0  0.82759104271E+02  0.40232611073E+01 -0.14387086395E+03  0.16602433997E+03  0.00000000000E+00 0. -1.
         -1    1    3    3    0  502  0.54719189179E+03 -0.15673470079E+03 -0.11881823380E+04  0.13174832072E+04  0.00000000000E+00 0.  1.
         11    1    4    4    0    0 -0.52006659957E+03  0.11793891089E+03  0.38533627791E+01  0.53328576120E+03  0.00000000000E+00 0. -1.
        -11    1    4    4    0    0 -0.23748234978E+03  0.22322866614E+03 -0.64881317705E+02  0.33232286896E+03  0.00000000000E+00 0.  1.
          4    1    5    5  503    0  0.32517572021E+02 -0.77757195821E+01 -0.15063736727E+02  0.36671112191E+02  0.00000000000E+00 0. -1.
         -4    1    5    5    0  503  0.95080381276E+02 -0.18068041777E+03  0.62835714073E+02  0.21362120502E+03  0.00000000000E+00 0.  1.
<mgrwt>
<rscale>  0 0.22242005E+04</rscale>
<asrwt>0</asrwt>
<pdfrwt beam="1">  1        2 0.96469179E-01 0.22242005E+04</pdfrwt>
<pdfrwt beam="2">  1       -1 0.30343982E+00 0.22242005E+04</pdfrwt>
<totfact> 0.15357964E+00</totfact>
</mgrwt>
</event>
<event>
11    6  0.1705838E-008  0.4168130E+04  0.7818608E-02  0.7971462E-01
         -1   -1    0    0    0  501 -0.00000000000E+00  0.00000000000E+00  0.12807734674E+04  0.12807734674E+04  0.00000000000E+00 0.  1.
          2   -1    0    0  501    0  0.00000000000E+00 -0.00000000000E+00 -0.33911754437E+04  0.33911754437E+04  0.00000000000E+00 0. -1.
         24    2    1    2    0    0 -0.18027139865E+04 -0.30662234720E+03 -0.15394988581E+03  0.18368324460E+04  0.80360977091E+02 0.  0.
        254    2    1    2    0    0  0.18027139865E+04  0.30662234720E+03 -0.19564520905E+04  0.28351164651E+04  0.93079837082E+03 0.  0.
         23    2    4    4    0    0  0.14360139988E+04 -0.77549284905E+01 -0.13181093261E+04  0.19513929684E+04  0.91246797182E+02 0.  0.
          4    1    3    3  502    0 -0.25166656148E+03 -0.47101849952E+02 -0.49346760191E+02  0.26074843274E+03  0.00000000000E+00 0. -1.
         -3    1    3    3    0  502 -0.15510474250E+04 -0.25952049724E+03 -0.10460312562E+03  0.15760840133E+04  0.00000000000E+00 0.  1.
         11    1    4    4    0    0  0.94603320431E+02  0.17096693535E+03 -0.51767587991E+03  0.55332431526E+03  0.00000000000E+00 0. -1.
        -11    1    4    4    0    0  0.27209666725E+03  0.14341034034E+03 -0.12066688454E+03  0.33039918140E+03  0.00000000000E+00 0.  1.
          3    1    5    5  503    0  0.58746056630E+03  0.45109902542E+01 -0.47972556102E+03  0.75846349938E+03  0.00000000000E+00 0. -1.
         -3    1    5    5    0  503  0.84855343249E+03 -0.12265918745E+02 -0.83838376508E+03  0.11929294690E+04  0.00000000000E+00 0.  1.
<mgrwt>
<rscale>  0 0.41681303E+04</rscale>
<asrwt>0</asrwt>
<pdfrwt beam="1">  1        2 0.52171930E+00 0.41681303E+04</pdfrwt>
<pdfrwt beam="2">  1       -1 0.19704207E+00 0.41681303E+04</pdfrwt>
<totfact> 0.13453428E-01</totfact>
</mgrwt>
</event>
<event>
11    6  0.1705838E-008  0.1396844E+04  0.7818608E-02  0.8956106E-01
          2   -1    0    0  501    0  0.00000000000E+00  0.00000000000E+00  0.86446405365E+03  0.86446405365E+03  0.00000000000E+00 0. -1.
         -1   -1    0    0    0  501 -0.00000000000E+00 -0.00000000000E+00 -0.56427289107E+03  0.56427289107E+03  0.00000000000E+00 0.  1.
         24    2    1    2    0    0 -0.70937232126E+02  0.36793372277E+03  0.23621539779E+03  0.45012240035E+03  0.80032155364E+02 0.  0.
        254    2    1    2    0    0  0.70937232126E+02 -0.36793372277E+03  0.63975764795E+02  0.97861454438E+03  0.90176838087E+03 0.  0.
         23    2    4    4    0    0 -0.17842696504E+03 -0.46579559690E+03 -0.23115014719E+03  0.55745768021E+03  0.92341511431E+02 0.  0.
          2    1    3    3  502    0 -0.79402457914E+02  0.36334182298E+03  0.22259213992E+03  0.43343891312E+03  0.00000000000E+00 0. -1.
         -1    1    3    3    0  502  0.84652257876E+01  0.45918997866E+01  0.13623257866E+02  0.16683487231E+02  0.00000000000E+00 0.  1.
         11    1    4    4    0    0  0.22484893170E+03  0.11226381326E+03  0.30099982405E+03  0.39212383239E+03  0.00000000000E+00 0. -1.
        -11    1    4    4    0    0  0.24515265468E+02 -0.14401939131E+02 -0.58739120606E+01  0.29033031784E+02  0.00000000000E+00 0.  1.
          4    1    5    5  503    0 -0.18962178603E+03 -0.43853685969E+03 -0.21627677768E+03  0.52444889514E+03  0.00000000000E+00 0. -1.
         -4    1    5    5    0  503  0.11194820995E+02 -0.27258737206E+02 -0.14873369514E+02  0.33008785071E+02  0.00000000000E+00 0.  1.
<mgrwt>
<rscale>  0 0.13968445E+04</rscale>
<asrwt>0</asrwt>
<pdfrwt beam="1">  1        2 0.13299447E+00 0.13968445E+04</pdfrwt>
<pdfrwt beam="2">  1       -1 0.86811214E-01 0.13968445E+04</pdfrwt>
<totfact> 0.45078307E+01</totfact>
</mgrwt>
</event>
<event>
11    6  0.1705838E-008  0.1767228E+04  0.7818608E-02  0.8723924E-01
         -1   -1    0    0    0  501 -0.00000000000E+00  0.00000000000E+00  0.19644584754E+04  0.19644584754E+04  0.00000000000E+00 0.  1.
          2   -1    0    0  501    0  0.00000000000E+00 -0.00000000000E+00 -0.39744986680E+03  0.39744986680E+03  0.00000000000E+00 0. -1.
         24    2    1    2    0    0  0.32180211831E+03  0.54145671941E+03  0.83083500806E+03  0.10456120525E+04  0.79282856609E+02 0.  0.
        254    2    1    2    0    0 -0.32180211831E+03 -0.54145671941E+03  0.73617360050E+03  0.13162962897E+04  0.89104004949E+03 0.  0.
         23    2    4    4    0    0 -0.33397775636E+03  0.11529468756E+03  0.40711791013E+03  0.54692537383E+03  0.92457368933E+02 0.  0.
          4    1    3    3  502    0  0.30330776698E+02  0.91871196193E+02  0.97124343203E+02  0.13708906137E+03  0.00000000000E+00 0. -1.
         -3    1    3    3    0  502  0.29147134162E+03  0.44958552322E+03  0.73371066485E+03  0.90852299112E+03  0.00000000000E+00 0.  1.
         11    1    4    4    0    0  0.11113367547E+03 -0.48042479980E+03  0.24044155076E+03  0.54860807634E+03  0.00000000000E+00 0.  1.
        -11    1    4    4    0    0 -0.98958037431E+02 -0.17632660717E+03  0.88614139608E+02  0.22076283951E+03  0.00000000000E+00 0. -1.
          3    1    5    5  503    0 -0.96462369498E+02  0.73059771163E+02  0.16993724506E+03  0.20861779921E+03  0.00000000000E+00 0. -1.
         -3    1    5    5    0  503 -0.23751538686E+03  0.42234916396E+02  0.23718066508E+03  0.33830757462E+03  0.00000000000E+00 0.  1.
<mgrwt>
<rscale>  0 0.17672281E+04</rscale>
<asrwt>0</asrwt>
<pdfrwt beam="1">  1        2 0.61146134E-01 0.17672281E+04</pdfrwt>
<pdfrwt beam="2">  1       -1 0.30222438E+00 0.17672281E+04</pdfrwt>
<totfact> 0.27731141E+00</totfact>
</mgrwt>
</event>
<event>
12    6  0.1705838E-008  0.1626687E+04  0.7818608E-02  0.8804319E-01
         -1   -1    0    0    0  501 -0.00000000000E+00  0.00000000000E+00  0.68127016061E+03  0.68127016061E+03  0.00000000000E+00 0.  1.
          2   -1    0    0  501    0  0.00000000000E+00 -0.00000000000E+00 -0.97102050715E+03  0.97102050715E+03  0.00000000000E+00 0. -1.
         24    2    1    2    0    0  0.53238511742E+03 -0.17055502216E+03 -0.17943263820E+03  0.59258421857E+03  0.80231263369E+02 0.  0.
        254    2    1    2    0    0 -0.53238511742E+03  0.17055502216E+03 -0.11031770834E+03  0.10597064492E+04  0.89346786895E+03 0.  0.
         23    2    4    4    0    0 -0.28568434952E+03  0.24424892599E+03  0.35380891710E+03  0.52136363597E+03  0.73254390197E+02 0.  0.
         23    2    4    4    0    0 -0.24670076790E+03 -0.73693903830E+02 -0.46412662544E+03  0.53834281322E+03  0.90041100384E+02 0.  0.
          4    1    3    3  502    0  0.99104707125E+02 -0.16256471763E+02 -0.61525194470E+02  0.11777676088E+03  0.00000000000E+00 0. -1.
         -3    1    3    3    0  502  0.43328041029E+03 -0.15429855039E+03 -0.11790744373E+03  0.47480745770E+03  0.00000000000E+00 0.  1.
         11    1    5    5    0    0 -0.10815462699E+03  0.88347525923E+02  0.85023940495E+02  0.16349856003E+03  0.00000000000E+00 0. -1.
        -11    1    5    5    0    0 -0.17752972253E+03  0.15590140006E+03  0.26878497661E+03  0.35786507593E+03  0.00000000000E+00 0.  1.
          1    1    6    6  503    0 -0.89983013095E+02 -0.47584696847E+02 -0.10813826740E+03  0.14850969967E+03  0.00000000000E+00 0. -1.
         -1    1    6    6    0  503 -0.15671775481E+03 -0.26109206984E+02 -0.35598835804E+03  0.38983311355E+03  0.00000000000E+00 0.  1.
<mgrwt>
<rscale>  0 0.16266866E+04</rscale>
<asrwt>0</asrwt>
<pdfrwt beam="1">  1        2 0.14938777E+00 0.16266866E+04</pdfrwt>
<pdfrwt beam="2">  1       -1 0.10481079E+00 0.16266866E+04</pdfrwt>
<totfact> 0.24559150E+01</totfact>
</mgrwt>
</event>
<event>
11    6  0.1705838E-008  0.2410357E+04  0.7818608E-02  0.8435636E-01
          2   -1    0    0  501    0  0.00000000000E+00  0.00000000000E+00  0.15099082495E+04  0.15099082495E+04  0.00000000000E+00 0. -1.
         -1   -1    0    0    0  501 -0.00000000000E+00 -0.00000000000E+00 -0.96194950285E+03  0.96194950285E+03  0.00000000000E+00 0.  1.
         24    2    1    2    0    0  0.55876870410E+03 -0.21908361689E+02  0.11314287437E+04  0.12644877527E+04  0.78075819335E+02 0.  0.
        254    2    1    2    0    0 -0.55876870410E+03  0.21908361689E+02 -0.58346999704E+03  0.12073699997E+04  0.89699645357E+03 0.  0.
         23    2    4    4    0    0 -0.12277808921E+02 -0.40129616964E+02  0.20907489179E+03  0.23208439798E+03  0.91595451067E+02 0.  0.
          2    1    3    3  502    0  0.54558094820E+03 -0.20537958551E+02  0.11232538625E+04  0.12489113733E+04  0.00000000000E+00 0. -1.
         -1    1    3    3    0  502  0.13187755907E+02 -0.13704031378E+01  0.81748811752E+01  0.15576379324E+02  0.00000000000E+00 0.  1.
         11    1    4    4    0    0 -0.68922585986E+01  0.88230925339E+01 -0.75433687385E+02  0.76260024803E+02  0.00000000000E+00 0. -1.
        -11    1    4    4    0    0 -0.53959863658E+03  0.53214886119E+02 -0.71711120144E+03  0.89902557691E+03  0.00000000000E+00 0.  1.
          4    1    5    5  503    0 -0.44158662145E+02 -0.41235950647E+02  0.87077277056E+02  0.10598510861E+03  0.00000000000E+00 0. -1.
         -4    1    5    5    0  503  0.31880853224E+02  0.11063336822E+01  0.12199761474E+03  0.12609928936E+03  0.00000000000E+00 0.  1.
<mgrwt>
<rscale>  0 0.24103572E+04</rscale>
<asrwt>0</asrwt>
<pdfrwt beam="1">  1        2 0.23229358E+00 0.24103572E+04</pdfrwt>
<pdfrwt beam="2">  1       -1 0.14799223E+00 0.24103572E+04</pdfrwt>
<totfact> 0.46399054E+00</totfact>
</mgrwt>
</event>
<event>
12    6  0.1705838E-008  0.1758290E+04  0.7818608E-02  0.8728800E-01
          2   -1    0    0  501    0  0.00000000000E+00  0.00000000000E+00  0.78065448902E+03  0.78065448902E+03  0.00000000000E+00 0. -1.
         -1   -1    0    0    0  501 -0.00000000000E+00 -0.00000000000E+00 -0.99006168375E+03  0.99006168375E+03  0.00000000000E+00 0.  1.
         24    2    1    2    0    0  0.48761147610E+03 -0.40503408461E+03 -0.26509262858E+02  0.63944876580E+03  0.79839975878E+02 0.  0.
        254    2    1    2    0    0 -0.48761147610E+03  0.40503408461E+03 -0.18289793188E+03  0.11312674070E+04  0.91896503267E+03 0.  0.
         23    2    4    4    0    0  0.19671623500E+03  0.14025009267E+03  0.16882182997E+03  0.31246677532E+03  0.10376564844E+03 0.  0.
         23    2    4    4    0    0 -0.68432771110E+03  0.26478399195E+03 -0.35171976185E+03  0.81880063165E+03  0.91174036623E+02 0.  0.
          2    1    3    3  502    0  0.13385715040E+03 -0.11826077965E+03  0.28038433237E+02  0.18080238509E+03  0.00000000000E+00 0. -1.
         -1    1    3    3    0  502  0.35375432569E+03 -0.28677330496E+03 -0.54547696095E+02  0.45864638071E+03  0.00000000000E+00 0.  1.
         11    1    5    5    0    0  0.20523776820E+03  0.14641353679E+03  0.16486234373E+03  0.30122924432E+03  0.00000000000E+00 0. -1.
        -11    1    5    5    0    0 -0.85215332017E+01 -0.61634441254E+01  0.39594862395E+01  0.11237530996E+02  0.00000000000E+00 0.  1.
          4    1    6    6  503    0 -0.50810898453E+03  0.16624299013E+03 -0.22234597980E+03  0.57900708688E+03  0.00000000000E+00 0. -1.
         -4    1    6    6    0  503 -0.17621872657E+03  0.98541001815E+02 -0.12937378205E+03  0.23979354477E+03  0.00000000000E+00 0.  1.
<mgrwt>
<rscale>  0 0.17582902E+04</rscale>
<asrwt>0</asrwt>
<pdfrwt beam="1">  1        2 0.12010069E+00 0.17582902E+04</pdfrwt>
<pdfrwt beam="2">  1       -1 0.15231718E+00 0.17582902E+04</pdfrwt>
<totfact> 0.12879206E+01</totfact>
</mgrwt>
</event>
<event>
11    6  0.1705838E-008  0.1345481E+04  0.7818608E-02  0.8994256E-01
          2   -1    0    0  501    0  0.00000000000E+00  0.00000000000E+00  0.56162689622E+03  0.56162689622E+03  0.00000000000E+00 0. -1.
         -1   -1    0    0    0  501 -0.00000000000E+00 -0.00000000000E+00 -0.80583650419E+03  0.80583650419E+03  0.00000000000E+00 0.  1.
         24    2    1    2    0    0 -0.27221410390E+03  0.46517467025E+02  0.16759394080E+03  0.33263611879E+03  0.79338927579E+02 0.  0.
        254    2    1    2    0    0  0.27221410390E+03 -0.46517467025E+02 -0.41180354877E+03  0.10348272816E+04  0.90830663704E+03 0.  0.
         23    2    4    4    0    0 -0.32171784239E+02  0.96727873446E+02  0.24698561641E+03  0.28293178803E+03  0.93044058166E+02 0.  0.
          4    1    3    3  502    0 -0.14481362053E+03  0.60383090303E+02  0.11291837503E+03  0.19330716931E+03  0.00000000000E+00 0. -1.
         -3    1    3    3    0  502 -0.12740048337E+03 -0.13865623278E+02  0.54675565773E+02  0.13932894949E+03  0.00000000000E+00 0.  1.
         11    1    4    4    0    0  0.68804739007E+02 -0.26074766073E+02 -0.28792719945E+03  0.29718017719E+03  0.00000000000E+00 0. -1.
        -11    1    4    4    0    0  0.23558114914E+03 -0.11717057440E+03 -0.37086196573E+03  0.45471531639E+03  0.00000000000E+00 0.  1.
          1    1    5    5  503    0  0.31202014364E+02  0.36935446102E+02  0.63521004612E+02  0.79829260963E+02  0.00000000000E+00 0. -1.
         -1    1    5    5    0  503 -0.63373798603E+02  0.59792427344E+02  0.18346461180E+03  0.20310252706E+03  0.00000000000E+00 0.  1.
<mgrwt>
<rscale>  0 0.13454805E+04</rscale>
<asrwt>0</asrwt>
<pdfrwt beam="1">  1        2 0.86404138E-01 0.13454805E+04</pdfrwt>
<pdfrwt beam="2">  1       -1 0.12397485E+00 0.13454805E+04</pdfrwt>
<totfact> 0.34269422E+01</totfact>
</mgrwt>
</event>
<event>
12    6  0.1705838E-008  0.2962170E+04  0.7818608E-02  0.8254617E-01
         -1   -1    0    0    0  501 -0.00000000000E+00  0.00000000000E+00  0.21038716756E+04  0.21038716756E+04  0.00000000000E+00 0.  1.
          2   -1    0    0  501    0  0.00000000000E+00 -0.00000000000E+00 -0.10426555439E+04  0.10426555439E+04  0.00000000000E+00 0. -1.
         24    2    1    2    0    0 -0.42554739419E+03  0.19388445513E+03  0.18274259669E+04  0.18878605070E+04  0.76484396034E+02 0.  0.
        254    2    1    2    0    0  0.42554739419E+03 -0.19388445513E+03 -0.76620983516E+03  0.12586667125E+04  0.88231661839E+03 0.  0.
         23    2    4    4    0    0 -0.18268155950E+03 -0.20772279250E+03 -0.52338464943E+03  0.59715296479E+03  0.78350886358E+02 0.  0.
         23    2    4    4    0    0  0.60822895369E+03  0.13838337373E+02 -0.24282518573E+03  0.66151374774E+03  0.92208502518E+02 0.  0.
          2    1    3    3  502    0 -0.51916877876E+02 -0.57373425760E+00  0.23536294389E+03  0.24102158977E+03  0.00000000000E+00 0. -1.
         -1    1    3    3    0  502 -0.37363051632E+03  0.19445818939E+03  0.15920630230E+04  0.16468389172E+04  0.00000000000E+00 0.  1.
         11    1    5    5    0    0 -0.19009873281E+03 -0.20249880877E+03 -0.51300572112E+03  0.58336795050E+03  0.00000000000E+00 0. -1.
        -11    1    5    5    0    0  0.74171733176E+01 -0.52239837307E+01 -0.10378928311E+02  0.13785014288E+02  0.00000000000E+00 0.  1.
          2    1    6    6  503    0  0.16469313672E+03 -0.98686229903E+01 -0.25220734874E+02  0.16690507623E+03  0.00000000000E+00 0.  1.
         -2    1    6    6    0  503  0.44353581697E+03  0.23706960364E+02 -0.21760445085E+03  0.49460867151E+03  0.00000000000E+00 0. -1.
<mgrwt>
<rscale>  0 0.29621705E+04</rscale>
<asrwt>0</asrwt>
<pdfrwt beam="1">  1        2 0.16040855E+00 0.29621705E+04</pdfrwt>
<pdfrwt beam="2">  1       -1 0.32367256E+00 0.29621705E+04</pdfrwt>
<totfact> 0.53609661E-01</totfact>
</mgrwt>
</event>
<event>
12    6  0.1705838E-008  0.1720545E+04  0.7818608E-02  0.8749733E-01
         -1   -1    0    0    0  501 -0.00000000000E+00  0.00000000000E+00  0.12335263328E+04  0.12335263328E+04  0.00000000000E+00 0.  1.
          2   -1    0    0  501    0  0.00000000000E+00 -0.00000000000E+00 -0.59996179176E+03  0.59996179176E+03  0.00000000000E+00 0. -1.
         24    2    1    2    0    0  0.19965073764E+03 -0.11803430747E+03  0.85394116830E+03  0.88876798260E+03  0.83069207258E+02 0.  0.
        254    2    1    2    0    0 -0.19965073764E+03  0.11803430747E+03 -0.22037662725E+03  0.94472014198E+03  0.88889694231E+03 0.  0.
         23    2    4    4    0    0 -0.31493419709E+03  0.44345022946E+03 -0.18506492845E+03  0.58576913620E+03  0.11421382873E+03 0.  0.
         23    2    4    4    0    0  0.11528345945E+03 -0.32541592199E+03 -0.35311698798E+02  0.35895100578E+03  0.91723007845E+02 0.  0.
          4    1    3    3  502    0  0.36644787076E+02 -0.60836355644E+02  0.31103696189E+03  0.31904215121E+03  0.00000000000E+00 0. -1.
         -3    1    3    3    0  502  0.16300595056E+03 -0.57197951830E+02  0.54290420642E+03  0.56972583139E+03  0.00000000000E+00 0.  1.
         11    1    5    5    0    0 -0.27133278154E+03  0.37039766755E+03 -0.10959917646E+03  0.47204649130E+03  0.00000000000E+00 0. -1.
        -11    1    5    5    0    0 -0.43601415552E+02  0.73052561912E+02 -0.75465751991E+02  0.11372264490E+03  0.00000000000E+00 0.  1.
          4    1    6    6  503    0  0.48062870162E+02 -0.43388798520E+02 -0.23164160235E+02  0.68769220183E+02  0.00000000000E+00 0. -1.
         -4    1    6    6    0  503  0.67220589293E+02 -0.28202712347E+03 -0.12147538563E+02  0.29018178559E+03  0.00000000000E+00 0.  1.
<mgrwt>
<rscale>  0 0.17205449E+04</rscale>
<asrwt>0</asrwt>
<pdfrwt beam="1">  1        2 0.92301814E-01 0.17205449E+04</pdfrwt>
<pdfrwt beam="2">  1       -1 0.18977328E+00 0.17205449E+04</pdfrwt>
<totfact> 0.95452605E+00</totfact>
</mgrwt>
</event>
<event>
12    6  0.1705838E-008  0.2300764E+04  0.7818608E-02  0.8477620E-01
          2   -1    0    0  501    0  0.00000000000E+00  0.00000000000E+00  0.15100752508E+04  0.15100752508E+04  0.00000000000E+00 0. -1.
         -1   -1    0    0    0  501 -0.00000000000E+00 -0.00000000000E+00 -0.87636586467E+03  0.87636586467E+03  0.00000000000E+00 0.  1.
         24    2    1    2    0    0 -0.12687762630E+03 -0.96111024401E+03  0.35189339820E+03  0.10343922574E+04  0.79420056254E+02 0.  0.
        254    2    1    2    0    0  0.12687762630E+03  0.96111024401E+03  0.28181598796E+03  0.13520488581E+04  0.89932476357E+03 0.  0.
         23    2    4    4    0    0 -0.22038729567E+03  0.72885748111E+03 -0.10587615523E+03  0.77587081980E+03  0.10469947904E+03 0.  0.
         23    2    4    4    0    0  0.34726492197E+03  0.23225276290E+03  0.38769214319E+03  0.57617803827E+03  0.84508354587E+02 0.  0.
          4    1    3    3  502    0  0.77363319775E+01 -0.38343634787E+02  0.23998256830E+02  0.45891191879E+02  0.00000000000E+00 0. -1.
         -3    1    3    3    0  502 -0.13461395828E+03 -0.92276660922E+03  0.32789514137E+03  0.98850106555E+03  0.00000000000E+00 0.  1.
         11    1    5    5    0    0 -0.13861805477E+03  0.37231823753E+03 -0.86717419425E+01  0.39738021366E+03  0.00000000000E+00 0.  1.
        -11    1    5    5    0    0 -0.81769240899E+02  0.35653924359E+03 -0.97204413288E+02  0.37849060614E+03  0.00000000000E+00 0. -1.
          3    1    6    6  503    0  0.25587067094E+03  0.19095021415E+03  0.33543911453E+03  0.46308874321E+03  0.00000000000E+00 0. -1.
         -3    1    6    6    0  503  0.91394251029E+02  0.41302548752E+02  0.52253028662E+02  0.11308929507E+03  0.00000000000E+00 0.  1.
<mgrwt>
<rscale>  0 0.23007637E+04</rscale>
<asrwt>0</asrwt>
<pdfrwt beam="1">  1        2 0.23231927E+00 0.23007637E+04</pdfrwt>
<pdfrwt beam="2">  1       -1 0.13482552E+00 0.23007637E+04</pdfrwt>
<totfact> 0.59798061E+00</totfact>
</mgrwt>
</event>
<event>
11    6  0.1705838E-008  0.2318069E+04  0.7818608E-02  0.8470831E-01
         -1   -1    0    0    0  501 -0.00000000000E+00  0.00000000000E+00  0.72203631272E+03  0.72203631272E+03  0.00000000000E+00 0.  1.
          2   -1    0    0  501    0  0.00000000000E+00 -0.00000000000E+00 -0.18605170904E+04  0.18605170904E+04  0.00000000000E+00 0. -1.
         24    2    1    2    0    0  0.91201594269E+03 -0.34496657954E+03 -0.33184847441E+03  0.10331593175E+04  0.80744936050E+02 0.  0.
        254    2    1    2    0    0 -0.91201594269E+03  0.34496657954E+03 -0.80663230327E+03  0.15493940856E+04  0.89397502151E+03 0.  0.
         23    2    4    4    0    0 -0.40206954045E+03  0.12847710069E+03 -0.86058042038E+03  0.96269438571E+03  0.89529545780E+02 0.  0.
          2    1    3    3  502    0  0.34059549080E+03 -0.96322034648E+02 -0.14579376494E+03  0.38280418573E+03  0.00000000000E+00 0. -1.
         -1    1    3    3    0  502  0.57142045189E+03 -0.24864454489E+03 -0.18605470947E+03  0.65035513180E+03  0.00000000000E+00 0.  1.
         11    1    4    4    0    0 -0.44413147638E+03  0.11554501764E+03  0.73041222018E+02  0.46469176831E+03  0.00000000000E+00 0. -1.
        -11    1    4    4    0    0 -0.65814925855E+02  0.10094446121E+03 -0.19093104903E+02  0.12200793158E+03  0.00000000000E+00 0.  1.
          2    1    5    5  503    0 -0.39509052733E+03  0.13753283175E+03 -0.84870853089E+03  0.94621243651E+03  0.00000000000E+00 0. -1.
         -2    1    5    5    0  503 -0.69790131175E+01 -0.90557310673E+01 -0.11871889493E+02  0.16481949199E+02  0.00000000000E+00 0.  1.
<mgrwt>
<rscale>  0 0.23180689E+04</rscale>
<asrwt>0</asrwt>
<pdfrwt beam="1">  1        2 0.28623340E+00 0.23180689E+04</pdfrwt>
<pdfrwt beam="2">  1       -1 0.11108251E+00 0.23180689E+04</pdfrwt>
<totfact> 0.61365927E+00</totfact>
</mgrwt>
</event>
<event>
12    6  0.1705838E-008  0.1947507E+04  0.7818608E-02  0.8631564E-01
         -1   -1    0    0    0  501 -0.00000000000E+00  0.00000000000E+00  0.95090902059E+03  0.95090902059E+03  0.00000000000E+00 0.  1.
          2   -1    0    0  501    0  0.00000000000E+00 -0.00000000000E+00 -0.99714699150E+03  0.99714699150E+03  0.00000000000E+00 0. -1.
         24    2    1    2    0    0 -0.28566477475E+02  0.46395622004E+03  0.58386656422E+03  0.75074570072E+03  0.81532352957E+02 0.  0.
        254    2    1    2    0    0  0.28566477475E+02 -0.46395622004E+03 -0.63010453514E+03  0.11973103114E+04  0.90578630966E+03 0.  0.
         23    2    4    4    0    0  0.34875454203E+03  0.62201189079E+02 -0.11275719778E+03  0.38757119656E+03  0.10953779366E+03 0.  0.
         23    2    4    4    0    0 -0.32018806456E+03 -0.52615740912E+03 -0.51734733736E+03  0.80973911481E+03  0.93097533410E+02 0.  0.
          2    1    3    3  502    0  0.55843614254E+01  0.77780645732E+02  0.56890741348E+02  0.96527562872E+02  0.00000000000E+00 0. -1.
         -1    1    3    3    0  502 -0.34150838901E+02  0.38617557431E+03  0.52697582288E+03  0.65421813784E+03  0.00000000000E+00 0.  1.
         11    1    5    5    0    0  0.36873299335E+02  0.45095716683E+02 -0.22452691377E+02  0.62429057474E+02  0.00000000000E+00 0.  1.
        -11    1    5    5    0    0  0.31188124270E+03  0.17105472396E+02 -0.90304506407E+02  0.32514213909E+03  0.00000000000E+00 0. -1.
          3    1    6    6  503    0 -0.27364511525E+03 -0.43530788142E+03 -0.38366305946E+03  0.64153873143E+03  0.00000000000E+00 0. -1.
         -3    1    6    6    0  503 -0.46542949310E+02 -0.90849527696E+02 -0.13368427790E+03  0.16820038338E+03  0.00000000000E+00 0.  1.
<mgrwt>
<rscale>  0 0.19475072E+04</rscale>
<asrwt>0</asrwt>
<pdfrwt beam="1">  1        2 0.15340723E+00 0.19475072E+04</pdfrwt>
<pdfrwt beam="2">  1       -1 0.14629369E+00 0.19475072E+04</pdfrwt>
<totfact> 0.10046613E+01</totfact>
</mgrwt>
</event>
<event>
12    6  0.1705838E-008  0.1323167E+04  0.7818608E-02  0.9011393E-01
         -1   -1    0    0    0  501 -0.00000000000E+00  0.00000000000E+00  0.86562867511E+03  0.86562867511E+03  0.00000000000E+00 0.  1.
          2   -1    0    0  501    0  0.00000000000E+00 -0.00000000000E+00 -0.50563537157E+03  0.50563537157E+03  0.00000000000E+00 0. -1.
         24    2    1    2    0    0 -0.53633859137E+02  0.21237030400E+03  0.38127215049E+03  0.44694640483E+03  0.80093065778E+02 0.  0.
        254    2    1    2    0    0  0.53633859137E+02 -0.21237030400E+03 -0.21278846948E+02  0.92431764184E+03  0.89773747656E+03 0.  0.
         23    2    4    4    0    0  0.65323454808E+02  0.17714871158E+03  0.33326714361E+03  0.38996977162E+03  0.73216214076E+02 0.  0.
         23    2    4    4    0    0 -0.11689595671E+02 -0.38951901558E+03 -0.35454599056E+03  0.53434787022E+03  0.89236073686E+02 0.  0.
          2    1    3    3  502    0 -0.16979050411E+02 -0.68024972657E+00  0.30233351152E+02  0.34681499598E+02  0.00000000000E+00 0. -1.
         -1    1    3    3    0  502 -0.36654808726E+02  0.21305055373E+03  0.35103879934E+03  0.41226490524E+03  0.00000000000E+00 0.  1.
         11    1    5    5    0    0  0.79862064923E+02  0.12876493428E+03  0.23808070756E+03  0.28220698259E+03  0.00000000000E+00 0.  1.
        -11    1    5    5    0    0 -0.14538610115E+02  0.48383777300E+02  0.95186436056E+02  0.10776278903E+03  0.00000000000E+00 0. -1.
          3    1    6    6  503    0  0.15731141455E+02 -0.10136889329E+02 -0.10473354302E+02  0.21445663596E+02  0.00000000000E+00 0. -1.
         -3    1    6    6    0  503 -0.27420737127E+02 -0.37938212625E+03 -0.34407263626E+03  0.51290220663E+03  0.00000000000E+00 0.  1.
<mgrwt>
<rscale>  0 0.13231666E+04</rscale>
<asrwt>0</asrwt>
<pdfrwt beam="1">  1        2 0.77790057E-01 0.13231666E+04</pdfrwt>
<pdfrwt beam="2">  1       -1 0.13317364E+00 0.13231666E+04</pdfrwt>
<totfact> 0.32449910E+01</totfact>
</mgrwt>
</event>
<event>
11    6  0.1705838E-008  0.1355455E+04  0.7818608E-02  0.8986709E-01
          2   -1    0    0  501    0  0.00000000000E+00  0.00000000000E+00  0.18207616189E+04  0.18207616189E+04  0.00000000000E+00 0. -1.
         -1   -1    0    0    0  501 -0.00000000000E+00 -0.00000000000E+00 -0.25226517479E+03  0.25226517479E+03  0.00000000000E+00 0.  1.
         24    2    1    2    0    0  0.27396811548E+03 -0.19868597863E+03  0.66766575166E+03  0.75276027062E+03  0.79597881177E+02 0.  0.
        254    2    1    2    0    0 -0.27396811548E+03  0.19868597863E+03  0.90083069240E+03  0.13202665230E+04  0.90392096393E+03 0.  0.
         23    2    4    4    0    0 -0.21420213935E+03 -0.25546498564E+02  0.82418161578E+03  0.85654224866E+03  0.88623404729E+02 0.  0.
          4    1    3    3  502    0  0.22662445585E+03 -0.16834347740E+03  0.48014388568E+03  0.55698861867E+03  0.00000000000E+00 0. -1.
         -3    1    3    3    0  502  0.47343659624E+02 -0.30342501230E+02  0.18752186598E+03  0.19577165195E+03  0.00000000000E+00 0.  1.
         11    1    4    4    0    0 -0.19389564585E+03  0.23165389888E+03  0.11623013502E+03  0.32367961726E+03  0.00000000000E+00 0.  1.
        -11    1    4    4    0    0  0.13412966972E+03 -0.74214216815E+01 -0.39581058398E+02  0.14004465710E+03  0.00000000000E+00 0. -1.
          2    1    5    5  503    0 -0.19999779259E+03 -0.19800658456E+02  0.61942470292E+03  0.65121282674E+03  0.00000000000E+00 0. -1.
         -2    1    5    5    0  503 -0.14204346754E+02 -0.57458401078E+01  0.20475691285E+03  0.20532942192E+03  0.00000000000E+00 0.  1.
<mgrwt>
<rscale>  0 0.13554553E+04</rscale>
<asrwt>0</asrwt>
<pdfrwt beam="1">  1        2 0.28011716E+00 0.13554553E+04</pdfrwt>
<pdfrwt beam="2">  1       -1 0.38810028E-01 0.13554553E+04</pdfrwt>
<totfact> 0.60170547E+01</totfact>
</mgrwt>
</event>
<event>
12    6  0.1705838E-008  0.1375237E+04  0.7818608E-02  0.8971941E-01
         -1   -1    0    0    0  501 -0.00000000000E+00  0.00000000000E+00  0.19311638934E+03  0.19311638934E+03  0.00000000000E+00 0.  1.
          2   -1    0    0  501    0  0.00000000000E+00 -0.00000000000E+00 -0.24483647605E+04  0.24483647605E+04  0.00000000000E+00 0. -1.
         24    2    1    2    0    0 -0.71198798388E+02  0.40208234166E+03 -0.56325208945E+03  0.70057346964E+03  0.82527520986E+02 0.  0.
        254    2    1    2    0    0  0.71198798388E+02 -0.40208234166E+03 -0.16919962817E+04  0.19409076802E+04  0.85879667405E+03 0.  0.
         23    2    4    4    0    0  0.24694487328E+03  0.14316512588E+03 -0.97475011078E+03  0.10183500311E+04  0.73627329333E+02 0.  0.
         23    2    4    4    0    0 -0.17574607489E+03 -0.54524746754E+03 -0.71724617094E+03  0.92255764913E+03  0.92136108740E+02 0.  0.
          4    1    3    3  502    0 -0.84586000972E+02  0.35601902897E+03 -0.46948106650E+03  0.59524516995E+03  0.00000000000E+00 0. -1.
         -3    1    3    3    0  502  0.13387202584E+02  0.46063312691E+02 -0.93771022955E+02  0.10532829969E+03  0.00000000000E+00 0.  1.
         11    1    5    5    0    0  0.57335752637E+02  0.14347975274E+02 -0.12572430351E+03  0.13892391234E+03  0.00000000000E+00 0.  1.
        -11    1    5    5    0    0  0.18960912064E+03  0.12881715061E+03 -0.84902580727E+03  0.87942611874E+03  0.00000000000E+00 0. -1.
          3    1    6    6  503    0 -0.18495469878E+03 -0.53131003684E+03 -0.68653475232E+03  0.88759707187E+03  0.00000000000E+00 0. -1.
         -3    1    6    6    0  503  0.92086238905E+01 -0.13937430704E+02 -0.30711418621E+02  0.34960577259E+02  0.00000000000E+00 0.  1.
<mgrwt>
<rscale>  0 0.13752372E+04</rscale>
<asrwt>0</asrwt>
<pdfrwt beam="1">  1        2 0.37667155E+00 0.13752372E+04</pdfrwt>
<pdfrwt beam="2">  1       -1 0.29710210E-01 0.13752372E+04</pdfrwt>
<totfact> 0.43129927E+01</totfact>
</mgrwt>
</event>
<event>
12    6  0.1705838E-008  0.1192130E+04  0.7818608E-02  0.9119773E-01
         -1   -1    0    0    0  501 -0.00000000000E+00  0.00000000000E+00  0.39132835351E+03  0.39132835351E+03  0.00000000000E+00 0.  1.
          2   -1    0    0  501    0  0.00000000000E+00 -0.00000000000E+00 -0.90791716710E+03  0.90791716710E+03  0.00000000000E+00 0. -1.
         24    2    1    2    0    0 -0.14817417571E+03  0.12648373779E+03  0.71607907203E+02  0.22230358265E+03  0.79608216962E+02 0.  0.
        254    2    1    2    0    0  0.14817417571E+03 -0.12648373779E+03 -0.58819672080E+03  0.10769419380E+04  0.88083757476E+03 0.  0.
         23    2    4    4    0    0  0.20327901312E+03 -0.40709352416E+03 -0.52269788737E+02  0.46312145177E+03  0.68570064078E+02 0.  0.
         23    2    4    4    0    0 -0.55104837403E+02  0.28060978636E+03 -0.53592693206E+03  0.61382048619E+03  0.88201572857E+02 0.  0.
          4    1    3    3  502    0 -0.75805350653E+02  0.10904596276E+03  0.27005712657E+02  0.13552410006E+03  0.00000000000E+00 0. -1.
         -1    1    3    3    0  502 -0.72368825061E+02  0.17437775035E+02  0.44602194546E+02  0.86779482582E+02  0.00000000000E+00 0.  1.
         11    1    5    5    0    0  0.18879779523E+03 -0.40187339273E+03 -0.45608061890E+02  0.44634843629E+03  0.00000000000E+00 0.  1.
        -11    1    5    5    0    0  0.14481217888E+02 -0.52201314259E+01 -0.66617268476E+01  0.16773015478E+02  0.00000000000E+00 0. -1.
          4    1    6    6  503    0 -0.10089149180E+02  0.83380539205E+02 -0.84516631210E+02  0.11915186193E+03  0.00000000000E+00 0. -1.
         -4    1    6    6    0  503 -0.45015688223E+02  0.19722924716E+03 -0.45141030085E+03  0.49466862427E+03  0.00000000000E+00 0.  1.
<mgrwt>
<rscale>  0 0.11921304E+04</rscale>
<asrwt>0</asrwt>
<pdfrwt beam="1">  1        2 0.13967956E+00 0.11921304E+04</pdfrwt>
<pdfrwt beam="2">  1       -1 0.60204363E-01 0.11921304E+04</pdfrwt>
<totfact> 0.91280663E+01</totfact>
</mgrwt>
</event>
<event>
12    6  0.1705838E-008  0.1654003E+04  0.7818608E-02  0.8788042E-01
          2   -1    0    0  501    0  0.00000000000E+00  0.00000000000E+00  0.24182945894E+04  0.24182945894E+04  0.00000000000E+00 0. -1.
         -1   -1    0    0    0  501 -0.00000000000E+00 -0.00000000000E+00 -0.28281551381E+03  0.28281551381E+03  0.00000000000E+00 0.  1.
         24    2    1    2    0    0 -0.22190734137E+03 -0.41527365383E+03  0.21186305118E+03  0.52203651610E+03  0.77078505223E+02 0.  0.
        254    2    1    2    0    0  0.22190734137E+03  0.41527365383E+03  0.19236160244E+04  0.21790735871E+04  0.90904786065E+03 0.  0.
         23    2    4    4    0    0  0.42001693363E+03  0.55395527134E+03  0.99803545380E+03  0.12180192893E+04  0.64927304405E+02 0.  0.
         23    2    4    4    0    0 -0.19810959226E+03 -0.13868161751E+03  0.92558057062E+03  0.96105429783E+03  0.91901953656E+02 0.  0.
          4    1    3    3  502    0 -0.39826626685E+02 -0.64377353712E+02  0.66728310481E+02  0.10091219591E+03  0.00000000000E+00 0. -1.
         -3    1    3    3    0  502 -0.18208071469E+03 -0.35089630012E+03  0.14513474070E+03  0.42112432019E+03  0.00000000000E+00 0.  1.
         11    1    5    5    0    0  0.61725007115E+02  0.49130925052E+02  0.10238346374E+03  0.12925245818E+03  0.00000000000E+00 0. -1.
        -11    1    5    5    0    0  0.35829192651E+03  0.50482434629E+03  0.89565199006E+03  0.10887668311E+04  0.00000000000E+00 0.  1.
          4    1    6    6  503    0 -0.49322212030E+02 -0.79021585944E+02  0.43808488295E+03  0.44787884111E+03  0.00000000000E+00 0. -1.
         -4    1    6    6    0  503 -0.14878738023E+03 -0.59660031565E+02  0.48749568767E+03  0.51317545672E+03  0.00000000000E+00 0.  1.
<mgrwt>
<rscale>  0 0.16540027E+04</rscale>
<asrwt>0</asrwt>
<pdfrwt beam="1">  1        2 0.37204531E+00 0.16540027E+04</pdfrwt>
<pdfrwt beam="2">  1       -1 0.43510081E-01 0.16540027E+04</pdfrwt>
<totfact> 0.22038749E+01</totfact>
</mgrwt>
</event>
<event>
12    6  0.1705838E-008  0.2422189E+04  0.7818608E-02  0.8431243E-01
          2   -1    0    0  501    0  0.00000000000E+00  0.00000000000E+00  0.11574574845E+04  0.11574574845E+04  0.00000000000E+00 0. -1.
         -1   -1    0    0    0  501 -0.00000000000E+00 -0.00000000000E+00 -0.12672166549E+04  0.12672166549E+04  0.00000000000E+00 0.  1.
         24    2    1    2    0    0  0.21536863054E+03  0.41564046243E+03 -0.98465977313E+03  0.10927397205E+04  0.73379745015E+02 0.  0.
        254    2    1    2    0    0 -0.21536863054E+03 -0.41564046243E+03  0.87490060275E+03  0.13319344189E+04  0.88851426016E+03 0.  0.
         23    2    4    4    0    0 -0.94604289530E+02  0.23551538276E+03  0.48725968126E+03  0.55928442005E+03  0.10468810064E+03 0.  0.
         23    2    4    4    0    0 -0.12076434101E+03 -0.65115584519E+03  0.38764092150E+03  0.77264999885E+03  0.90191883872E+02 0.  0.
          2    1    3    3  502    0  0.14955999566E+03  0.25612590819E+03 -0.69393763054E+03  0.75466423543E+03  0.00000000000E+00 0. -1.
         -1    1    3    3    0  502  0.65808634876E+02  0.15951455424E+03 -0.29072214259E+03  0.33807548510E+03  0.00000000000E+00 0.  1.
         11    1    5    5    0    0  0.21851051584E+02  0.60507105565E+02  0.11537313189E+03  0.13209669883E+03  0.00000000000E+00 0.  1.
        -11    1    5    5    0    0 -0.11645534111E+03  0.17500827720E+03  0.37188654937E+03  0.42718772122E+03  0.00000000000E+00 0. -1.
          4    1    6    6  503    0 -0.69901202829E+01 -0.56010443437E+02  0.65327144198E+02  0.86334624135E+02  0.00000000000E+00 0.  1.
         -4    1    6    6    0  503 -0.11377422073E+03 -0.59514540176E+03  0.32231377730E+03  0.68631537472E+03  0.00000000000E+00 0. -1.
<mgrwt>
<rscale>  0 0.24221886E+04</rscale>
<asrwt>0</asrwt>
<pdfrwt beam="1">  1        2 0.17807038E+00 0.24221886E+04</pdfrwt>
<pdfrwt beam="2">  1       -1 0.19495641E+00 0.24221886E+04</pdfrwt>
<totfact> 0.33534812E+00</totfact>
</mgrwt>
</event>
<event>
11    6  0.1705838E-008  0.1661981E+04  0.7818608E-02  0.8783350E-01
         -1   -1    0    0    0  501 -0.00000000000E+00  0.00000000000E+00  0.32463376579E+03  0.32463376579E+03  0.00000000000E+00 0.  1.
          2   -1    0    0  501    0  0.00000000000E+00 -0.00000000000E+00 -0.21271509269E+04  0.21271509269E+04  0.00000000000E+00 0. -1.
         24    2    1    2    0    0 -0.44857790967E+02  0.51173545020E+03 -0.20255960888E+03  0.55766108535E+03  0.77910837274E+02 0.  0.
        254    2    1    2    0    0  0.44857790967E+02 -0.51173545020E+03 -0.15999575522E+04  0.18941236073E+04  0.87404500945E+03 0.  0.
         23    2    4    4    0    0 -0.11685271617E+02 -0.23673154324E+02 -0.11512034403E+04  0.11549863914E+04  0.89594863165E+02 0.  0.
          4    1    3    3  502    0  0.67356292056E+01  0.20242520719E+03 -0.11112198302E+03  0.23101824239E+03  0.00000000000E+00 0. -1.
         -3    1    3    3    0  502 -0.51593420173E+02  0.30931024300E+03 -0.91437625864E+02  0.32664284296E+03  0.00000000000E+00 0.  1.
         11    1    4    4    0    0  0.71106086396E+01  0.21520557297E+02  0.30399993730E+02  0.37919055373E+02  0.00000000000E+00 0.  1.
        -11    1    4    4    0    0  0.49432453945E+02 -0.50958285317E+03 -0.47915410561E+03  0.70121816054E+03  0.00000000000E+00 0. -1.
          3    1    5    5  503    0 -0.47574550340E+02  0.24832220577E+01 -0.69315818271E+03  0.69479332933E+03  0.00000000000E+00 0. -1.
         -3    1    5    5    0  503  0.35889278723E+02 -0.26156376381E+02 -0.45804525761E+03  0.46019306206E+03  0.00000000000E+00 0.  1.
<mgrwt>
<rscale>  0 0.16619808E+04</rscale>
<asrwt>0</asrwt>
<pdfrwt beam="1">  1        2 0.32725399E+00 0.16619808E+04</pdfrwt>
<pdfrwt beam="2">  1       -1 0.49943656E-01 0.16619808E+04</pdfrwt>
<totfact> 0.24817551E+01</totfact>
</mgrwt>
</event>
<event>
11    6  0.1705838E-008  0.1307115E+04  0.7818608E-02  0.9023942E-01
          2   -1    0    0  501    0  0.00000000000E+00  0.00000000000E+00  0.12737509778E+04  0.12737509778E+04  0.00000000000E+00 0. -1.
         -1   -1    0    0    0  501 -0.00000000000E+00 -0.00000000000E+00 -0.33533822059E+03  0.33533822059E+03  0.00000000000E+00 0.  1.
         24    2    1    2    0    0  0.17406327548E+03  0.10688943028E+03 -0.83860259464E+02  0.23453133632E+03  0.79050809106E+02 0.  0.
        254    2    1    2    0    0 -0.17406327548E+03 -0.10688943028E+03  0.10222730167E+04  0.13745578621E+04  0.89590391303E+03 0.  0.
         23    2    4    4    0    0  0.25775906404E+03 -0.31199834310E+03  0.39725443577E+03  0.57454950775E+03  0.92267810893E+02 0.  0.
          4    1    3    3  502    0  0.39927678885E+02  0.38396892993E+02  0.11083420949E+02  0.56492328263E+02  0.00000000000E+00 0. -1.
         -3    1    3    3    0  502  0.13413559660E+03  0.68492537287E+02 -0.94943680413E+02  0.17803900805E+03  0.00000000000E+00 0.  1.
         11    1    4    4    0    0 -0.32083359702E+03  0.14724591385E+03  0.34646131142E+03  0.49462207435E+03  0.00000000000E+00 0. -1.
        -11    1    4    4    0    0 -0.11098874250E+03  0.57862998969E+02  0.27855726947E+03  0.30538627995E+03  0.00000000000E+00 0.  1.
          1    1    5    5  503    0  0.21637453295E+03 -0.19895848112E+03  0.26568849860E+03  0.39622316187E+03  0.00000000000E+00 0. -1.
         -1    1    5    5    0  503  0.41384531091E+02 -0.11303986198E+03  0.13156593717E+03  0.17832634588E+03  0.00000000000E+00 0.  1.
<mgrwt>
<rscale>  0 0.13071150E+04</rscale>
<asrwt>0</asrwt>
<pdfrwt beam="1">  1        2 0.19596169E+00 0.13071150E+04</pdfrwt>
<pdfrwt beam="2">  1       -1 0.51590496E-01 0.13071150E+04</pdfrwt>
<totfact> 0.72295763E+01</totfact>
</mgrwt>
</event>
<event>
11    6  0.1705838E-008  0.1732288E+04  0.7818608E-02  0.8743161E-01
          2   -1    0    0  501    0  0.00000000000E+00  0.00000000000E+00  0.33179734400E+04  0.33179734400E+04  0.00000000000E+00 0. -1.
         -1   -1    0    0    0  501 -0.00000000000E+00 -0.00000000000E+00 -0.22610351245E+03  0.22610351245E+03  0.00000000000E+00 0.  1.
         24    2    1    2    0    0 -0.12971215032E+03 -0.32177577321E+03  0.60612197434E+02  0.36314509222E+03  0.88519090371E+02 0.  0.
        254    2    1    2    0    0  0.12971215032E+03  0.32177577321E+03  0.30312577301E+04  0.31809318602E+04  0.89968838100E+03 0.  0.
         23    2    4    4    0    0 -0.45339794309E+02 -0.29077503876E+03  0.85328787589E+03  0.90714269049E+03  0.90564019680E+02 0.  0.
          2    1    3    3  502    0  0.56987464495E+00 -0.63342521048E+02 -0.12661976416E+02  0.64598184004E+02  0.00000000000E+00 0. -1.
         -1    1    3    3    0  502 -0.13028202497E+03 -0.25843325216E+03  0.73274173850E+02  0.29854690822E+03  0.00000000000E+00 0.  1.
         11    1    4    4    0    0  0.19998086677E+03  0.52715049098E+03  0.19057132095E+04  0.19873658002E+04  0.00000000000E+00 0. -1.
        -11    1    4    4    0    0 -0.24928922138E+02  0.85400320984E+02  0.27225664473E+03  0.28642336948E+03  0.00000000000E+00 0.  1.
          3    1    5    5  503    0 -0.49174559096E+02 -0.28941354957E+03  0.85396797366E+03  0.90301696549E+03  0.00000000000E+00 0. -1.
         -3    1    5    5    0  503  0.38347647871E+01 -0.13614891859E+01 -0.68009776870E+00  0.41257249969E+01  0.00000000000E+00 0.  1.
<mgrwt>
<rscale>  0 0.17322880E+04</rscale>
<asrwt>0</asrwt>
<pdfrwt beam="1">  1        2 0.51045742E+00 0.17322880E+04</pdfrwt>
<pdfrwt beam="2">  1       -1 0.34785158E-01 0.17322880E+04</pdfrwt>
<totfact> 0.92540342E+00</totfact>
</mgrwt>
</event>
<event>
12    6  0.1705838E-008  0.1797210E+04  0.7818608E-02  0.8707785E-01
          2   -1    0    0  501    0  0.00000000000E+00  0.00000000000E+00  0.28129902048E+04  0.28129902048E+04  0.00000000000E+00 0. -1.
         -1   -1    0    0    0  501 -0.00000000000E+00 -0.00000000000E+00 -0.28705775073E+03  0.28705775073E+03  0.00000000000E+00 0.  1.
         24    2    1    2    0    0 -0.21406315449E+03 -0.42135207160E+02 -0.14446099246E+03  0.27351130899E+03  0.79630697658E+02 0.  0.
        254    2    1    2    0    0  0.21406315449E+03  0.42135207160E+02  0.26703934465E+04  0.28265366465E+04  0.90039427210E+03 0.  0.
         23    2    4    4    0    0 -0.13238770626E+03 -0.20971179074E+02  0.24485005873E+02  0.15572007699E+03  0.75385222321E+02 0.  0.
         23    2    4    4    0    0  0.34645086075E+03  0.63106386235E+02  0.26459084406E+04  0.26708165696E+04  0.91755419591E+02 0.  0.
          2    1    3    3  502    0 -0.49455858777E+02  0.23942184980E+01  0.77584598740E+00  0.49519856488E+02  0.00000000000E+00 0. -1.
         -1    1    3    3    0  502 -0.16460729571E+03 -0.44529425658E+02 -0.14523683844E+03  0.22399145250E+03  0.00000000000E+00 0.  1.
         11    1    5    5    0    0 -0.87527078403E+02  0.12733439556E+02 -0.11302474669E+02  0.89167684002E+02  0.00000000000E+00 0. -1.
        -11    1    5    5    0    0 -0.44860627855E+02 -0.33704618630E+02  0.35787480542E+02  0.66552392985E+02  0.00000000000E+00 0.  1.
          2    1    6    6  503    0  0.50791081723E+02  0.27321667048E+02  0.68469340997E+03  0.68711809257E+03  0.00000000000E+00 0. -1.
         -2    1    6    6    0  503  0.29565977903E+03  0.35784719187E+02  0.19612150307E+04  0.19836984770E+04  0.00000000000E+00 0.  1.
<mgrwt>
<rscale>  0 0.17972097E+04</rscale>
<asrwt>0</asrwt>
<pdfrwt beam="1">  1        2 0.43276771E+00 0.17972097E+04</pdfrwt>
<pdfrwt beam="2">  1       -1 0.44162733E-01 0.17972097E+04</pdfrwt>
<totfact> 0.12416534E+01</totfact>
</mgrwt>
</event>
<event>
11    6  0.1705838E-008  0.2292782E+04  0.7818608E-02  0.8480773E-01
          2   -1    0    0  501    0  0.00000000000E+00  0.00000000000E+00  0.13785242099E+04  0.13785242099E+04  0.00000000000E+00 0. -1.
         -1   -1    0    0    0  501 -0.00000000000E+00 -0.00000000000E+00 -0.95334719593E+03  0.95334719593E+03  0.00000000000E+00 0.  1.
         24    2    1    2    0    0  0.77688982549E+02  0.29218251347E+03 -0.75148399463E+03  0.81372556359E+03  0.77555782995E+02 0.  0.
        254    2    1    2    0    0 -0.77688982549E+02 -0.29218251347E+03  0.11766610086E+04  0.15181458422E+04  0.91040071943E+03 0.  0.
         23    2    4    4    0    0  0.27052727892E+03  0.75119581615E+01  0.58022179511E+03  0.64696895437E+03  0.93113147531E+02 0.  0.
          2    1    3    3  502    0  0.54948392102E+02  0.21809914550E+03 -0.45891324392E+03  0.51106548358E+03  0.00000000000E+00 0. -1.
         -3    1    3    3    0  502  0.22740590447E+02  0.74083367973E+02 -0.29257075071E+03  0.30266008001E+03  0.00000000000E+00 0.  1.
         11    1    4    4    0    0 -0.43668708228E+03 -0.21042247557E+03  0.55928277867E+03  0.74011516170E+03  0.00000000000E+00 0. -1.
        -11    1    4    4    0    0  0.88470820811E+02 -0.89271996064E+02  0.37156434808E+02  0.13106172616E+03  0.00000000000E+00 0.  1.
          1    1    5    5  503    0  0.25361723195E+03  0.25311776222E+02  0.55958377479E+03  0.61489542799E+03  0.00000000000E+00 0. -1.
         -1    1    5    5    0  503  0.16910046973E+02 -0.17799818060E+02  0.20638020315E+02  0.32073526375E+02  0.00000000000E+00 0.  1.
<mgrwt>
<rscale>  0 0.22927819E+04</rscale>
<asrwt>0</asrwt>
<pdfrwt beam="1">  1        2 0.21208065E+00 0.22927819E+04</pdfrwt>
<pdfrwt beam="2">  1       -1 0.14666880E+00 0.22927819E+04</pdfrwt>
<totfact> 0.57032081E+00</totfact>
</mgrwt>
</event>
<event>
12    6  0.1705838E-008  0.1575680E+04  0.7818608E-02  0.8835629E-01
          2   -1    0    0  501    0  0.00000000000E+00  0.00000000000E+00  0.63297919996E+03  0.63297919996E+03  0.00000000000E+00 0. -1.
         -1   -1    0    0    0  501 -0.00000000000E+00 -0.00000000000E+00 -0.98058853232E+03  0.98058853232E+03  0.00000000000E+00 0.  1.
         24    2    1    2    0    0 -0.15987061099E+03 -0.30372266607E+03  0.28866793459E+03  0.45556662509E+03  0.80035637663E+02 0.  0.
        254    2    1    2    0    0  0.15987061099E+03  0.30372266607E+03 -0.63627726695E+03  0.11580011072E+04  0.90460584437E+03 0.  0.
         23    2    4    4    0    0  0.10198549024E+03  0.61264984827E+03 -0.49378272405E+03  0.80119333885E+03  0.11112385362E+03 0.  0.
         23    2    4    4    0    0  0.57885120749E+02 -0.30892718220E+03 -0.14249454290E+03  0.35680776834E+03  0.90666408776E+02 0.  0.
          4    1    3    3  502    0 -0.12815551451E+03 -0.16997136152E+03  0.19931986425E+03  0.29162048611E+03  0.00000000000E+00 0. -1.
         -3    1    3    3    0  502 -0.31715096480E+02 -0.13375130455E+03  0.89348070342E+02  0.16394613898E+03  0.00000000000E+00 0.  1.
         11    1    5    5    0    0  0.79527971651E+02  0.56579396345E+03 -0.41241863352E+03  0.70465355788E+03  0.00000000000E+00 0. -1.
        -11    1    5    5    0    0  0.22457518588E+02  0.46855884825E+02 -0.81364090526E+02  0.96539780976E+02  0.00000000000E+00 0.  1.
          3    1    6    6  503    0  0.39285787532E+02 -0.22627348457E+03 -0.57385005474E+02  0.23671945796E+03  0.00000000000E+00 0. -1.
         -3    1    6    6    0  503  0.18599333217E+02 -0.82653697629E+02 -0.85109537430E+02  0.12008831038E+03  0.00000000000E+00 0.  1.
<mgrwt>
<rscale>  0 0.15756804E+04</rscale>
<asrwt>0</asrwt>
<pdfrwt beam="1">  1        2 0.97381416E-01 0.15756804E+04</pdfrwt>
<pdfrwt beam="2">  1       -1 0.15085977E+00 0.15756804E+04</pdfrwt>
<totfact> 0.17519161E+01</totfact>
</mgrwt>
</event>
<event>
12    6  0.1705838E-008  0.1286785E+04  0.7818608E-02  0.9040111E-01
         -1   -1    0    0    0  501 -0.00000000000E+00  0.00000000000E+00  0.20928023014E+03  0.20928023014E+03  0.00000000000E+00 0.  1.
          2   -1    0    0  501    0  0.00000000000E+00 -0.00000000000E+00 -0.19779881111E+04  0.19779881111E+04  0.00000000000E+00 0. -1.
         24    2    1    2    0    0  0.19029534566E+03  0.12543380623E+02 -0.89892178103E+03  0.92219608735E+03  0.77560299933E+02 0.  0.
        254    2    1    2    0    0 -0.19029534566E+03 -0.12543380623E+02 -0.86978609995E+03  0.12650722539E+04  0.89861576493E+03 0.  0.
         23    2    4    4    0    0 -0.20272271780E+03 -0.58016570353E+02  0.13232502605E+03  0.25769012995E+03  0.66572275050E+02 0.  0.
         23    2    4    4    0    0  0.12427372145E+02  0.45473189730E+02 -0.10021111260E+04  0.10073821240E+04  0.91486525000E+02 0.  0.
          4    1    3    3  502    0  0.51189160591E+02  0.14500243091E+02 -0.42376434191E+03  0.42709109647E+03  0.00000000000E+00 0. -1.
         -3    1    3    3    0  502  0.13910618507E+03 -0.19568624681E+01 -0.47515743913E+03  0.49510499088E+03  0.00000000000E+00 0.  1.
         11    1    5    5    0    0 -0.16722193055E+03 -0.29570477365E+02  0.12665439135E+03  0.21184645863E+03  0.00000000000E+00 0.  1.
        -11    1    5    5    0    0 -0.35500787252E+02 -0.28446092988E+02  0.56706347070E+01  0.45843671316E+02  0.00000000000E+00 0. -1.
          3    1    6    6  503    0  0.20407793853E+02 -0.24669940144E+02 -0.27786583439E+03  0.27970431873E+03  0.00000000000E+00 0. -1.
         -3    1    6    6    0  503 -0.79804217083E+01  0.70143129874E+02 -0.72424529161E+03  0.72767780522E+03  0.00000000000E+00 0.  1.
<mgrwt>
<rscale>  0 0.12867848E+04</rscale>
<asrwt>0</asrwt>
<pdfrwt beam="1">  1        2 0.30430586E+00 0.12867848E+04</pdfrwt>
<pdfrwt beam="2">  1       -1 0.32196959E-01 0.12867848E+04</pdfrwt>
<totfact> 0.69229387E+01</totfact>
</mgrwt>
</event>
<event>
12    6  0.1705838E-008  0.1375892E+04  0.7818608E-02  0.8971457E-01
          2   -1    0    0  501    0  0.00000000000E+00  0.00000000000E+00  0.60814758062E+03  0.60814758062E+03  0.00000000000E+00 0. -1.
         -1   -1    0    0    0  501 -0.00000000000E+00 -0.00000000000E+00 -0.77821501071E+03  0.77821501071E+03  0.00000000000E+00 0.  1.
         24    2    1    2    0    0  0.24389595894E+03 -0.29672276985E+03 -0.30686151100E+01  0.39221178880E+03  0.79316013174E+02 0.  0.
        254    2    1    2    0    0 -0.24389595894E+03  0.29672276985E+03 -0.16699881498E+03  0.99415080252E+03  0.90161941695E+03 0.  0.
         23    2    4    4    0    0 -0.25429523339E+03  0.31756537887E+03 -0.49770468550E+03  0.65134276082E+03  0.10499334513E+03 0.  0.
         23    2    4    4    0    0  0.10399274454E+02 -0.20842609020E+02  0.33070587052E+03  0.34280804170E+03  0.87226265541E+02 0.  0.
          2    1    3    3  502    0  0.50691423595E+01  0.20911545921E+01 -0.79433930080E+01  0.96522859608E+01  0.00000000000E+00 0. -1.
         -1    1    3    3    0  502  0.23882681658E+03 -0.29881392444E+03  0.48747778980E+01  0.38255950284E+03  0.00000000000E+00 0.  1.
         11    1    5    5    0    0 -0.15796954395E+03  0.25587870072E+03 -0.40306966755E+03  0.50288511929E+03  0.00000000000E+00 0. -1.
        -11    1    5    5    0    0 -0.96325689445E+02  0.61686678145E+02 -0.94635017951E+02  0.14845764154E+03  0.00000000000E+00 0.  1.
          4    1    6    6  503    0 -0.20189562594E+02 -0.22324516562E+02  0.29154363355E+03  0.29309331746E+03  0.00000000000E+00 0. -1.
         -4    1    6    6    0  503  0.30588837048E+02  0.14819075419E+01  0.39162236972E+02  0.49714724243E+02  0.00000000000E+00 0.  1.
<mgrwt>
<rscale>  0 0.13758918E+04</rscale>
<asrwt>0</asrwt>
<pdfrwt beam="1">  1        2 0.93561167E-01 0.13758918E+04</pdfrwt>
<pdfrwt beam="2">  1       -1 0.11972539E+00 0.13758918E+04</pdfrwt>
<totfact> 0.33855551E+01</totfact>
</mgrwt>
</event>
<event>
11    6  0.1705838E-008  0.1266528E+04  0.7818608E-02  0.9056538E-01
         -1   -1    0    0    0  501 -0.00000000000E+00  0.00000000000E+00  0.12192387786E+03  0.12192387786E+03  0.00000000000E+00 0.  1.
          2   -1    0    0  501    0  0.00000000000E+00 -0.00000000000E+00 -0.32891275757E+04  0.32891275757E+04  0.00000000000E+00 0. -1.
         24    2    1    2    0    0 -0.10228415724E+03 -0.27865844370E+03 -0.98309864533E+03  0.10301086504E+04  0.80797946821E+02 0.  0.
        254    2    1    2    0    0  0.10228415724E+03  0.27865844370E+03 -0.21841050525E+04  0.23809428031E+04  0.90025617144E+03 0.  0.
         23    2    4    4    0    0 -0.32217667172E+03 -0.45938034175E+02 -0.49630577720E+03  0.60056601959E+03  0.91934806329E+02 0.  0.
          2    1    3    3  502    0 -0.82656959990E+02 -0.27230248848E+03 -0.87671097961E+03  0.92173909543E+03  0.00000000000E+00 0. -1.
         -1    1    3    3    0  502 -0.19627197245E+02 -0.63559552233E+01 -0.10638766572E+03  0.10836955502E+03  0.00000000000E+00 0.  1.
         11    1    4    4    0    0  0.35611203671E+03  0.20038687602E+03 -0.14165991256E+04  0.14743553728E+04  0.00000000000E+00 0.  1.
        -11    1    4    4    0    0  0.68348792246E+02  0.12420960186E+03 -0.27120014969E+03  0.30602141067E+03  0.00000000000E+00 0. -1.
          1    1    5    5  503    0 -0.27907256374E+03 -0.89872750336E+01 -0.43597194882E+03  0.51771981525E+03  0.00000000000E+00 0.  1.
         -1    1    5    5    0  503 -0.43104107983E+02 -0.36950759141E+02 -0.60333828381E+02  0.82846204338E+02  0.00000000000E+00 0. -1.
<mgrwt>
<rscale>  0 0.12665278E+04</rscale>
<asrwt>0</asrwt>
<pdfrwt beam="1">  1        2 0.50601960E+00 0.12665278E+04</pdfrwt>
<pdfrwt beam="2">  1       -1 0.18757521E-01 0.12665278E+04</pdfrwt>
<totfact> 0.29370132E+01</totfact>
</mgrwt>
</event>
<event>
11    6  0.1705838E-008  0.1721105E+04  0.7818608E-02  0.8749418E-01
         -1   -1    0    0    0  501 -0.00000000000E+00  0.00000000000E+00  0.10449327187E+04  0.10449327187E+04  0.00000000000E+00 0.  1.
          2   -1    0    0  501    0  0.00000000000E+00 -0.00000000000E+00 -0.70870682234E+03  0.70870682234E+03  0.00000000000E+00 0. -1.
         24    2    1    2    0    0  0.15528252012E+03 -0.27699661532E+02  0.75538448602E+03  0.77567963686E+03  0.78697172814E+02 0.  0.
        254    2    1    2    0    0 -0.15528252012E+03  0.27699661532E+02 -0.41915858962E+03  0.97795990423E+03  0.86938582846E+03 0.  0.
         23    2    4    4    0    0 -0.58513024138E+01  0.29582372571E+03  0.12969202395E+03  0.33279529844E+03  0.79917301971E+02 0.  0.
          4    1    3    3  502    0  0.68465371394E-01  0.15204627512E+02  0.69723355098E+02  0.71361976089E+02  0.00000000000E+00 0. -1.
         -3    1    3    3    0  502  0.15521405474E+03 -0.42904289044E+02  0.68566113093E+03  0.70431766077E+03  0.00000000000E+00 0.  1.
         11    1    4    4    0    0 -0.29092615487E+02 -0.31235174979E+02 -0.21138866747E+03  0.21565524609E+03  0.00000000000E+00 0. -1.
        -11    1    4    4    0    0 -0.12033860221E+03 -0.23688888920E+03 -0.33746194610E+03  0.42950935971E+03  0.00000000000E+00 0.  1.
          3    1    5    5  503    0  0.24245224047E+02  0.74585096054E+02  0.60477737640E+02  0.99036983963E+02  0.00000000000E+00 0. -1.
         -3    1    5    5    0  503 -0.30096526461E+02  0.22123862966E+03  0.69214286306E+02  0.23375831448E+03  0.00000000000E+00 0.  1.
<mgrwt>
<rscale>  0 0.17211054E+04</rscale>
<asrwt>0</asrwt>
<pdfrwt beam="1">  1        2 0.10903182E+00 0.17211054E+04</pdfrwt>
<pdfrwt beam="2">  1       -1 0.16075888E+00 0.17211054E+04</pdfrwt>
<totfact> 0.12618639E+01</totfact>
</mgrwt>
</event>
<event>
12    6  0.1705838E-008  0.2706886E+04  0.7818608E-02  0.8332774E-01
          2   -1    0    0  501    0  0.00000000000E+00  0.00000000000E+00  0.16804490331E+04  0.16804490331E+04  0.00000000000E+00 0. -1.
         -1   -1    0    0    0  501 -0.00000000000E+00 -0.00000000000E+00 -0.10900708955E+04  0.10900708955E+04  0.00000000000E+00 0.  1.
         24    2    1    2    0    0  0.68160520931E+03  0.85485451648E+03 -0.24596266310E+03  0.11234761695E+04  0.79618880436E+02 0.  0.
        254    2    1    2    0    0 -0.68160520931E+03 -0.85485451648E+03  0.83634080063E+03  0.16470437591E+04  0.90439222896E+03 0.  0.
         23    2    4    4    0    0  0.11062545798E+03 -0.42047408860E+03  0.60891647452E+02  0.45292524001E+03  0.11134194706E+03 0.  0.
         23    2    4    4    0    0 -0.79223066730E+03 -0.43438042788E+03  0.77544915318E+03  0.11941185191E+04  0.91004736512E+02 0.  0.
          2    1    3    3  502    0  0.30615185070E+03  0.32213482680E+03 -0.10634985485E+03  0.45695743122E+03  0.00000000000E+00 0. -1.
         -1    1    3    3    0  502  0.37545335862E+03  0.53271968968E+03 -0.13961280824E+03  0.66651873829E+03  0.00000000000E+00 0.  1.
         11    1    5    5    0    0 -0.19140195332E+02 -0.38304495218E+02  0.19995424859E+02  0.47258845168E+02  0.00000000000E+00 0. -1.
        -11    1    5    5    0    0  0.12976565332E+03 -0.38216959338E+03  0.40896222592E+02  0.40566639485E+03  0.00000000000E+00 0.  1.
          3    1    6    6  503    0 -0.25308479121E+03 -0.96999559530E+02  0.25810853236E+03  0.37427375084E+03  0.00000000000E+00 0. -1.
         -3    1    6    6    0  503 -0.53914587609E+03 -0.33738086835E+03  0.51734062082E+03  0.81984476822E+03  0.00000000000E+00 0.  1.
<mgrwt>
<rscale>  0 0.27068865E+04</rscale>
<asrwt>0</asrwt>
<pdfrwt beam="1">  1        2 0.25853062E+00 0.27068865E+04</pdfrwt>
<pdfrwt beam="2">  1       -1 0.16770322E+00 0.27068865E+04</pdfrwt>
<totfact> 0.25683037E+00</totfact>
</mgrwt>
</event>
<event>
11    6  0.1705838E-008  0.1964549E+04  0.7818608E-02  0.8623377E-01
         -1   -1    0    0    0  501 -0.00000000000E+00  0.00000000000E+00  0.14717519009E+04  0.14717519009E+04  0.00000000000E+00 0.  1.
          2   -1    0    0  501    0  0.00000000000E+00 -0.00000000000E+00 -0.65558795712E+03  0.65558795712E+03  0.00000000000E+00 0. -1.
         24    2    1    2    0    0  0.29749593173E+03 -0.56508962717E+01  0.10972015551E+04  0.11396036296E+04  0.79431844849E+02 0.  0.
        254    2    1    2    0    0 -0.29749593173E+03  0.56508962717E+01 -0.28103761136E+03  0.98773622841E+03  0.89894658122E+03 0.  0.
         23    2    4    4    0    0 -0.39272447235E+03 -0.16140041499E+03 -0.40717168284E+03  0.59501055167E+03  0.89253415367E+02 0.  0.
          2    1    3    3  502    0  0.17881797753E+03 -0.75065987226E+01  0.50907951868E+03  0.53962410477E+03  0.00000000000E+00 0. -1.
         -1    1    3    3    0  502  0.11867795420E+03  0.18557024509E+01  0.58812203644E+03  0.59997952481E+03  0.00000000000E+00 0.  1.
         11    1    4    4    0    0  0.20647458991E+03  0.15849266306E+03  0.91307377662E+02  0.27584183464E+03  0.00000000000E+00 0. -1.
        -11    1    4    4    0    0 -0.11124604929E+03  0.85586482053E+01  0.34826693813E+02  0.11688384210E+03  0.00000000000E+00 0.  1.
          4    1    5    5  503    0 -0.11014547233E+03 -0.65166361153E+02 -0.74682083071E+02  0.14817588614E+03  0.00000000000E+00 0. -1.
         -4    1    5    5    0  503 -0.28257900001E+03 -0.96234053838E+02 -0.33248959977E+03  0.44683466553E+03  0.00000000000E+00 0.  1.
<mgrwt>
<rscale>  0 0.19645486E+04</rscale>
<asrwt>0</asrwt>
<pdfrwt beam="1">  1        2 0.10085969E+00 0.19645486E+04</pdfrwt>
<pdfrwt beam="2">  1       -1 0.22642337E+00 0.19645486E+04</pdfrwt>
<totfact> 0.47179447E+00</totfact>
</mgrwt>
</event>
<event>
12    6  0.1705838E-008  0.1892952E+04  0.7818608E-02  0.8658373E-01
         -1   -1    0    0    0  501 -0.00000000000E+00  0.00000000000E+00  0.77996538646E+03  0.77996538646E+03  0.00000000000E+00 0.  1.
          2   -1    0    0  501    0  0.00000000000E+00 -0.00000000000E+00 -0.11485335381E+04  0.11485335381E+04  0.00000000000E+00 0. -1.
         24    2    1    2    0    0  0.57731149334E+03  0.25704990468E+03 -0.49245028539E+03  0.80523631162E+03  0.80839471343E+02 0.  0.
        254    2    1    2    0    0 -0.57731149334E+03 -0.25704990468E+03  0.12388213371E+03  0.11232626130E+04  0.92033086487E+03 0.  0.
         23    2    4    4    0    0 -0.32200789254E+03 -0.30378173514E+03 -0.35454501442E+03  0.57233667371E+03  0.76776789230E+02 0.  0.
         23    2    4    4    0    0 -0.25530360080E+03  0.46731830453E+02  0.47842714813E+03  0.55092593927E+03  0.85223599633E+02 0.  0.
          4    1    3    3  502    0  0.53882042994E+03  0.25720142789E+03 -0.47507596790E+03  0.76300537711E+03  0.00000000000E+00 0. -1.
         -3    1    3    3    0  502  0.38491063397E+02 -0.15152320538E+00 -0.17374317494E+02  0.42230934505E+02  0.00000000000E+00 0.  1.
         11    1    5    5    0    0 -0.17040242664E+03 -0.14479190960E+03 -0.22540808138E+03  0.31750667275E+03  0.00000000000E+00 0. -1.
        -11    1    5    5    0    0 -0.15160546590E+03 -0.15898982553E+03 -0.12913693304E+03  0.25483000096E+03  0.00000000000E+00 0.  1.
          3    1    6    6  503    0 -0.13236641126E+03 -0.10718902145E+02  0.28748993421E+03  0.31668000247E+03  0.00000000000E+00 0. -1.
         -3    1    6    6    0  503 -0.12293718953E+03  0.57450732599E+02  0.19093721393E+03  0.23424593680E+03  0.00000000000E+00 0.  1.
<mgrwt>
<rscale>  0 0.18929516E+04</rscale>
<asrwt>0</asrwt>
<pdfrwt beam="1">  1        2 0.17669747E+00 0.18929516E+04</pdfrwt>
<pdfrwt beam="2">  1       -1 0.11999468E+00 0.18929516E+04</pdfrwt>
<totfact> 0.13461912E+01</totfact>
</mgrwt>
</event>
<event>
11    6  0.1705838E-008  0.1369558E+04  0.7818608E-02  0.8976153E-01
         -1   -1    0    0    0  501 -0.00000000000E+00  0.00000000000E+00  0.27716339582E+03  0.27716339582E+03  0.00000000000E+00 0.  1.
          2   -1    0    0  501    0  0.00000000000E+00 -0.00000000000E+00 -0.16918629549E+04  0.16918629549E+04  0.00000000000E+00 0. -1.
         24    2    1    2    0    0 -0.43898111932E+02  0.34768413792E+03 -0.62423490684E+03  0.72116055610E+03  0.87132225751E+02 0.  0.
        254    2    1    2    0    0  0.43898111932E+02 -0.34768413792E+03 -0.79046465221E+03  0.12478657946E+04  0.89973516711E+03 0.  0.
         23    2    4    4    0    0 -0.39738545608E+03 -0.26744368170E+03 -0.31561990901E+03  0.58095221030E+03  0.91914199669E+02 0.  0.
          4    1    3    3  502    0 -0.65212167843E+02  0.29719013678E+03 -0.55421124485E+03  0.63223785725E+03  0.00000000000E+00 0. -1.
         -3    1    3    3    0  502  0.21314055911E+02  0.50494001145E+02 -0.70023661992E+02  0.88922698845E+02  0.00000000000E+00 0.  1.
         11    1    4    4    0    0  0.18495993500E+03 -0.59408612938E+02 -0.11882392877E+03  0.22772502475E+03  0.00000000000E+00 0. -1.
        -11    1    4    4    0    0  0.25632363301E+03 -0.20831843286E+02 -0.35602081443E+03  0.43918855955E+03  0.00000000000E+00 0.  1.
          2    1    5    5  503    0 -0.36060411425E+03 -0.20494992502E+03 -0.27731667177E+03  0.49894321863E+03  0.00000000000E+00 0.  1.
         -2    1    5    5    0  503 -0.36781341834E+02 -0.62493756677E+02 -0.38303237238E+02  0.82008991663E+02  0.00000000000E+00 0. -1.
<mgrwt>
<rscale>  0 0.13695583E+04</rscale>
<asrwt>0</asrwt>
<pdfrwt beam="1">  1        2 0.26028661E+00 0.13695583E+04</pdfrwt>
<pdfrwt beam="2">  1       -1 0.42640522E-01 0.13695583E+04</pdfrwt>
<totfact> 0.59616783E+01</totfact>
</mgrwt>
</event>
<event>
12    6  0.1705838E-008  0.1315624E+04  0.7818608E-02  0.9017266E-01
         -1   -1    0    0    0  501 -0.00000000000E+00  0.00000000000E+00  0.13789291809E+03  0.13789291809E+03  0.00000000000E+00 0.  1.
          2   -1    0    0  501    0  0.00000000000E+00 -0.00000000000E+00 -0.31380635616E+04  0.31380635616E+04  0.00000000000E+00 0. -1.
         24    2    1    2    0    0  0.32529460323E+03  0.94863678278E+02 -0.95217662925E+03  0.10138802982E+04  0.80605393026E+02 0.  0.
        254    2    1    2    0    0 -0.32529460323E+03 -0.94863678278E+02 -0.20479940142E+04  0.22620761815E+04  0.89882894491E+03 0.  0.
         23    2    4    4    0    0  0.21915077289E+03 -0.28032093949E+03 -0.97980724528E+03  0.10451958198E+04  0.76191688408E+02 0.  0.
         23    2    4    4    0    0 -0.54444537612E+03  0.18545726121E+03 -0.10681867690E+04  0.12168803617E+04  0.94655576047E+02 0.  0.
          2    1    3    3  502    0  0.10104929476E+03  0.59899404362E+02 -0.39969888948E+03  0.41660304952E+03  0.00000000000E+00 0. -1.
         -1    1    3    3    0  502  0.22424530847E+03  0.34964273916E+02 -0.55247773977E+03  0.59727724865E+03  0.00000000000E+00 0.  1.
         11    1    5    5    0    0  0.81283438369E+02 -0.15818736511E+03 -0.42878021193E+03  0.46420115249E+03  0.00000000000E+00 0.  1.
        -11    1    5    5    0    0  0.13786733452E+03 -0.12213357438E+03 -0.55102703335E+03  0.58099466728E+03  0.00000000000E+00 0. -1.
          1    1    6    6  503    0 -0.40535269385E+03  0.96394385226E+02 -0.73067046263E+03  0.84111949738E+03  0.00000000000E+00 0. -1.
         -1    1    6    6    0  503 -0.13909268227E+03  0.89062875987E+02 -0.33751630634E+03  0.37576086436E+03  0.00000000000E+00 0.  1.
<mgrwt>
<rscale>  0 0.13156242E+04</rscale>
<asrwt>0</asrwt>
<pdfrwt beam="1">  1        2 0.48277896E+00 0.13156242E+04</pdfrwt>
<pdfrwt beam="2">  1       -1 0.21214297E-01 0.13156242E+04</pdfrwt>
<totfact> 0.29777197E+01</totfact>
</mgrwt>
</event>
<event>
12    6  0.1738253E-008  0.1218754E+04  0.7818608E-02  0.9096598E-01
         -1   -1    0    0    0  501 -0.00000000000E+00  0.00000000000E+00  0.45262258783E+03  0.45262258783E+03  0.00000000000E+00 0.  1.
          2   -1    0    0  501    0  0.00000000000E+00 -0.00000000000E+00 -0.82041929219E+03  0.82041929219E+03  0.00000000000E+00 0. -1.
         24    2    1    2    0    0 -0.10704747122E+03  0.13774633184E+03  0.11291054165E+03  0.22375774638E+03  0.82979067358E+02 0.  0.
        254    2    1    2    0    0  0.10704747122E+03 -0.13774633184E+03 -0.48070724600E+03  0.10492841336E+04  0.91623388047E+03 0.  0.
         23    2    4    4    0    0 -0.32069510130E+03  0.16848343708E+03 -0.31225937899E+03  0.48945880354E+03  0.10407681789E+03 0.  0.
         23    2    4    4    0    0  0.42774257252E+03 -0.30622976892E+03 -0.16844786701E+03  0.55982533010E+03  0.91045793995E+02 0.  0.
          4    1    3    3  502    0 -0.14689854049E+02  0.78145186500E+01  0.49457169392E+02  0.52181127987E+02  0.00000000000E+00 0. -1.
         -3    1    3    3    0  502 -0.92357617175E+02  0.12993181319E+03  0.63453372256E+02  0.17157661839E+03  0.00000000000E+00 0.  1.
         11    1    5    5    0    0 -0.10585517340E+03  0.69203673195E+02 -0.49457509889E+02  0.13579584457E+03  0.00000000000E+00 0. -1.
        -11    1    5    5    0    0 -0.21483992790E+03  0.99279763884E+02 -0.26280186910E+03  0.35366295896E+03  0.00000000000E+00 0.  1.
          1    1    6    6  503    0  0.32992815923E+03 -0.25183242984E+03 -0.16835799356E+03  0.44790241902E+03  0.00000000000E+00 0. -1.
         -1    1    6    6    0  503  0.97814413298E+02 -0.54397339078E+02 -0.89873445839E-01  0.11192291108E+03  0.00000000000E+00 0.  1.
<mgrwt>
<rscale>  0 0.12187540E+04</rscale>
<asrwt>0</asrwt>
<pdfrwt beam="1">  1        2 0.12621835E+00 0.12187540E+04</pdfrwt>
<pdfrwt beam="2">  1       -1 0.69634245E-01 0.12187540E+04</pdfrwt>
<totfact> 0.78160576E+01</totfact>
</mgrwt>
</event>
<event>
12    6  0.1705838E-008  0.2145649E+04  0.7818608E-02  0.8541397E-01
          2   -1    0    0  501    0  0.00000000000E+00  0.00000000000E+00  0.23161056831E+04  0.23161056831E+04  0.00000000000E+00 0. -1.
         -1   -1    0    0    0  501 -0.00000000000E+00 -0.00000000000E+00 -0.49693422838E+03  0.49693422838E+03  0.00000000000E+00 0.  1.
         24    2    1    2    0    0 -0.17646601842E+03  0.84645120081E+03  0.98918048179E+03  0.13162427065E+04  0.79980909625E+02 0.  0.
        254    2    1    2    0    0  0.17646601842E+03 -0.84645120081E+03  0.82999097291E+03  0.14967972049E+04  0.89660301504E+03 0.  0.
         23    2    4    4    0    0  0.10049555600E+03 -0.68370202519E+03  0.10088253625E+04  0.12248934902E+04  0.71327655679E+02 0.  0.
         23    2    4    4    0    0  0.75970462426E+02 -0.16274917562E+03 -0.17883438955E+03  0.27190371470E+03  0.98443312911E+02 0.  0.
          2    1    3    3  502    0 -0.33326058015E+01  0.56421901237E+02  0.40122315659E+02  0.69313327827E+02  0.00000000000E+00 0. -1.
         -1    1    3    3    0  502 -0.17313341262E+03  0.79002929957E+03  0.94905816613E+03  0.12469293787E+04  0.00000000000E+00 0.  1.
         11    1    5    5    0    0  0.11006905316E+03 -0.56430142663E+03  0.83491908304E+03  0.10137263792E+04  0.00000000000E+00 0. -1.
        -11    1    5    5    0    0 -0.95734971598E+01 -0.11940059856E+03  0.17390627941E+03  0.21116711108E+03  0.00000000000E+00 0.  1.
          1    1    6    6  503    0 -0.13177807832E+01 -0.10942302301E+03 -0.79848146523E+02  0.13546534987E+03  0.00000000000E+00 0. -1.
         -1    1    6    6    0  503  0.77288243210E+02 -0.53326152607E+02 -0.98986243022E+02  0.13643836483E+03  0.00000000000E+00 0.  1.
<mgrwt>
<rscale>  0 0.21456488E+04</rscale>
<asrwt>0</asrwt>
<pdfrwt beam="1">  1        2 0.35632394E+00 0.21456488E+04</pdfrwt>
<pdfrwt beam="2">  1       -1 0.76451421E-01 0.21456488E+04</pdfrwt>
<totfact> 0.79660571E+00</totfact>
</mgrwt>
</event>
<event>
11    6  0.1705838E-008  0.1495063E+04  0.7818608E-02  0.8887743E-01
         -1   -1    0    0    0  501 -0.00000000000E+00  0.00000000000E+00  0.20819310985E+03  0.20819310985E+03  0.00000000000E+00 0.  1.
          2   -1    0    0  501    0  0.00000000000E+00 -0.00000000000E+00 -0.26840628556E+04  0.26840628556E+04  0.00000000000E+00 0. -1.
         24    2    1    2    0    0  0.45992069137E+03 -0.10996415191E+03 -0.73378310224E+03  0.87652165837E+03  0.78952007008E+02 0.  0.
        254    2    1    2    0    0 -0.45992069137E+03  0.10996415191E+03 -0.17420866435E+04  0.20157343071E+04  0.89705059286E+03 0.  0.
         23    2    4    4    0    0 -0.35647260378E+03 -0.23882039420E+03 -0.34947043918E+03  0.56136490805E+03  0.94303097470E+02 0.  0.
          4    1    3    3  502    0  0.48821297293E+02 -0.21289803099E+02 -0.13208496716E+03  0.14241914666E+03  0.00000000000E+00 0. -1.
         -3    1    3    3    0  502  0.41109939408E+03 -0.88674348813E+02 -0.60169813507E+03  0.73410251171E+03  0.00000000000E+00 0.  1.
         11    1    4    4    0    0 -0.41220014615E+02  0.31320772610E+03 -0.12967072446E+04  0.13346339751E+04  0.00000000000E+00 0.  1.
        -11    1    4    4    0    0 -0.62228072974E+02  0.35576820018E+02 -0.95908959791E+02  0.11973542399E+03  0.00000000000E+00 0. -1.
          4    1    5    5  503    0 -0.35874316545E+03 -0.23876530820E+03 -0.35307372771E+03  0.55710554507E+03  0.00000000000E+00 0.  1.
         -4    1    5    5    0  503  0.22705616666E+01 -0.55086004166E-01  0.36032885257E+01  0.42593629746E+01  0.00000000000E+00 0. -1.
<mgrwt>
<rscale>  0 0.14950631E+04</rscale>
<asrwt>0</asrwt>
<pdfrwt beam="1">  1        2 0.41293271E+00 0.14950631E+04</pdfrwt>
<pdfrwt beam="2">  1       -1 0.32029712E-01 0.14950631E+04</pdfrwt>
<totfact> 0.27273208E+01</totfact>
</mgrwt>
</event>
<event>
12    6  0.1705838E-008  0.1405737E+04  0.7818608E-02  0.8949676E-01
          2   -1    0    0  501    0  0.00000000000E+00  0.00000000000E+00  0.15331227800E+04  0.15331227800E+04  0.00000000000E+00 0. -1.
         -1   -1    0    0    0  501 -0.00000000000E+00 -0.00000000000E+00 -0.32223407684E+03  0.32223407684E+03  0.00000000000E+00 0.  1.
         24    2    1    2    0    0 -0.12193217395E+03 -0.25610953578E+03  0.76703701488E+03  0.82131332843E+03  0.75830415397E+02 0.  0.
        254    2    1    2    0    0  0.12193217395E+03  0.25610953578E+03  0.44385168825E+03  0.10340435284E+04  0.88982141358E+03 0.  0.
         23    2    4    4    0    0  0.28084095282E+03 -0.15500742285E+01  0.61052594622E+03  0.67652326731E+03  0.77895806642E+02 0.  0.
         23    2    4    4    0    0 -0.15890877887E+03  0.25765961001E+03 -0.16667425797E+03  0.35752026107E+03  0.91651263908E+02 0.  0.
          4    1    3    3  502    0 -0.10084640288E+03 -0.14129330107E+03  0.51707304314E+03  0.54543407104E+03  0.00000000000E+00 0. -1.
         -3    1    3    3    0  502 -0.21085771074E+02 -0.11481623471E+03  0.24996397174E+03  0.27587925740E+03  0.00000000000E+00 0.  1.
         11    1    5    5    0    0  0.19146546746E+03 -0.24938113454E+02  0.47254305363E+03  0.51046828723E+03  0.00000000000E+00 0. -1.
        -11    1    5    5    0    0  0.89375485360E+02  0.23388039226E+02  0.13798289259E+03  0.16605498008E+03  0.00000000000E+00 0.  1.
          1    1    6    6  503    0 -0.13409006671E+03  0.24772771059E+03 -0.17229424882E+03  0.33020368375E+03  0.00000000000E+00 0. -1.
         -1    1    6    6    0  503 -0.24818712157E+02  0.99318994182E+01  0.56199908583E+01  0.27316577319E+02  0.00000000000E+00 0.  1.
<mgrwt>
<rscale>  0 0.14057374E+04</rscale>
<asrwt>0</asrwt>
<pdfrwt beam="1">  1        2 0.23586504E+00 0.14057374E+04</pdfrwt>
<pdfrwt beam="2">  1       -1 0.49574474E-01 0.14057374E+04</pdfrwt>
<totfact> 0.54985445E+01</totfact>
</mgrwt>
</event>
<event>
12    6  0.1705838E-008  0.1891146E+04  0.7818608E-02  0.8659276E-01
         -1   -1    0    0    0  501 -0.00000000000E+00  0.00000000000E+00  0.10943557827E+04  0.10943557827E+04  0.00000000000E+00 0.  1.
          2   -1    0    0  501    0  0.00000000000E+00 -0.00000000000E+00 -0.81701788025E+03  0.81701788025E+03  0.00000000000E+00 0. -1.
         24    2    1    2    0    0 -0.24224000206E+03  0.67627930753E+03  0.22740070952E+03  0.75760428390E+03  0.78862208284E+02 0.  0.
        254    2    1    2    0    0  0.24224000206E+03 -0.67627930753E+03  0.49937192957E+02  0.11537693791E+04  0.90147442363E+03 0.  0.
         23    2    4    4    0    0  0.30926511014E+03  0.78995074143E+02  0.17104666649E+03  0.38029957396E+03  0.11612783366E+03 0.  0.
         23    2    4    4    0    0 -0.67025108082E+02 -0.75527438168E+03 -0.12110947353E+03  0.77346980511E+03  0.93039121379E+02 0.  0.
          2    1    3    3  502    0 -0.71896662023E+01  0.36999498222E+02 -0.47870158841E+01  0.37994337603E+02  0.00000000000E+00 0. -1.
         -1    1    3    3    0  502 -0.23505033586E+03  0.63927980931E+03  0.23218772540E+03  0.71960994630E+03  0.00000000000E+00 0.  1.
         11    1    5    5    0    0  0.12675045338E+03  0.12740000704E+02  0.12966245150E+03  0.18177000957E+03  0.00000000000E+00 0. -1.
        -11    1    5    5    0    0  0.18251465676E+03  0.66255073439E+02  0.41384214988E+02  0.19852956439E+03  0.00000000000E+00 0.  1.
          2    1    6    6  503    0 -0.44997690910E+02 -0.54851184531E+03 -0.45557739057E+02  0.55223685518E+03  0.00000000000E+00 0. -1.
         -2    1    6    6    0  503 -0.22027417172E+02 -0.20676253637E+03 -0.75551734474E+02  0.22123294993E+03  0.00000000000E+00 0.  1.
<mgrwt>
<rscale>  0 0.18911459E+04</rscale>
<asrwt>0</asrwt>
<pdfrwt beam="1">  1        2 0.12569506E+00 0.18911459E+04</pdfrwt>
<pdfrwt beam="2">  1       -1 0.16836243E+00 0.18911459E+04</pdfrwt>
<totfact> 0.90631558E+00</totfact>
</mgrwt>
</event>
<event>
11    6  0.1705838E-008  0.1928503E+04  0.7818608E-02  0.8640797E-01
         -1   -1    0    0    0  501 -0.00000000000E+00  0.00000000000E+00  0.90317655315E+03  0.90317655315E+03  0.00000000000E+00 0.  1.
          2   -1    0    0  501    0  0.00000000000E+00 -0.00000000000E+00 -0.10294567487E+04  0.10294567487E+04  0.00000000000E+00 0. -1.
         24    2    1    2    0    0  0.16967583561E+03  0.69262452161E+03  0.21154587856E+03  0.74807407653E+03  0.79652671721E+02 0.  0.
        254    2    1    2    0    0 -0.16967583561E+03 -0.69262452161E+03 -0.33782607416E+03  0.11845592254E+04  0.88347919324E+03 0.  0.
         23    2    4    4    0    0 -0.10639873175E+03 -0.43321736982E+03  0.24698748034E+03  0.51865215160E+03  0.94864425767E+02 0.  0.
          4    1    3    3  502    0  0.16447135403E+02  0.10676574114E+03  0.45966964955E+01  0.10812289934E+03  0.00000000000E+00 0. -1.
         -3    1    3    3    0  502  0.15322870021E+03  0.58585878047E+03  0.20694918207E+03  0.63995117719E+03  0.00000000000E+00 0.  1.
         11    1    4    4    0    0 -0.11650360246E+03 -0.16327593201E+03 -0.44472133498E+03  0.48786185047E+03  0.00000000000E+00 0. -1.
        -11    1    4    4    0    0  0.53226498605E+02 -0.96131219772E+02 -0.14009221952E+03  0.17804522329E+03  0.00000000000E+00 0.  1.
          4    1    5    5  503    0 -0.10087504639E+03 -0.22093538518E+03  0.14742492122E+03  0.28411674855E+03  0.00000000000E+00 0. -1.
         -4    1    5    5    0  503 -0.55236853616E+01 -0.21228198465E+03  0.99562559118E+02  0.23453540305E+03  0.00000000000E+00 0.  1.
<mgrwt>
<rscale>  0 0.19285033E+04</rscale>
<asrwt>0</asrwt>
<pdfrwt beam="1">  1        2 0.15837796E+00 0.19285033E+04</pdfrwt>
<pdfrwt beam="2">  1       -1 0.13895024E+00 0.19285033E+04</pdfrwt>
<totfact> 0.10991127E+01</totfact>
</mgrwt>
</event>
<event>
11    6  0.1705838E-008  0.3363416E+04  0.7818608E-02  0.8146944E-01
          2   -1    0    0  501    0  0.00000000000E+00  0.00000000000E+00  0.18146929063E+04  0.18146929063E+04  0.00000000000E+00 0. -1.
         -1   -1    0    0    0  501 -0.00000000000E+00 -0.00000000000E+00 -0.15584684178E+04  0.15584684178E+04  0.00000000000E+00 0.  1.
         24    2    1    2    0    0 -0.15031555084E+04 -0.30607045997E+02  0.54656252803E+03  0.16017634653E+04  0.80637014342E+02 0.  0.
        254    2    1    2    0    0  0.15031555084E+04  0.30607045997E+02 -0.29033803949E+03  0.17713978588E+04  0.89058459644E+03 0.  0.
         23    2    4    4    0    0  0.25448137411E+03  0.13728116321E+03  0.22199204872E+03  0.37574373187E+03  0.91082351770E+02 0.  0.
          2    1    3    3  502    0 -0.28991670661E+02 -0.54345334351E+01  0.22193531973E+02  0.36913466144E+02  0.00000000000E+00 0. -1.
         -1    1    3    3    0  502 -0.14741638377E+04 -0.25172512562E+02  0.52436899606E+03  0.15648499992E+04  0.00000000000E+00 0.  1.
         11    1    4    4    0    0  0.12568897500E+04 -0.13566117213E+03 -0.48216085877E+03  0.13530169589E+04  0.00000000000E+00 0.  1.
        -11    1    4    4    0    0 -0.82156157397E+01  0.28987054917E+02 -0.30169229443E+02  0.42637168057E+02  0.00000000000E+00 0. -1.
          2    1    5    5  503    0  0.22087681956E+03  0.14982678906E+03  0.20161794038E+03  0.33449130037E+03  0.00000000000E+00 0.  1.
         -2    1    5    5    0  503  0.33604554550E+02 -0.12545625846E+02  0.20374108343E+02  0.41252431506E+02  0.00000000000E+00 0. -1.
<mgrwt>
<rscale>  0 0.33634159E+04</rscale>
<asrwt>0</asrwt>
<pdfrwt beam="1">  1        2 0.27918352E+00 0.33634159E+04</pdfrwt>
<pdfrwt beam="2">  1       -1 0.23976437E+00 0.33634159E+04</pdfrwt>
<totfact> 0.65143913E-01</totfact>
</mgrwt>
</event>
<event>
12    6  0.1705838E-008  0.1967760E+04  0.7818608E-02  0.8621844E-01
          2   -1    0    0  501    0  0.00000000000E+00  0.00000000000E+00  0.10574617345E+04  0.10574617345E+04  0.00000000000E+00 0. -1.
         -3   -1    0    0    0  501 -0.00000000000E+00 -0.00000000000E+00 -0.91541802831E+03  0.91541802831E+03  0.00000000000E+00 0.  1.
         24    2    1    2    0    0 -0.74334494794E+03  0.15465482867E+03 -0.11718799726E+03  0.77247119314E+03  0.80615692490E+02 0.  0.
        254    2    1    2    0    0  0.74334494794E+03 -0.15465482867E+03  0.25923170350E+03  0.12004085697E+04  0.89291647453E+03 0.  0.
         23    2    4    4    0    0  0.50934698361E+03 -0.37917570720E+03 -0.15720541785E+03  0.66571979858E+03  0.12353436840E+03 0.  0.
         23    2    4    4    0    0  0.23399796432E+03  0.22452087853E+03  0.41643712134E+03  0.53468877113E+03  0.85484113938E+02 0.  0.
          2    1    3    3  502    0 -0.68817173474E+02  0.22964952791E+02 -0.34236769108E+02  0.80220625656E+02  0.00000000000E+00 0. -1.
         -1    1    3    3    0  502 -0.67452777446E+03  0.13168987588E+03 -0.82951228156E+02  0.69225056749E+03  0.00000000000E+00 0.  1.
         11    1    5    5    0    0  0.21362540961E+03 -0.97902774771E+02 -0.92292319757E+02  0.25246512873E+03  0.00000000000E+00 0. -1.
        -11    1    5    5    0    0  0.29572157400E+03 -0.28127293243E+03 -0.64913098092E+02  0.41325466985E+03  0.00000000000E+00 0.  1.
          1    1    6    6  503    0  0.30462358696E+02 -0.23716809018E+01  0.38995959484E+02  0.49540539195E+02  0.00000000000E+00 0. -1.
         -1    1    6    6    0  503  0.20353560563E+03  0.22689255943E+03  0.37744116186E+03  0.48514823194E+03  0.00000000000E+00 0.  1.
<mgrwt>
<rscale>  0 0.19677597E+04</rscale>
<asrwt>0</asrwt>
<pdfrwt beam="1">  1        2 0.16268642E+00 0.19677597E+04</pdfrwt>
<pdfrwt beam="2">  1       -3 0.14083354E+00 0.19677597E+04</pdfrwt>
<totfact> 0.51734898E+00</totfact>
</mgrwt>
</event>
<event>
12    6  0.1705838E-008  0.1503728E+04  0.7818608E-02  0.8881977E-01
         -1   -1    0    0    0  501 -0.00000000000E+00  0.00000000000E+00  0.11762183723E+04  0.11762183723E+04  0.00000000000E+00 0.  1.
          2   -1    0    0  501    0  0.00000000000E+00 -0.00000000000E+00 -0.48060780916E+03  0.48060780916E+03  0.00000000000E+00 0. -1.
         24    2    1    2    0    0 -0.27684241064E+03 -0.29699182177E+03 -0.60459326682E+02  0.41817751950E+03  0.79820079585E+02 0.  0.
        254    2    1    2    0    0  0.27684241064E+03  0.29699182177E+03  0.75606988982E+03  0.12386486620E+04  0.89317577608E+03 0.  0.
         23    2    4    4    0    0 -0.29029257496E+03 -0.36734508587E+02  0.30205688741E+03  0.43402227300E+03  0.10732086021E+03 0.  0.
         23    2    4    4    0    0  0.56713498559E+03  0.33372633036E+03  0.45401300241E+03  0.80462638896E+03  0.90997054882E+02 0.  0.
          2    1    3    3  502    0 -0.12650023710E+03 -0.11701064630E+03 -0.63497280425E+02  0.18364559879E+03  0.00000000000E+00 0. -1.
         -1    1    3    3    0  502 -0.15034217354E+03 -0.17998117547E+03  0.30379537431E+01  0.23453192071E+03  0.00000000000E+00 0.  1.
         11    1    5    5    0    0 -0.43086231236E+02 -0.47161310052E+02  0.70642126647E+02  0.95241390924E+02  0.00000000000E+00 0.  1.
        -11    1    5    5    0    0 -0.24720634372E+03  0.10426801465E+02  0.23141476076E+03  0.33878088208E+03  0.00000000000E+00 0. -1.
          4    1    6    6  503    0  0.19622076550E+03  0.66691252019E+02  0.13898558638E+03  0.24953417628E+03  0.00000000000E+00 0. -1.
         -4    1    6    6    0  503  0.37091422009E+03  0.26703507834E+03  0.31502741604E+03  0.55509221268E+03  0.00000000000E+00 0.  1.
<mgrwt>
<rscale>  0 0.15037283E+04</rscale>
<asrwt>0</asrwt>
<pdfrwt beam="1">  1        2 0.73939663E-01 0.15037283E+04</pdfrwt>
<pdfrwt beam="2">  1       -1 0.18095667E+00 0.15037283E+04</pdfrwt>
<totfact> 0.14584406E+01</totfact>
</mgrwt>
</event>
<event>
11    6  0.1705838E-008  0.1505776E+04  0.7818608E-02  0.8880621E-01
          2   -1    0    0  501    0  0.00000000000E+00  0.00000000000E+00  0.89731905853E+03  0.89731905853E+03  0.00000000000E+00 0. -1.
         -1   -1    0    0    0  501 -0.00000000000E+00 -0.00000000000E+00 -0.63170452893E+03  0.63170452893E+03  0.00000000000E+00 0.  1.
         24    2    1    2    0    0  0.17493137793E+02 -0.43363194918E+03 -0.11601072160E+03  0.45645552190E+03  0.80935027826E+02 0.  0.
        254    2    1    2    0    0 -0.17493137793E+02  0.43363194918E+03  0.38162525120E+03  0.10725680655E+04  0.90356059324E+03 0.  0.
         23    2    4    4    0    0 -0.23793928846E+03 -0.19092069580E+03  0.77906774046E+02  0.32726974859E+03  0.89276009199E+02 0.  0.
          2    1    3    3  502    0 -0.23084259004E+02 -0.15369209472E+03 -0.15177530967E+02  0.15615537275E+03  0.00000000000E+00 0. -1.
         -1    1    3    3    0  502  0.40577396798E+02 -0.27993985446E+03 -0.10083319063E+03  0.30030014915E+03  0.00000000000E+00 0.  1.
         11    1    4    4    0    0  0.10014492619E+03  0.29554662707E+03  0.57986041244E+02  0.31739438558E+03  0.00000000000E+00 0.  1.
        -11    1    4    4    0    0  0.12030122448E+03  0.32900601791E+03  0.24573243591E+03  0.42790393138E+03  0.00000000000E+00 0. -1.
          1    1    5    5  503    0 -0.16227985357E+03 -0.17600209584E+03  0.45815869334E+02  0.24374286143E+03  0.00000000000E+00 0. -1.
         -1    1    5    5    0  503 -0.75659434895E+02 -0.14918599963E+02  0.32090904712E+02  0.83526887160E+02  0.00000000000E+00 0.  1.
<mgrwt>
<rscale>  0 0.15057762E+04</rscale>
<asrwt>0</asrwt>
<pdfrwt beam="1">  1        2 0.13804909E+00 0.15057762E+04</pdfrwt>
<pdfrwt beam="2">  1       -1 0.97185312E-01 0.15057762E+04</pdfrwt>
<totfact> 0.33022586E+01</totfact>
</mgrwt>
</event>
<event>
12    6  0.1705838E-008  0.2250552E+04  0.7818608E-02  0.8497677E-01
         -1   -1    0    0    0  501 -0.00000000000E+00  0.00000000000E+00  0.56113144759E+03  0.56113144759E+03  0.00000000000E+00 0.  1.
          2   -1    0    0  501    0  0.00000000000E+00 -0.00000000000E+00 -0.22565938559E+04  0.22565938559E+04  0.00000000000E+00 0. -1.
         24    2    1    2    0    0 -0.11316191969E+03 -0.86276247936E+03 -0.20620242011E+03  0.89759953548E+03  0.77464651168E+02 0.  0.
        254    2    1    2    0    0  0.11316191969E+03  0.86276247936E+03 -0.14892599882E+04  0.19201257680E+04  0.84369599777E+03 0.  0.
         23    2    4    4    0    0 -0.22340342927E+03  0.75081797020E+03 -0.71401871838E+03  0.10628389575E+04  0.78531540190E+02 0.  0.
         23    2    4    4    0    0  0.33656534896E+03  0.11194450916E+03 -0.77524126981E+03  0.85728681049E+03  0.90187813951E+02 0.  0.
          2    1    3    3  502    0 -0.30146110376E+02 -0.11790176838E+03 -0.52460636712E+02  0.13252069032E+03  0.00000000000E+00 0. -1.
         -1    1    3    3    0  502 -0.83015809310E+02 -0.74486071098E+03 -0.15374178339E+03  0.76507884516E+03  0.00000000000E+00 0.  1.
         11    1    5    5    0    0 -0.19299413518E+03  0.69678212745E+03 -0.67773634753E+03  0.99099880228E+03  0.00000000000E+00 0.  1.
        -11    1    5    5    0    0 -0.30409294087E+02  0.54035842751E+02 -0.36282370849E+02  0.71840155227E+02  0.00000000000E+00 0. -1.
          1    1    6    6  503    0  0.23337910941E+03  0.10581149587E+03 -0.47439571188E+03  0.53917823845E+03  0.00000000000E+00 0. -1.
         -1    1    6    6    0  503  0.10318623954E+03  0.61330132925E+01 -0.30084555793E+03  0.31810857204E+03  0.00000000000E+00 0.  1.
<mgrwt>
<rscale>  0 0.22505517E+04</rscale>
<asrwt>0</asrwt>
<pdfrwt beam="1">  1        2 0.34716829E+00 0.22505517E+04</pdfrwt>
<pdfrwt beam="2">  1       -1 0.86327915E-01 0.22505517E+04</pdfrwt>
<totfact> 0.65776285E+00</totfact>
</mgrwt>
</event>
<event>
12    6  0.1705838E-008  0.1422664E+04  0.7818608E-02  0.8937575E-01
         -1   -1    0    0    0  501 -0.00000000000E+00  0.00000000000E+00  0.13757067436E+04  0.13757067436E+04  0.00000000000E+00 0.  1.
          2   -1    0    0  501    0  0.00000000000E+00 -0.00000000000E+00 -0.36780604151E+03  0.36780604151E+03  0.00000000000E+00 0. -1.
         24    2    1    2    0    0  0.14780674319E+03 -0.16157450369E+03 -0.13782484334E+03  0.26978484738E+03  0.76387321333E+02 0.  0.
        254    2    1    2    0    0 -0.14780674319E+03  0.16157450369E+03  0.11457255455E+04  0.14737279378E+04  0.90068521439E+03 0.  0.
         23    2    4    4    0    0 -0.18193733442E+03 -0.35039523209E+03  0.57113707920E+03  0.69812188006E+03  0.72791372038E+02 0.  0.
         23    2    4    4    0    0  0.34130591235E+02  0.51196973578E+03  0.57458846627E+03  0.77560605771E+03  0.90193922029E+02 0.  0.
          2    1    3    3  502    0  0.14052014942E+03 -0.11925047013E+03 -0.13143269822E+03  0.22636506175E+03  0.00000000000E+00 0. -1.
         -1    1    3    3    0  502  0.72865937646E+01 -0.42324033552E+02 -0.63921451268E+01  0.43419785629E+02  0.00000000000E+00 0.  1.
         11    1    5    5    0    0 -0.52203454352E+02 -0.11011883188E+03  0.12165006271E+03  0.17219203100E+03  0.00000000000E+00 0. -1.
        -11    1    5    5    0    0 -0.12973388007E+03 -0.24027640021E+03  0.44948701649E+03  0.52592984906E+03  0.00000000000E+00 0.  1.
          4    1    6    6  503    0  0.63985081322E+02  0.29755377525E+03  0.34437491681E+03  0.45959375880E+03  0.00000000000E+00 0. -1.
         -4    1    6    6    0  503 -0.29854490088E+02  0.21441596052E+03  0.23021354946E+03  0.31601229890E+03  0.00000000000E+00 0.  1.
<mgrwt>
<rscale>  0 0.14226641E+04</rscale>
<asrwt>0</asrwt>
<pdfrwt beam="1">  1        2 0.56585546E-01 0.14226641E+04</pdfrwt>
<pdfrwt beam="2">  1       -1 0.21164719E+00 0.14226641E+04</pdfrwt>
<totfact> 0.12178978E+01</totfact>
</mgrwt>
</event>
<event>
11    6  0.1705838E-008  0.1510307E+04  0.7818608E-02  0.8877628E-01
          2   -1    0    0  501    0  0.00000000000E+00  0.00000000000E+00  0.25335934416E+04  0.25335934416E+04  0.00000000000E+00 0. -1.
         -1   -1    0    0    0  501 -0.00000000000E+00 -0.00000000000E+00 -0.22507828597E+03  0.22507828597E+03  0.00000000000E+00 0.  1.
         24    2    1    2    0    0  0.23458702043E+03  0.42363245426E+03  0.72210127278E+03  0.87313755700E+03  0.80270909035E+02 0.  0.
        254    2    1    2    0    0 -0.23458702043E+03 -0.42363245426E+03  0.15864138829E+04  0.18855341706E+04  0.89667975011E+03 0.  0.
         23    2    4    4    0    0 -0.76630084757E+02 -0.25567675443E+03  0.50095963854E+01  0.28200528387E+03  0.90879653558E+02 0.  0.
          4    1    3    3  502    0  0.22292760380E+03  0.36704159846E+03  0.66705789634E+03  0.79333630233E+03  0.00000000000E+00 0. -1.
         -1    1    3    3    0  502  0.11659416637E+02  0.56590855794E+02  0.55043376441E+02  0.79801254663E+02  0.00000000000E+00 0.  1.
         11    1    4    4    0    0 -0.71268831360E+02  0.11733167853E+01  0.31651900009E+03  0.32444552765E+03  0.00000000000E+00 0.  1.
        -11    1    4    4    0    0 -0.86688104316E+02 -0.16912901661E+03  0.12648852864E+04  0.12790833591E+04  0.00000000000E+00 0. -1.
          1    1    5    5  503    0 -0.58722206594E+02 -0.57526884518E+02 -0.81817020455E+01  0.82611017655E+02  0.00000000000E+00 0. -1.
         -1    1    5    5    0  503 -0.17907878162E+02 -0.19814986991E+03  0.13191298431E+02  0.19939426622E+03  0.00000000000E+00 0.  1.
<mgrwt>
<rscale>  0 0.15103071E+04</rscale>
<asrwt>0</asrwt>
<pdfrwt beam="1">  1        2 0.38978359E+00 0.15103071E+04</pdfrwt>
<pdfrwt beam="2">  1       -1 0.34627430E-01 0.15103071E+04</pdfrwt>
<totfact> 0.29030184E+01</totfact>
</mgrwt>
</event>
<event>
12    6  0.1705838E-008  0.2756067E+04  0.7818608E-02  0.8317039E-01
          2   -1    0    0  501    0  0.00000000000E+00  0.00000000000E+00  0.16634234864E+04  0.16634234864E+04  0.00000000000E+00 0. -1.
         -1   -1    0    0    0  501 -0.00000000000E+00 -0.00000000000E+00 -0.11416073787E+04  0.11416073787E+04  0.00000000000E+00 0.  1.
         24    2    1    2    0    0 -0.17324505814E+02  0.11808498625E+04 -0.36853585427E+02  0.11838661607E+04  0.73988941518E+02 0.  0.
        254    2    1    2    0    0  0.17324505814E+02 -0.11808498625E+04  0.55866969311E+03  0.16211647044E+04  0.95987323983E+03 0.  0.
         23    2    4    4    0    0  0.31228003744E+03 -0.44064390188E+03 -0.12840359367E+03  0.56528154341E+03  0.10662959446E+03 0.  0.
         23    2    4    4    0    0 -0.29495553162E+03 -0.74020596058E+03  0.68707328678E+03  0.10558831610E+04  0.88971447594E+02 0.  0.
          2    1    3    3  502    0  0.21870517102E+02  0.27637087974E+03  0.89629883895E+01  0.27737973583E+03  0.00000000000E+00 0. -1.
         -1    1    3    3    0  502 -0.39195022915E+02  0.90447898271E+03 -0.45816573817E+02  0.90648642485E+03  0.00000000000E+00 0.  1.
         11    1    5    5    0    0  0.27416294805E+03 -0.31204471453E+03 -0.11157836704E+03  0.43010110200E+03  0.00000000000E+00 0.  1.
        -11    1    5    5    0    0  0.38117089387E+02 -0.12859918735E+03 -0.16825226622E+02  0.13518044142E+03  0.00000000000E+00 0. -1.
          2    1    6    6  503    0 -0.49757309781E+02 -0.72587094367E+02  0.50958742375E+02  0.10169301633E+03  0.00000000000E+00 0. -1.
         -2    1    6    6    0  503 -0.24519822184E+03 -0.66761886622E+03  0.63611454440E+03  0.95419014464E+03  0.00000000000E+00 0.  1.
<mgrwt>
<rscale>  0 0.27560671E+04</rscale>
<asrwt>0</asrwt>
<pdfrwt beam="1">  1        2 0.25591130E+00 0.27560671E+04</pdfrwt>
<pdfrwt beam="2">  1       -1 0.17563190E+00 0.27560671E+04</pdfrwt>
<totfact> 0.22869884E+00</totfact>
</mgrwt>
</event>
<event>
12    6  0.1705838E-008  0.2322715E+04  0.7818608E-02  0.8469018E-01
          2   -1    0    0  501    0  0.00000000000E+00  0.00000000000E+00  0.16061486106E+04  0.16061486106E+04  0.00000000000E+00 0. -1.
         -1   -1    0    0    0  501 -0.00000000000E+00 -0.00000000000E+00 -0.83974238146E+03  0.83974238146E+03  0.00000000000E+00 0.  1.
         24    2    1    2    0    0 -0.98919067533E+03 -0.97542003059E+02  0.36634240130E+03  0.10622967066E+04  0.79087946863E+02 0.  0.
        254    2    1    2    0    0  0.98919067533E+03  0.97542003059E+02  0.40006382786E+03  0.13835942855E+04  0.87536817734E+03 0.  0.
         23    2    4    4    0    0  0.75178981443E+03 -0.28190430208E+03  0.56948497501E+02  0.81199527852E+03  0.10693568326E+03 0.  0.
         23    2    4    4    0    0  0.23740086090E+03  0.37944630514E+03  0.34311533036E+03  0.57159900695E+03  0.93051746795E+02 0.  0.
          2    1    3    3  502    0 -0.15047014846E+03 -0.77451925545E+00  0.29718340156E+02  0.15337876385E+03  0.00000000000E+00 0. -1.
         -1    1    3    3    0  502 -0.83872052688E+03 -0.96767483803E+02  0.33662406114E+03  0.90891794276E+03  0.00000000000E+00 0.  1.
         11    1    5    5    0    0  0.47242674690E+03 -0.19131004456E+03  0.85922713542E+02  0.51688420080E+03  0.00000000000E+00 0. -1.
        -11    1    5    5    0    0  0.27936306753E+03 -0.90594257518E+02 -0.28974216041E+02  0.29511107771E+03  0.00000000000E+00 0.  1.
          3    1    6    6  503    0  0.16051655257E+03  0.30467764662E+03  0.22153395346E+03  0.40947689133E+03  0.00000000000E+00 0. -1.
         -3    1    6    6    0  503  0.76884308336E+02  0.74768658513E+02  0.12158137690E+03  0.16212211562E+03  0.00000000000E+00 0.  1.
<mgrwt>
<rscale>  0 0.23227148E+04</rscale>
<asrwt>0</asrwt>
<pdfrwt beam="1">  1        2 0.24709979E+00 0.23227148E+04</pdfrwt>
<pdfrwt beam="2">  1       -1 0.12919114E+00 0.23227148E+04</pdfrwt>
<totfact> 0.58747217E+00</totfact>
</mgrwt>
</event>
<event>
11    6  0.1705838E-008  0.3191234E+04  0.7818608E-02  0.8191136E-01
         -1   -1    0    0    0  501 -0.00000000000E+00  0.00000000000E+00  0.13323029149E+04  0.13323029149E+04  0.00000000000E+00 0.  1.
          2   -1    0    0  501    0  0.00000000000E+00 -0.00000000000E+00 -0.19109716409E+04  0.19109716409E+04  0.00000000000E+00 0. -1.
         24    2    1    2    0    0  0.11368778530E+04  0.89137010286E+03 -0.52553614780E+03  0.15393759741E+04  0.80363138219E+02 0.  0.
        254    2    1    2    0    0 -0.11368778530E+04 -0.89137010286E+03 -0.53132578120E+02  0.17038985817E+04  0.90189544461E+03 0.  0.
         23    2    4    4    0    0 -0.69750109414E+02 -0.85768916450E+02  0.26940003774E+03  0.30511307134E+03  0.91083594445E+02 0.  0.
          4    1    3    3  502    0  0.55772881744E+03  0.46017290694E+03 -0.30116887923E+03  0.78327723822E+03  0.00000000000E+00 0. -1.
         -3    1    3    3    0  502  0.57914903557E+03  0.43119719592E+03 -0.22436726857E+03  0.75609873586E+03  0.00000000000E+00 0.  1.
         11    1    4    4    0    0 -0.54220983516E+02  0.50788388889E+01 -0.48196234052E+02  0.72722669332E+02  0.00000000000E+00 0.  1.
        -11    1    4    4    0    0 -0.10129067601E+04 -0.81068002530E+03 -0.27433638181E+03  0.13260628411E+04  0.00000000000E+00 0. -1.
          2    1    5    5  503    0 -0.23503478342E+00 -0.38057845766E+02  0.17258454984E+03  0.17673110001E+03  0.00000000000E+00 0. -1.
         -2    1    5    5    0  503 -0.69515074630E+02 -0.47711070683E+02  0.96815487896E+02  0.12838197133E+03  0.00000000000E+00 0.  1.
<mgrwt>
<rscale>  0 0.31912337E+04</rscale>
<asrwt>0</asrwt>
<pdfrwt beam="1">  1        2 0.29399564E+00 0.31912337E+04</pdfrwt>
<pdfrwt beam="2">  1       -1 0.20496968E+00 0.31912337E+04</pdfrwt>
<totfact> 0.99865891E-01</totfact>
</mgrwt>
</event>
<event>
11    6  0.1705838E-008  0.2171252E+04  0.7818608E-02  0.8530490E-01
          2   -1    0    0  501    0  0.00000000000E+00  0.00000000000E+00  0.25502043503E+04  0.25502043503E+04  0.00000000000E+00 0. -1.
         -1   -1    0    0    0  501 -0.00000000000E+00 -0.00000000000E+00 -0.46215258332E+03  0.46215258332E+03  0.00000000000E+00 0.  1.
         24    2    1    2    0    0 -0.71804532643E+03  0.42552769829E+03  0.41098473094E+03  0.93377857648E+03  0.79818970222E+02 0.  0.
        254    2    1    2    0    0  0.71804532643E+03 -0.42552769829E+03  0.16770670361E+04  0.20785783572E+04  0.90070596235E+03 0.  0.
         23    2    4    4    0    0  0.72292184122E+03 -0.57152964958E+03  0.97800655779E+03  0.13469872984E+04  0.92821474549E+02 0.  0.
          2    1    3    3  502    0 -0.33573138881E+03  0.15406165976E+03  0.17126651172E+03  0.40716431385E+03  0.00000000000E+00 0. -1.
         -1    1    3    3    0  502 -0.38231393762E+03  0.27146603854E+03  0.23971821922E+03  0.52661426263E+03  0.00000000000E+00 0.  1.
         11    1    4    4    0    0 -0.72453508379E+02  0.12552409595E+03  0.45559638045E+03  0.47809399851E+03  0.00000000000E+00 0. -1.
        -11    1    4    4    0    0  0.67576993592E+02  0.20477855342E+02  0.24346409784E+03  0.25349706026E+03  0.00000000000E+00 0.  1.
          1    1    5    5  503    0  0.67307563407E+03 -0.49829955015E+03  0.87658243839E+03  0.12123242232E+04  0.00000000000E+00 0. -1.
         -1    1    5    5    0  503  0.49846207147E+02 -0.73230099424E+02  0.10142411940E+03  0.13466307521E+03  0.00000000000E+00 0.  1.
<mgrwt>
<rscale>  0 0.21712517E+04</rscale>
<asrwt>0</asrwt>
<pdfrwt beam="1">  1        2 0.39233912E+00 0.21712517E+04</pdfrwt>
<pdfrwt beam="2">  1       -1 0.71100399E-01 0.21712517E+04</pdfrwt>
<totfact> 0.67814356E+00</totfact>
</mgrwt>
</event>
<event>
12    6  0.1705838E-008  0.1405592E+04  0.7818608E-02  0.8949781E-01
         -1   -1    0    0    0  501 -0.00000000000E+00  0.00000000000E+00  0.45543610521E+03  0.45543610521E+03  0.00000000000E+00 0.  1.
          2   -1    0    0  501    0  0.00000000000E+00 -0.00000000000E+00 -0.10845039289E+04  0.10845039289E+04  0.00000000000E+00 0. -1.
         24    2    1    2    0    0 -0.40793453399E+02 -0.92977556028E+02  0.24296250905E+03  0.27467895299E+03  0.78158906391E+02 0.  0.
        254    2    1    2    0    0  0.40793453399E+02  0.92977556028E+02 -0.87203033271E+03  0.12652610811E+04  0.91112006365E+03 0.  0.
         23    2    4    4    0    0  0.10160200711E+03  0.29703002986E+03  0.29405976518E+02  0.33493280715E+03  0.11298436776E+03 0.  0.
         23    2    4    4    0    0 -0.60808553712E+02 -0.20405247384E+03 -0.90143630923E+03  0.93032827394E+03  0.87110191208E+02 0.  0.
          2    1    3    3  502    0  0.36182264809E+01  0.17135542080E+01 -0.44994042012E+01  0.60226629539E+01  0.00000000000E+00 0. -1.
         -1    1    3    3    0  502 -0.44411679880E+02 -0.94691110236E+02  0.24746191325E+03  0.26865629004E+03  0.00000000000E+00 0.  1.
         11    1    5    5    0    0  0.49609820936E+02  0.24748517972E+03  0.55648412805E+02  0.25847010342E+03  0.00000000000E+00 0. -1.
        -11    1    5    5    0    0  0.51992186175E+02  0.49544850145E+02 -0.26242436287E+02  0.76462703728E+02  0.00000000000E+00 0.  1.
          1    1    6    6  503    0 -0.28889481090E+02 -0.10855597554E+03 -0.64724343419E+03  0.65691937484E+03  0.00000000000E+00 0. -1.
         -1    1    6    6    0  503 -0.31919072622E+02 -0.95496498302E+02 -0.25419287504E+03  0.27340889910E+03  0.00000000000E+00 0.  1.
<mgrwt>
<rscale>  0 0.14055920E+04</rscale>
<asrwt>0</asrwt>
<pdfrwt beam="1">  1        2 0.16684676E+00 0.14055920E+04</pdfrwt>
<pdfrwt beam="2">  1       -1 0.70067093E-01 0.14055920E+04</pdfrwt>
<totfact> 0.50902048E+01</totfact>
</mgrwt>
</event>
<event>
11    6  0.1705838E-008  0.2923871E+04  0.7818608E-02  0.8265810E-01
          2   -1    0    0  501    0  0.00000000000E+00  0.00000000000E+00  0.92124968044E+03  0.92124968044E+03  0.00000000000E+00 0. -1.
         -1   -1    0    0    0  501 -0.00000000000E+00 -0.00000000000E+00 -0.23199529556E+04  0.23199529556E+04  0.00000000000E+00 0.  1.
         24    2    1    2    0    0  0.84140968370E+03 -0.94869203562E+03 -0.31508132213E+03  0.13089979974E+04  0.78820577815E+02 0.  0.
        254    2    1    2    0    0 -0.84140968370E+03  0.94869203562E+03 -0.10836219531E+04  0.19322046386E+04  0.97529041528E+03 0.  0.
         23    2    4    4    0    0 -0.10126730825E+04  0.63390377012E+03 -0.94228916976E+03  0.15241091504E+04  0.87516063191E+02 0.  0.
          2    1    3    3  502    0  0.65054035196E+03 -0.76903529600E+03 -0.27198860824E+03  0.10433579630E+04  0.00000000000E+00 0. -1.
         -1    1    3    3    0  502  0.19086933174E+03 -0.17965673962E+03 -0.43092713896E+02  0.26564003441E+03  0.00000000000E+00 0.  1.
         11    1    4    4    0    0 -0.61866541886E+01  0.10579408090E+02 -0.39691607417E+02  0.41540609829E+02  0.00000000000E+00 0.  1.
        -11    1    4    4    0    0  0.17745005294E+03  0.30420885741E+03 -0.10164117588E+03  0.36655487836E+03  0.00000000000E+00 0. -1.
          2    1    5    5  503    0 -0.33174301671E+03  0.18905669329E+03 -0.34970882076E+03  0.51777613089E+03  0.00000000000E+00 0. -1.
         -2    1    5    5    0  503 -0.68093006575E+03  0.44484707683E+03 -0.59258034901E+03  0.10063330195E+04  0.00000000000E+00 0.  1.
<mgrwt>
<rscale>  0 0.29238714E+04</rscale>
<asrwt>0</asrwt>
<pdfrwt beam="1">  1        2 0.14173072E+00 0.29238714E+04</pdfrwt>
<pdfrwt beam="2">  1       -1 0.35691584E+00 0.29238714E+04</pdfrwt>
<totfact> 0.38925048E-01</totfact>
</mgrwt>
</event>
<event>
12    6  0.1705838E-008  0.5041135E+04  0.7818608E-02  0.7822193E-01
         -1   -1    0    0    0  501 -0.00000000000E+00  0.00000000000E+00  0.27037545963E+04  0.27037545963E+04  0.00000000000E+00 0.  1.
          2   -1    0    0  501    0  0.00000000000E+00 -0.00000000000E+00 -0.23497920118E+04  0.23497920118E+04  0.00000000000E+00 0. -1.
         24    2    1    2    0    0  0.12738102658E+04  0.17232299781E+04  0.13422422071E+04  0.25297967616E+04  0.78379599589E+02 0.  0.
        254    2    1    2    0    0 -0.12738102658E+04 -0.17232299781E+04 -0.98827962259E+03  0.25237498465E+04  0.89470806664E+03 0.  0.
         23    2    4    4    0    0  0.57582315043E+02  0.54663675496E+00 -0.11326132309E+03  0.17486671604E+03  0.12014249562E+03 0.  0.
         23    2    4    4    0    0 -0.13313925809E+04 -0.17237766149E+04 -0.87501829950E+03  0.23488831305E+04  0.87079927354E+02 0.  0.
          2    1    3    3  502    0  0.56495935031E+02  0.86643432675E+02  0.46961634922E+02  0.11359696411E+03  0.00000000000E+00 0. -1.
         -1    1    3    3    0  502  0.12173143308E+04  0.16365865455E+04  0.12952805722E+04  0.24161997975E+04  0.00000000000E+00 0.  1.
         11    1    5    5    0    0  0.30681220077E+02 -0.59522905745E+02 -0.49961131835E+02  0.83548957312E+02  0.00000000000E+00 0.  1.
        -11    1    5    5    0    0  0.26901094966E+02  0.60069542499E+02 -0.63300191251E+02  0.91317758727E+02  0.00000000000E+00 0. -1.
          1    1    6    6  503    0 -0.11353777778E+04 -0.15179015040E+04 -0.76004379836E+03  0.20422473527E+04  0.00000000000E+00 0. -1.
         -1    1    6    6    0  503 -0.19601480306E+03 -0.20587511094E+03 -0.11497450115E+03  0.30663577782E+03  0.00000000000E+00 0.  1.
<mgrwt>
<rscale>  0 0.50411352E+04</rscale>
<asrwt>0</asrwt>
<pdfrwt beam="1">  1        2 0.36150647E+00 0.50411352E+04</pdfrwt>
<pdfrwt beam="2">  1       -1 0.41596224E+00 0.50411352E+04</pdfrwt>
<totfact> 0.19517616E-02</totfact>
</mgrwt>
</event>
<event>
12    6  0.1705838E-008  0.1369714E+04  0.7818608E-02  0.8976038E-01
         -1   -1    0    0    0  501 -0.00000000000E+00  0.00000000000E+00  0.24500734085E+03  0.24500734085E+03  0.00000000000E+00 0.  1.
          2   -1    0    0  501    0  0.00000000000E+00 -0.00000000000E+00 -0.19143473282E+04  0.19143473282E+04  0.00000000000E+00 0. -1.
         24    2    1    2    0    0  0.30197933479E+03  0.76257195670E+02 -0.91460155399E+03  0.96946874641E+03  0.79793290208E+02 0.  0.
        254    2    1    2    0    0 -0.30197933479E+03 -0.76257195670E+02 -0.75473843334E+03  0.11898859226E+04  0.86555862169E+03 0.  0.
         23    2    4    4    0    0  0.19383033746E+03  0.17633165929E+03 -0.48566459261E+02  0.28632973668E+03  0.10470417067E+03 0.  0.
         23    2    4    4    0    0 -0.49580967225E+03 -0.25258885496E+03 -0.70617197407E+03  0.90355618594E+03  0.90036456171E+02 0.  0.
          4    1    3    3  502    0  0.20195123724E+03  0.65060805363E+02 -0.71663072032E+03  0.74737995687E+03  0.00000000000E+00 0. -1.
         -1    1    3    3    0  502  0.10002809754E+03  0.11196390307E+02 -0.19797083367E+03  0.22208878954E+03  0.00000000000E+00 0.  1.
         11    1    5    5    0    0  0.51988325220E+02  0.83186378799E+02  0.25226786080E+02  0.10128746375E+03  0.00000000000E+00 0. -1.
        -11    1    5    5    0    0  0.14184201224E+03  0.93145280489E+02 -0.73793245341E+02  0.18504227293E+03  0.00000000000E+00 0.  1.
          1    1    6    6  503    0 -0.36075040436E+03 -0.22589100558E+03 -0.54740198858E+03  0.69340935799E+03  0.00000000000E+00 0. -1.
         -1    1    6    6    0  503 -0.13505926789E+03 -0.26697849380E+02 -0.15876998550E+03  0.21014682795E+03  0.00000000000E+00 0.  1.
<mgrwt>
<rscale>  0 0.13697141E+04</rscale>
<asrwt>0</asrwt>
<pdfrwt beam="1">  1        2 0.29451499E+00 0.13697141E+04</pdfrwt>
<pdfrwt beam="2">  1       -1 0.37693435E-01 0.13697141E+04</pdfrwt>
<totfact> 0.56252899E+01</totfact>
</mgrwt>
</event>
<event>
11    6  0.1705838E-008  0.3016529E+04  0.7818608E-02  0.8239027E-01
          2   -1    0    0  501    0  0.00000000000E+00  0.00000000000E+00  0.15888085194E+04  0.15888085194E+04  0.00000000000E+00 0. -1.
         -1   -1    0    0    0  501 -0.00000000000E+00 -0.00000000000E+00 -0.14318031668E+04  0.14318031668E+04  0.00000000000E+00 0.  1.
         24    2    1    2    0    0 -0.10053340473E+04 -0.61981749813E+03 -0.62882241951E+03  0.13402869173E+04  0.77981458111E+02 0.  0.
        254    2    1    2    0    0  0.10053340473E+04  0.61981749813E+03  0.78582777218E+03  0.16803247689E+04  0.90060855194E+03 0.  0.
         23    2    4    4    0    0  0.23184126180E+02  0.25607721619E+02 -0.15419281936E+03  0.18288038087E+03  0.92068176105E+02 0.  0.
          2    1    3    3  502    0 -0.34099004952E+03 -0.24273261137E+03 -0.25107719185E+03  0.48809127298E+03  0.00000000000E+00 0. -1.
         -1    1    3    3    0  502 -0.66434399774E+03 -0.37708488676E+03 -0.37774522766E+03  0.85219564431E+03  0.00000000000E+00 0.  1.
         11    1    4    4    0    0  0.74966781675E+03  0.38979339710E+03  0.77544597468E+03  0.11468466277E+04  0.00000000000E+00 0. -1.
        -11    1    4    4    0    0  0.23248210433E+03  0.20441637941E+03  0.16457461685E+03  0.35059776029E+03  0.00000000000E+00 0.  1.
          4    1    5    5  503    0 -0.49357363288E+01  0.53091327453E+02 -0.11779050782E+03  0.12929676824E+03  0.00000000000E+00 0. -1.
         -4    1    5    5    0  503  0.28119862508E+02 -0.27483605834E+02 -0.36402311532E+02  0.53583612626E+02  0.00000000000E+00 0.  1.
<mgrwt>
<rscale>  0 0.30165285E+04</rscale>
<asrwt>0</asrwt>
<pdfrwt beam="1">  1        2 0.24443208E+00 0.30165285E+04</pdfrwt>
<pdfrwt beam="2">  1       -1 0.22027741E+00 0.30165285E+04</pdfrwt>
<totfact> 0.12066086E+00</totfact>
</mgrwt>
</event>
<event>
12    6  0.1705838E-008  0.1639305E+04  0.7818608E-02  0.8796758E-01
         -1   -1    0    0    0  501 -0.00000000000E+00  0.00000000000E+00  0.79683673291E+03  0.79683673291E+03  0.00000000000E+00 0.  1.
          2   -1    0    0  501    0  0.00000000000E+00 -0.00000000000E+00 -0.84312203917E+03  0.84312203917E+03  0.00000000000E+00 0. -1.
         24    2    1    2    0    0 -0.65437544003E+01 -0.37066401275E+03  0.42095931260E+03  0.56654270021E+03  0.79556629072E+02 0.  0.
        254    2    1    2    0    0  0.65437544003E+01  0.37066401275E+03 -0.46724461885E+03  0.10734160719E+04  0.89245162247E+03 0.  0.
         23    2    4    4    0    0 -0.26264785522E+03  0.13637454797E+03 -0.60369225087E+03  0.68055889061E+03  0.10551851330E+03 0.  0.
         23    2    4    4    0    0  0.26919160962E+03  0.23428946478E+03  0.13644763202E+03  0.39285718126E+03  0.91450164502E+02 0.  0.
          2    1    3    3  502    0 -0.33523853154E+02 -0.73775989308E+02  0.92061385244E+02  0.12264601087E+03  0.00000000000E+00 0. -1.
         -1    1    3    3    0  502  0.26980098753E+02 -0.29688802344E+03  0.32889792735E+03  0.44389668934E+03  0.00000000000E+00 0.  1.
         11    1    5    5    0    0 -0.52045874839E+02 -0.15698622212E+02 -0.99469386747E+02  0.11335510014E+03  0.00000000000E+00 0.  1.
        -11    1    5    5    0    0 -0.21060198038E+03  0.15207317018E+03 -0.50422286412E+03  0.56720379048E+03  0.00000000000E+00 0. -1.
          2    1    6    6  503    0  0.24166049908E+02  0.40570446195E+01 -0.95585674969E+01  0.26302543447E+02  0.00000000000E+00 0.  1.
         -2    1    6    6    0  503  0.24502555971E+03  0.23023242016E+03  0.14600619951E+03  0.36655463781E+03  0.00000000000E+00 0. -1.
<mgrwt>
<rscale>  0 0.16393055E+04</rscale>
<asrwt>0</asrwt>
<pdfrwt beam="1">  1        2 0.12971108E+00 0.16393055E+04</pdfrwt>
<pdfrwt beam="2">  1       -1 0.12259027E+00 0.16393055E+04</pdfrwt>
<totfact> 0.20575046E+01</totfact>
</mgrwt>
</event>
<event>
11    6  0.1705838E-008  0.1312980E+04  0.7818608E-02  0.9019335E-01
          2   -1    0    0  501    0  0.00000000000E+00  0.00000000000E+00  0.47947518856E+04  0.47947518856E+04  0.00000000000E+00 0. -1.
         -1   -1    0    0    0  501 -0.00000000000E+00 -0.00000000000E+00 -0.89885632822E+02  0.89885632822E+02  0.00000000000E+00 0.  1.
         24    2    1    2    0    0  0.11754837523E+03  0.87194917639E+02  0.24633222709E+04  0.24689563807E+04  0.79802413984E+02 0.  0.
        254    2    1    2    0    0 -0.11754837523E+03 -0.87194917639E+02  0.22415439818E+04  0.24156811377E+04  0.88858053224E+03 0.  0.
         23    2    4    4    0    0 -0.36191357049E+03  0.43803306784E+02  0.40121351251E+03  0.54973265910E+03  0.91288288773E+02 0.  0.
          4    1    3    3  502    0  0.30767227461E+02 -0.50982761508E+01  0.88837095897E+03  0.88891820515E+03  0.00000000000E+00 0. -1.
         -3    1    3    3    0  502  0.86781147774E+02  0.92293193790E+02  0.15749513119E+04  0.15800381756E+04  0.00000000000E+00 0.  1.
         11    1    4    4    0    0  0.16047250702E+03 -0.13674880629E+03  0.15287608492E+04  0.15432308303E+04  0.00000000000E+00 0. -1.
        -11    1    4    4    0    0  0.83892688238E+02  0.57505818696E+01  0.31156962008E+03  0.32271764824E+03  0.00000000000E+00 0.  1.
          2    1    5    5  503    0 -0.91444803753E+02  0.34116286118E+02  0.61381575631E+02  0.11529861638E+03  0.00000000000E+00 0. -1.
         -2    1    5    5    0  503 -0.27046876674E+03  0.96870206654E+01  0.33983193688E+03  0.43443404272E+03  0.00000000000E+00 0.  1.
<mgrwt>
<rscale>  0 0.13129803E+04</rscale>
<asrwt>0</asrwt>
<pdfrwt beam="1">  1        2 0.73765394E+00 0.13129803E+04</pdfrwt>
<pdfrwt beam="2">  1       -1 0.13828563E-01 0.13129803E+04</pdfrwt>
<totfact> 0.26810625E+00</totfact>
</mgrwt>
</event>
<event>
12    6  0.1705838E-008  0.3732101E+04  0.7818608E-02  0.8060885E-01
         -1   -1    0    0    0  501 -0.00000000000E+00  0.00000000000E+00  0.12440977579E+04  0.12440977579E+04  0.00000000000E+00 0.  1.
          2   -1    0    0  501    0  0.00000000000E+00 -0.00000000000E+00 -0.27989311212E+04  0.27989311212E+04  0.00000000000E+00 0. -1.
         24    2    1    2    0    0 -0.49743581834E+03 -0.13857399988E+04 -0.17748931231E+04  0.23074644846E+04  0.80181118046E+02 0.  0.
        254    2    1    2    0    0  0.49743581834E+03  0.13857399988E+04  0.22005975975E+03  0.17355643945E+04  0.89221058714E+03 0.  0.
         23    2    4    4    0    0  0.41328906025E+03  0.14273638947E+04  0.37090419440E+03  0.15367610251E+04  0.12605154271E+03 0.  0.
         23    2    4    4    0    0  0.84146758096E+02 -0.41623895879E+02 -0.15084443465E+03  0.19880336944E+03  0.89193669213E+02 0.  0.
          2    1    3    3  502    0 -0.46729496280E+03 -0.13398447906E+04 -0.17205585571E+04  0.22302175664E+04  0.00000000000E+00 0. -1.
         -1    1    3    3    0  502 -0.30140855546E+02 -0.45895208278E+02 -0.54334566016E+02  0.77246918257E+02  0.00000000000E+00 0.  1.
         11    1    5    5    0    0  0.18985324618E+03  0.71653834922E+03  0.24753519449E+03  0.78150184484E+03  0.00000000000E+00 0. -1.
        -11    1    5    5    0    0  0.22343581407E+03  0.71082554551E+03  0.12336899992E+03  0.75525918021E+03  0.00000000000E+00 0.  1.
          2    1    6    6  503    0  0.35407193534E+02  0.16745683532E+02 -0.12810445219E+02  0.41209158904E+02  0.00000000000E+00 0.  1.
         -2    1    6    6    0  503  0.48739564562E+02 -0.58369579412E+02 -0.13803398944E+03  0.15759421053E+03  0.00000000000E+00 0. -1.
<mgrwt>
<rscale>  0 0.37321007E+04</rscale>
<asrwt>0</asrwt>
<pdfrwt beam="1">  1        2 0.43060478E+00 0.37321007E+04</pdfrwt>
<pdfrwt beam="2">  1       -1 0.19139966E+00 0.37321007E+04</pdfrwt>
<totfact> 0.36627000E-01</totfact>
</mgrwt>
</event>
<event>
12    6  0.1705838E-008  0.2864239E+04  0.7818608E-02  0.8283598E-01
          2   -1    0    0  501    0  0.00000000000E+00  0.00000000000E+00  0.12479986522E+04  0.12479986522E+04  0.00000000000E+00 0. -1.
         -1   -1    0    0    0  501 -0.00000000000E+00 -0.00000000000E+00 -0.16434046139E+04  0.16434046139E+04  0.00000000000E+00 0.  1.
         24    2    1    2    0    0  0.12221312990E+04 -0.27681002389E+03  0.10975348952E+03  0.12608261598E+04  0.86070177194E+02 0.  0.
        254    2    1    2    0    0 -0.12221312990E+04  0.27681002389E+03 -0.50515945119E+03  0.16305771062E+04  0.91288932889E+03 0.  0.
         23    2    4    4    0    0 -0.20390509634E+03 -0.21212434774E+02 -0.51316459534E+03  0.56561334303E+03  0.12063704323E+03 0.  0.
         23    2    4    4    0    0 -0.10182262027E+04  0.29802245867E+03  0.80051441497E+01  0.10649637632E+04  0.92096410612E+02 0.  0.
          2    1    3    3  502    0  0.84483869585E+03 -0.18062501699E+03  0.36973641265E+02  0.86472242304E+03  0.00000000000E+00 0. -1.
         -1    1    3    3    0  502  0.37729260319E+03 -0.96185006908E+02  0.72779848253E+02  0.39610373678E+03  0.00000000000E+00 0.  1.
         11    1    5    5    0    0  0.11642636574E+02  0.90694926199E+01 -0.11325624505E+02  0.18603130199E+02  0.00000000000E+00 0. -1.
        -11    1    5    5    0    0 -0.21554773291E+03 -0.30281927394E+02 -0.50183897084E+03  0.54701021283E+03  0.00000000000E+00 0.  1.
          3    1    6    6  503    0 -0.40412800413E+03  0.14872498376E+03  0.37756617471E+02  0.43227783506E+03  0.00000000000E+00 0. -1.
         -3    1    6    6    0  503 -0.61409819857E+03  0.14929747491E+03 -0.29751473321E+02  0.63268592814E+03  0.00000000000E+00 0.  1.
<mgrwt>
<rscale>  0 0.28642393E+04</rscale>
<asrwt>0</asrwt>
<pdfrwt beam="1">  1        2 0.19199979E+00 0.28642393E+04</pdfrwt>
<pdfrwt beam="2">  1       -1 0.25283148E+00 0.28642393E+04</pdfrwt>
<totfact> 0.11685146E+00</totfact>
</mgrwt>
</event>
<event>
11    6  0.1705838E-008  0.1725670E+04  0.7818608E-02  0.8746857E-01
          2   -1    0    0  501    0  0.00000000000E+00  0.00000000000E+00  0.40996149247E+04  0.40996149247E+04  0.00000000000E+00 0. -1.
         -1   -1    0    0    0  501 -0.00000000000E+00 -0.00000000000E+00 -0.18159867746E+03  0.18159867746E+03  0.00000000000E+00 0.  1.
         24    2    1    2    0    0  0.16707790385E+03  0.46594741168E+03  0.24586232114E+04  0.25092133738E+04  0.79382892894E+02 0.  0.
        254    2    1    2    0    0 -0.16707790385E+03 -0.46594741168E+03  0.14593930359E+04  0.17720002283E+04  0.87471981774E+03 0.  0.
         23    2    4    4    0    0 -0.31614054209E+03 -0.56432397109E+03  0.80652839815E+03  0.10374957244E+04  0.86619480523E+02 0.  0.
          4    1    3    3  502    0  0.12539041999E+03  0.40417215638E+03  0.21862290413E+04  0.22268083236E+04  0.00000000000E+00 0. -1.
         -3    1    3    3    0  502  0.41687483854E+02  0.61775255300E+02  0.27239417010E+03  0.28240505021E+03  0.00000000000E+00 0.  1.
         11    1    4    4    0    0  0.21027411387E+03  0.80685162402E+02  0.29571553550E+03  0.37171625782E+03  0.00000000000E+00 0. -1.
        -11    1    4    4    0    0 -0.61211475627E+02  0.17691397009E+02  0.35714910227E+03  0.36278824613E+03  0.00000000000E+00 0.  1.
          1    1    5    5  503    0 -0.31529738672E+03 -0.56556120310E+03  0.79251304548E+03  0.10234006272E+04  0.00000000000E+00 0. -1.
         -1    1    5    5    0  503 -0.84315537023E+00  0.12372320064E+01  0.14015352672E+02  0.14095097181E+02  0.00000000000E+00 0.  1.
<mgrwt>
<rscale>  0 0.17256705E+04</rscale>
<asrwt>0</asrwt>
<pdfrwt beam="1">  1        2 0.63070992E+00 0.17256705E+04</pdfrwt>
<pdfrwt beam="2">  1       -1 0.27938261E-01 0.17256705E+04</pdfrwt>
<totfact> 0.36039353E+00</totfact>
</mgrwt>
</event>
<event>
11    6  0.1705838E-008  0.1547395E+04  0.7818608E-02  0.8853533E-01
          2   -1    0    0  501    0  0.00000000000E+00  0.00000000000E+00  0.85721584569E+03  0.85721584569E+03  0.00000000000E+00 0. -1.
         -1   -1    0    0    0  501 -0.00000000000E+00 -0.00000000000E+00 -0.69831620241E+03  0.69831620241E+03  0.00000000000E+00 0.  1.
         24    2    1    2    0    0 -0.25998577008E+03 -0.31373288720E+03  0.36153729231E+03  0.55069732261E+03  0.80854203596E+02 0.  0.
        254    2    1    2    0    0  0.25998577008E+03  0.31373288720E+03 -0.20263764903E+03  0.10048347255E+04  0.89588497230E+03 0.  0.
         23    2    4    4    0    0 -0.17027429230E+03  0.24714253598E+03 -0.25334133637E+03  0.40142658869E+03  0.82998227002E+02 0.  0.
          4    1    3    3  502    0 -0.21318441451E+03 -0.29432993389E+03  0.30204817672E+03  0.47255772730E+03  0.00000000000E+00 0. -1.
         -3    1    3    3    0  502 -0.46801355575E+02 -0.19402953310E+02  0.59489115589E+02  0.78139595304E+02  0.00000000000E+00 0.  1.
         11    1    4    4    0    0  0.75377630355E+02  0.16634014425E+03 -0.96403085338E+02  0.20650517091E+03  0.00000000000E+00 0.  1.
        -11    1    4    4    0    0  0.35488243203E+03 -0.99749793031E+02  0.14710677268E+03  0.39690296590E+03  0.00000000000E+00 0. -1.
          3    1    5    5  503    0 -0.16281453960E+03  0.17734878902E+03 -0.18699207411E+03  0.30483963498E+03  0.00000000000E+00 0. -1.
         -3    1    5    5    0  503 -0.74597526927E+01  0.69793746957E+02 -0.66349262265E+02  0.96586953713E+02  0.00000000000E+00 0.  1.
<mgrwt>
<rscale>  0 0.15473949E+04</rscale>
<asrwt>0</asrwt>
<pdfrwt beam="1">  1        2 0.13187936E+00 0.15473949E+04</pdfrwt>
<pdfrwt beam="2">  1       -1 0.10743326E+00 0.15473949E+04</pdfrwt>
<totfact> 0.27828250E+01</totfact>
</mgrwt>
</event>
<event>
12    6  0.1705838E-008  0.1564670E+04  0.7818608E-02  0.8842551E-01
          2   -1    0    0  501    0  0.00000000000E+00  0.00000000000E+00  0.53236977263E+03  0.53236977263E+03  0.00000000000E+00 0. -1.
         -1   -1    0    0    0  501 -0.00000000000E+00 -0.00000000000E+00 -0.11496674981E+04  0.11496674981E+04  0.00000000000E+00 0.  1.
         24    2    1    2    0    0 -0.37006166549E+03  0.31791170991E+02  0.18524584328E+03  0.42722462575E+03  0.10123509063E+03 0.  0.
        254    2    1    2    0    0  0.37006166549E+03 -0.31791170991E+02 -0.80254356875E+03  0.12548126450E+04  0.89023720403E+03 0.  0.
         23    2    4    4    0    0  0.34553487329E+03 -0.36977060907E+03 -0.73829197796E+03  0.89841969845E+03  0.77189752210E+02 0.  0.
         23    2    4    4    0    0  0.24526792196E+02  0.33797943808E+03 -0.64251590788E+02  0.35639294653E+03  0.89755230035E+02 0.  0.
          4    1    3    3  502    0 -0.34113900114E+03  0.56525372424E+02  0.17625915612E+03  0.38812140619E+03  0.00000000000E+00 0. -1.
         -3    1    3    3    0  502 -0.28922664350E+02 -0.24734201434E+02  0.89866871605E+01  0.39103219558E+02  0.00000000000E+00 0.  1.
         11    1    5    5    0    0  0.10421277013E+03 -0.16038475097E+03 -0.24745631090E+03  0.31275900564E+03  0.00000000000E+00 0. -1.
        -11    1    5    5    0    0  0.24132210316E+03 -0.20938585810E+03 -0.49083566707E+03  0.58566069281E+03  0.00000000000E+00 0.  1.
          1    1    6    6  503    0  0.28299911877E+02  0.23555070660E+03 -0.84632255265E+02  0.25188814784E+03  0.00000000000E+00 0. -1.
         -1    1    6    6    0  503 -0.37731196808E+01  0.10242873148E+03  0.20380664477E+02  0.10450479869E+03  0.00000000000E+00 0.  1.
<mgrwt>
<rscale>  0 0.15646702E+04</rscale>
<asrwt>0</asrwt>
<pdfrwt beam="1">  1        2 0.81903043E-01 0.15646702E+04</pdfrwt>
<pdfrwt beam="2">  1       -1 0.17687192E+00 0.15646702E+04</pdfrwt>
<totfact> 0.13782289E+01</totfact>
</mgrwt>
</event>
<event>
12    6  0.1705838E-008  0.1661012E+04  0.7818608E-02  0.8783918E-01
          2   -1    0    0  501    0  0.00000000000E+00  0.00000000000E+00  0.25226631362E+04  0.25226631362E+04  0.00000000000E+00 0. -1.
         -1   -1    0    0    0  501 -0.00000000000E+00 -0.00000000000E+00 -0.27341757553E+03  0.27341757553E+03  0.00000000000E+00 0.  1.
         24    2    1    2    0    0  0.25273200606E+03 -0.48628293331E+03  0.46073906292E+03  0.72046476945E+03  0.80277280700E+02 0.  0.
        254    2    1    2    0    0 -0.25273200606E+03  0.48628293331E+03  0.17885064977E+04  0.20756159423E+04  0.89948957150E+03 0.  0.
         23    2    4    4    0    0  0.60637621481E+02  0.12605928723E+03  0.15024163257E+04  0.15130887310E+04  0.11231574727E+03 0.  0.
         23    2    4    4    0    0 -0.31336962754E+03  0.36022364608E+03  0.28609017201E+03  0.56252721126E+03  0.81410553484E+02 0.  0.
          2    1    3    3  502    0 -0.11960002610E+01 -0.11022754219E+02  0.25478147629E+02  0.27786103249E+02  0.00000000000E+00 0. -1.
         -1    1    3    3    0  502  0.25392800632E+03 -0.47526017909E+03  0.43526091530E+03  0.69267866620E+03  0.00000000000E+00 0.  1.
         11    1    5    5    0    0 -0.20646139822E+02  0.18890605995E+00  0.73714316611E+02  0.76551285087E+02  0.00000000000E+00 0.  1.
        -11    1    5    5    0    0  0.81283761303E+02  0.12587038117E+03  0.14287020091E+04  0.14365374459E+04  0.00000000000E+00 0. -1.
          2    1    6    6  503    0 -0.14063984918E+02  0.42005093732E+02  0.90015385639E+01  0.45202336972E+02  0.00000000000E+00 0. -1.
         -2    1    6    6    0  503 -0.29930564262E+03  0.31821855235E+03  0.27708863345E+03  0.51732487429E+03  0.00000000000E+00 0.  1.
<mgrwt>
<rscale>  0 0.16610123E+04</rscale>
<asrwt>0</asrwt>
<pdfrwt beam="1">  1        2 0.38810201E+00 0.16610123E+04</pdfrwt>
<pdfrwt beam="2">  1       -1 0.42064244E-01 0.16610123E+04</pdfrwt>
<totfact> 0.20418308E+01</totfact>
</mgrwt>
</event>
<event>
11    6  0.1705838E-008  0.1459559E+04  0.7818608E-02  0.8911800E-01
         -1   -1    0    0    0  501 -0.00000000000E+00  0.00000000000E+00  0.60972243408E+03  0.60972243408E+03  0.00000000000E+00 0.  1.
          2   -1    0    0  501    0  0.00000000000E+00 -0.00000000000E+00 -0.87347659051E+03  0.87347659051E+03  0.00000000000E+00 0. -1.
         24    2    1    2    0    0  0.41080376636E+03 -0.12085486020E+02 -0.27948652783E+03  0.50388695271E+03  0.82967152845E+02 0.  0.
        254    2    1    2    0    0 -0.41080376636E+03  0.12085486020E+02  0.15732371402E+02  0.97931207188E+03  0.88876252914E+03 0.  0.
         23    2    4    4    0    0 -0.24531628055E+03 -0.75279162359E+02 -0.38449943040E+03  0.47211692787E+03  0.95955988976E+02 0.  0.
          2    1    3    3  502    0  0.21173656053E+03  0.28645700928E+02 -0.17021033967E+03  0.27317486520E+03  0.00000000000E+00 0. -1.
         -1    1    3    3    0  502  0.19906720583E+03 -0.40731186948E+02 -0.10927618816E+03  0.23071208752E+03  0.00000000000E+00 0.  1.
         11    1    4    4    0    0 -0.21705339338E+03  0.10653744654E+03  0.37610758048E+03  0.44712337804E+03  0.00000000000E+00 0.  1.
        -11    1    4    4    0    0  0.51565907568E+02 -0.19172798160E+02  0.24124221316E+02  0.60071765970E+02  0.00000000000E+00 0. -1.
          2    1    5    5  503    0 -0.16690688827E+02  0.19328564124E+02 -0.25311747279E+02  0.35956321210E+02  0.00000000000E+00 0. -1.
         -2    1    5    5    0  503 -0.22862559172E+03 -0.94607726483E+02 -0.35918768312E+03  0.43616060666E+03  0.00000000000E+00 0.  1.
<mgrwt>
<rscale>  0 0.14595592E+04</rscale>
<asrwt>0</asrwt>
<pdfrwt beam="1">  1        2 0.13438101E+00 0.14595592E+04</pdfrwt>
<pdfrwt beam="2">  1       -1 0.93803452E-01 0.14595592E+04</pdfrwt>
<totfact> 0.37265687E+01</totfact>
</mgrwt>
</event>
<event>
12    6  0.1705838E-008  0.4046914E+04  0.7818608E-02  0.7995149E-01
          2   -1    0    0  501    0  0.00000000000E+00  0.00000000000E+00  0.28240080700E+04  0.28240080700E+04  0.00000000000E+00 0. -1.
         -1   -1    0    0    0  501 -0.00000000000E+00 -0.00000000000E+00 -0.14498467468E+04  0.14498467468E+04  0.00000000000E+00 0.  1.
         24    2    1    2    0    0 -0.85926599135E+03  0.88346374073E+02  0.24646845168E+04  0.26129167712E+04  0.80753699657E+02 0.  0.
        254    2    1    2    0    0  0.85926599135E+03 -0.88346374073E+02 -0.10905231936E+04  0.16609380456E+04  0.90737601347E+03 0.  0.
         23    2    4    4    0    0 -0.43833766766E+02 -0.96225479340E+02 -0.62988002414E+03  0.64303822575E+03  0.74622871681E+02 0.  0.
         23    2    4    4    0    0  0.90309975812E+03  0.78791052669E+01 -0.46064316948E+03  0.10178998199E+04  0.90976152212E+02 0.  0.
          4    1    3    3  502    0 -0.77195807909E+03  0.58413820496E+02  0.22403629341E+04  0.23703496634E+04  0.00000000000E+00 0. -1.
         -3    1    3    3    0  502 -0.87307912269E+02  0.29932553577E+02  0.22432158275E+03  0.24256710782E+03  0.00000000000E+00 0.  1.
         11    1    5    5    0    0  0.18533718342E+02 -0.44592832996E+02 -0.21999567614E+03  0.22523347218E+03  0.00000000000E+00 0.  1.
        -11    1    5    5    0    0 -0.62367485109E+02 -0.51632646344E+02 -0.40988434800E+03  0.41780475357E+03  0.00000000000E+00 0. -1.
          3    1    6    6  503    0  0.16779757930E+03 -0.33860218401E+02 -0.90578232898E+02  0.19366713269E+03  0.00000000000E+00 0. -1.
         -3    1    6    6    0  503  0.73530217882E+03  0.41739323668E+02 -0.37006493658E+03  0.82423268717E+03  0.00000000000E+00 0.  1.
<mgrwt>
<rscale>  0 0.40469143E+04</rscale>
<asrwt>0</asrwt>
<pdfrwt beam="1">  1        2 0.43446278E+00 0.40469143E+04</pdfrwt>
<pdfrwt beam="2">  1       -1 0.22305335E+00 0.40469143E+04</pdfrwt>
<totfact> 0.20954265E-01</totfact>
</mgrwt>
</event>
<event>
12    6  0.1705838E-008  0.1480271E+04  0.7818608E-02  0.8897680E-01
         -1   -1    0    0    0  501 -0.00000000000E+00  0.00000000000E+00  0.21548701823E+04  0.21548701823E+04  0.00000000000E+00 0.  1.
          2   -1    0    0  501    0  0.00000000000E+00 -0.00000000000E+00 -0.25421508634E+03  0.25421508634E+03  0.00000000000E+00 0. -1.
         24    2    1    2    0    0  0.45511846982E+03  0.66504854417E+02  0.50284253054E+03  0.68607323668E+03  0.79310518482E+02 0.  0.
        254    2    1    2    0    0 -0.45511846982E+03 -0.66504854417E+02  0.13978125654E+04  0.17230120319E+04  0.89628944932E+03 0.  0.
         23    2    4    4    0    0  0.19508059374E+02 -0.22556958492E+03  0.11064533867E+04  0.11364104928E+04  0.12620423604E+03 0.  0.
         23    2    4    4    0    0 -0.47462652920E+03  0.15906473050E+03  0.29135917868E+03  0.58660153911E+03  0.92947641072E+02 0.  0.
          4    1    3    3  502    0  0.13996944191E+03  0.77879079327E+01  0.20598554531E+03  0.24916288057E+03  0.00000000000E+00 0. -1.
         -3    1    3    3    0  502  0.31514902791E+03  0.58716946484E+02  0.29685698523E+03  0.43691035611E+03  0.00000000000E+00 0.  1.
         11    1    5    5    0    0  0.23153881449E+02 -0.21430605166E+03  0.11032993961E+04  0.11241586825E+04  0.00000000000E+00 0. -1.
        -11    1    5    5    0    0 -0.36458220752E+01 -0.11263533256E+02  0.31539906563E+01  0.12251810359E+02  0.00000000000E+00 0.  1.
          3    1    6    6  503    0 -0.50242040007E+02  0.89852291477E+01  0.65319405990E+02  0.82895245495E+02  0.00000000000E+00 0.  1.
         -3    1    6    6    0  503 -0.42438448919E+03  0.15007950135E+03  0.22603977269E+03  0.50370629362E+03  0.00000000000E+00 0. -1.
<mgrwt>
<rscale>  0 0.14802709E+04</rscale>
<asrwt>0</asrwt>
<pdfrwt beam="1">  1        2 0.39110015E-01 0.14802709E+04</pdfrwt>
<pdfrwt beam="2">  1       -1 0.33151848E+00 0.14802709E+04</pdfrwt>
<totfact> 0.30260877E+00</totfact>
</mgrwt>
</event>
<event>
11    6  0.1705838E-008  0.2160342E+04  0.7818608E-02  0.8535119E-01
          2   -1    0    0  501    0  0.00000000000E+00  0.00000000000E+00  0.18159106773E+04  0.18159106773E+04  0.00000000000E+00 0. -1.
         -1   -1    0    0    0  501 -0.00000000000E+00 -0.00000000000E+00 -0.64252549496E+03  0.64252549496E+03  0.00000000000E+00 0.  1.
         24    2    1    2    0    0  0.27687661937E+03 -0.82972371054E+03  0.32622751938E+03  0.93645997427E+03  0.73693899563E+02 0.  0.
        254    2    1    2    0    0 -0.27687661937E+03  0.82972371054E+03  0.84715766293E+03  0.15219761980E+04  0.91303523652E+03 0.  0.
         23    2    4    4    0    0  0.15729948185E+03  0.59450190303E+03  0.78697857411E+03  0.10030837274E+04  0.93091612956E+02 0.  0.
          4    1    3    3  502    0  0.69648566990E+02 -0.19653298740E+03  0.45065853135E+02  0.21332385975E+03  0.00000000000E+00 0. -1.
         -3    1    3    3    0  502  0.20722805238E+03 -0.63319072313E+03  0.28116166625E+03  0.72313611452E+03  0.00000000000E+00 0.  1.
         11    1    4    4    0    0 -0.25212745019E+03  0.19208056642E+03  0.89885841975E+02  0.32945813045E+03  0.00000000000E+00 0. -1.
        -11    1    4    4    0    0 -0.18204865104E+03  0.43141241088E+02 -0.29706753148E+02  0.18943434010E+03  0.00000000000E+00 0.  1.
          2    1    5    5  503    0 -0.12102288292E+02  0.53819100210E+02  0.77334660327E+02  0.94992687178E+02  0.00000000000E+00 0.  1.
         -2    1    5    5    0  503  0.16940177014E+03  0.54068280281E+03  0.70964391378E+03  0.90809104023E+03  0.00000000000E+00 0. -1.
<mgrwt>
<rscale>  0 0.21603416E+04</rscale>
<asrwt>0</asrwt>
<pdfrwt beam="1">  1        2 0.27937087E+00 0.21603416E+04</pdfrwt>
<pdfrwt beam="2">  1       -1 0.98850077E-01 0.21603416E+04</pdfrwt>
<totfact> 0.86390029E+00</totfact>
</mgrwt>
</event>
<event>
12    6  0.1705838E-008  0.1775768E+04  0.7818608E-02  0.8719293E-01
         -1   -1    0    0    0  501 -0.00000000000E+00  0.00000000000E+00  0.28323734139E+03  0.28323734139E+03  0.00000000000E+00 0.  1.
          2   -1    0    0  501    0  0.00000000000E+00 -0.00000000000E+00 -0.27833135962E+04  0.27833135962E+04  0.00000000000E+00 0. -1.
         24    2    1    2    0    0  0.30885983949E+03 -0.44918758275E+03 -0.15755843790E+04  0.16691422570E+04  0.80036579129E+02 0.  0.
        254    2    1    2    0    0 -0.30885983949E+03  0.44918758275E+03 -0.92449187588E+03  0.13974086806E+04  0.89493123039E+03 0.  0.
         23    2    4    4    0    0  0.30854158218E+03  0.18767186280E+03 -0.28205244212E+03  0.46434802701E+03  0.75145685555E+02 0.  0.
         23    2    4    4    0    0 -0.61740142167E+03  0.26151571995E+03 -0.64243943376E+03  0.93306065360E+03  0.91097584948E+02 0.  0.
          4    1    3    3  502    0  0.26092837154E+03 -0.32289203336E+03 -0.12250334533E+04  0.12934642794E+04  0.00000000000E+00 0. -1.
         -3    1    3    3    0  502  0.47931467943E+02 -0.12629554939E+03 -0.35055092568E+03  0.37567797767E+03  0.00000000000E+00 0.  1.
         11    1    5    5    0    0  0.91033108821E+01  0.12225826622E+02 -0.35498891627E+02  0.38633048189E+02  0.00000000000E+00 0. -1.
        -11    1    5    5    0    0  0.29943827130E+03  0.17544603618E+03 -0.24655355049E+03  0.42571497882E+03  0.00000000000E+00 0.  1.
          3    1    6    6  503    0 -0.96733291887E+02  0.42354806475E+02 -0.59072690600E+02  0.12099934779E+03  0.00000000000E+00 0. -1.
         -3    1    6    6    0  503 -0.52066812978E+03  0.21916091347E+03 -0.58336674316E+03  0.81206130581E+03  0.00000000000E+00 0.  1.
<mgrwt>
<rscale>  0 0.17757684E+04</rscale>
<asrwt>0</asrwt>
<pdfrwt beam="1">  1        2 0.42820210E+00 0.17757684E+04</pdfrwt>
<pdfrwt beam="2">  1       -1 0.43574975E-01 0.17757684E+04</pdfrwt>
<totfact> 0.13290655E+01</totfact>
</mgrwt>
</event>
<event>
11    6  0.1705838E-008  0.1008355E+04  0.7818608E-02  0.9299429E-01
          2   -1    0    0  501    0  0.00000000000E+00  0.00000000000E+00  0.11415261077E+04  0.11415261077E+04  0.00000000000E+00 0. -1.
         -1   -1    0    0    0  501 -0.00000000000E+00 -0.00000000000E+00 -0.22267986097E+03  0.22267986097E+03  0.00000000000E+00 0.  1.
         24    2    1    2    0    0 -0.55856855168E+02  0.48821157307E+02  0.10646101179E+03  0.15440884306E+03  0.83693787791E+02 0.  0.
        254    2    1    2    0    0  0.55856855168E+02 -0.48821157307E+02  0.81238523498E+03  0.12097971256E+04  0.89338447575E+03 0.  0.
         23    2    4    4    0    0  0.32540402507E+03 -0.27839611352E+02  0.76829103771E+02  0.34748424770E+03  0.90442068300E+02 0.  0.
          2    1    3    3  502    0 -0.26521103641E+00  0.21348448836E+02  0.86754937163E+02  0.89343414568E+02  0.00000000000E+00 0. -1.
         -1    1    3    3    0  502 -0.55591644132E+02  0.27472708471E+02  0.19706074626E+02  0.65065428495E+02  0.00000000000E+00 0.  1.
         11    1    4    4    0    0 -0.15963534736E+03  0.32242992418E+02  0.56527685851E+02  0.17239035343E+03  0.00000000000E+00 0. -1.
        -11    1    4    4    0    0 -0.10991182254E+03 -0.53224538373E+02  0.67902844536E+03  0.68992252451E+03  0.00000000000E+00 0.  1.
          4    1    5    5  503    0  0.24194032907E+03  0.15495420262E+02  0.36539709201E+02  0.24517418548E+03  0.00000000000E+00 0.  1.
         -4    1    5    5    0  503  0.83463696007E+02 -0.43335031614E+02  0.40289394570E+02  0.10231006222E+03  0.00000000000E+00 0. -1.
<mgrwt>
<rscale>  0 0.10083548E+04</rscale>
<asrwt>0</asrwt>
<pdfrwt beam="1">  1        2 0.17561940E+00 0.10083548E+04</pdfrwt>
<pdfrwt beam="2">  1       -1 0.34258441E-01 0.10083548E+04</pdfrwt>
<totfact> 0.18819693E+02</totfact>
</mgrwt>
</event>
<event>
11    6  0.1705838E-008  0.1672331E+04  0.7818608E-02  0.8777304E-01
         -1   -1    0    0    0  501 -0.00000000000E+00  0.00000000000E+00  0.75480130166E+03  0.75480130166E+03  0.00000000000E+00 0.  1.
          2   -1    0    0  501    0  0.00000000000E+00 -0.00000000000E+00 -0.92630083271E+03  0.92630083271E+03  0.00000000000E+00 0. -1.
         24    2    1    2    0    0 -0.10342124771E+02  0.18459524970E+03  0.50431017234E+03  0.54314331083E+03  0.80582506945E+02 0.  0.
        254    2    1    2    0    0  0.10342124771E+02 -0.18459524970E+03 -0.67580970338E+03  0.11379588235E+04  0.89668788502E+03 0.  0.
         23    2    4    4    0    0 -0.37842034779E+03 -0.24676931395E+03 -0.19829550575E+03  0.50153919688E+03  0.90129931060E+02 0.  0.
          4    1    3    3  502    0  0.18547333842E+02  0.46423957183E+02  0.66868335277E+02  0.83489889543E+02  0.00000000000E+00 0. -1.
         -3    1    3    3    0  502 -0.28889458613E+02  0.13817129252E+03  0.43744183706E+03  0.45965342129E+03  0.00000000000E+00 0.  1.
         11    1    4    4    0    0  0.21792051691E+02  0.48219148449E+02 -0.49570409585E+02  0.72506587980E+02  0.00000000000E+00 0. -1.
        -11    1    4    4    0    0  0.36697042087E+03  0.13954915805E+02 -0.42794378805E+03  0.56391303869E+03  0.00000000000E+00 0.  1.
          2    1    5    5  503    0  0.42835575148E+01 -0.47195990630E+01 -0.83134257589E+01  0.10475520424E+02  0.00000000000E+00 0. -1.
         -2    1    5    5    0  503 -0.38270390531E+03 -0.24204971489E+03 -0.18998207999E+03  0.49106367645E+03  0.00000000000E+00 0.  1.
<mgrwt>
<rscale>  0 0.16723314E+04</rscale>
<asrwt>0</asrwt>
<pdfrwt beam="1">  1        2 0.14250782E+00 0.16723314E+04</pdfrwt>
<pdfrwt beam="2">  1       -1 0.11612328E+00 0.16723314E+04</pdfrwt>
<totfact> 0.20545583E+01</totfact>
</mgrwt>
</event>
<event>
11    6  0.1705838E-008  0.2613651E+04  0.7818608E-02  0.8363579E-01
         -1   -1    0    0    0  501 -0.00000000000E+00  0.00000000000E+00  0.10709662311E+04  0.10709662311E+04  0.00000000000E+00 0.  1.
          2   -1    0    0  501    0  0.00000000000E+00 -0.00000000000E+00 -0.15946275468E+04  0.15946275468E+04  0.00000000000E+00 0. -1.
         24    2    1    2    0    0  0.39238214538E+01 -0.27627712931E+02  0.94068052849E+03  0.94452439002E+03  0.80422507918E+02 0.  0.
        254    2    1    2    0    0 -0.39238214538E+01  0.27627712931E+02 -0.14643418443E+04  0.17210693879E+04  0.90388279894E+03 0.  0.
         23    2    4    4    0    0  0.86608602578E+02  0.18242986521E+03 -0.14437986721E+04  0.14609058519E+04  0.94390660340E+02 0.  0.
          4    1    3    3  502    0 -0.98685407920E+01 -0.10842353367E+01  0.12978810644E+02  0.16340538221E+02  0.00000000000E+00 0. -1.
         -3    1    3    3    0  502  0.13792362246E+02 -0.26543477594E+02  0.92770171784E+03  0.92818385180E+03  0.00000000000E+00 0.  1.
         11    1    4    4    0    0 -0.65001151887E+02 -0.16673267657E+03 -0.78732719229E+02  0.19550901836E+03  0.00000000000E+00 0. -1.
        -11    1    4    4    0    0 -0.25531272145E+02  0.11930524284E+02  0.58189547061E+02  0.64654517663E+02  0.00000000000E+00 0.  1.
          3    1    5    5  503    0  0.28308653493E+02 -0.15016086158E+01 -0.13348830597E+03  0.13646524291E+03  0.00000000000E+00 0. -1.
         -3    1    5    5    0  503  0.58299949086E+02  0.18393147383E+03 -0.13103103661E+04  0.13244406090E+04  0.00000000000E+00 0.  1.
<mgrwt>
<rscale>  0 0.26136505E+04</rscale>
<asrwt>0</asrwt>
<pdfrwt beam="1">  1        2 0.24532732E+00 0.26136505E+04</pdfrwt>
<pdfrwt beam="2">  1       -1 0.16476403E+00 0.26136505E+04</pdfrwt>
<totfact> 0.30401268E+00</totfact>
</mgrwt>
</event>
<event>
11    6  0.1705838E-008  0.5114968E+04  0.7818608E-02  0.7811013E-01
         -1   -1    0    0    0  501 -0.00000000000E+00  0.00000000000E+00  0.19223604168E+04  0.19223604168E+04  0.00000000000E+00 0.  1.
          2   -1    0    0  501    0  0.00000000000E+00 -0.00000000000E+00 -0.34024439458E+04  0.34024439458E+04  0.00000000000E+00 0. -1.
         24    2    1    2    0    0  0.16416778684E+04 -0.14748728338E+04 -0.18992272698E+04  0.29126987205E+04  0.79959456378E+02 0.  0.
        254    2    1    2    0    0 -0.16416778684E+04  0.14748728338E+04  0.41914374081E+03  0.24121056421E+04  0.87875824550E+03 0.  0.
         23    2    4    4    0    0 -0.56743681340E+03  0.74265886510E+03  0.52091388538E+03  0.10736492782E+04  0.88570702860E+02 0.  0.
          2    1    3    3  502    0  0.10214894241E+04 -0.95448001254E+03 -0.11667765991E+04  0.18209449113E+04  0.00000000000E+00 0. -1.
         -1    1    3    3    0  502  0.62018844433E+03 -0.52039282123E+03 -0.73245067068E+03  0.10917538092E+04  0.00000000000E+00 0.  1.
         11    1    4    4    0    0 -0.84412863430E+03  0.61170346772E+03 -0.19864207271E+03  0.10612223880E+04  0.00000000000E+00 0. -1.
        -11    1    4    4    0    0 -0.23011242070E+03  0.12051050094E+03  0.96871928129E+02  0.27723397601E+03  0.00000000000E+00 0.  1.
          4    1    5    5  503    0 -0.53192321853E+03  0.66223809924E+03  0.48905811662E+03  0.98014256714E+03  0.00000000000E+00 0. -1.
         -4    1    5    5    0  503 -0.35513594867E+02  0.80420765865E+02  0.31855768763E+02  0.93506711022E+02  0.00000000000E+00 0.  1.
<mgrwt>
<rscale>  0 0.51149677E+04</rscale>
<asrwt>0</asrwt>
<pdfrwt beam="1">  1        2 0.52345291E+00 0.51149677E+04</pdfrwt>
<pdfrwt beam="2">  1       -1 0.29574776E+00 0.51149677E+04</pdfrwt>
<totfact> 0.27346795E-02</totfact>
</mgrwt>
</event>
<event>
12    6  0.1705838E-008  0.1507917E+04  0.7818608E-02  0.8879205E-01
         -1   -1    0    0    0  501 -0.00000000000E+00  0.00000000000E+00  0.16893808941E+04  0.16893808941E+04  0.00000000000E+00 0.  1.
          2   -1    0    0  501    0  0.00000000000E+00 -0.00000000000E+00 -0.33648635400E+03  0.33648635400E+03  0.00000000000E+00 0. -1.
         24    2    1    2    0    0  0.43135196878E+02  0.27228029404E+03  0.97988910006E+03  0.10221880721E+04  0.93212674245E+02 0.  0.
        254    2    1    2    0    0 -0.43135196878E+02 -0.27228029404E+03  0.37300544003E+03  0.10036791760E+04  0.89007956174E+03 0.  0.
         23    2    4    4    0    0 -0.13927527942E+03 -0.45277877639E+03 -0.91913477369E+02  0.48677930497E+03  0.64029529281E+02 0.  0.
         23    2    4    4    0    0  0.96140082544E+02  0.18049848235E+03  0.46491891739E+03  0.51689987098E+03  0.95985724309E+02 0.  0.
          2    1    3    3  502    0 -0.10638951540E+02  0.19922116266E+03  0.63775206204E+03  0.66822896643E+03  0.00000000000E+00 0. -1.
         -1    1    3    3    0  502  0.53774148418E+02  0.73059131377E+02  0.34213703802E+03  0.35395910569E+03  0.00000000000E+00 0.  1.
         11    1    5    5    0    0 -0.13830361243E+03 -0.45498223788E+03 -0.92057083914E+02  0.48436683691E+03  0.00000000000E+00 0.  1.
        -11    1    5    5    0    0 -0.97166698822E+00  0.22034614948E+01  0.14360654468E+00  0.24124680588E+01  0.00000000000E+00 0. -1.
          2    1    6    6  503    0 -0.21629881660E+01  0.81693744038E+01 -0.27515943462E+01  0.88875456343E+01  0.00000000000E+00 0. -1.
         -2    1    6    6    0  503  0.98303070710E+02  0.17232910794E+03  0.46767051174E+03  0.50801232535E+03  0.00000000000E+00 0.  1.
<mgrwt>
<rscale>  0 0.15079173E+04</rscale>
<asrwt>0</asrwt>
<pdfrwt beam="1">  1        2 0.51767133E-01 0.15079173E+04</pdfrwt>
<pdfrwt beam="2">  1       -1 0.25990475E+00 0.15079173E+04</pdfrwt>
<totfact> 0.64198096E+00</totfact>
</mgrwt>
</event>
<event>
11    6  0.1705838E-008  0.1180969E+04  0.7818608E-02  0.9129679E-01
          2   -1    0    0  501    0  0.00000000000E+00  0.00000000000E+00  0.23014349489E+04  0.23014349489E+04  0.00000000000E+00 0. -1.
         -1   -1    0    0    0  501 -0.00000000000E+00 -0.00000000000E+00 -0.15150209525E+03  0.15150209525E+03  0.00000000000E+00 0.  1.
         24    2    1    2    0    0  0.11343654681E+03  0.15949757036E+02  0.89051178982E+03  0.90125230975E+03  0.78244700225E+02 0.  0.
        254    2    1    2    0    0 -0.11343654681E+03 -0.15949757036E+02  0.12594210639E+04  0.15516847344E+04  0.89914506842E+03 0.  0.
         23    2    4    4    0    0  0.30603783984E+03  0.58710177850E+02  0.15989588942E+03  0.36223534099E+03  0.92421330950E+02 0.  0.
          2    1    3    3  502    0  0.49203727864E+02  0.39851616115E+02  0.56929819436E+03  0.57280851272E+03  0.00000000000E+00 0. -1.
         -1    1    3    3    0  502  0.64232818942E+02 -0.23901859080E+02  0.32121359546E+03  0.32844379703E+03  0.00000000000E+00 0.  1.
         11    1    4    4    0    0 -0.19725287716E+03 -0.11190856404E+03  0.50192262449E+03  0.55077994266E+03  0.00000000000E+00 0.  1.
        -11    1    4    4    0    0 -0.22222150948E+03  0.37248629155E+02  0.59760254996E+03  0.63866945079E+03  0.00000000000E+00 0. -1.
          2    1    5    5  503    0  0.10820715723E+03 -0.17703324070E+02  0.30528354548E+02  0.11381641793E+03  0.00000000000E+00 0. -1.
         -2    1    5    5    0  503  0.19783068261E+03  0.76413501919E+02  0.12936753487E+03  0.24841892306E+03  0.00000000000E+00 0.  1.
<mgrwt>
<rscale>  0 0.11809695E+04</rscale>
<asrwt>0</asrwt>
<pdfrwt beam="1">  1        2 0.35406689E+00 0.11809695E+04</pdfrwt>
<pdfrwt beam="2">  1       -1 0.23308016E-01 0.11809695E+04</pdfrwt>
<totfact> 0.80761867E+01</totfact>
</mgrwt>
</event>
<event>
12    6  0.1705838E-008  0.1978559E+04  0.7818608E-02  0.8616711E-01
         -1   -1    0    0    0  501 -0.00000000000E+00  0.00000000000E+00  0.54336058328E+03  0.54336058328E+03  0.00000000000E+00 0.  1.
          2   -1    0    0  501    0  0.00000000000E+00 -0.00000000000E+00 -0.18011507606E+04  0.18011507606E+04  0.00000000000E+00 0. -1.
         24    2    1    2    0    0  0.10317682243E+03 -0.37569275865E+03 -0.13100251278E+04  0.13690433191E+04  0.79518980953E+02 0.  0.
        254    2    1    2    0    0 -0.10317682243E+03  0.37569275865E+03  0.52234950541E+02  0.97546802479E+03  0.89275913422E+03 0.  0.
         23    2    4    4    0    0 -0.19135860538E+03 -0.23260318917E+03 -0.89567640955E+02  0.33820050049E+03  0.12503942081E+03 0.  0.
         23    2    4    4    0    0  0.88181782957E+02  0.60829594783E+03  0.14180259150E+03  0.63726752430E+03  0.90564538226E+02 0.  0.
          2    1    3    3  502    0  0.64376335320E+02 -0.15369014496E+03 -0.67323896609E+03  0.69355293862E+03  0.00000000000E+00 0. -1.
         -1    1    3    3    0  502  0.38800487106E+02 -0.22200261369E+03 -0.63678616175E+03  0.67549038045E+03  0.00000000000E+00 0.  1.
         11    1    5    5    0    0 -0.17240294535E+03 -0.24416018144E+03 -0.97854278643E+02  0.31450346519E+03  0.00000000000E+00 0. -1.
        -11    1    5    5    0    0 -0.18955660035E+02  0.11556992271E+02  0.82866376879E+01  0.23697035298E+02  0.00000000000E+00 0.  1.
          3    1    6    6  503    0  0.42251818995E+02  0.36132199785E+03  0.39112963943E+02  0.36588061754E+03  0.00000000000E+00 0. -1.
         -3    1    6    6    0  503  0.45929963962E+02  0.24697394997E+03  0.10268962755E+03  0.27138690676E+03  0.00000000000E+00 0.  1.
<mgrwt>
<rscale>  0 0.19785594E+04</rscale>
<asrwt>0</asrwt>
<pdfrwt beam="1">  1        2 0.27710012E+00 0.19785594E+04</pdfrwt>
<pdfrwt beam="2">  1       -1 0.83593934E-01 0.19785594E+04</pdfrwt>
<totfact> 0.12961682E+01</totfact>
</mgrwt>
</event>
<event>
12    6  0.1705838E-008  0.1201624E+04  0.7818608E-02  0.9111437E-01
         -1   -1    0    0    0  501 -0.00000000000E+00  0.00000000000E+00  0.19650283908E+03  0.19650283908E+03  0.00000000000E+00 0.  1.
          2   -1    0    0  501    0  0.00000000000E+00 -0.00000000000E+00 -0.18369955096E+04  0.18369955096E+04  0.00000000000E+00 0. -1.
         24    2    1    2    0    0 -0.22482428573E+03 -0.14273055818E+03 -0.32217218485E+03  0.42545389935E+03  0.79360771700E+02 0.  0.
        254    2    1    2    0    0  0.22482428573E+03  0.14273055818E+03 -0.13183204857E+04  0.16080444494E+04  0.88143069861E+03 0.  0.
         23    2    4    4    0    0  0.34095701101E+02  0.18113997475E+03 -0.13724130024E+04  0.13864904883E+04  0.69743943990E+02 0.  0.
         23    2    4    4    0    0  0.19072858463E+03 -0.38409416574E+02  0.54092516666E+02  0.22155396110E+03  0.91145384102E+02 0.  0.
          4    1    3    3  502    0 -0.15359830227E+03 -0.71684045408E+02 -0.15150600654E+03  0.22734359645E+03  0.00000000000E+00 0. -1.
         -3    1    3    3    0  502 -0.71225983461E+02 -0.71046512768E+02 -0.17066617831E+03  0.19811030290E+03  0.00000000000E+00 0.  1.
         11    1    5    5    0    0  0.69564971676E+01  0.13338043923E+03 -0.76253598093E+03  0.77414459673E+03  0.00000000000E+00 0. -1.
        -11    1    5    5    0    0  0.27139203933E+02  0.47759535518E+02 -0.60987702143E+03  0.61234589155E+03  0.00000000000E+00 0.  1.
          1    1    6    6  503    0  0.55394608397E+02 -0.39996031279E+02 -0.14462518025E+02  0.69838453485E+02  0.00000000000E+00 0. -1.
         -1    1    6    6    0  503  0.13533397624E+03  0.15866147056E+01  0.68555034691E+02  0.15171550762E+03  0.00000000000E+00 0.  1.
<mgrwt>
<rscale>  0 0.12016236E+04</rscale>
<asrwt>0</asrwt>
<pdfrwt beam="1">  1        2 0.28261470E+00 0.12016236E+04</pdfrwt>
<pdfrwt beam="2">  1       -1 0.30231206E-01 0.12016236E+04</pdfrwt>
<totfact> 0.93165438E+01</totfact>
</mgrwt>
</event>
<event>
12    6  0.1813490E-008  0.2983141E+04  0.7818608E-02  0.8248562E-01
         -1   -1    0    0    0  501 -0.00000000000E+00  0.00000000000E+00  0.96801347063E+03  0.96801347063E+03  0.00000000000E+00 0.  1.
          2   -1    0    0  501    0  0.00000000000E+00 -0.00000000000E+00 -0.22982970489E+04  0.22982970489E+04  0.00000000000E+00 0. -1.
         24    2    1    2    0    0  0.11464751423E+04  0.70050847558E+03 -0.78182707849E+03  0.15565095063E+04  0.79692447089E+02 0.  0.
        254    2    1    2    0    0 -0.11464751423E+04 -0.70050847558E+03 -0.54845649974E+03  0.17098010132E+04  0.90415573685E+03 0.  0.
         23    2    4    4    0    0 -0.92367223849E+03 -0.55776099286E+03  0.99171800747E+01  0.10850076614E+04  0.11347046076E+03 0.  0.
         23    2    4    4    0    0 -0.22280290382E+03 -0.14274748271E+03 -0.55837367982E+03  0.62479335186E+03  0.92561268607E+02 0.  0.
          2    1    3    3  502    0  0.85112472176E+03  0.49576671559E+03 -0.60542646340E+03  0.11561743514E+04  0.00000000000E+00 0. -1.
         -1    1    3    3    0  502  0.29535042055E+03  0.20474175998E+03 -0.17640061508E+03  0.40033515485E+03  0.00000000000E+00 0.  1.
         11    1    5    5    0    0 -0.83012816227E+02 -0.38410010360E+02 -0.29405893953E+02  0.96078942298E+02  0.00000000000E+00 0. -1.
        -11    1    5    5    0    0 -0.84065942226E+03 -0.51935098250E+03  0.39323074028E+02  0.98892871908E+03  0.00000000000E+00 0.  1.
          3    1    6    6  503    0 -0.18321694692E+02 -0.15414830832E+02 -0.10196736805E+02  0.26024506671E+02  0.00000000000E+00 0. -1.
         -3    1    6    6    0  503 -0.20448120913E+03 -0.12733265188E+03 -0.54817694301E+03  0.59876884519E+03  0.00000000000E+00 0.  1.
<mgrwt>
<rscale>  0 0.29831410E+04</rscale>
<asrwt>0</asrwt>
<pdfrwt beam="1">  1        2 0.35358416E+00 0.29831410E+04</pdfrwt>
<pdfrwt beam="2">  1       -1 0.14892515E+00 0.29831410E+04</pdfrwt>
<totfact> 0.15750775E+00</totfact>
</mgrwt>
</event>
<event>
11    6  0.1705838E-008  0.1432351E+04  0.7818608E-02  0.8930729E-01
         -1   -1    0    0    0  501 -0.00000000000E+00  0.00000000000E+00  0.55374266737E+03  0.55374266737E+03  0.00000000000E+00 0.  1.
          2   -1    0    0  501    0  0.00000000000E+00 -0.00000000000E+00 -0.92625563545E+03  0.92625563545E+03  0.00000000000E+00 0. -1.
         24    2    1    2    0    0 -0.20059818095E+03 -0.35095250487E+03  0.30052984520E+02  0.41338830921E+03  0.81113632875E+02 0.  0.
        254    2    1    2    0    0  0.20059818095E+03  0.35095250487E+03 -0.40256595259E+03  0.10666099936E+04  0.90121597934E+03 0.  0.
         23    2    4    4    0    0  0.34775255999E+03  0.38511555857E+03 -0.43849601904E+03  0.68546191354E+03  0.91287675918E+02 0.  0.
          4    1    3    3  502    0 -0.38014373387E+02 -0.88998363684E+02 -0.25582466603E+02  0.10010126832E+03  0.00000000000E+00 0. -1.
         -3    1    3    3    0  502 -0.16258380756E+03 -0.26195414118E+03  0.55635451122E+02  0.31328704088E+03  0.00000000000E+00 0.  1.
         11    1    4    4    0    0 -0.18231273503E+03 -0.12370143047E+03  0.12219825753E+03  0.25193727671E+03  0.00000000000E+00 0.  1.
        -11    1    4    4    0    0  0.35158355987E+02  0.89538376769E+02 -0.86268191089E+02  0.12921080336E+03  0.00000000000E+00 0. -1.
          3    1    5    5  503    0 -0.13945538427E+01  0.12455087677E+02 -0.26526298112E+02  0.29338004039E+02  0.00000000000E+00 0. -1.
         -3    1    5    5    0  503  0.34914711383E+03  0.37266047089E+03 -0.41196972093E+03  0.65612390950E+03  0.00000000000E+00 0.  1.
<mgrwt>
<rscale>  0 0.14323509E+04</rscale>
<asrwt>0</asrwt>
<pdfrwt beam="1">  1        2 0.14250087E+00 0.14323509E+04</pdfrwt>
<pdfrwt beam="2">  1       -1 0.85191180E-01 0.14323509E+04</pdfrwt>
<totfact> 0.42516820E+01</totfact>
</mgrwt>
</event>
<event>
12    6  0.1705838E-008  0.1743279E+04  0.7818608E-02  0.8737059E-01
          2   -1    0    0  501    0  0.00000000000E+00  0.00000000000E+00  0.19626219633E+04  0.19626219633E+04  0.00000000000E+00 0. -1.
         -1   -1    0    0    0  501 -0.00000000000E+00 -0.00000000000E+00 -0.38711234341E+03  0.38711234341E+03  0.00000000000E+00 0.  1.
         24    2    1    2    0    0  0.37923300333E+03  0.31848488892E+03  0.11146950858E+04  0.12222647015E+04  0.78329885690E+02 0.  0.
        254    2    1    2    0    0 -0.37923300333E+03 -0.31848488892E+03  0.46081453415E+03  0.11274696052E+04  0.90199078741E+03 0.  0.
         23    2    4    4    0    0 -0.54459258078E+03 -0.83791806369E+02  0.57465095075E+03  0.80476830111E+03  0.11758468191E+03 0.  0.
         23    2    4    4    0    0  0.16535957745E+03 -0.23469308255E+03 -0.11383641661E+03  0.32270130412E+03  0.93556234876E+02 0.  0.
          2    1    3    3  502    0  0.30830385858E+03  0.28285280747E+03  0.98542692102E+03  0.10705714346E+04  0.00000000000E+00 0. -1.
         -1    1    3    3    0  502  0.70929144754E+02  0.35632081449E+02  0.12926816477E+03  0.15169326692E+03  0.00000000000E+00 0.  1.
         11    1    5    5    0    0 -0.45047028230E+03 -0.29794768013E+02  0.49638591822E+03  0.67097703630E+03  0.00000000000E+00 0.  1.
        -11    1    5    5    0    0 -0.94122298483E+02 -0.53997038357E+02  0.78265032531E+02  0.13379126481E+03  0.00000000000E+00 0. -1.
          3    1    6    6  503    0  0.77551270474E+02 -0.37776280800E+02 -0.36022478857E+02  0.93481901597E+02  0.00000000000E+00 0. -1.
         -3    1    6    6    0  503  0.87808306977E+02 -0.19691680175E+03 -0.77813937751E+02  0.22921940252E+03  0.00000000000E+00 0.  1.
<mgrwt>
<rscale>  0 0.17432787E+04</rscale>
<asrwt>0</asrwt>
<pdfrwt beam="1">  1        2 0.30194183E+00 0.17432787E+04</pdfrwt>
<pdfrwt beam="2">  1       -1 0.59555747E-01 0.17432787E+04</pdfrwt>
<totfact> 0.21638178E+01</totfact>
</mgrwt>
</event>
<event>
11    6  0.1705838E-008  0.3100932E+04  0.7818608E-02  0.8215482E-01
         -1   -1    0    0    0  501 -0.00000000000E+00  0.00000000000E+00  0.74271531005E+03  0.74271531005E+03  0.00000000000E+00 0.  1.
          2   -1    0    0  501    0  0.00000000000E+00 -0.00000000000E+00 -0.32366973938E+04  0.32366973938E+04  0.00000000000E+00 0. -1.
         24    2    1    2    0    0  0.91815658884E+03 -0.37022452869E+02  0.24234126817E+03  0.95369183244E+03  0.80103915996E+02 0.  0.
        254    2    1    2    0    0 -0.91815658884E+03  0.37022452869E+02 -0.27363233519E+04  0.30257208714E+04  0.90727014819E+03 0.  0.
         23    2    4    4    0    0 -0.76583834854E+02 -0.62652858726E+02 -0.15774859647E+04  0.15833715623E+04  0.93877959300E+02 0.  0.
          2    1    3    3  502    0  0.33664832688E+03  0.17958855610E+01  0.52325242199E+02  0.34069524823E+03  0.00000000000E+00 0. -1.
         -1    1    3    3    0  502  0.58150826196E+03 -0.38818338430E+02  0.19001602597E+03  0.61299658421E+03  0.00000000000E+00 0.  1.
         11    1    4    4    0    0 -0.50429435500E+03  0.79688806037E+02 -0.80381021191E+03  0.95224679525E+03  0.00000000000E+00 0. -1.
        -11    1    4    4    0    0 -0.33727839899E+03  0.19986505558E+02 -0.35502717537E+03  0.49010251385E+03  0.00000000000E+00 0.  1.
          3    1    5    5  503    0 -0.16956421942E+02  0.13132395387E+02 -0.81300786915E+02  0.84082090879E+02  0.00000000000E+00 0. -1.
         -3    1    5    5    0  503 -0.59627412912E+02 -0.75785254113E+02 -0.14961851777E+04  0.14992894715E+04  0.00000000000E+00 0.  1.
<mgrwt>
<rscale>  0 0.31009319E+04</rscale>
<asrwt>0</asrwt>
<pdfrwt beam="1">  1        2 0.49795345E+00 0.31009319E+04</pdfrwt>
<pdfrwt beam="2">  1       -1 0.11426389E+00 0.31009319E+04</pdfrwt>
<totfact> 0.82396559E-01</totfact>
</mgrwt>
</event>
<event>
12    6  0.1705838E-008  0.2311240E+04  0.7818608E-02  0.8473502E-01
         -1   -1    0    0    0  501 -0.00000000000E+00  0.00000000000E+00  0.20636637403E+04  0.20636637403E+04  0.00000000000E+00 0.  1.
          2   -1    0    0  501    0  0.00000000000E+00 -0.00000000000E+00 -0.64712958023E+03  0.64712958023E+03  0.00000000000E+00 0. -1.
         24    2    1    2    0    0  0.11051725578E+03  0.53124846868E+03 -0.35297476338E+03  0.65217055047E+03  0.79348875366E+02 0.  0.
        254    2    1    2    0    0 -0.11051725578E+03 -0.53124846868E+03  0.17695089235E+04  0.20586227701E+04  0.90129178403E+03 0.  0.
         23    2    4    4    0    0  0.18735515535E+03 -0.34260830879E+03  0.16115962641E+04  0.16619295859E+04  0.11083782078E+03 0.  0.
         23    2    4    4    0    0 -0.29787241113E+03 -0.18864015989E+03  0.15791265935E+03  0.39669318416E+03  0.90088795900E+02 0.  0.
          2    1    3    3  502    0  0.54126371333E+02  0.31201850278E+03 -0.25008009652E+03  0.40351612710E+03  0.00000000000E+00 0. -1.
         -1    1    3    3    0  502  0.56390884447E+02  0.21922996590E+03 -0.10289466686E+03  0.24865442337E+03  0.00000000000E+00 0.  1.
         11    1    5    5    0    0  0.12914374142E+03 -0.31616009415E+03  0.13850170116E+04  0.14265018168E+04  0.00000000000E+00 0.  1.
        -11    1    5    5    0    0  0.58211413927E+02 -0.26448214647E+02  0.22657925258E+03  0.23542776911E+03  0.00000000000E+00 0. -1.
          4    1    6    6  503    0 -0.17453181853E+03 -0.13193651099E+03  0.14004594199E+03  0.25977194706E+03  0.00000000000E+00 0. -1.
         -4    1    6    6    0  503 -0.12334059260E+03 -0.56703648900E+02  0.17866717355E+02  0.13692123710E+03  0.00000000000E+00 0.  1.
<mgrwt>
<rscale>  0 0.23112402E+04</rscale>
<asrwt>0</asrwt>
<pdfrwt beam="1">  1        2 0.99558398E-01 0.23112402E+04</pdfrwt>
<pdfrwt beam="2">  1       -1 0.31748673E+00 0.23112402E+04</pdfrwt>
<totfact> 0.11882944E+00</totfact>
</mgrwt>
</event>
<event>
11    6  0.1705838E-008  0.1916644E+04  0.7818608E-02  0.8646616E-01
         -1   -1    0    0    0  501 -0.00000000000E+00  0.00000000000E+00  0.40598981227E+03  0.40598981227E+03  0.00000000000E+00 0.  1.
          2   -1    0    0  501    0  0.00000000000E+00 -0.00000000000E+00 -0.22620798894E+04  0.22620798894E+04  0.00000000000E+00 0. -1.
         24    2    1    2    0    0 -0.14554395482E+02 -0.34690782021E+03  0.18918522629E+03  0.40265946133E+03  0.76070531711E+02 0.  0.
        254    2    1    2    0    0  0.14554395482E+02  0.34690782021E+03 -0.20452753035E+04  0.22654102404E+04  0.91015142922E+03 0.  0.
         23    2    4    4    0    0  0.25970447256E+03 -0.14544252380E+03 -0.31302377167E+03  0.44145847751E+03  0.91114021637E+02 0.  0.
          2    1    3    3  502    0 -0.29617913346E+02 -0.11242248841E+03  0.34216764162E+02  0.12118920596E+03  0.00000000000E+00 0. -1.
         -1    1    3    3    0  502  0.15063517864E+02 -0.23448533181E+03  0.15496846213E+03  0.28147025537E+03  0.00000000000E+00 0.  1.
         11    1    4    4    0    0 -0.11152671844E+03  0.79081850933E+02 -0.41243656878E+03  0.43450669884E+03  0.00000000000E+00 0.  1.
        -11    1    4    4    0    0 -0.13362335864E+03  0.41326849308E+03 -0.13198149630E+04  0.13894450640E+04  0.00000000000E+00 0. -1.
          3    1    5    5  503    0  0.18076988578E+03 -0.12407558306E+03 -0.27378176321E+03  0.35075483715E+03  0.00000000000E+00 0. -1.
         -3    1    5    5    0  503  0.78934586786E+02 -0.21366940739E+02 -0.39242008460E+02  0.90703640365E+02  0.00000000000E+00 0.  1.
<mgrwt>
<rscale>  0 0.19166443E+04</rscale>
<asrwt>0</asrwt>
<pdfrwt beam="1">  1        2 0.34801230E+00 0.19166443E+04</pdfrwt>
<pdfrwt beam="2">  1       -1 0.62459970E-01 0.19166443E+04</pdfrwt>
<totfact> 0.13191578E+01</totfact>
</mgrwt>
</event>
<event>
12    6  0.1705838E-008  0.2485695E+04  0.7818608E-02  0.8408100E-01
         -1   -1    0    0    0  501 -0.00000000000E+00  0.00000000000E+00  0.41821912008E+03  0.41821912008E+03  0.00000000000E+00 0.  1.
          2   -1    0    0  501    0  0.00000000000E+00 -0.00000000000E+00 -0.36934464344E+04  0.36934464344E+04  0.00000000000E+00 0. -1.
         24    2    1    2    0    0  0.83744735505E+03  0.66406575301E+03 -0.16271162869E+04  0.19483740785E+04  0.79704088308E+02 0.  0.
        254    2    1    2    0    0 -0.83744735505E+03 -0.66406575301E+03 -0.16481110274E+04  0.21632914760E+04  0.90623322317E+03 0.  0.
         23    2    4    4    0    0 -0.72329907390E+03 -0.27540104866E+02 -0.10347736485E+04  0.12674145026E+04  0.10799541675E+03 0.  0.
         23    2    4    4    0    0 -0.11414828116E+03 -0.63652564814E+03 -0.61333737895E+03  0.89587697348E+03  0.90653628481E+02 0.  0.
          4    1    3    3  502    0  0.22415652366E+03  0.16561227989E+03 -0.36493408251E+03  0.45918455867E+03  0.00000000000E+00 0. -1.
         -3    1    3    3    0  502  0.61329083139E+03  0.49845347312E+03 -0.12621822044E+04  0.14891895198E+04  0.00000000000E+00 0.  1.
         11    1    5    5    0    0 -0.53311616695E+03  0.27534733917E+02 -0.75799002477E+03  0.92710295366E+03  0.00000000000E+00 0.  1.
        -11    1    5    5    0    0 -0.19018290695E+03 -0.55074838783E+02 -0.27678362372E+03  0.34031154891E+03  0.00000000000E+00 0. -1.
          4    1    6    6  503    0  0.92069335798E+01 -0.16966745176E+03 -0.16960957987E+03  0.24008169734E+03  0.00000000000E+00 0. -1.
         -4    1    6    6    0  503 -0.12335521474E+03 -0.46685819639E+03 -0.44372779908E+03  0.65579527614E+03  0.00000000000E+00 0.  1.
<mgrwt>
<rscale>  0 0.24856950E+04</rscale>
<asrwt>0</asrwt>
<pdfrwt beam="1">  1        2 0.56822254E+00 0.24856950E+04</pdfrwt>
<pdfrwt beam="2">  1       -1 0.64341402E-01 0.24856950E+04</pdfrwt>
<totfact> 0.14713456E+00</totfact>
</mgrwt>
</event>
<event>
11    6  0.1705838E-008  0.1555578E+04  0.7818608E-02  0.8848313E-01
         -1   -1    0    0    0  501 -0.00000000000E+00  0.00000000000E+00  0.37368983640E+03  0.37368983640E+03  0.00000000000E+00 0.  1.
          2   -1    0    0  501    0  0.00000000000E+00 -0.00000000000E+00 -0.16188706150E+04  0.16188706150E+04  0.00000000000E+00 0. -1.
         24    2    1    2    0    0  0.26479496278E+02  0.41252739052E+03 -0.80507390312E+03  0.90842657587E+03  0.78834273079E+02 0.  0.
        254    2    1    2    0    0 -0.26479496278E+02 -0.41252739052E+03 -0.44010687547E+03  0.10841338755E+04  0.90042889034E+03 0.  0.
         23    2    4    4    0    0  0.11353825438E+03 -0.60733048517E+03 -0.30847710222E+03  0.69613996196E+03  0.87814979429E+02 0.  0.
          2    1    3    3  502    0  0.42044067870E+02  0.28127007417E+03 -0.48660655809E+03  0.56361910954E+03  0.00000000000E+00 0. -1.
         -1    1    3    3    0  502 -0.15564571591E+02  0.13125731634E+03 -0.31846734503E+03  0.34480746633E+03  0.00000000000E+00 0.  1.
         11    1    4    4    0    0  0.49441695989E+02 -0.39410471044E+02 -0.15201387426E+02  0.65028829836E+02  0.00000000000E+00 0.  1.
        -11    1    4    4    0    0 -0.18945944664E+03  0.23421356570E+03 -0.11642838582E+03  0.32296508373E+03  0.00000000000E+00 0. -1.
          3    1    5    5  503    0  0.44198091518E+02 -0.42504168056E+03 -0.18769164181E+03  0.46673552887E+03  0.00000000000E+00 0. -1.
         -3    1    5    5    0  503  0.69340162859E+02 -0.18228880462E+03 -0.12078546041E+03  0.22940443309E+03  0.00000000000E+00 0.  1.
<mgrwt>
<rscale>  0 0.15555777E+04</rscale>
<asrwt>0</asrwt>
<pdfrwt beam="1">  1        2 0.24905702E+00 0.15555777E+04</pdfrwt>
<pdfrwt beam="2">  1       -1 0.57490744E-01 0.15555777E+04</pdfrwt>
<totfact> 0.36558337E+01</totfact>
</mgrwt>
</event>
<event>
11    6  0.1705838E-008  0.1794468E+04  0.7818608E-02  0.8709247E-01
          2   -1    0    0  501    0  0.00000000000E+00  0.00000000000E+00  0.65220929213E+03  0.65220929213E+03  0.00000000000E+00 0. -1.
         -1   -1    0    0    0  501 -0.00000000000E+00 -0.00000000000E+00 -0.12343107255E+04  0.12343107255E+04  0.00000000000E+00 0.  1.
         24    2    1    2    0    0  0.53815873509E+03  0.28716700388E+03  0.67277585749E+02  0.61843303028E+03  0.76507693224E+02 0.  0.
        254    2    1    2    0    0 -0.53815873509E+03 -0.28716700388E+03 -0.64937901909E+03  0.12680869873E+04  0.90237009298E+03 0.  0.
         23    2    4    4    0    0  0.22196982828E+03  0.44919448103E+02 -0.19906664399E+03  0.31520984729E+03  0.91876861054E+02 0.  0.
          4    1    3    3  502    0  0.46973054550E+03  0.22074948640E+03  0.48864562168E+02  0.52131071978E+03  0.00000000000E+00 0. -1.
         -3    1    3    3    0  502  0.68428189585E+02  0.66417517480E+02  0.18413023581E+02  0.97122310493E+02  0.00000000000E+00 0.  1.
         11    1    4    4    0    0 -0.70201111505E+03 -0.34185573870E+03 -0.41817830782E+03  0.88575281477E+03  0.00000000000E+00 0. -1.
        -11    1    4    4    0    0 -0.58117448318E+02  0.97692867133E+01 -0.32134067284E+02  0.67124325264E+02  0.00000000000E+00 0.  1.
          1    1    5    5  503    0  0.12077458775E+03  0.63695418063E+02 -0.81743538391E+02  0.15914023186E+03  0.00000000000E+00 0. -1.
         -1    1    5    5    0  503  0.10119524053E+03 -0.18775969959E+02 -0.11732310560E+03  0.15606961543E+03  0.00000000000E+00 0.  1.
<mgrwt>
<rscale>  0 0.17944681E+04</rscale>
<asrwt>0</asrwt>
<pdfrwt beam="1">  1        2 0.10033989E+00 0.17944681E+04</pdfrwt>
<pdfrwt beam="2">  1       -1 0.18989396E+00 0.17944681E+04</pdfrwt>
<totfact> 0.85470859E+00</totfact>
</mgrwt>
</event>
<event>
12    6  0.1705838E-008  0.1575359E+04  0.7818608E-02  0.8835830E-01
         -1   -1    0    0    0  501 -0.00000000000E+00  0.00000000000E+00  0.34593066985E+03  0.34593066985E+03  0.00000000000E+00 0.  1.
          2   -1    0    0  501    0  0.00000000000E+00 -0.00000000000E+00 -0.17935367855E+04  0.17935367855E+04  0.00000000000E+00 0. -1.
         24    2    1    2    0    0 -0.12505112565E+03  0.96090293751E+02  0.22682711249E+03  0.28818303035E+03  0.82023115302E+02 0.  0.
        254    2    1    2    0    0  0.12505112565E+03 -0.96090293751E+02 -0.16744332281E+04  0.18512844250E+04  0.77372880140E+03 0.  0.
         23    2    4    4    0    0  0.28616886740E+03  0.14268815835E+03 -0.32918205306E+03  0.47257074140E+03  0.11273752868E+03 0.  0.
         23    2    4    4    0    0 -0.16111774175E+03 -0.23877845210E+03 -0.13452511751E+04  0.13787136836E+04  0.90424672178E+02 0.  0.
          4    1    3    3  502    0 -0.39375199583E+02 -0.10745025515E+02  0.52201337298E+02  0.66263425291E+02  0.00000000000E+00 0. -1.
         -3    1    3    3    0  502 -0.85675926063E+02  0.10683531927E+03  0.17462577519E+03  0.22191960506E+03  0.00000000000E+00 0.  1.
         11    1    5    5    0    0  0.28281645544E+03  0.11740442231E+03 -0.32533127987E+03  0.44677666402E+03  0.00000000000E+00 0. -1.
        -11    1    5    5    0    0  0.33524119603E+01  0.25283736043E+02 -0.38507731885E+01  0.25794077390E+02  0.00000000000E+00 0.  1.
          1    1    6    6  503    0 -0.10681771953E+03 -0.10664618297E+03 -0.84885931607E+03  0.86217490803E+03  0.00000000000E+00 0. -1.
         -1    1    6    6    0  503 -0.54300022227E+02 -0.13213226914E+03 -0.49639185899E+03  0.51653877554E+03  0.00000000000E+00 0.  1.
<mgrwt>
<rscale>  0 0.15753595E+04</rscale>
<asrwt>0</asrwt>
<pdfrwt beam="1">  1        2 0.27592874E+00 0.15753595E+04</pdfrwt>
<pdfrwt beam="2">  1       -1 0.53220103E-01 0.15753595E+04</pdfrwt>
<totfact> 0.33906459E+01</totfact>
</mgrwt>
</event>
<event>
11    6  0.1705838E-008  0.2421754E+04  0.7818608E-02  0.8431404E-01
         -1   -1    0    0    0  501 -0.00000000000E+00  0.00000000000E+00  0.14251714228E+04  0.14251714228E+04  0.00000000000E+00 0.  1.
          2   -1    0    0  501    0  0.00000000000E+00 -0.00000000000E+00 -0.10288051059E+04  0.10288051059E+04  0.00000000000E+00 0. -1.
         24    2    1    2    0    0 -0.74599721899E+03 -0.16342150023E+03 -0.55031607400E+03  0.94444255839E+03  0.76847428766E+02 0.  0.
        254    2    1    2    0    0  0.74599721899E+03  0.16342150023E+03  0.94668239093E+03  0.15095339704E+04  0.89401723748E+03 0.  0.
         23    2    4    4    0    0 -0.13692862485E+03  0.18357638606E+03  0.26682504258E+03  0.36315381235E+03  0.90748830641E+02 0.  0.
          4    1    3    3  502    0 -0.58281755221E+03 -0.15743108490E+03 -0.44755049173E+03  0.75150667882E+03  0.00000000000E+00 0. -1.
         -3    1    3    3    0  502 -0.16317966678E+03 -0.59904153373E+01 -0.10276558227E+03  0.19293587957E+03  0.00000000000E+00 0.  1.
         11    1    4    4    0    0  0.46762955520E+03 -0.32223374858E+02  0.19451590000E+03  0.50749599223E+03  0.00000000000E+00 0.  1.
        -11    1    4    4    0    0  0.41529628864E+03  0.12068489037E+02  0.48534144836E+03  0.63888416578E+03  0.00000000000E+00 0. -1.
          2    1    5    5  503    0 -0.99337686856E+02  0.18085744398E+03  0.20580578320E+03  0.29143337398E+03  0.00000000000E+00 0.  1.
         -2    1    5    5    0  503 -0.37590937991E+02  0.27189420721E+01  0.61019259379E+02  0.71720438371E+02  0.00000000000E+00 0. -1.
<mgrwt>
<rscale>  0 0.24217544E+04</rscale>
<asrwt>0</asrwt>
<pdfrwt beam="1">  1        2 0.15827771E+00 0.24217544E+04</pdfrwt>
<pdfrwt beam="2">  1       -1 0.21925714E+00 0.24217544E+04</pdfrwt>
<totfact> 0.27503752E+00</totfact>
</mgrwt>
</event>
<event>
12    6  0.2826345E-008  0.1743714E+04  0.7818608E-02  0.8736818E-01
          2   -1    0    0  501    0  0.00000000000E+00  0.00000000000E+00  0.10402490550E+04  0.10402490550E+04  0.00000000000E+00 0. -1.
         -1   -1    0    0    0  501 -0.00000000000E+00 -0.00000000000E+00 -0.73072408098E+03  0.73072408098E+03  0.00000000000E+00 0.  1.
         24    2    1    2    0    0 -0.29265502027E+02  0.32469442715E+03 -0.39453321642E+03  0.51795639817E+03  0.79620543326E+02 0.  0.
        254    2    1    2    0    0  0.29265502027E+02 -0.32469442715E+03  0.70405819046E+03  0.12530167378E+04  0.98390551837E+03 0.  0.
         23    2    4    4    0    0 -0.19323912320E+03  0.18193677162E+03 -0.72296459776E+02  0.29515847134E+03  0.10700185749E+03 0.  0.
         23    2    4    4    0    0  0.22250462523E+03 -0.50663119877E+03  0.77635465024E+03  0.95785826648E+03  0.92641437270E+02 0.  0.
          2    1    3    3  502    0 -0.84916187537E+01  0.54120986370E+02 -0.12012414582E+03  0.13202650932E+03  0.00000000000E+00 0. -1.
         -1    1    3    3    0  502 -0.20773883273E+02  0.27057344078E+03 -0.27440907060E+03  0.38592988885E+03  0.00000000000E+00 0.  1.
         11    1    5    5    0    0  0.77801609947E+01  0.30044539114E+02 -0.22496972938E+02  0.38331697419E+02  0.00000000000E+00 0. -1.
        -11    1    5    5    0    0 -0.20101928420E+03  0.15189223251E+03 -0.49799486838E+02  0.25682677392E+03  0.00000000000E+00 0.  1.
          3    1    6    6  503    0 -0.65161249300E+00 -0.26603741051E+02  0.71969804527E+02  0.76732238338E+02  0.00000000000E+00 0. -1.
         -3    1    6    6    0  503  0.22315623772E+03 -0.48002745772E+03  0.70438484571E+03  0.88112602814E+03  0.00000000000E+00 0.  1.
<mgrwt>
<rscale>  0 0.17437145E+04</rscale>
<asrwt>0</asrwt>
<pdfrwt beam="1">  1        2 0.16003832E+00 0.17437145E+04</pdfrwt>
<pdfrwt beam="2">  1       -1 0.11241909E+00 0.17437145E+04</pdfrwt>
<totfact> 0.18616887E+01</totfact>
</mgrwt>
</event>
<event>
11    6  0.1705838E-008  0.2068095E+04  0.7818608E-02  0.8575430E-01
         -1   -1    0    0    0  501 -0.00000000000E+00  0.00000000000E+00  0.47450382286E+03  0.47450382286E+03  0.00000000000E+00 0.  1.
          2   -1    0    0  501    0  0.00000000000E+00 -0.00000000000E+00 -0.22534143507E+04  0.22534143507E+04  0.00000000000E+00 0. -1.
         24    2    1    2    0    0  0.65344285571E+03  0.51702333392E+03 -0.82339455482E+03  0.11741563288E+04  0.79773416928E+02 0.  0.
        254    2    1    2    0    0 -0.65344285571E+03 -0.51702333392E+03 -0.95551597304E+03  0.15537618448E+04  0.89825631202E+03 0.  0.
         23    2    4    4    0    0 -0.45991555644E+03 -0.71640670357E+03 -0.55702897753E+03  0.10216335682E+04  0.93236161475E+02 0.  0.
          4    1    3    3  502    0  0.51427066885E+03  0.42278716489E+03 -0.69696600067E+03  0.96383863470E+03  0.00000000000E+00 0. -1.
         -3    1    3    3    0  502  0.13917218686E+03  0.94236169033E+02 -0.12642855415E+03  0.21031769411E+03  0.00000000000E+00 0.  1.
         11    1    4    4    0    0 -0.16425942318E+03  0.22319248726E+02 -0.13740361598E+03  0.21531154323E+03  0.00000000000E+00 0. -1.
        -11    1    4    4    0    0 -0.29267876098E+02  0.17706412092E+03 -0.26108337954E+03  0.31681673340E+03  0.00000000000E+00 0.  1.
          3    1    5    5  503    0 -0.55550166268E+02 -0.15315850049E+03 -0.11300597015E+03  0.19827681794E+03  0.00000000000E+00 0. -1.
         -3    1    5    5    0  503 -0.40436539017E+03 -0.56324820308E+03 -0.44402300738E+03  0.82335675021E+03  0.00000000000E+00 0.  1.
<mgrwt>
<rscale>  0 0.20680945E+04</rscale>
<asrwt>0</asrwt>
<pdfrwt beam="1">  1        2 0.34667913E+00 0.20680945E+04</pdfrwt>
<pdfrwt beam="2">  1       -1 0.73000588E-01 0.20680945E+04</pdfrwt>
<totfact> 0.95850394E+00</totfact>
</mgrwt>
</event>
<event>
11    6  0.1705838E-008  0.1702599E+04  0.7818608E-02  0.8759883E-01
         -1   -1    0    0    0  501 -0.00000000000E+00  0.00000000000E+00  0.24952500441E+03  0.24952500441E+03  0.00000000000E+00 0.  1.
          2   -1    0    0  501    0  0.00000000000E+00 -0.00000000000E+00 -0.29043619841E+04  0.29043619841E+04  0.00000000000E+00 0. -1.
         24    2    1    2    0    0 -0.30618349724E+03  0.19946321222E+03 -0.54743056136E+02  0.37820285543E+03  0.80664060471E+02 0.  0.
        254    2    1    2    0    0  0.30618349724E+03 -0.19946321222E+03 -0.26000939235E+04  0.27756841331E+04  0.90022224381E+03 0.  0.
         23    2    4    4    0    0  0.22589616522E+03 -0.34238385260E+03 -0.45291152738E+03  0.61717843939E+03  0.86744420176E+02 0.  0.
          2    1    3    3  502    0 -0.11367981232E+03  0.11225569502E+03 -0.47768017011E+02  0.16675198423E+03  0.00000000000E+00 0. -1.
         -1    1    3    3    0  502 -0.19250368492E+03  0.87207517198E+02 -0.69750391248E+01  0.21145087121E+03  0.00000000000E+00 0.  1.
         11    1    4    4    0    0  0.85656173729E+02  0.11536848294E+02 -0.68721527633E+03  0.69262898798E+03  0.00000000000E+00 0. -1.
        -11    1    4    4    0    0 -0.53688417130E+01  0.13138379209E+03 -0.14599671198E+04  0.14658767057E+04  0.00000000000E+00 0.  1.
          1    1    5    5  503    0  0.73753133274E+02 -0.14004625567E+03 -0.11836134594E+03  0.19764080198E+03  0.00000000000E+00 0. -1.
         -1    1    5    5    0  503  0.15214303195E+03 -0.20233759693E+03 -0.33455018144E+03  0.41953763741E+03  0.00000000000E+00 0.  1.
<mgrwt>
<rscale>  0 0.17025991E+04</rscale>
<asrwt>0</asrwt>
<pdfrwt beam="1">  1        2 0.44682497E+00 0.17025991E+04</pdfrwt>
<pdfrwt beam="2">  1       -1 0.38388458E-01 0.17025991E+04</pdfrwt>
<totfact> 0.14259264E+01</totfact>
</mgrwt>
</event>
<event>
12    6  0.1705838E-008  0.2194144E+04  0.7818608E-02  0.8520870E-01
          2   -1    0    0  501    0  0.00000000000E+00  0.00000000000E+00  0.14916900807E+04  0.14916900807E+04  0.00000000000E+00 0. -1.
         -1   -1    0    0    0  501 -0.00000000000E+00 -0.00000000000E+00 -0.80684774659E+03  0.80684774659E+03  0.00000000000E+00 0.  1.
         24    2    1    2    0    0  0.15168398998E+03 -0.57444052466E+02  0.12251287901E+04  0.12381938140E+04  0.76651918175E+02 0.  0.
        254    2    1    2    0    0 -0.15168398998E+03  0.57444052466E+02 -0.54028645600E+03  0.10603440133E+04  0.89783746865E+03 0.  0.
         23    2    4    4    0    0  0.36223678454E+03  0.87303280300E+02 -0.19479446008E+03  0.43333241667E+03  0.10485585742E+03 0.  0.
         23    2    4    4    0    0 -0.51392077452E+03 -0.29859227834E+02 -0.34549199592E+03  0.62701159667E+03  0.93662624016E+02 0.  0.
          2    1    3    3  502    0  0.11207987204E+03 -0.68188228516E+02  0.10579047820E+04  0.10660084708E+04  0.00000000000E+00 0. -1.
         -3    1    3    3    0  502  0.39604117935E+02  0.10744176050E+02  0.16722400816E+03  0.17218534311E+03  0.00000000000E+00 0.  1.
         11    1    5    5    0    0  0.30907792251E+03  0.10975083404E+03 -0.17830293805E+03  0.37331802189E+03  0.00000000000E+00 0. -1.
        -11    1    5    5    0    0  0.53158862037E+02 -0.22447553741E+02 -0.16491522035E+02  0.60014394782E+02  0.00000000000E+00 0.  1.
          2    1    6    6  503    0 -0.12061168729E+03 -0.41472240466E+02 -0.60498685275E+02  0.14116379409E+03  0.00000000000E+00 0. -1.
         -2    1    6    6    0  503 -0.39330908723E+03  0.11613012633E+02 -0.28499331065E+03  0.48584780258E+03  0.00000000000E+00 0.  1.
<mgrwt>
<rscale>  0 0.21941438E+04</rscale>
<asrwt>0</asrwt>
<pdfrwt beam="1">  1        2 0.22949078E+00 0.21941438E+04</pdfrwt>
<pdfrwt beam="2">  1       -1 0.12413042E+00 0.21941438E+04</pdfrwt>
<totfact> 0.76128324E+00</totfact>
</mgrwt>
</event>
<event>
12    6  0.1705838E-008  0.1270488E+04  0.7818608E-02  0.9053301E-01
          2   -1    0    0  501    0  0.00000000000E+00  0.00000000000E+00  0.16700190934E+04  0.16700190934E+04  0.00000000000E+00 0. -1.
         -1   -1    0    0    0  501 -0.00000000000E+00 -0.00000000000E+00 -0.24163509083E+03  0.24163509083E+03  0.00000000000E+00 0.  1.
         24    2    1    2    0    0  0.25986504404E+02 -0.87437172951E+02 -0.86618093628E+02  0.14093382974E+03  0.63553855880E+02 0.  0.
        254    2    1    2    0    0 -0.25986504404E+02  0.87437172951E+02  0.15150020962E+04  0.17707203545E+04  0.91208479032E+03 0.  0.
         23    2    4    4    0    0 -0.31925189436E+03  0.73248345908E+02  0.14046564397E+04  0.14444221144E+04  0.77514119318E+02 0.  0.
         23    2    4    4    0    0  0.29326538996E+03  0.14188827042E+02  0.11034565650E+03  0.32629824011E+03  0.89935898461E+02 0.  0.
          4    1    3    3  502    0 -0.16344082557E+02 -0.45262969964E+01 -0.66703929196E+01  0.18223900264E+02  0.00000000000E+00 0. -1.
         -3    1    3    3    0  502  0.42330586960E+02 -0.82910875954E+02 -0.79947700709E+02  0.12270992948E+03  0.00000000000E+00 0.  1.
         11    1    5    5    0    0 -0.17730833710E+03  0.32197946036E+02  0.92999170547E+03  0.94729062403E+03  0.00000000000E+00 0.  1.
        -11    1    5    5    0    0 -0.14194355726E+03  0.41050399872E+02  0.47466473427E+03  0.49713149039E+03  0.00000000000E+00 0. -1.
          1    1    6    6  503    0  0.25075552040E+03 -0.21087933254E+02  0.85998551279E+02  0.26593003359E+03  0.00000000000E+00 0. -1.
         -1    1    6    6    0  503  0.42509869560E+02  0.35276760297E+02  0.24347105218E+02  0.60368206529E+02  0.00000000000E+00 0.  1.
<mgrwt>
<rscale>  0 0.12704884E+04</rscale>
<asrwt>0</asrwt>
<pdfrwt beam="1">  1        2 0.25692601E+00 0.12704884E+04</pdfrwt>
<pdfrwt beam="2">  1       -1 0.37174630E-01 0.12704884E+04</pdfrwt>
<totfact> 0.79362218E+01</totfact>
</mgrwt>
</event>
<event>
12    6  0.1705838E-008  0.1397994E+04  0.7818608E-02  0.8955272E-01
         -1   -1    0    0    0  501 -0.00000000000E+00  0.00000000000E+00  0.13168265206E+03  0.13168265206E+03  0.00000000000E+00 0.  1.
          2   -1    0    0  501    0  0.00000000000E+00 -0.00000000000E+00 -0.37104138624E+04  0.37104138624E+04  0.00000000000E+00 0. -1.
         24    2    1    2    0    0 -0.27305567125E+03 -0.35457841091E+02 -0.18263911343E+04  0.18489113384E+04  0.83378076104E+02 0.  0.
        254    2    1    2    0    0  0.27305567125E+03  0.35457841091E+02 -0.17523400761E+04  0.19931851761E+04  0.90899655998E+03 0.  0.
         23    2    4    4    0    0 -0.40904022429E+02 -0.29067359949E+03 -0.20122144287E+03  0.37494399488E+03  0.11801970062E+03 0.  0.
         23    2    4    4    0    0  0.31395969368E+03  0.32613144058E+03 -0.15511186332E+04  0.16182411813E+04  0.88335160967E+02 0.  0.
          2    1    3    3  502    0 -0.27831749717E+02 -0.11530018214E+02 -0.42173500507E+03  0.42280960504E+03  0.00000000000E+00 0. -1.
         -1    1    3    3    0  502 -0.24522392154E+03 -0.23927822877E+02 -0.14046561292E+04  0.14261017333E+04  0.00000000000E+00 0.  1.
         11    1    5    5    0    0  0.97501356758E+01 -0.15229203125E+03 -0.42606667480E+02  0.15844007082E+03  0.00000000000E+00 0.  1.
        -11    1    5    5    0    0 -0.50654158104E+02 -0.13838156824E+03 -0.15861477539E+03  0.21650392406E+03  0.00000000000E+00 0. -1.
          3    1    6    6  503    0  0.16346606342E+03  0.17252035012E+03 -0.65825490325E+03  0.69984565638E+03  0.00000000000E+00 0. -1.
         -3    1    6    6    0  503  0.15049363026E+03  0.15361109046E+03 -0.89286372994E+03  0.91839552488E+03  0.00000000000E+00 0.  1.
<mgrwt>
<rscale>  0 0.13979945E+04</rscale>
<asrwt>0</asrwt>
<pdfrwt beam="1">  1        2 0.57083287E+00 0.13979945E+04</pdfrwt>
<pdfrwt beam="2">  1       -1 0.20258871E-01 0.13979945E+04</pdfrwt>
<totfact> 0.13002570E+01</totfact>
</mgrwt>
</event>
<event>
11    6  0.1705838E-008  0.1939503E+04  0.7818608E-02  0.8635439E-01
          2   -1    0    0  501    0  0.00000000000E+00  0.00000000000E+00  0.30869689924E+04  0.30869689924E+04  0.00000000000E+00 0. -1.
         -1   -1    0    0    0  501 -0.00000000000E+00 -0.00000000000E+00 -0.30464123734E+03  0.30464123734E+03  0.00000000000E+00 0.  1.
         24    2    1    2    0    0 -0.30594934228E+03  0.88999436405E+02 -0.10967735312E+03  0.34602566889E+03  0.78604974537E+02 0.  0.
        254    2    1    2    0    0  0.30594934228E+03 -0.88999436405E+02  0.28920051081E+04  0.30455845608E+04  0.90020323917E+03 0.  0.
         23    2    4    4    0    0  0.55288806776E+03 -0.48239427066E+02  0.25020915616E+04  0.25645772791E+04  0.92640057107E+02 0.  0.
          2    1    3    3  502    0 -0.14441960157E+03  0.70119791577E+02 -0.24373527661E+02  0.16238188119E+03  0.00000000000E+00 0. -1.
         -1    1    3    3    0  502 -0.16152974071E+03  0.18879644828E+02 -0.85303825462E+02  0.18364378770E+03  0.00000000000E+00 0.  1.
         11    1    4    4    0    0 -0.57752120806E+01  0.13872422272E+02  0.94839597614E+02  0.96022635091E+02  0.00000000000E+00 0.  1.
        -11    1    4    4    0    0 -0.24116351340E+03 -0.54632431611E+02  0.29507394894E+03  0.38498464661E+03  0.00000000000E+00 0. -1.
          4    1    5    5  503    0  0.36464097466E+03  0.91530249729E+01  0.15469129041E+04  0.15893351916E+04  0.00000000000E+00 0. -1.
         -4    1    5    5    0  503  0.18824709311E+03 -0.57392452038E+02  0.95517865745E+03  0.97524208752E+03  0.00000000000E+00 0.  1.
<mgrwt>
<rscale>  0 0.19395031E+04</rscale>
<asrwt>0</asrwt>
<pdfrwt beam="1">  1        2 0.47491828E+00 0.19395031E+04</pdfrwt>
<pdfrwt beam="2">  1       -1 0.46867885E-01 0.19395031E+04</pdfrwt>
<totfact> 0.74213354E+00</totfact>
</mgrwt>
</event>
<event>
12    6  0.1705838E-008  0.2530260E+04  0.7818608E-02  0.8392284E-01
         -1   -1    0    0    0  501 -0.00000000000E+00  0.00000000000E+00  0.10640813386E+04  0.10640813386E+04  0.00000000000E+00 0.  1.
          2   -1    0    0  501    0  0.00000000000E+00 -0.00000000000E+00 -0.15041649001E+04  0.15041649001E+04  0.00000000000E+00 0. -1.
         24    2    1    2    0    0  0.11950164949E+03  0.64991263962E+03 -0.10909566397E+04  0.12779517819E+04  0.79418410330E+02 0.  0.
        254    2    1    2    0    0 -0.11950164949E+03 -0.64991263962E+03  0.65087307808E+03  0.12902944568E+04  0.89697097949E+03 0.  0.
         23    2    4    4    0    0 -0.19474178021E+03 -0.85302127038E+03  0.49744570390E+03  0.10089274873E+04  0.70091352249E+02 0.  0.
         23    2    4    4    0    0  0.75240130723E+02  0.20310863075E+03  0.15342737419E+03  0.28136696946E+03  0.93344625976E+02 0.  0.
          4    1    3    3  502    0  0.13036928748E+03  0.56250588544E+03 -0.94031140491E+03  0.11034466731E+04  0.00000000000E+00 0. -1.
         -3    1    3    3    0  502 -0.10867637991E+02  0.87406754179E+02 -0.15064523474E+03  0.17450510876E+03  0.00000000000E+00 0.  1.
         11    1    5    5    0    0 -0.23572996605E+02 -0.24163558337E+03  0.14423007985E+03  0.28239291290E+03  0.00000000000E+00 0. -1.
        -11    1    5    5    0    0 -0.17116878361E+03 -0.61138568700E+03  0.35321562404E+03  0.72653457442E+03  0.00000000000E+00 0.  1.
          2    1    6    6  503    0 -0.83148107638E+01  0.10123848605E+03  0.46654873276E+02  0.11178123428E+03  0.00000000000E+00 0. -1.
         -2    1    6    6    0  503  0.83554941487E+02  0.10187014470E+03  0.10677250091E+03  0.16958573519E+03  0.00000000000E+00 0.  1.
<mgrwt>
<rscale>  0 0.25302599E+04</rscale>
<asrwt>0</asrwt>
<pdfrwt beam="1">  1        2 0.23140999E+00 0.25302599E+04</pdfrwt>
<pdfrwt beam="2">  1       -1 0.16370482E+00 0.25302599E+04</pdfrwt>
<totfact> 0.35058593E+00</totfact>
</mgrwt>
</event>
<event>
12    6  0.1705838E-008  0.1308679E+04  0.7818608E-02  0.9022711E-01
          2   -1    0    0  501    0  0.00000000000E+00  0.00000000000E+00  0.17508068628E+04  0.17508068628E+04  0.00000000000E+00 0. -1.
         -1   -1    0    0    0  501 -0.00000000000E+00 -0.00000000000E+00 -0.24455022022E+03  0.24455022022E+03  0.00000000000E+00 0.  1.
         24    2    1    2    0    0 -0.35145294514E+02  0.44982343036E+02 -0.10735779196E+03  0.14508431070E+03  0.79152756141E+02 0.  0.
        254    2    1    2    0    0  0.35145294514E+02 -0.44982343036E+02  0.16136144346E+04  0.18502727724E+04  0.90360344496E+03 0.  0.
         23    2    4    4    0    0  0.73738501953E+02 -0.34322284935E+03  0.14505888889E+04  0.14974897530E+04  0.12258933397E+03 0.  0.
         23    2    4    4    0    0 -0.38593207439E+02  0.29824050632E+03  0.16302554568E+03  0.35278301934E+03  0.86265259079E+02 0.  0.
          2    1    3    3  502    0 -0.29643205059E+02  0.86431287370E+01  0.76351157182E+00  0.30886991282E+02  0.00000000000E+00 0. -1.
         -1    1    3    3    0  502 -0.55020894547E+01  0.36339214299E+02 -0.10812130353E+03  0.11419731942E+03  0.00000000000E+00 0.  1.
         11    1    5    5    0    0 -0.29046609628E+02 -0.47140670044E+02  0.29508664275E+03  0.30023669835E+03  0.00000000000E+00 0. -1.
        -11    1    5    5    0    0  0.10278511158E+03 -0.29608217931E+03  0.11555022461E+04  0.11972530547E+04  0.00000000000E+00 0.  1.
          1    1    6    6  503    0  0.17818640802E+02  0.18387695110E+03  0.85681684016E+02  0.20364083108E+03  0.00000000000E+00 0. -1.
         -1    1    6    6    0  503 -0.56411848241E+02  0.11436355522E+03  0.77343861661E+02  0.14914218827E+03  0.00000000000E+00 0.  1.
<mgrwt>
<rscale>  0 0.13086790E+04</rscale>
<asrwt>0</asrwt>
<pdfrwt beam="1">  1        2 0.26935489E+00 0.13086790E+04</pdfrwt>
<pdfrwt beam="2">  1       -1 0.37623112E-01 0.13086790E+04</pdfrwt>
<totfact> 0.69845700E+01</totfact>
</mgrwt>
</event>
<event>
12    6  0.1705838E-008  0.2570314E+04  0.7818608E-02  0.8378355E-01
          2   -1    0    0  501    0  0.00000000000E+00  0.00000000000E+00  0.31563617318E+04  0.31563617318E+04  0.00000000000E+00 0. -1.
         -1   -1    0    0    0  501 -0.00000000000E+00 -0.00000000000E+00 -0.52326981707E+03  0.52326981707E+03  0.00000000000E+00 0.  1.
         24    2    1    2    0    0 -0.62534508446E+03 -0.92985344681E+03  0.10571799500E+04  0.15426931131E+04  0.81170730008E+02 0.  0.
        254    2    1    2    0    0  0.62534508446E+03  0.92985344681E+03  0.15759119648E+04  0.21369384358E+04  0.90957322431E+03 0.  0.
         23    2    4    4    0    0 -0.82074540690E+02  0.62629507373E+03  0.49026392594E+03  0.80292822555E+03  0.73166035132E+02 0.  0.
         23    2    4    4    0    0  0.70741962515E+03  0.30355837308E+03  0.10856480388E+04  0.13340102102E+04  0.91440499012E+02 0.  0.
          2    1    3    3  502    0 -0.23425236270E+03 -0.35550732163E+03  0.34848095709E+03  0.55018051821E+03  0.00000000000E+00 0. -1.
         -1    1    3    3    0  502 -0.39109272176E+03 -0.57434612518E+03  0.70869899288E+03  0.99251259490E+03  0.00000000000E+00 0.  1.
         11    1    5    5    0    0 -0.72071313187E+02  0.55750968597E+03  0.40460726183E+03  0.69261703737E+03  0.00000000000E+00 0.  1.
        -11    1    5    5    0    0 -0.10003227504E+02  0.68785387757E+02  0.85656664116E+02  0.11031118818E+03  0.00000000000E+00 0. -1.
          1    1    6    6  503    0  0.56302235034E+02  0.39408212434E+02  0.63011370385E+02  0.93238305834E+02  0.00000000000E+00 0. -1.
         -1    1    6    6    0  503  0.65111739011E+03  0.26415016064E+03  0.10226366685E+04  0.12407719044E+04  0.00000000000E+00 0.  1.
<mgrwt>
<rscale>  0 0.25703142E+04</rscale>
<asrwt>0</asrwt>
<pdfrwt beam="1">  1        2 0.48559410E+00 0.25703142E+04</pdfrwt>
<pdfrwt beam="2">  1       -1 0.80503051E-01 0.25703142E+04</pdfrwt>
<totfact> 0.21486575E+00</totfact>
</mgrwt>
</event>
<event>
11    6  0.1705838E-008  0.2996299E+04  0.7818608E-02  0.8244789E-01
          2   -1    0    0  501    0  0.00000000000E+00  0.00000000000E+00  0.24428048089E+04  0.24428048089E+04  0.00000000000E+00 0. -1.
         -1   -1    0    0    0  501 -0.00000000000E+00 -0.00000000000E+00 -0.91880087720E+03  0.91880087720E+03  0.00000000000E+00 0.  1.
         24    2    1    2    0    0 -0.40137163541E+03  0.91671446763E+03 -0.33913448650E+03  0.10598887028E+04  0.82989502277E+02 0.  0.
        254    2    1    2    0    0  0.40137163541E+03 -0.91671446763E+03  0.18631384182E+04  0.23017169833E+04  0.90837861103E+03 0.  0.
         23    2    4    4    0    0  0.50068710178E+03 -0.49275299666E+03  0.13046597082E+04  0.14844500194E+04  0.89229009606E+02 0.  0.
          2    1    3    3  502    0 -0.31418447154E+03  0.71649851905E+03 -0.22824313774E+03  0.81497051474E+03  0.00000000000E+00 0. -1.
         -1    1    3    3    0  502 -0.87187163867E+02  0.20021594857E+03 -0.11089134877E+03  0.24491818805E+03  0.00000000000E+00 0.  1.
         11    1    4    4    0    0  0.26034444536E+02 -0.43130646654E+03  0.28860249445E+03  0.51960991155E+03  0.00000000000E+00 0. -1.
        -11    1    4    4    0    0 -0.12534991090E+03  0.73449955659E+01  0.26987621551E+03  0.29765705236E+03  0.00000000000E+00 0.  1.
          4    1    5    5  503    0  0.45202660722E+03 -0.41854674152E+03  0.11839374118E+04  0.13346225022E+04  0.00000000000E+00 0. -1.
         -4    1    5    5    0  503  0.48660494560E+02 -0.74206255136E+02  0.12072229645E+03  0.14982751714E+03  0.00000000000E+00 0.  1.
<mgrwt>
<rscale>  0 0.29962985E+04</rscale>
<asrwt>0</asrwt>
<pdfrwt beam="1">  1        2 0.37581612E+00 0.29962985E+04</pdfrwt>
<pdfrwt beam="2">  1       -1 0.14135398E+00 0.29962985E+04</pdfrwt>
<totfact> 0.14940732E+00</totfact>
</mgrwt>
</event>
<event>
11    6  0.1705838E-008  0.1983161E+04  0.7818608E-02  0.8614534E-01
          2   -1    0    0  501    0  0.00000000000E+00  0.00000000000E+00  0.16887989642E+04  0.16887989642E+04  0.00000000000E+00 0. -1.
         -1   -1    0    0    0  501 -0.00000000000E+00 -0.00000000000E+00 -0.58220806249E+03  0.58220806249E+03  0.00000000000E+00 0.  1.
         24    2    1    2    0    0  0.45902217109E+03 -0.41604463956E+03 -0.11559515232E+03  0.63511578117E+03  0.78837304624E+02 0.  0.
        254    2    1    2    0    0 -0.45902217109E+03  0.41604463956E+03  0.12221860540E+04  0.16358912455E+04  0.89364809675E+03 0.  0.
         23    2    4    4    0    0  0.34909183372E+02  0.30005786096E+03  0.13370326264E+02  0.31657759061E+03  0.93750915963E+02 0.  0.
          2    1    3    3  502    0  0.15323526399E+02 -0.48158467323E+01  0.75502074085E+01  0.17748478046E+02  0.00000000000E+00 0. -1.
         -1    1    3    3    0  502  0.44369864469E+03 -0.41122879283E+03 -0.12314535973E+03  0.61736730313E+03  0.00000000000E+00 0.  1.
         11    1    4    4    0    0 -0.22255664457E+03  0.48258956303E+02  0.73103172745E+03  0.76568124794E+03  0.00000000000E+00 0. -1.
        -11    1    4    4    0    0 -0.27137470990E+03  0.67727822294E+02  0.47778400033E+03  0.55363240698E+03  0.00000000000E+00 0.  1.
          1    1    5    5  503    0  0.20452735698E+02  0.29888520677E+03  0.20754340268E+02  0.30030222087E+03  0.00000000000E+00 0. -1.
         -1    1    5    5    0  503  0.14456447675E+02  0.11726541931E+01 -0.73840140036E+01  0.16275369736E+02  0.00000000000E+00 0.  1.
<mgrwt>
<rscale>  0 0.19831615E+04</rscale>
<asrwt>0</asrwt>
<pdfrwt beam="1">  1        2 0.25981522E+00 0.19831615E+04</pdfrwt>
<pdfrwt beam="2">  1       -1 0.89570472E-01 0.19831615E+04</pdfrwt>
<totfact> 0.12868971E+01</totfact>
</mgrwt>
</event>
<event>
12    6  0.1705838E-008  0.2318947E+04  0.7818608E-02  0.8470488E-01
         -1   -1    0    0    0  501 -0.00000000000E+00  0.00000000000E+00  0.98236289869E+03  0.98236289869E+03  0.00000000000E+00 0.  1.
          2   -1    0    0  501    0  0.00000000000E+00 -0.00000000000E+00 -0.13685154609E+04  0.13685154609E+04  0.00000000000E+00 0. -1.
         24    2    1    2    0    0  0.13808409863E+03  0.35574198888E+03 -0.10812654758E+04  0.11485544607E+04  0.66503677424E+02 0.  0.
        254    2    1    2    0    0 -0.13808409863E+03 -0.35574198888E+03  0.69511291360E+03  0.12023238989E+04  0.90375948915E+03 0.  0.
         23    2    4    4    0    0 -0.16821052290E+03 -0.13499780138E+02 -0.17247867063E+03  0.26466253092E+03  0.10872138416E+03 0.  0.
         23    2    4    4    0    0  0.30126424267E+02 -0.34224220874E+03  0.86759158422E+03  0.93766136797E+03  0.91958431268E+02 0.  0.
          2    1    3    3  502    0  0.12758067125E+03  0.25036360490E+03 -0.80958705191E+03  0.85696555179E+03  0.00000000000E+00 0. -1.
         -1    1    3    3    0  502  0.10503427379E+02  0.10537838398E+03 -0.27167842387E+03  0.29158890890E+03  0.00000000000E+00 0.  1.
         11    1    5    5    0    0 -0.11590954514E+03  0.12148120030E+02 -0.17031266577E+03  0.20637103382E+03  0.00000000000E+00 0. -1.
        -11    1    5    5    0    0 -0.52300977756E+02 -0.25647900168E+02 -0.21660048514E+01  0.58291497101E+02  0.00000000000E+00 0.  1.
          4    1    6    6  503    0 -0.31960610650E+02 -0.86238921687E+02  0.20900188762E+03  0.22834277145E+03  0.00000000000E+00 0. -1.
         -4    1    6    6    0  503  0.62087034917E+02 -0.25600328705E+03  0.65858969661E+03  0.70931859651E+03  0.00000000000E+00 0.  1.
<mgrwt>
<rscale>  0 0.23189470E+04</rscale>
<asrwt>0</asrwt>
<pdfrwt beam="1">  1        2 0.21054084E+00 0.23189470E+04</pdfrwt>
<pdfrwt beam="2">  1       -1 0.15113275E+00 0.23189470E+04</pdfrwt>
<totfact> 0.53200515E+00</totfact>
</mgrwt>
</event>
<event>
11    6  0.1705838E-008  0.1137822E+04  0.7818608E-02  0.9169092E-01
          2   -1    0    0  501    0  0.00000000000E+00  0.00000000000E+00  0.18849564005E+03  0.18849564005E+03  0.00000000000E+00 0. -1.
         -1   -1    0    0    0  501 -0.00000000000E+00 -0.00000000000E+00 -0.17170672556E+04  0.17170672556E+04  0.00000000000E+00 0.  1.
         24    2    1    2    0    0 -0.16474811483E+03  0.68154559283E+02 -0.43891648464E+03  0.48048831027E+03  0.80214403459E+02 0.  0.
        254    2    1    2    0    0  0.16474811483E+03 -0.68154559283E+02 -0.10896551309E+04  0.14250745853E+04  0.90094521713E+03 0.  0.
         23    2    4    4    0    0 -0.66206712695E+02 -0.27065746930E+03 -0.52978276764E+03  0.60537783764E+03  0.90408798978E+02 0.  0.
          4    1    3    3  502    0 -0.28059943868E+02  0.15703377449E+02 -0.22939911126E+02  0.39499316901E+02  0.00000000000E+00 0. -1.
         -3    1    3    3    0  502 -0.13668817097E+03  0.52451181834E+02 -0.41597657352E+03  0.44098899337E+03  0.00000000000E+00 0.  1.
         11    1    4    4    0    0 -0.21801465790E+02  0.16058123227E+03 -0.53877655469E+03  0.56262048661E+03  0.00000000000E+00 0. -1.
        -11    1    4    4    0    0  0.25275629332E+03  0.41921677743E+02 -0.21095808541E+02  0.25707626109E+03  0.00000000000E+00 0.  1.
          1    1    5    5  503    0  0.14233551375E+02 -0.62587522464E+02 -0.74186194662E+02  0.98098845209E+02  0.00000000000E+00 0. -1.
         -1    1    5    5    0  503 -0.80440264070E+02 -0.20806994684E+03 -0.45559657297E+03  0.50727899244E+03  0.00000000000E+00 0.  1.
<mgrwt>
<rscale>  0 0.11378219E+04</rscale>
<asrwt>0</asrwt>
<pdfrwt beam="1">  1        2 0.28999329E-01 0.11378219E+04</pdfrwt>
<pdfrwt beam="2">  1       -1 0.26416420E+00 0.11378219E+04</pdfrwt>
<totfact> 0.11918011E+01</totfact>
</mgrwt>
</event>
<event>
12    6  0.1705838E-008  0.1735133E+04  0.7818608E-02  0.8741577E-01
          2   -1    0    0  501    0  0.00000000000E+00  0.00000000000E+00  0.58667625271E+03  0.58667625271E+03  0.00000000000E+00 0. -1.
         -1   -1    0    0    0  501 -0.00000000000E+00 -0.00000000000E+00 -0.12829421031E+04  0.12829421031E+04  0.00000000000E+00 0.  1.
         24    2    1    2    0    0 -0.72509648614E+02  0.56930018033E+03 -0.46067324341E+03  0.74032592254E+03  0.80636777831E+02 0.  0.
        254    2    1    2    0    0  0.72509648614E+02 -0.56930018033E+03 -0.23559260700E+03  0.11292924333E+04  0.94362978914E+03 0.  0.
         23    2    4    4    0    0  0.16248921261E+02 -0.52442917180E+03 -0.56559661216E+03  0.77880842895E+03  0.10655072800E+03 0.  0.
         23    2    4    4    0    0  0.56260727353E+02 -0.44871008532E+02  0.33000400516E+03  0.35048400434E+03  0.93582674822E+02 0.  0.
          4    1    3    3  502    0 -0.43627744787E+02  0.16328977984E+03 -0.17324938292E+03  0.24203776771E+03  0.00000000000E+00 0. -1.
         -3    1    3    3    0  502 -0.28881903828E+02  0.40601040049E+03 -0.28742386048E+03  0.49828815484E+03  0.00000000000E+00 0.  1.
         11    1    5    5    0    0 -0.29982965388E+02 -0.12562532264E+03 -0.18485278178E+03  0.22550221913E+03  0.00000000000E+00 0.  1.
        -11    1    5    5    0    0  0.46231886650E+02 -0.39880384916E+03 -0.38074383038E+03  0.55330620981E+03  0.00000000000E+00 0. -1.
          1    1    6    6  503    0  0.23363944051E+02  0.15641373499E+02  0.21194929245E+03  0.21380605468E+03  0.00000000000E+00 0. -1.
         -1    1    6    6    0  503  0.32896783302E+02 -0.60512382031E+02  0.11805471271E+03  0.13667794966E+03  0.00000000000E+00 0.  1.
<mgrwt>
<rscale>  0 0.17351330E+04</rscale>
<asrwt>0</asrwt>
<pdfrwt beam="1">  1        2 0.90257887E-01 0.17351330E+04</pdfrwt>
<pdfrwt beam="2">  1       -1 0.19737570E+00 0.17351330E+04</pdfrwt>
<totfact> 0.86683980E+00</totfact>
</mgrwt>
</event>
<event>
12    6  0.1705838E-008  0.2981326E+04  0.7818608E-02  0.8249084E-01
          2   -1    0    0  501    0  0.00000000000E+00  0.00000000000E+00  0.84165940142E+03  0.84165940142E+03  0.00000000000E+00 0. -1.
         -1   -1    0    0    0  501 -0.00000000000E+00 -0.00000000000E+00 -0.26401125180E+04  0.26401125180E+04  0.00000000000E+00 0.  1.
         24    2    1    2    0    0  0.52804585899E+03  0.12162946639E+04 -0.11261098372E+04  0.17414180202E+04  0.78792239208E+02 0.  0.
        254    2    1    2    0    0 -0.52804585899E+03 -0.12162946639E+04 -0.67234327945E+03  0.17403538993E+04  0.90475470195E+03 0.  0.
         23    2    4    4    0    0  0.69756382699E+02 -0.92709341451E+02 -0.40055310931E+03  0.43568508072E+03  0.12616545192E+03 0.  0.
         23    2    4    4    0    0 -0.59780224169E+03 -0.11235853225E+04 -0.27179017014E+03  0.13046688186E+04  0.92083291433E+02 0.  0.
          2    1    3    3  502    0  0.43419635390E+02  0.16611333049E+03 -0.14336417144E+03  0.22367876286E+03  0.00000000000E+00 0. -1.
         -1    1    3    3    0  502  0.48462622360E+03  0.10501813334E+04 -0.98274566573E+03  0.15177392573E+04  0.00000000000E+00 0.  1.
         11    1    5    5    0    0 -0.18819003033E+02 -0.17190236112E+02 -0.87361440580E+01  0.26944003150E+02  0.00000000000E+00 0. -1.
        -11    1    5    5    0    0  0.88575385732E+02 -0.75519105339E+02 -0.39181696526E+03  0.40874107757E+03  0.00000000000E+00 0.  1.
          1    1    6    6  503    0 -0.62073443958E+02 -0.17999423662E+03 -0.54697855328E+02  0.19809819040E+03  0.00000000000E+00 0. -1.
         -1    1    6    6    0  503 -0.53572879773E+03 -0.94359108584E+03 -0.21709231481E+03  0.11065706282E+04  0.00000000000E+00 0.  1.
<mgrwt>
<rscale>  0 0.29813256E+04</rscale>
<asrwt>0</asrwt>
<pdfrwt beam="1">  1        2 0.12948606E+00 0.29813256E+04</pdfrwt>
<pdfrwt beam="2">  1       -1 0.40617116E+00 0.29813256E+04</pdfrwt>
<totfact> 0.20390021E-01</totfact>
</mgrwt>
</event>
<event>
11    6  0.2750524E-008  0.1376215E+04  0.7818608E-02  0.8971218E-01
         -1   -1    0    0    0  501 -0.00000000000E+00  0.00000000000E+00  0.29150479007E+03  0.29150479007E+03  0.00000000000E+00 0.  1.
          2   -1    0    0  501    0  0.00000000000E+00 -0.00000000000E+00 -0.16243015096E+04  0.16243015096E+04  0.00000000000E+00 0. -1.
         24    2    1    2    0    0 -0.11437858997E+03  0.12344436697E+03 -0.88602753655E+03  0.90533685735E+03  0.79177371630E+02 0.  0.
        254    2    1    2    0    0  0.11437858997E+03 -0.12344436697E+03 -0.44676918301E+03  0.10104694423E+04  0.89057555403E+03 0.  0.
         23    2    4    4    0    0 -0.26765195624E+03 -0.31433423834E+03 -0.89040020959E+02  0.43186223692E+03  0.90184717471E+02 0.  0.
          2    1    3    3  502    0 -0.11911437674E+03  0.13080853486E+03 -0.85410968034E+03  0.87223990598E+03  0.00000000000E+00 0. -1.
         -1    1    3    3    0  502  0.47357867665E+01 -0.73641678913E+01 -0.31917856208E+02  0.33096951370E+02  0.00000000000E+00 0.  1.
         11    1    4    4    0    0 -0.13048716184E+02  0.15942797617E+01 -0.25860212128E+02  0.29009675857E+02  0.00000000000E+00 0. -1.
        -11    1    4    4    0    0  0.39507926240E+03  0.18929559161E+03 -0.33186894992E+03  0.54959752957E+03  0.00000000000E+00 0.  1.
          1    1    5    5  503    0 -0.32929395234E+02 -0.73391555091E+02  0.10368078487E+02  0.81105872048E+02  0.00000000000E+00 0. -1.
         -1    1    5    5    0  503 -0.23472256101E+03 -0.24094268325E+03 -0.99408099445E+02  0.35075636487E+03  0.00000000000E+00 0.  1.
<mgrwt>
<rscale>  0 0.13762146E+04</rscale>
<asrwt>0</asrwt>
<pdfrwt beam="1">  1        2 0.24989254E+00 0.13762146E+04</pdfrwt>
<pdfrwt beam="2">  1       -1 0.44846891E-01 0.13762146E+04</pdfrwt>
<totfact> 0.59166461E+01</totfact>
</mgrwt>
</event>
<event>
12    6  0.1705838E-008  0.1520258E+04  0.7818608E-02  0.8871093E-01
          2   -1    0    0  501    0  0.00000000000E+00  0.00000000000E+00  0.14932796553E+04  0.14932796553E+04  0.00000000000E+00 0. -1.
         -1   -1    0    0    0  501 -0.00000000000E+00 -0.00000000000E+00 -0.38693068983E+03  0.38693068983E+03  0.00000000000E+00 0.  1.
         24    2    1    2    0    0 -0.25030223313E+03 -0.41459133841E+03  0.26021143246E+03  0.55558108284E+03  0.80144645650E+02 0.  0.
        254    2    1    2    0    0  0.25030223313E+03  0.41459133841E+03  0.84613753306E+03  0.13246292623E+04  0.89674788653E+03 0.  0.
         23    2    4    4    0    0 -0.90595678345E+02  0.35821987594E+02 -0.14169176325E+03  0.20957588804E+03  0.11981112363E+03 0.  0.
         23    2    4    4    0    0  0.34089791148E+03  0.37876935082E+03  0.98782929631E+03  0.11150533743E+04  0.88654958861E+02 0.  0.
          2    1    3    3  502    0 -0.22757503287E+03 -0.31888776214E+03  0.22003407807E+03  0.44932704787E+03  0.00000000000E+00 0. -1.
         -1    1    3    3    0  502 -0.22727200264E+02 -0.95703576266E+02  0.40177354392E+02  0.10625403497E+03  0.00000000000E+00 0.  1.
         11    1    5    5    0    0 -0.10615298294E+03  0.37619192458E+02 -0.62401958526E+02  0.12875427704E+03  0.00000000000E+00 0.  1.
        -11    1    5    5    0    0  0.15557304595E+02 -0.17972048648E+01 -0.79289804723E+02  0.80821610999E+02  0.00000000000E+00 0. -1.
          2    1    6    6  503    0  0.21109705601E+03  0.18597123196E+03  0.47595450610E+03  0.55288331323E+03  0.00000000000E+00 0. -1.
         -2    1    6    6    0  503  0.12980085547E+03  0.19279811885E+03  0.51187479021E+03  0.56217006107E+03  0.00000000000E+00 0.  1.
<mgrwt>
<rscale>  0 0.15202575E+04</rscale>
<asrwt>0</asrwt>
<pdfrwt beam="1">  1        2 0.22973533E+00 0.15202575E+04</pdfrwt>
<pdfrwt beam="2">  1       -1 0.59527799E-01 0.15202575E+04</pdfrwt>
<totfact> 0.40272141E+01</totfact>
</mgrwt>
</event>
<event>
12    6  0.1705838E-008  0.1286757E+04  0.7818608E-02  0.9040133E-01
         -1   -1    0    0    0  501 -0.00000000000E+00  0.00000000000E+00  0.19858547547E+03  0.19858547547E+03  0.00000000000E+00 0.  1.
          2   -1    0    0  501    0  0.00000000000E+00 -0.00000000000E+00 -0.20844226671E+04  0.20844226671E+04  0.00000000000E+00 0. -1.
         24    2    1    2    0    0  0.28870719293E+03  0.13141677414E+03 -0.37915460621E+03  0.50062861245E+03  0.79047962808E+02 0.  0.
        254    2    1    2    0    0 -0.28870719293E+03 -0.13141677414E+03 -0.15066825855E+04  0.17823795302E+04  0.89786533757E+03 0.  0.
         23    2    4    4    0    0  0.11903147087E+03 -0.48704675483E+02 -0.12934962669E+04  0.13062144171E+04  0.12854133436E+03 0.  0.
         23    2    4    4    0    0 -0.40773866379E+03 -0.82712098656E+02 -0.21318631859E+03  0.47616511303E+03  0.90513530557E+02 0.  0.
          4    1    3    3  502    0  0.20152211123E+02  0.16370591198E+02 -0.58952731273E+01  0.26624464588E+02  0.00000000000E+00 0. -1.
         -3    1    3    3    0  502  0.26855498180E+03  0.11504618294E+03 -0.37325933308E+03  0.47400414787E+03  0.00000000000E+00 0.  1.
         11    1    5    5    0    0  0.48610974066E+02  0.40384199069E+02 -0.32536918017E+03  0.33144986610E+03  0.00000000000E+00 0. -1.
        -11    1    5    5    0    0  0.70420496800E+02 -0.89088874552E+02 -0.96812708671E+03  0.97476455104E+03  0.00000000000E+00 0.  1.
          1    1    6    6  503    0 -0.18265345003E+02 -0.26619830245E+02 -0.16139448027E+02  0.36093212283E+02  0.00000000000E+00 0. -1.
         -1    1    6    6    0  503 -0.38947331879E+03 -0.56092268411E+02 -0.19704687057E+03  0.44007190074E+03  0.00000000000E+00 0.  1.
<mgrwt>
<rscale>  0 0.12867573E+04</rscale>
<asrwt>0</asrwt>
<pdfrwt beam="1">  1        2 0.32068039E+00 0.12867573E+04</pdfrwt>
<pdfrwt beam="2">  1       -1 0.30551613E-01 0.12867573E+04</pdfrwt>
<totfact> 0.66296037E+01</totfact>
</mgrwt>
</event>
<event>
12    6  0.1705838E-008  0.1153498E+04  0.7818608E-02  0.9154562E-01
          2   -1    0    0  501    0  0.00000000000E+00  0.00000000000E+00  0.10979936563E+04  0.10979936563E+04  0.00000000000E+00 0. -1.
         -1   -1    0    0    0  501 -0.00000000000E+00 -0.00000000000E+00 -0.30295211111E+03  0.30295211111E+03  0.00000000000E+00 0.  1.
         24    2    1    2    0    0  0.12228871541E+03 -0.99346280117E+02 -0.19385974374E+02  0.17971161879E+03  0.84239163330E+02 0.  0.
        254    2    1    2    0    0 -0.12228871541E+03  0.99346280117E+02  0.81442751953E+03  0.12212341486E+04  0.89626806693E+03 0.  0.
         23    2    4    4    0    0 -0.43769298510E+03  0.14916798579E+02  0.75163333329E+03  0.87642945869E+03  0.10666896579E+03 0.  0.
         23    2    4    4    0    0  0.31540426969E+03  0.84429481538E+02  0.62794186237E+02  0.34480468989E+03  0.91317980977E+02 0.  0.
          4    1    3    3  502    0  0.94650324327E+02 -0.93860534811E+02  0.16245771393E+02  0.13428480546E+03  0.00000000000E+00 0. -1.
         -3    1    3    3    0  502  0.27638391078E+02 -0.54857453059E+01 -0.35631745767E+02  0.45426813331E+02  0.00000000000E+00 0.  1.
         11    1    5    5    0    0 -0.41904206155E+03 -0.64655615386E+01  0.72553847120E+03  0.83788073496E+03  0.00000000000E+00 0. -1.
        -11    1    5    5    0    0 -0.18650923545E+02  0.21382360117E+02  0.26094862094E+02  0.38548723727E+02  0.00000000000E+00 0.  1.
          1    1    6    6  503    0  0.22832043829E+03  0.86170589784E+02  0.12800462591E+02  0.24437562261E+03  0.00000000000E+00 0. -1.
         -1    1    6    6    0  503  0.87083831405E+02 -0.17411082455E+01  0.49993723646E+02  0.10042906728E+03  0.00000000000E+00 0.  1.
<mgrwt>
<rscale>  0 0.11534982E+04</rscale>
<asrwt>0</asrwt>
<pdfrwt beam="1">  1        2 0.16892210E+00 0.11534982E+04</pdfrwt>
<pdfrwt beam="2">  1       -1 0.46608018E-01 0.11534982E+04</pdfrwt>
<totfact> 0.11299592E+02</totfact>
</mgrwt>
</event>
<event>
11    6  0.1705838E-008  0.2622189E+04  0.7818608E-02  0.8360703E-01
         -1   -1    0    0    0  501 -0.00000000000E+00  0.00000000000E+00  0.18025835700E+04  0.18025835700E+04  0.00000000000E+00 0.  1.
          2   -1    0    0  501    0  0.00000000000E+00 -0.00000000000E+00 -0.95361409795E+03  0.95361409795E+03  0.00000000000E+00 0. -1.
         24    2    1    2    0    0 -0.64182215972E+03 -0.79882092177E+03  0.93599008463E+03  0.13901174197E+04  0.79362789725E+02 0.  0.
        254    2    1    2    0    0  0.64182215972E+03  0.79882092177E+03 -0.87020612626E+02  0.13660802482E+04  0.89919525558E+03 0.  0.
         23    2    4    4    0    0  0.38048973815E+03 -0.43804809867E+02 -0.14950733690E+03  0.42195094255E+03  0.94862278768E+02 0.  0.
          2    1    3    3  502    0 -0.54139634095E+02 -0.99020848450E+02  0.12381577044E+03  0.16753081333E+03  0.00000000000E+00 0. -1.
         -1    1    3    3    0  502 -0.58768252562E+03 -0.69980007332E+03  0.81217431419E+03  0.12225866064E+04  0.00000000000E+00 0.  1.
         11    1    4    4    0    0  0.33008831979E+02  0.62732002487E+03  0.37415268772E+02  0.62930111944E+03  0.00000000000E+00 0. -1.
        -11    1    4    4    0    0  0.22832358959E+03  0.21530570676E+03  0.25071455502E+02  0.31482818617E+03  0.00000000000E+00 0.  1.
          4    1    5    5  503    0  0.34567207603E+02  0.23760773556E+02 -0.12122748796E+02  0.43662652688E+02  0.00000000000E+00 0.  1.
         -4    1    5    5    0  503  0.34592253054E+03 -0.67565583423E+02 -0.13738458810E+03  0.37828828986E+03  0.00000000000E+00 0. -1.
<mgrwt>
<rscale>  0 0.26221892E+04</rscale>
<asrwt>0</asrwt>
<pdfrwt beam="1">  1        2 0.14670986E+00 0.26221892E+04</pdfrwt>
<pdfrwt beam="2">  1       -1 0.27732055E+00 0.26221892E+04</pdfrwt>
<totfact> 0.12589733E+00</totfact>
</mgrwt>
</event>
<event>
11    6  0.1705838E-008  0.1510482E+04  0.7818608E-02  0.8877512E-01
         -1   -1    0    0    0  501 -0.00000000000E+00  0.00000000000E+00  0.34905802045E+03  0.34905802045E+03  0.00000000000E+00 0.  1.
          2   -1    0    0  501    0  0.00000000000E+00 -0.00000000000E+00 -0.16340800301E+04  0.16340800301E+04  0.00000000000E+00 0. -1.
         24    2    1    2    0    0  0.86391878901E+02  0.31585470195E+03  0.61614035013E+02  0.34219159404E+03  0.77916931647E+02 0.  0.
        254    2    1    2    0    0 -0.86391878901E+02 -0.31585470195E+03 -0.13466360447E+04  0.16409464565E+04  0.87866312480E+03 0.  0.
         23    2    4    4    0    0  0.22384077667E+02 -0.16752306481E+03 -0.13969189836E+04  0.14101699680E+04  0.92906769238E+02 0.  0.
          4    1    3    3  502    0  0.17745038646E+02  0.12664150840E+03 -0.10674153019E+02  0.12832340235E+03  0.00000000000E+00 0. -1.
         -3    1    3    3    0  502  0.68646840256E+02  0.18921319355E+03  0.72288188032E+02  0.21386819169E+03  0.00000000000E+00 0.  1.
         11    1    4    4    0    0 -0.37406512544E+02  0.19702059990E+02  0.14832816418E+02  0.44804361300E+02  0.00000000000E+00 0. -1.
        -11    1    4    4    0    0 -0.71369444024E+02 -0.16803369713E+03  0.35450122515E+02  0.18597212721E+03  0.00000000000E+00 0.  1.
          4    1    5    5  503    0 -0.29502728075E+02 -0.75465332697E+02 -0.43667675644E+03  0.44413063058E+03  0.00000000000E+00 0. -1.
         -4    1    5    5    0  503  0.51886805743E+02 -0.92057732112E+02 -0.96024222716E+03  0.96603933743E+03  0.00000000000E+00 0.  1.
<mgrwt>
<rscale>  0 0.15104817E+04</rscale>
<asrwt>0</asrwt>
<pdfrwt beam="1">  1        2 0.25139693E+00 0.15104817E+04</pdfrwt>
<pdfrwt beam="2">  1       -1 0.53701234E-01 0.15104817E+04</pdfrwt>
<totfact> 0.41080405E+01</totfact>
</mgrwt>
</event>
<event>
12    6  0.1705838E-008  0.1385086E+04  0.7818608E-02  0.8964685E-01
         -1   -1    0    0    0  501 -0.00000000000E+00  0.00000000000E+00  0.74332038584E+03  0.74332038584E+03  0.00000000000E+00 0.  1.
          2   -1    0    0  501    0  0.00000000000E+00 -0.00000000000E+00 -0.64523432551E+03  0.64523432551E+03  0.00000000000E+00 0. -1.
         24    2    1    2    0    0 -0.34733717474E+02 -0.16337262084E+03 -0.33033663486E+03  0.37828461606E+03  0.77973803605E+02 0.  0.
        254    2    1    2    0    0  0.34733717474E+02  0.16337262084E+03  0.42842269519E+03  0.10102700953E+04  0.89955689944E+03 0.  0.
         23    2    4    4    0    0  0.37335011784E+03 -0.96161726911E+02  0.41463875639E+03  0.57148130848E+03  0.77641480078E+02 0.  0.
         23    2    4    4    0    0 -0.33861640036E+03  0.25953434775E+03  0.13783938800E+02  0.43878878682E+03  0.10161918229E+03 0.  0.
          4    1    3    3  502    0 -0.48733006097E+02 -0.11955591726E+03 -0.28864590386E+03  0.31620401808E+03  0.00000000000E+00 0. -1.
         -3    1    3    3    0  502  0.13999288623E+02 -0.43816703576E+02 -0.41690731001E+02  0.62080597980E+02  0.00000000000E+00 0.  1.
         11    1    5    5    0    0  0.26075069581E+03 -0.65503840770E+02  0.33791965457E+03  0.43182331047E+03  0.00000000000E+00 0. -1.
        -11    1    5    5    0    0  0.11259942203E+03 -0.30657886142E+02  0.76719101816E+02  0.13965799800E+03  0.00000000000E+00 0.  1.
          1    1    6    6  503    0 -0.26867935942E+03  0.24984688410E+03  0.23235873405E+00  0.36689524072E+03  0.00000000000E+00 0. -1.
         -1    1    6    6    0  503 -0.69937040940E+02  0.96874636487E+01  0.13551580066E+02  0.71893546092E+02  0.00000000000E+00 0.  1.
<mgrwt>
<rscale>  0 0.13850860E+04</rscale>
<asrwt>0</asrwt>
<pdfrwt beam="1">  1        2 0.99266820E-01 0.13850860E+04</pdfrwt>
<pdfrwt beam="2">  1       -1 0.11435698E+00 0.13850860E+04</pdfrwt>
<totfact> 0.35154788E+01</totfact>
</mgrwt>
</event>
<event>
11    6  0.1705838E-008  0.2318047E+04  0.7818608E-02  0.8470839E-01
         -1   -1    0    0    0  501 -0.00000000000E+00  0.00000000000E+00  0.16489744860E+04  0.16489744860E+04  0.00000000000E+00 0.  1.
          2   -1    0    0  501    0  0.00000000000E+00 -0.00000000000E+00 -0.81464895439E+03  0.81464895439E+03  0.00000000000E+00 0. -1.
         24    2    1    2    0    0 -0.34408359206E+01 -0.64246229789E+02  0.13966598276E+04  0.14004632371E+04  0.80617534610E+02 0.  0.
        254    2    1    2    0    0  0.34408359206E+01  0.64246229789E+02 -0.56233429599E+03  0.10631602034E+04  0.89997241078E+03 0.  0.
         23    2    4    4    0    0 -0.33780103887E+03  0.20656410120E+03 -0.11314164298E+03  0.42187244221E+03  0.91635453544E+02 0.  0.
          4    1    3    3  502    0 -0.26597495943E+02 -0.13803662007E+02  0.17529241563E+03  0.17783531385E+03  0.00000000000E+00 0. -1.
         -3    1    3    3    0  502  0.23156660023E+02 -0.50442567782E+02  0.12213674120E+04  0.12226279232E+04  0.00000000000E+00 0.  1.
         11    1    4    4    0    0  0.22601708691E+03 -0.22144527377E+03 -0.28717010925E+03  0.42730364438E+03  0.00000000000E+00 0. -1.
        -11    1    4    4    0    0  0.11522478788E+03  0.79127402351E+02 -0.16202254376E+03  0.21398411677E+03  0.00000000000E+00 0.  1.
          2    1    5    5  503    0 -0.26930154651E+03  0.13601938335E+03 -0.52189154475E+02  0.30618344737E+03  0.00000000000E+00 0. -1.
         -2    1    5    5    0  503 -0.68499492367E+02  0.70544717853E+02 -0.60952488503E+02  0.11568899484E+03  0.00000000000E+00 0.  1.
<mgrwt>
<rscale>  0 0.23180469E+04</rscale>
<asrwt>0</asrwt>
<pdfrwt beam="1">  1        2 0.12533061E+00 0.23180469E+04</pdfrwt>
<pdfrwt beam="2">  1       -1 0.25368838E+00 0.23180469E+04</pdfrwt>
<totfact> 0.22899401E+00</totfact>
</mgrwt>
</event>
<event>
12    6  0.1705838E-008  0.1610288E+04  0.7818608E-02  0.8814252E-01
          2   -1    0    0  501    0  0.00000000000E+00  0.00000000000E+00  0.18282546711E+04  0.18282546711E+04  0.00000000000E+00 0. -1.
         -1   -1    0    0    0  501 -0.00000000000E+00 -0.00000000000E+00 -0.35457702104E+03  0.35457702104E+03  0.00000000000E+00 0.  1.
         24    2    1    2    0    0  0.13607681932E+03 -0.34745445364E+03  0.10388697010E+04  0.11068628054E+04  0.81569087886E+02 0.  0.
        254    2    1    2    0    0 -0.13607681932E+03  0.34745445364E+03  0.43480794906E+03  0.10759688868E+04  0.91071927325E+03 0.  0.
         23    2    4    4    0    0 -0.51046617959E+03  0.11522524851E+03  0.22804631345E+03  0.58042062244E+03  0.10502570860E+03 0.  0.
         23    2    4    4    0    0  0.37438936027E+03  0.23222920513E+03  0.20676163560E+03  0.49554826435E+03  0.93380466611E+02 0.  0.
          4    1    3    3  502    0  0.78546094727E+02 -0.28489331323E+03  0.84481098631E+03  0.89500798405E+03  0.00000000000E+00 0. -1.
         -3    1    3    3    0  502  0.57530724594E+02 -0.62561140408E+02  0.19405871474E+03  0.21185482135E+03  0.00000000000E+00 0.  1.
         11    1    5    5    0    0 -0.29242305765E+03  0.84227093414E+02  0.78701364946E+02  0.31432364333E+03  0.00000000000E+00 0.  1.
        -11    1    5    5    0    0 -0.21804312194E+03  0.30998155093E+02  0.14934494851E+03  0.26609697911E+03  0.00000000000E+00 0. -1.
          3    1    6    6  503    0  0.40457527207E+01  0.21310195324E+02 -0.35404257237E+00  0.21693729185E+02  0.00000000000E+00 0. -1.
         -3    1    6    6    0  503  0.37034360755E+03  0.21091900981E+03  0.20711567817E+03  0.47385453517E+03  0.00000000000E+00 0.  1.
<mgrwt>
<rscale>  0 0.16102883E+04</rscale>
<asrwt>0</asrwt>
<pdfrwt beam="1">  1        2 0.28126994E+00 0.16102883E+04</pdfrwt>
<pdfrwt beam="2">  1       -1 0.54550312E-01 0.16102883E+04</pdfrwt>
<totfact> 0.30838470E+01</totfact>
</mgrwt>
</event>
<event>
12    6  0.1705838E-008  0.1208997E+04  0.7818608E-02  0.9105018E-01
          2   -1    0    0  501    0  0.00000000000E+00  0.00000000000E+00  0.10021140564E+04  0.10021140564E+04  0.00000000000E+00 0. -1.
         -1   -1    0    0    0  501 -0.00000000000E+00 -0.00000000000E+00 -0.36464728190E+03  0.36464728190E+03  0.00000000000E+00 0.  1.
         24    2    1    2    0    0 -0.75082986047E+02 -0.14222266699E+03 -0.75032762911E+02  0.19467411674E+03  0.80020962382E+02 0.  0.
        254    2    1    2    0    0  0.75082986047E+02  0.14222266699E+03  0.71249953744E+03  0.11720872216E+04  0.91666140006E+03 0.  0.
         23    2    4    4    0    0 -0.31755247147E+03 -0.14492205142E+03  0.54146952838E+03  0.64875846818E+03  0.76526640705E+02 0.  0.
         23    2    4    4    0    0  0.39263545752E+03  0.28714471841E+03  0.17103000905E+03  0.52332875341E+03  0.89482000063E+02 0.  0.
          4    1    3    3  502    0 -0.10129021540E+02 -0.86294364139E+02 -0.10784605278E+02  0.87553538310E+02  0.00000000000E+00 0. -1.
         -3    1    3    3    0  502 -0.64953964506E+02 -0.55928302850E+02 -0.64248157633E+02  0.10712057843E+03  0.00000000000E+00 0.  1.
         11    1    5    5    0    0 -0.30523312564E+03 -0.15301894211E+03  0.52804962996E+03  0.62882308270E+03  0.00000000000E+00 0. -1.
        -11    1    5    5    0    0 -0.12319345834E+02  0.80968906868E+01  0.13419898422E+02  0.19935385480E+02  0.00000000000E+00 0.  1.
          1    1    6    6  503    0  0.39700935873E+03  0.27925082430E+03  0.16592692243E+03  0.51296120455E+03  0.00000000000E+00 0. -1.
         -1    1    6    6    0  503 -0.43739012141E+01  0.78938941149E+01  0.51030866288E+01  0.10367548855E+02  0.00000000000E+00 0.  1.
<mgrwt>
<rscale>  0 0.12089966E+04</rscale>
<asrwt>0</asrwt>
<pdfrwt beam="1">  1        2 0.15417139E+00 0.12089966E+04</pdfrwt>
<pdfrwt beam="2">  1       -1 0.56099582E-01 0.12089966E+04</pdfrwt>
<totfact> 0.90795216E+01</totfact>
</mgrwt>
</event>
<event>
11    6  0.1705838E-008  0.1278341E+04  0.7818608E-02  0.9046919E-01
         -1   -1    0    0    0  501 -0.00000000000E+00  0.00000000000E+00  0.23608707079E+03  0.23608707079E+03  0.00000000000E+00 0.  1.
          2   -1    0    0  501    0  0.00000000000E+00 -0.00000000000E+00 -0.17304599560E+04  0.17304599560E+04  0.00000000000E+00 0. -1.
         24    2    1    2    0    0  0.41005758841E+02  0.31495435785E+03 -0.34469174059E+03  0.47533441716E+03  0.79073967409E+02 0.  0.
        254    2    1    2    0    0 -0.41005758841E+02 -0.31495435785E+03 -0.11496811446E+04  0.14912126096E+04  0.89502547060E+03 0.  0.
         23    2    4    4    0    0 -0.42214747749E+03 -0.28670638283E+01 -0.54396957700E+03  0.69457434024E+03  0.91180593413E+02 0.  0.
          2    1    3    3  502    0  0.30458034648E+02  0.16084313847E+03 -0.23280475963E+03  0.28459842441E+03  0.00000000000E+00 0. -1.
         -1    1    3    3    0  502  0.10547724192E+02  0.15411121938E+03 -0.11188698096E+03  0.19073599275E+03  0.00000000000E+00 0.  1.
         11    1    4    4    0    0 -0.45257707854E+01 -0.47608390270E+02 -0.78414524108E+02  0.91847041414E+02  0.00000000000E+00 0. -1.
        -11    1    4    4    0    0  0.38566748943E+03 -0.26447890375E+03 -0.52729704348E+03  0.70479122795E+03  0.00000000000E+00 0.  1.
          3    1    5    5  503    0  0.47721092739E+01  0.56814980010E+00 -0.42907487972E+01  0.64425419174E+01  0.00000000000E+00 0. -1.
         -3    1    5    5    0  503 -0.42691958676E+03 -0.34352136284E+01 -0.53967882820E+03  0.68813179832E+03  0.00000000000E+00 0.  1.
<mgrwt>
<rscale>  0 0.12783415E+04</rscale>
<asrwt>0</asrwt>
<pdfrwt beam="1">  1        2 0.26622461E+00 0.12783415E+04</pdfrwt>
<pdfrwt beam="2">  1       -1 0.36321088E-01 0.12783415E+04</pdfrwt>
<totfact> 0.76562404E+01</totfact>
</mgrwt>
</event>
<event>
11    6  0.1705838E-008  0.1886495E+04  0.7818608E-02  0.8661608E-01
         -1   -1    0    0    0  501 -0.00000000000E+00  0.00000000000E+00  0.13082544525E+04  0.13082544525E+04  0.00000000000E+00 0.  1.
          2   -1    0    0  501    0  0.00000000000E+00 -0.00000000000E+00 -0.68007838013E+03  0.68007838013E+03  0.00000000000E+00 0. -1.
         24    2    1    2    0    0  0.27322895078E+02  0.13361213666E+03 -0.50600573364E+03  0.53012215678E+03  0.79930938765E+02 0.  0.
        254    2    1    2    0    0 -0.27322895078E+02 -0.13361213666E+03  0.11341818060E+04  0.14582106759E+04  0.90631741814E+03 0.  0.
         23    2    4    4    0    0  0.36685386997E+03  0.41196015948E+02  0.23842750608E+03  0.44884090305E+03  0.91277636658E+02 0.  0.
          4    1    3    3  502    0  0.51540436188E+02  0.53172010970E+02 -0.23324477887E+03  0.24471780929E+03  0.00000000000E+00 0. -1.
         -3    1    3    3    0  502 -0.24217541110E+02  0.80440125695E+02 -0.27276095477E+03  0.28540434749E+03  0.00000000000E+00 0.  1.
         11    1    4    4    0    0 -0.30258503834E+03 -0.68480889484E+02  0.48923140581E+03  0.57930536514E+03  0.00000000000E+00 0.  1.
        -11    1    4    4    0    0 -0.91591726700E+02 -0.10632726313E+03  0.40652289416E+03  0.43006440769E+03  0.00000000000E+00 0. -1.
          2    1    5    5  503    0  0.17199456882E+03 -0.17003283451E+02  0.14242073930E+03  0.22395291991E+03  0.00000000000E+00 0. -1.
         -2    1    5    5    0  503  0.19485930115E+03  0.58199299399E+02  0.96006766775E+02  0.22488798314E+03  0.00000000000E+00 0.  1.
<mgrwt>
<rscale>  0 0.18864947E+04</rscale>
<asrwt>0</asrwt>
<pdfrwt beam="1">  1        2 0.10462744E+00 0.18864947E+04</pdfrwt>
<pdfrwt beam="2">  1       -1 0.20126991E+00 0.18864947E+04</pdfrwt>
<totfact> 0.67089518E+00</totfact>
</mgrwt>
</event>
<event>
11    6  0.1705838E-008  0.1852323E+04  0.7818608E-02  0.8678959E-01
         -1   -1    0    0    0  501 -0.00000000000E+00  0.00000000000E+00  0.70944054615E+03  0.70944054615E+03  0.00000000000E+00 0.  1.
          2   -1    0    0  501    0  0.00000000000E+00 -0.00000000000E+00 -0.12090861793E+04  0.12090861793E+04  0.00000000000E+00 0. -1.
         24    2    1    2    0    0 -0.21165629334E+03  0.58395742080E+03 -0.53737074651E+03  0.82515921649E+03  0.79471740415E+02 0.  0.
        254    2    1    2    0    0  0.21165629334E+03 -0.58395742080E+03  0.37725113345E+02  0.10933675090E+04  0.89901316436E+03 0.  0.
         23    2    4    4    0    0 -0.66395112408E+02 -0.72955766288E+03  0.10312828973E+03  0.74538165635E+03  0.91080596508E+02 0.  0.
          4    1    3    3  502    0 -0.17124653802E+03  0.50284796010E+03 -0.49098560598E+03  0.72335904850E+03  0.00000000000E+00 0. -1.
         -3    1    3    3    0  502 -0.40409755323E+02  0.81109460701E+02 -0.46385140526E+02  0.10180016799E+03  0.00000000000E+00 0.  1.
         11    1    4    4    0    0  0.86652681956E+02  0.45913932151E+02 -0.87013863529E+02  0.13110373336E+03  0.00000000000E+00 0.  1.
        -11    1    4    4    0    0  0.19139872379E+03  0.99686309927E+02  0.21610687146E+02  0.21688211926E+03  0.00000000000E+00 0. -1.
          2    1    5    5  503    0  0.10581849099E+02 -0.27894312850E+02 -0.78211663167E+01  0.30842160467E+02  0.00000000000E+00 0. -1.
         -2    1    5    5    0  503 -0.76976961507E+02 -0.70166335003E+03  0.11094945605E+03  0.71453949588E+03  0.00000000000E+00 0.  1.
<mgrwt>
<rscale>  0 0.18523226E+04</rscale>
<asrwt>0</asrwt>
<pdfrwt beam="1">  1        2 0.18601326E+00 0.18523226E+04</pdfrwt>
<pdfrwt beam="2">  1       -1 0.10914470E+00 0.18523226E+04</pdfrwt>
<totfact> 0.15589391E+01</totfact>
</mgrwt>
</event>
<event>
12    6  0.1705838E-008  0.2246070E+04  0.7818608E-02  0.8499494E-01
          2   -1    0    0  501    0  0.00000000000E+00  0.00000000000E+00  0.79920161341E+03  0.79920161341E+03  0.00000000000E+00 0. -1.
         -1   -1    0    0    0  501 -0.00000000000E+00 -0.00000000000E+00 -0.15780845658E+04  0.15780845658E+04  0.00000000000E+00 0.  1.
         24    2    1    2    0    0 -0.15133096501E+03 -0.46130357510E+02  0.65350091444E+03  0.67705302480E+03  0.79424696161E+02 0.  0.
        254    2    1    2    0    0  0.15133096501E+03  0.46130357510E+02 -0.14323838669E+04  0.17002331544E+04  0.90224174507E+03 0.  0.
         23    2    4    4    0    0  0.33345387299E+03 -0.28986908044E+03 -0.43963958494E+03  0.63186302367E+03  0.10369352357E+03 0.  0.
         23    2    4    4    0    0 -0.18212290798E+03  0.33599943795E+03 -0.99274428192E+03  0.10683701308E+04  0.99041158650E+02 0.  0.
          4    1    3    3  502    0 -0.97251062740E+01 -0.72458494049E+01  0.20004295803E+03  0.20041024196E+03  0.00000000000E+00 0. -1.
         -3    1    3    3    0  502 -0.14160585874E+03 -0.38884508105E+02  0.45345795641E+03  0.47664278284E+03  0.00000000000E+00 0.  1.
         11    1    5    5    0    0  0.32429230241E+03 -0.26967636105E+03 -0.44024970175E+03  0.60968076647E+03  0.00000000000E+00 0. -1.
        -11    1    5    5    0    0  0.91615705784E+01 -0.20192719399E+02  0.61011681197E+00  0.22182257205E+02  0.00000000000E+00 0.  1.
          2    1    6    6  503    0 -0.93063001619E+02  0.12595537183E+03 -0.29090197667E+03  0.33037772019E+03  0.00000000000E+00 0. -1.
         -2    1    6    6    0  503 -0.89059906356E+02  0.21004406612E+03 -0.70184230524E+03  0.73799241057E+03  0.00000000000E+00 0.  1.
<mgrwt>
<rscale>  0 0.22460701E+04</rscale>
<asrwt>0</asrwt>
<pdfrwt beam="1">  1        2 0.12295410E+00 0.22460701E+04</pdfrwt>
<pdfrwt beam="2">  1       -1 0.24278224E+00 0.22460701E+04</pdfrwt>
<totfact> 0.27853384E+00</totfact>
</mgrwt>
</event>
<event>
12    6  0.1705838E-008  0.1700007E+04  0.7818608E-02  0.8761360E-01
         -1   -1    0    0    0  501 -0.00000000000E+00  0.00000000000E+00  0.24616690631E+03  0.24616690631E+03  0.00000000000E+00 0.  1.
          2   -1    0    0  501    0  0.00000000000E+00 -0.00000000000E+00 -0.29350242021E+04  0.29350242021E+04  0.00000000000E+00 0. -1.
         24    2    1    2    0    0  0.40695372578E+03 -0.33568505502E+03 -0.40294820217E+03  0.66909670821E+03  0.83829351703E+02 0.  0.
        254    2    1    2    0    0 -0.40695372578E+03  0.33568505502E+03 -0.22859090936E+04  0.25120944002E+04  0.89829956035E+03 0.  0.
         23    2    4    4    0    0  0.93081038479E+02  0.24187867040E+03 -0.17378203226E+04  0.17587800264E+04  0.78219798839E+02 0.  0.
         23    2    4    4    0    0 -0.50003476426E+03  0.93806384622E+02 -0.54808877108E+03  0.75331437379E+03  0.90812122052E+02 0.  0.
          2    1    3    3  502    0  0.30152404317E+02 -0.13811064550E+02 -0.52657615644E+02  0.62231322302E+02  0.00000000000E+00 0. -1.
         -1    1    3    3    0  502  0.37680132146E+03 -0.32187399047E+03 -0.35029058653E+03  0.60686538590E+03  0.00000000000E+00 0.  1.
         11    1    5    5    0    0 -0.90323111163E+01  0.46117965062E+02 -0.41604725592E+03  0.41869292865E+03  0.00000000000E+00 0. -1.
        -11    1    5    5    0    0  0.10211334960E+03  0.19576070534E+03 -0.13217730666E+04  0.13400870978E+04  0.00000000000E+00 0.  1.
          1    1    6    6  503    0 -0.59099750853E+02 -0.18028804826E+02 -0.70773055800E+02  0.93950219700E+02  0.00000000000E+00 0. -1.
         -1    1    6    6    0  503 -0.44093501341E+03  0.11183518945E+03 -0.47731571528E+03  0.65936415410E+03  0.00000000000E+00 0.  1.
<mgrwt>
<rscale>  0 0.17000069E+04</rscale>
<asrwt>0</asrwt>
<pdfrwt beam="1">  1        2 0.45154216E+00 0.17000069E+04</pdfrwt>
<pdfrwt beam="2">  1       -1 0.37871833E-01 0.17000069E+04</pdfrwt>
<totfact> 0.13997243E+01</totfact>
</mgrwt>
</event>
<event>
12    6  0.1705838E-008  0.2117256E+04  0.7818608E-02  0.8553680E-01
          2   -1    0    0  501    0  0.00000000000E+00  0.00000000000E+00  0.16153751594E+04  0.16153751594E+04  0.00000000000E+00 0. -1.
         -1   -1    0    0    0  501 -0.00000000000E+00 -0.00000000000E+00 -0.69376682010E+03  0.69376682010E+03  0.00000000000E+00 0.  1.
         24    2    1    2    0    0  0.16916939311E+03  0.80816535142E+03  0.65522700146E+03  0.10570058948E+04  0.78673499216E+02 0.  0.
        254    2    1    2    0    0 -0.16916939311E+03 -0.80816535142E+03  0.26638133788E+03  0.12521360847E+04  0.90284895672E+03 0.  0.
         23    2    4    4    0    0  0.26810322562E+03 -0.21071497563E+03 -0.15784710857E+03  0.39403638040E+03  0.11861205187E+03 0.  0.
         23    2    4    4    0    0 -0.43727261873E+03 -0.59745037579E+03  0.42422844645E+03  0.85809970431E+03  0.90614751220E+02 0.  0.
          4    1    3    3  502    0  0.16576097647E+03  0.72553082773E+03  0.56343586575E+03  0.93345147604E+03  0.00000000000E+00 0. -1.
         -3    1    3    3    0  502  0.34084166435E+01  0.82634523685E+02  0.91791135717E+02  0.12355441880E+03  0.00000000000E+00 0.  1.
         11    1    5    5    0    0  0.26045542644E+03 -0.15803088402E+03 -0.15205133394E+03  0.34048553218E+03  0.00000000000E+00 0. -1.
        -11    1    5    5    0    0  0.76477991750E+01 -0.52684091616E+02 -0.57957746258E+01  0.53550848220E+02  0.00000000000E+00 0.  1.
          3    1    6    6  503    0 -0.37101561698E+03 -0.55284378076E+03  0.37214539292E+03  0.76274571611E+03  0.00000000000E+00 0. -1.
         -3    1    6    6    0  503 -0.66257001751E+02 -0.44606595022E+02  0.52083053526E+02  0.95353988197E+02  0.00000000000E+00 0.  1.
<mgrwt>
<rscale>  0 0.21172564E+04</rscale>
<asrwt>0</asrwt>
<pdfrwt beam="1">  1        2 0.24851926E+00 0.21172564E+04</pdfrwt>
<pdfrwt beam="2">  1       -1 0.10673336E+00 0.21172564E+04</pdfrwt>
<totfact> 0.93899261E+00</totfact>
</mgrwt>
</event>
<event>
11    6  0.1705838E-008  0.1897509E+04  0.7818608E-02  0.8656097E-01
         -1   -1    0    0    0  501 -0.00000000000E+00  0.00000000000E+00  0.10177101151E+04  0.10177101151E+04  0.00000000000E+00 0.  1.
          2   -1    0    0  501    0  0.00000000000E+00 -0.00000000000E+00 -0.88447102320E+03  0.88447102320E+03  0.00000000000E+00 0. -1.
         24    2    1    2    0    0  0.22783523188E+03  0.66299349518E+03 -0.15838579713E+03  0.72384591856E+03  0.86009217836E+02 0.  0.
        254    2    1    2    0    0 -0.22783523188E+03 -0.66299349518E+03  0.29162488907E+03  0.11783352198E+04  0.90108797945E+03 0.  0.
         23    2    4    4    0    0 -0.26591569422E+03 -0.82815881283E+03  0.85142030842E+02  0.87863861727E+03  0.90545450657E+02 0.  0.
          2    1    3    3  502    0  0.26199138217E+01 -0.58023241323E+00  0.37222228274E+01  0.45886338777E+01  0.00000000000E+00 0. -1.
         -1    1    3    3    0  502  0.22521531806E+03  0.66357372759E+03 -0.16210801996E+03  0.71925728468E+03  0.00000000000E+00 0.  1.
         11    1    4    4    0    0 -0.48217917843E+01  0.16832438214E+03  0.18933810434E+03  0.25338757873E+03  0.00000000000E+00 0. -1.
        -11    1    4    4    0    0  0.42902254128E+02 -0.31590644821E+01  0.17144753894E+02  0.46309023783E+02  0.00000000000E+00 0.  1.
          3    1    5    5  503    0 -0.65063399728E+02 -0.34771582169E+03  0.31841513840E+02  0.35518082809E+03  0.00000000000E+00 0. -1.
         -3    1    5    5    0  503 -0.20085229449E+03 -0.48044299114E+03  0.53300517002E+02  0.52345778918E+03  0.00000000000E+00 0.  1.
<mgrwt>
<rscale>  0 0.18975090E+04</rscale>
<asrwt>0</asrwt>
<pdfrwt beam="1">  1        2 0.13607246E+00 0.18975090E+04</pdfrwt>
<pdfrwt beam="2">  1       -1 0.15657079E+00 0.18975090E+04</pdfrwt>
<totfact> 0.99683418E+00</totfact>
</mgrwt>
</event>
<event>
12    6  0.1705838E-008  0.1834581E+04  0.7818608E-02  0.8688123E-01
         -1   -1    0    0    0  501 -0.00000000000E+00  0.00000000000E+00  0.72732185702E+03  0.72732185702E+03  0.00000000000E+00 0.  1.
          2   -1    0    0  501    0  0.00000000000E+00 -0.00000000000E+00 -0.11568765784E+04  0.11568765784E+04  0.00000000000E+00 0. -1.
         24    2    1    2    0    0  0.15145524301E+02  0.67481928328E+03 -0.87570977463E+02  0.68723494965E+03  0.94935493499E+02 0.  0.
        254    2    1    2    0    0 -0.15145524301E+02 -0.67481928328E+03 -0.34198374393E+03  0.11969634858E+04  0.92744717004E+03 0.  0.
         23    2    4    4    0    0  0.30421445730E+03 -0.67073265824E+03 -0.42739323496E+03  0.85380371205E+03  0.62346343584E+02 0.  0.
         23    2    4    4    0    0 -0.31935998160E+03 -0.40866250413E+01  0.85409491033E+02  0.34315977374E+03  0.91958418869E+02 0.  0.
          2    1    3    3  502    0  0.32773497810E+02  0.43864236770E+03 -0.17337485803E+02  0.44020656210E+03  0.00000000000E+00 0. -1.
         -1    1    3    3    0  502 -0.17627973509E+02  0.23617691558E+03 -0.70233491661E+02  0.24702838755E+03  0.00000000000E+00 0.  1.
         11    1    5    5    0    0  0.11022141429E+03 -0.31293611121E+03 -0.20500393785E+03  0.39000562099E+03  0.00000000000E+00 0. -1.
        -11    1    5    5    0    0  0.19399304301E+03 -0.35779654703E+03 -0.22238929711E+03  0.46379809106E+03  0.00000000000E+00 0.  1.
          1    1    6    6  503    0 -0.28933788838E+03  0.16997808378E+02  0.53914018173E+02  0.29480851497E+03  0.00000000000E+00 0. -1.
         -1    1    6    6    0  503 -0.30022093223E+02 -0.21084433420E+02  0.31495472861E+02  0.48351258772E+02  0.00000000000E+00 0.  1.
<mgrwt>
<rscale>  0 0.18345807E+04</rscale>
<asrwt>0</asrwt>
<pdfrwt beam="1">  1        2 0.17798101E+00 0.18345807E+04</pdfrwt>
<pdfrwt beam="2">  1       -1 0.11189567E+00 0.18345807E+04</pdfrwt>
<totfact> 0.15822624E+01</totfact>
</mgrwt>
</event>
<event>
11    6  0.1705838E-008  0.3584206E+04  0.7818608E-02  0.8094119E-01
         -1   -1    0    0    0  501 -0.00000000000E+00  0.00000000000E+00  0.24873597794E+04  0.24873597794E+04  0.00000000000E+00 0.  1.
          2   -1    0    0  501    0  0.00000000000E+00 -0.00000000000E+00 -0.12911815669E+04  0.12911815669E+04  0.00000000000E+00 0. -1.
         24    2    1    2    0    0 -0.35396245994E+02  0.94006734153E+03 -0.90316573612E+03  0.13063398940E+04  0.76394180434E+02 0.  0.
        254    2    1    2    0    0  0.35396245994E+02 -0.94006734153E+03  0.20993439486E+04  0.24722014523E+04  0.90529304957E+03 0.  0.
         23    2    4    4    0    0  0.40792533420E+03 -0.21189413608E+03  0.83167008664E+03  0.95463323564E+03  0.91363441223E+02 0.  0.
          2    1    3    3  502    0 -0.21611329837E+02  0.90941606441E+03 -0.87878722708E+03  0.12648207850E+04  0.00000000000E+00 0. -1.
         -1    1    3    3    0  502 -0.13784916158E+02  0.30651277120E+02 -0.24378509041E+02  0.41519108921E+02  0.00000000000E+00 0.  1.
         11    1    4    4    0    0 -0.15389283923E+03 -0.21718724899E+03  0.53877941004E+03  0.60094638678E+03  0.00000000000E+00 0.  1.
        -11    1    4    4    0    0 -0.21863624897E+03 -0.51098595646E+03  0.72889445192E+03  0.91662182993E+03  0.00000000000E+00 0. -1.
          4    1    5    5  503    0  0.34329560112E+03 -0.14214319318E+03  0.69580714373E+03  0.78879917494E+03  0.00000000000E+00 0. -1.
         -4    1    5    5    0  503  0.64629733071E+02 -0.69750942898E+02  0.13586294291E+03  0.16583406070E+03  0.00000000000E+00 0.  1.
<mgrwt>
<rscale>  0 0.35842060E+04</rscale>
<asrwt>0</asrwt>
<pdfrwt beam="1">  1        2 0.19864332E+00 0.35842060E+04</pdfrwt>
<pdfrwt beam="2">  1       -1 0.38267073E+00 0.35842060E+04</pdfrwt>
<totfact> 0.14584024E-01</totfact>
</mgrwt>
</event>
<event>
12    6  0.1705838E-008  0.2449096E+04  0.7818608E-02  0.8421348E-01
          2   -1    0    0  501    0  0.00000000000E+00  0.00000000000E+00  0.20033488983E+04  0.20033488983E+04  0.00000000000E+00 0. -1.
         -1   -1    0    0    0  501 -0.00000000000E+00 -0.00000000000E+00 -0.74850531009E+03  0.74850531009E+03  0.00000000000E+00 0.  1.
         24    2    1    2    0    0  0.35783376444E+03  0.93165588136E+02 -0.57013075262E+03  0.68514437792E+03  0.87458068400E+02 0.  0.
        254    2    1    2    0    0 -0.35783376444E+03 -0.93165588136E+02  0.18249743408E+04  0.20667098305E+04  0.89667906682E+03 0.  0.
         23    2    4    4    0    0  0.13431655320E+03 -0.34851615742E+03  0.98832265963E+03  0.10583023089E+04  0.60972527531E+02 0.  0.
         23    2    4    4    0    0 -0.49215031764E+03  0.25535056928E+03  0.83665168121E+03  0.10084075215E+04  0.97385037056E+02 0.  0.
          4    1    3    3  502    0  0.49712834473E+02 -0.41155104222E+01 -0.38450843522E+02  0.62982304697E+02  0.00000000000E+00 0. -1.
         -3    1    3    3    0  502  0.30812092997E+03  0.97281098558E+02 -0.53167990910E+03  0.62216207323E+03  0.00000000000E+00 0.  1.
         11    1    5    5    0    0  0.98161896092E+02 -0.30652568291E+03  0.81139414208E+03  0.87289988311E+03  0.00000000000E+00 0. -1.
        -11    1    5    5    0    0  0.36154657108E+02 -0.41990474505E+02  0.17692851755E+03  0.18540242582E+03  0.00000000000E+00 0.  1.
          2    1    6    6  503    0 -0.44855864557E+03  0.21023360629E+03  0.69494907433E+03  0.85343848264E+03  0.00000000000E+00 0.  1.
         -2    1    6    6    0  503 -0.43591672076E+02  0.45116962988E+02  0.14170260688E+03  0.15496903891E+03  0.00000000000E+00 0. -1.
<mgrwt>
<rscale>  0 0.24490956E+04</rscale>
<asrwt>0</asrwt>
<pdfrwt beam="1">  1        2 0.30820752E+00 0.24490956E+04</pdfrwt>
<pdfrwt beam="2">  1       -1 0.11515466E+00 0.24490956E+04</pdfrwt>
<totfact> 0.46385374E+00</totfact>
</mgrwt>
</event>
<event>
12    6  0.1705838E-008  0.1713686E+04  0.7818608E-02  0.8753597E-01
          2   -1    0    0  501    0  0.00000000000E+00  0.00000000000E+00  0.17638154653E+04  0.17638154653E+04  0.00000000000E+00 0. -1.
         -1   -1    0    0    0  501 -0.00000000000E+00 -0.00000000000E+00 -0.41624544246E+03  0.41624544246E+03  0.00000000000E+00 0.  1.
         24    2    1    2    0    0  0.19231727441E+03  0.46573338093E+03  0.37711453616E+02  0.51141094832E+03  0.78901762861E+02 0.  0.
        254    2    1    2    0    0 -0.19231727441E+03 -0.46573338093E+03  0.13098585692E+04  0.16686499594E+04  0.90264594364E+03 0.  0.
         23    2    4    4    0    0 -0.46605144116E+02 -0.32902704394E+03  0.16291756198E+02  0.35660411740E+03  0.12833643334E+03 0.  0.
         23    2    4    4    0    0 -0.14571213029E+03 -0.13670633698E+03  0.12935668130E+04  0.13120458420E+04  0.90711324199E+02 0.  0.
          4    1    3    3  502    0  0.23581911242E+01 -0.26614574378E+01 -0.25284428589E+01  0.43631919924E+01  0.00000000000E+00 0. -1.
         -3    1    3    3    0  502  0.18995908329E+03  0.46839483837E+03  0.40239896475E+02  0.50704775633E+03  0.00000000000E+00 0.  1.
         11    1    5    5    0    0  0.29300672469E+02 -0.18160403875E+02 -0.89361618812E+01  0.35611580493E+02  0.00000000000E+00 0.  1.
        -11    1    5    5    0    0 -0.75905816585E+02 -0.31086664007E+03  0.25227918079E+02  0.32099253691E+03  0.00000000000E+00 0. -1.
          2    1    6    6  503    0 -0.85996775309E+02 -0.13337966032E+03  0.99066754761E+03  0.10032984446E+04  0.00000000000E+00 0. -1.
         -2    1    6    6    0  503 -0.59715354985E+02 -0.33266766652E+01  0.30289926539E+03  0.30874739735E+03  0.00000000000E+00 0.  1.
<mgrwt>
<rscale>  0 0.17136863E+04</rscale>
<asrwt>0</asrwt>
<pdfrwt beam="1">  1        2 0.27135622E+00 0.17136863E+04</pdfrwt>
<pdfrwt beam="2">  1       -1 0.64037761E-01 0.17136863E+04</pdfrwt>
<totfact> 0.24197390E+01</totfact>
</mgrwt>
</event>
<event>
12    6  0.1705838E-008  0.1670225E+04  0.7818608E-02  0.8778531E-01
          2   -1    0    0  501    0  0.00000000000E+00  0.00000000000E+00  0.17997492627E+04  0.17997492627E+04  0.00000000000E+00 0. -1.
         -1   -1    0    0    0  501 -0.00000000000E+00 -0.00000000000E+00 -0.38750566938E+03  0.38750566938E+03  0.00000000000E+00 0.  1.
         24    2    1    2    0    0 -0.21840809038E+03 -0.71617889135E+02 -0.21748878962E+03  0.32658362141E+03  0.80772966874E+02 0.  0.
        254    2    1    2    0    0  0.21840809038E+03  0.71617889135E+02  0.16297323829E+04  0.18606713107E+04  0.86789335194E+03 0.  0.
         23    2    4    4    0    0  0.12833035169E+03 -0.34345304533E+03  0.39361722932E+03  0.55046003554E+03  0.11680348454E+03 0.  0.
         23    2    4    4    0    0  0.90077738692E+02  0.41507093446E+03  0.12361151536E+04  0.13102112751E+04  0.90967207298E+02 0.  0.
          4    1    3    3  502    0  0.52335786967E+01 -0.24191720264E+01  0.15678562532E+01  0.59750240584E+01  0.00000000000E+00 0. -1.
         -3    1    3    3    0  502 -0.22364166908E+03 -0.69198717108E+02 -0.21905664587E+03  0.32060859735E+03  0.00000000000E+00 0.  1.
         11    1    5    5    0    0  0.10096395789E+03 -0.31757647003E+03  0.29558770624E+03  0.44544430313E+03  0.00000000000E+00 0. -1.
        -11    1    5    5    0    0  0.27366393801E+02 -0.25876575298E+02  0.98029523080E+02  0.10501573241E+03  0.00000000000E+00 0.  1.
          1    1    6    6  503    0  0.73989281402E+02  0.40908867271E+03  0.11618031134E+04  0.12339426365E+04  0.00000000000E+00 0. -1.
         -1    1    6    6    0  503  0.16088457290E+02  0.59822617581E+01  0.74312040204E+02  0.76268638594E+02  0.00000000000E+00 0.  1.
<mgrwt>
<rscale>  0 0.16702252E+04</rscale>
<asrwt>0</asrwt>
<pdfrwt beam="1">  1        2 0.27688450E+00 0.16702252E+04</pdfrwt>
<pdfrwt beam="2">  1       -1 0.59616258E-01 0.16702252E+04</pdfrwt>
<totfact> 0.26749300E+01</totfact>
</mgrwt>
</event>
<event>
11    6  0.1705838E-008  0.1976941E+04  0.7818608E-02  0.8617478E-01
          2   -1    0    0  501    0  0.00000000000E+00  0.00000000000E+00  0.14530881319E+04  0.14530881319E+04  0.00000000000E+00 0. -1.
         -1   -1    0    0    0  501 -0.00000000000E+00 -0.00000000000E+00 -0.67241199026E+03  0.67241199026E+03  0.00000000000E+00 0.  1.
         24    2    1    2    0    0  0.64626038587E+03  0.16571549353E+03  0.75315318076E+03  0.10091595568E+04  0.77776515192E+02 0.  0.
        254    2    1    2    0    0 -0.64626038587E+03 -0.16571549353E+03  0.27522960865E+02  0.11163405653E+04  0.89461982609E+03 0.  0.
         23    2    4    4    0    0 -0.54470860266E+03 -0.31973357646E+03  0.13792235772E+03  0.65386138338E+03  0.97852491954E+02 0.  0.
          2    1    3    3  502    0  0.33776863015E+03  0.10447851858E+03  0.45056105935E+03  0.57272041744E+03  0.00000000000E+00 0. -1.
         -1    1    3    3    0  502  0.30849175572E+03  0.61236974959E+02  0.30259212141E+03  0.43643913939E+03  0.00000000000E+00 0.  1.
         11    1    4    4    0    0  0.12957707935E+03  0.19512848747E+02 -0.14197451238E+03  0.19320386363E+03  0.00000000000E+00 0.  1.
        -11    1    4    4    0    0 -0.23112886256E+03  0.13450523417E+03  0.31575115524E+02  0.26927531830E+03  0.00000000000E+00 0. -1.
          4    1    5    5  503    0 -0.19805209925E+03 -0.15844353591E+03  0.23257468235E+02  0.25469569670E+03  0.00000000000E+00 0. -1.
         -4    1    5    5    0  503 -0.34665650342E+03 -0.16129004055E+03  0.11466488948E+03  0.39916568668E+03  0.00000000000E+00 0.  1.
<mgrwt>
<rscale>  0 0.19769410E+04</rscale>
<asrwt>0</asrwt>
<pdfrwt beam="1">  1        2 0.22355202E+00 0.19769410E+04</pdfrwt>
<pdfrwt beam="2">  1       -1 0.10344800E+00 0.19769410E+04</pdfrwt>
<totfact> 0.12616258E+01</totfact>
</mgrwt>
</event>
<event>
11    6  0.1705838E-008  0.2504564E+04  0.7818608E-02  0.8401362E-01
          2   -1    0    0  501    0  0.00000000000E+00  0.00000000000E+00  0.23669098839E+04  0.23669098839E+04  0.00000000000E+00 0. -1.
         -1   -1    0    0    0  501 -0.00000000000E+00 -0.00000000000E+00 -0.66255570482E+03  0.66255570482E+03  0.00000000000E+00 0.  1.
         24    2    1    2    0    0  0.56203963453E+03  0.77624230414E+03  0.13747789571E+04  0.16778916145E+04  0.82839746074E+02 0.  0.
        254    2    1    2    0    0 -0.56203963453E+03 -0.77624230414E+03  0.32957522201E+03  0.13515739743E+04  0.89425483809E+03 0.  0.
         23    2    4    4    0    0 -0.17930548011E+03  0.12436657242E+03  0.24526570611E+03  0.34090615242E+03  0.91892538481E+02 0.  0.
          2    1    3    3  502    0  0.41770559559E+03  0.62871261237E+03  0.11055337155E+04  0.13386419647E+04  0.00000000000E+00 0. -1.
         -1    1    3    3    0  502  0.14433403895E+03  0.14752969177E+03  0.26924524155E+03  0.33924964974E+03  0.00000000000E+00 0.  1.
         11    1    4    4    0    0  0.64309135144E+01  0.12774664569E+02  0.68397841030E+00  0.14318398302E+02  0.00000000000E+00 0. -1.
        -11    1    4    4    0    0 -0.38916506793E+03 -0.91338354112E+03  0.83625537487E+02  0.99634942355E+03  0.00000000000E+00 0.  1.
          4    1    5    5  503    0 -0.11331265432E+03  0.52517709257E+02  0.19393323948E+03  0.23066852579E+03  0.00000000000E+00 0. -1.
         -4    1    5    5    0  503 -0.65992825797E+02  0.71848863161E+02  0.51332466626E+02  0.11023762663E+03  0.00000000000E+00 0.  1.
<mgrwt>
<rscale>  0 0.25045636E+04</rscale>
<asrwt>0</asrwt>
<pdfrwt beam="1">  1        2 0.36413998E+00 0.25045636E+04</pdfrwt>
<pdfrwt beam="2">  1       -1 0.10193165E+00 0.25045636E+04</pdfrwt>
<totfact> 0.38401397E+00</totfact>
</mgrwt>
</event>
<event>
12    6  0.1705838E-008  0.1222718E+04  0.7818608E-02  0.9093201E-01
          2   -1    0    0  501    0  0.00000000000E+00  0.00000000000E+00  0.15525732009E+04  0.15525732009E+04  0.00000000000E+00 0. -1.
         -1   -1    0    0    0  501 -0.00000000000E+00 -0.00000000000E+00 -0.24073569937E+03  0.24073569937E+03  0.00000000000E+00 0.  1.
         24    2    1    2    0    0 -0.20015339503E+03  0.11907838017E+03  0.49928890522E+03  0.55711188847E+03  0.82723655808E+02 0.  0.
        254    2    1    2    0    0  0.20015339503E+03 -0.11907838017E+03  0.81254859628E+03  0.12361970118E+04  0.90205697625E+03 0.  0.
         23    2    4    4    0    0 -0.15061825382E+03 -0.21052772304E+03  0.81302233029E+03  0.86140730176E+03  0.11836152004E+03 0.  0.
         23    2    4    4    0    0  0.35077164885E+03  0.91449342870E+02 -0.47373401063E+00  0.37478971000E+03  0.95201735021E+02 0.  0.
          4    1    3    3  502    0 -0.68861486884E+01  0.13338660870E+02  0.99646268322E+02  0.10077061927E+03  0.00000000000E+00 0. -1.
         -3    1    3    3    0  502 -0.19326724634E+03  0.10573971930E+03  0.39964263690E+03  0.45634126920E+03  0.00000000000E+00 0.  1.
         11    1    5    5    0    0 -0.10060750581E+03 -0.20911586201E+03  0.70834145003E+03  0.74538508424E+03  0.00000000000E+00 0. -1.
        -11    1    5    5    0    0 -0.50010748008E+02 -0.14118610316E+01  0.10468088026E+03  0.11602221752E+03  0.00000000000E+00 0.  1.
          4    1    6    6  503    0  0.23730154049E+03  0.72931647027E+02 -0.43486625454E+02  0.25203597531E+03  0.00000000000E+00 0. -1.
         -4    1    6    6    0  503  0.11347010836E+03  0.18517695844E+02  0.43012891443E+02  0.12275373469E+03  0.00000000000E+00 0.  1.
<mgrwt>
<rscale>  0 0.12227179E+04</rscale>
<asrwt>0</asrwt>
<pdfrwt beam="1">  1        2 0.23885741E+00 0.12227179E+04</pdfrwt>
<pdfrwt beam="2">  1       -1 0.37036262E-01 0.12227179E+04</pdfrwt>
<totfact> 0.93237871E+01</totfact>
</mgrwt>
</event>
<event>
11    6  0.1705838E-008  0.1459074E+04  0.7818608E-02  0.8912134E-01
         -1   -1    0    0    0  501 -0.00000000000E+00  0.00000000000E+00  0.48189354429E+03  0.48189354429E+03  0.00000000000E+00 0.  1.
          2   -1    0    0  501    0  0.00000000000E+00 -0.00000000000E+00 -0.11044439128E+04  0.11044439128E+04  0.00000000000E+00 0. -1.
         24    2    1    2    0    0  0.15035826606E+03  0.33386039210E+01  0.28020954840E+03  0.32802105900E+03  0.80384511466E+02 0.  0.
        254    2    1    2    0    0 -0.15035826606E+03 -0.33386039210E+01 -0.90275991695E+03  0.12583163981E+04  0.86357740573E+03 0.  0.
         23    2    4    4    0    0 -0.10774315158E+03 -0.24920075436E+03 -0.90252277495E+03  0.94669974617E+03  0.89350139401E+02 0.  0.
          2    1    3    3  502    0  0.15986412161E+02  0.21691457937E+02  0.16814627363E+02  0.31761870451E+02  0.00000000000E+00 0. -1.
         -1    1    3    3    0  502  0.13437185390E+03 -0.18352854016E+02  0.26339492104E+03  0.29625918855E+03  0.00000000000E+00 0.  1.
         11    1    4    4    0    0 -0.46769899794E+02  0.13718973292E+03 -0.89993881469E+02  0.17060874845E+03  0.00000000000E+00 0. -1.
        -11    1    4    4    0    0  0.41547853156E+01  0.10867241752E+03  0.89756739469E+02  0.14100790350E+03  0.00000000000E+00 0.  1.
          2    1    5    5  503    0 -0.11788359069E+03 -0.24799807320E+03 -0.85200986419E+03  0.89516500933E+03  0.00000000000E+00 0. -1.
         -2    1    5    5    0  503  0.10140439103E+02 -0.12026811604E+01 -0.50512910761E+02  0.51534736836E+02  0.00000000000E+00 0.  1.
<mgrwt>
<rscale>  0 0.14590742E+04</rscale>
<asrwt>0</asrwt>
<pdfrwt beam="1">  1        2 0.16991445E+00 0.14590742E+04</pdfrwt>
<pdfrwt beam="2">  1       -1 0.74137468E-01 0.14590742E+04</pdfrwt>
<totfact> 0.43837556E+01</totfact>
</mgrwt>
</event>
<event>
11    6  0.1705838E-008  0.2054768E+04  0.7818608E-02  0.8581434E-01
          2   -1    0    0  501    0  0.00000000000E+00  0.00000000000E+00  0.21954465086E+04  0.21954465086E+04  0.00000000000E+00 0. -1.
         -1   -1    0    0    0  501 -0.00000000000E+00 -0.00000000000E+00 -0.48077593355E+03  0.48077593355E+03  0.00000000000E+00 0.  1.
         24    2    1    2    0    0  0.40097389951E+03 -0.21475495097E+03  0.16135937466E+04  0.16783988175E+04  0.80237486742E+02 0.  0.
        254    2    1    2    0    0 -0.40097389951E+03  0.21475495097E+03  0.10107682839E+03  0.99782362465E+03  0.88234670262E+03 0.  0.
         23    2    4    4    0    0 -0.27650703590E+03 -0.17496871499E+03 -0.26437800984E+03  0.43099036445E+03  0.93737772719E+02 0.  0.
          4    1    3    3  502    0  0.31442257658E+03 -0.13086731547E+03  0.12334116390E+04  0.12795671464E+04  0.00000000000E+00 0. -1.
         -3    1    3    3    0  502  0.86551322930E+02 -0.83887635502E+02  0.38018210765E+03  0.39883167110E+03  0.00000000000E+00 0.  1.
         11    1    4    4    0    0 -0.40690623119E+02  0.11389937699E+02  0.60167977805E+02  0.73523078307E+02  0.00000000000E+00 0.  1.
        -11    1    4    4    0    0 -0.83776240485E+02  0.37833372827E+03  0.30528686042E+03  0.49331018189E+03  0.00000000000E+00 0. -1.
          1    1    5    5  503    0 -0.38845975258E+02 -0.47646616852E+02 -0.14006498429E+02  0.63050708874E+02  0.00000000000E+00 0. -1.
         -1    1    5    5    0  503 -0.23766106064E+03 -0.12732209814E+03 -0.25037151141E+03  0.36793965558E+03  0.00000000000E+00 0.  1.
<mgrwt>
<rscale>  0 0.20547680E+04</rscale>
<asrwt>0</asrwt>
<pdfrwt beam="1">  1        2 0.33776100E+00 0.20547680E+04</pdfrwt>
<pdfrwt beam="2">  1       -1 0.73965529E-01 0.20547680E+04</pdfrwt>
<totfact> 0.10066609E+01</totfact>
</mgrwt>
</event>
<event>
12    6  0.1705838E-008  0.2660698E+04  0.7818608E-02  0.8347871E-01
          2   -1    0    0  501    0  0.00000000000E+00  0.00000000000E+00  0.13457591775E+04  0.13457591775E+04  0.00000000000E+00 0. -1.
         -1   -1    0    0    0  501 -0.00000000000E+00 -0.00000000000E+00 -0.13151154031E+04  0.13151154031E+04  0.00000000000E+00 0.  1.
         24    2    1    2    0    0  0.31171945489E+03  0.44793410795E+03  0.10574343865E+04  0.11926803698E+04  0.80653575605E+02 0.  0.
        254    2    1    2    0    0 -0.31171945489E+03 -0.44793410795E+03 -0.10267906120E+04  0.14681942108E+04  0.89637118209E+03 0.  0.
         23    2    4    4    0    0  0.21333224690E+03 -0.37291775512E+03 -0.72664832562E+03  0.85187235077E+03  0.11441334379E+03 0.  0.
         23    2    4    4    0    0 -0.52505170179E+03 -0.75016352835E+02 -0.30014228640E+03  0.61632186003E+03  0.91980978037E+02 0.  0.
          2    1    3    3  502    0  0.16537127608E+03  0.24126358332E+03  0.65279168770E+03  0.71532703229E+03  0.00000000000E+00 0. -1.
         -1    1    3    3    0  502  0.14634817881E+03  0.20667052464E+03  0.40464269876E+03  0.47735333753E+03  0.00000000000E+00 0.  1.
         11    1    5    5    0    0  0.22516392694E+03 -0.34883246466E+03 -0.65656395574E+03  0.77682630644E+03  0.00000000000E+00 0.  1.
        -11    1    5    5    0    0 -0.11831680043E+02 -0.24085290456E+02 -0.70084369873E+02  0.75046044330E+02  0.00000000000E+00 0. -1.
          1    1    6    6  503    0 -0.94760745199E+02  0.59482934103E+01 -0.21550114441E+02  0.97362151053E+02  0.00000000000E+00 0. -1.
         -1    1    6    6    0  503 -0.43029095659E+03 -0.80964646245E+02 -0.27859217196E+03  0.51895970898E+03  0.00000000000E+00 0.  1.
<mgrwt>
<rscale>  0 0.26606981E+04</rscale>
<asrwt>0</asrwt>
<pdfrwt beam="1">  1        2 0.20703987E+00 0.26606981E+04</pdfrwt>
<pdfrwt beam="2">  1       -1 0.20232545E+00 0.26606981E+04</pdfrwt>
<totfact> 0.22615636E+00</totfact>
</mgrwt>
</event>
<event>
12    6  0.1705838E-008  0.1507066E+04  0.7818608E-02  0.8879768E-01
          2   -1    0    0  501    0  0.00000000000E+00  0.00000000000E+00  0.84412469758E+03  0.84412469758E+03  0.00000000000E+00 0. -1.
         -1   -1    0    0    0  501 -0.00000000000E+00 -0.00000000000E+00 -0.67266323003E+03  0.67266323003E+03  0.00000000000E+00 0.  1.
         24    2    1    2    0    0 -0.12866619351E+02 -0.45633165770E+03  0.21567996807E+03  0.51108245935E+03  0.79267268848E+02 0.  0.
        254    2    1    2    0    0  0.12866619351E+02  0.45633165770E+03 -0.44218500516E+02  0.10057054683E+04  0.89503300576E+03 0.  0.
         23    2    4    4    0    0  0.27969844223E+02  0.60919280573E+03  0.24457514499E+03  0.66573261151E+03  0.10716679404E+03 0.  0.
         23    2    4    4    0    0 -0.15103224872E+02 -0.15286114803E+03 -0.28879364550E+03  0.33997285675E+03  0.92656007173E+02 0.  0.
          4    1    3    3  502    0  0.28783048125E+02 -0.30476732931E+03  0.14557816038E+03  0.33897579509E+03  0.00000000000E+00 0. -1.
         -3    1    3    3    0  502 -0.41649667476E+02 -0.15156432839E+03  0.70101807692E+02  0.17210666426E+03  0.00000000000E+00 0.  1.
         11    1    5    5    0    0 -0.23390192471E+01  0.25795254137E+03  0.15872809399E+03  0.30288544440E+03  0.00000000000E+00 0. -1.
        -11    1    5    5    0    0  0.30308863470E+02  0.35124026436E+03  0.85847051000E+02  0.36284716711E+03  0.00000000000E+00 0.  1.
          4    1    6    6  503    0  0.95334404847E+01 -0.15078333350E+03 -0.26806113972E+03  0.30770647503E+03  0.00000000000E+00 0. -1.
         -4    1    6    6    0  503 -0.24636665357E+02 -0.20778145299E+01 -0.20732505786E+02  0.32266381720E+02  0.00000000000E+00 0.  1.
<mgrwt>
<rscale>  0 0.15070656E+04</rscale>
<asrwt>0</asrwt>
<pdfrwt beam="1">  1        2 0.12986534E+00 0.15070656E+04</pdfrwt>
<pdfrwt beam="2">  1       -1 0.10348665E+00 0.15070656E+04</pdfrwt>
<totfact> 0.31113894E+01</totfact>
</mgrwt>
</event>
<event>
11    6  0.1705838E-008  0.1323926E+04  0.7818608E-02  0.9010804E-01
         -1   -1    0    0    0  501 -0.00000000000E+00  0.00000000000E+00  0.40863226442E+03  0.40863226442E+03  0.00000000000E+00 0.  1.
          2   -1    0    0  501    0  0.00000000000E+00 -0.00000000000E+00 -0.10723453938E+04  0.10723453938E+04  0.00000000000E+00 0. -1.
         24    2    1    2    0    0  0.29731876358E+03 -0.67167704668E+02 -0.36492003063E+03  0.48206203827E+03  0.79418085160E+02 0.  0.
        254    2    1    2    0    0 -0.29731876358E+03  0.67167704668E+02 -0.29879309875E+03  0.99891561995E+03  0.90313075033E+03 0.  0.
         23    2    4    4    0    0 -0.13394652289E+03 -0.27284464833E+03 -0.41250094882E+03  0.52107675177E+03  0.94752706218E+02 0.  0.
          4    1    3    3  502    0  0.23939732997E+03 -0.81640004441E+02 -0.27034721068E+03  0.37022126660E+03  0.00000000000E+00 0. -1.
         -3    1    3    3    0  502  0.57921433617E+02  0.14472299774E+02 -0.94572819952E+02  0.11184077167E+03  0.00000000000E+00 0.  1.
         11    1    4    4    0    0  0.61394298566E+02  0.12743872632E+03 -0.16046371652E+02  0.14236353081E+03  0.00000000000E+00 0.  1.
        -11    1    4    4    0    0 -0.22476653926E+03  0.21257362668E+03  0.12975422173E+03  0.33547533737E+03  0.00000000000E+00 0. -1.
          4    1    5    5  503    0 -0.12457332915E+03 -0.27866467348E+03 -0.38416214545E+03  0.49066594398E+03  0.00000000000E+00 0. -1.
         -4    1    5    5    0  503 -0.93731937422E+01  0.58200251559E+01 -0.28338803371E+02  0.30410807787E+02  0.00000000000E+00 0.  1.
<mgrwt>
<rscale>  0 0.13239259E+04</rscale>
<asrwt>0</asrwt>
<pdfrwt beam="1">  1        2 0.16497621E+00 0.13239259E+04</pdfrwt>
<pdfrwt beam="2">  1       -1 0.62866503E-01 0.13239259E+04</pdfrwt>
<totfact> 0.64923264E+01</totfact>
</mgrwt>
</event>
<event>
12    6  0.1705838E-008  0.1434902E+04  0.7818608E-02  0.8928935E-01
         -1   -1    0    0    0  501 -0.00000000000E+00  0.00000000000E+00  0.21396072469E+03  0.21396072469E+03  0.00000000000E+00 0.  1.
          2   -1    0    0  501    0  0.00000000000E+00 -0.00000000000E+00 -0.24057498037E+04  0.24057498037E+04  0.00000000000E+00 0. -1.
         24    2    1    2    0    0 -0.42202496680E+03  0.10224702986E+03 -0.58610249381E+03  0.73294491003E+03  0.71642027911E+02 0.  0.
        254    2    1    2    0    0  0.42202496680E+03 -0.10224702986E+03 -0.16056865852E+04  0.18867656184E+04  0.89055912831E+03 0.  0.
         23    2    4    4    0    0  0.67087894043E+03 -0.12850828986E+03 -0.92079218538E+03  0.11516457240E+04  0.10879656073E+03 0.  0.
         23    2    4    4    0    0 -0.24885397363E+03  0.26261259992E+02 -0.68489439984E+03  0.73511989440E+03  0.93289689878E+02 0.  0.
          4    1    3    3  502    0  0.61026964580E+00  0.49374142753E+01 -0.18273369997E+01  0.52999669128E+01  0.00000000000E+00 0. -1.
         -3    1    3    3    0  502 -0.42263523645E+03  0.97309615589E+02 -0.58427515681E+03  0.72764494311E+03  0.00000000000E+00 0.  1.
         11    1    5    5    0    0  0.53657649245E+02 -0.31838039393E+02 -0.50163360674E+02  0.80057272181E+02  0.00000000000E+00 0. -1.
        -11    1    5    5    0    0  0.61722129119E+03 -0.96670250463E+02 -0.87062882471E+03  0.10715884518E+04  0.00000000000E+00 0.  1.
          1    1    6    6  503    0 -0.23183896132E+02 -0.19675954287E+02 -0.14508202891E+03  0.14823437971E+03  0.00000000000E+00 0. -1.
         -1    1    6    6    0  503 -0.22567007750E+03  0.45937214278E+02 -0.53981237093E+03  0.58688551469E+03  0.00000000000E+00 0.  1.
<mgrwt>
<rscale>  0 0.14349020E+04</rscale>
<asrwt>0</asrwt>
<pdfrwt beam="1">  1        2 0.37011533E+00 0.14349020E+04</pdfrwt>
<pdfrwt beam="2">  1       -1 0.32917036E-01 0.14349020E+04</pdfrwt>
<totfact> 0.37876348E+01</totfact>
</mgrwt>
</event>
<event>
12    6  0.1705838E-008  0.1014786E+04  0.7818608E-02  0.9292475E-01
         -3   -1    0    0    0  501 -0.00000000000E+00  0.00000000000E+00  0.26512362197E+03  0.26512362197E+03  0.00000000000E+00 0.  1.
          4   -1    0    0  501    0  0.00000000000E+00 -0.00000000000E+00 -0.97104739152E+03  0.97104739152E+03  0.00000000000E+00 0. -1.
         24    2    1    2    0    0 -0.45987319988E+02  0.28405945142E+02  0.14597421882E+02  0.96961916708E+02  0.79163105340E+02 0.  0.
        254    2    1    2    0    0  0.45987319988E+02 -0.28405945142E+02 -0.72052119144E+03  0.11392090968E+04  0.88075243261E+03 0.  0.
         23    2    4    4    0    0 -0.24812877464E+03 -0.32074265174E+03 -0.52579960488E+03  0.67283398853E+03  0.10861221932E+03 0.  0.
         23    2    4    4    0    0  0.29411609462E+03  0.29233670660E+03 -0.19472158657E+03  0.46637510825E+03  0.87316769175E+02 0.  0.
          4    1    3    3  502    0  0.14372255772E+02 -0.14207758334E+02 -0.43769860603E+01  0.20678011022E+02  0.00000000000E+00 0. -1.
         -1    1    3    3    0  502 -0.60359575760E+02  0.42613703477E+02  0.18974407942E+02  0.76283905686E+02  0.00000000000E+00 0.  1.
         11    1    5    5    0    0 -0.24413576509E+01 -0.61763517641E+02 -0.95182955499E+02  0.11349223478E+03  0.00000000000E+00 0. -1.
        -11    1    5    5    0    0 -0.24568741699E+03 -0.25897913410E+03 -0.43061664938E+03  0.55934175375E+03  0.00000000000E+00 0.  1.
          4    1    6    6  503    0  0.15789523143E+03  0.15164780379E+03 -0.54756534180E+02  0.22566842610E+03  0.00000000000E+00 0. -1.
         -4    1    6    6    0  503  0.13622086319E+03  0.14068890281E+03 -0.13996505239E+03  0.24070668215E+03  0.00000000000E+00 0.  1.
<mgrwt>
<rscale>  0 0.10147859E+04</rscale>
<asrwt>0</asrwt>
<pdfrwt beam="1">  1        4 0.14939190E+00 0.10147859E+04</pdfrwt>
<pdfrwt beam="2">  1       -3 0.40788250E-01 0.10147859E+04</pdfrwt>
<totfact> 0.40983510E+00</totfact>
</mgrwt>
</event>
<event>
11    6  0.1705838E-008  0.2039247E+04  0.7818608E-02  0.8588488E-01
          2   -1    0    0  501    0  0.00000000000E+00  0.00000000000E+00  0.76796908958E+03  0.76796908958E+03  0.00000000000E+00 0. -1.
         -1   -1    0    0    0  501 -0.00000000000E+00 -0.00000000000E+00 -0.13537419127E+04  0.13537419127E+04  0.00000000000E+00 0.  1.
         24    2    1    2    0    0 -0.56646981050E+03 -0.46147331652E+03  0.13749837759E+03  0.74780206237E+03  0.80352053981E+02 0.  0.
        254    2    1    2    0    0  0.56646981050E+03  0.46147331652E+03 -0.72327120072E+03  0.13739089399E+04  0.91140489208E+03 0.  0.
         23    2    4    4    0    0  0.44560895439E+03  0.68545635491E+03 -0.58537987333E+03  0.10097815280E+04  0.92581766065E+02 0.  0.
          4    1    3    3  502    0 -0.55843430678E+03 -0.46444677798E+03  0.13423151590E+03  0.73863237435E+03  0.00000000000E+00 0. -1.
         -3    1    3    3    0  502 -0.80355037195E+01  0.29734614697E+01  0.32668616909E+01  0.91696880233E+01  0.00000000000E+00 0.  1.
         11    1    4    4    0    0  0.29395948513E+02 -0.19645674599E+03 -0.27808343793E+01  0.19866330279E+03  0.00000000000E+00 0.  1.
        -11    1    4    4    0    0  0.91464907602E+02 -0.27526292408E+02 -0.13511049301E+03  0.16546410915E+03  0.00000000000E+00 0. -1.
          4    1    5    5  503    0  0.25272060556E+03  0.46335145997E+03 -0.39748416497E+03  0.66072380109E+03  0.00000000000E+00 0. -1.
         -4    1    5    5    0  503  0.19288834883E+03  0.22210489495E+03 -0.18789570836E+03  0.34905772688E+03  0.00000000000E+00 0.  1.
<mgrwt>
<rscale>  0 0.20392469E+04</rscale>
<asrwt>0</asrwt>
<pdfrwt beam="1">  1        2 0.11814909E+00 0.20392469E+04</pdfrwt>
<pdfrwt beam="2">  1       -1 0.20826798E+00 0.20392469E+04</pdfrwt>
<totfact> 0.50757399E+00</totfact>
</mgrwt>
</event>
<event>
12    6  0.1705838E-008  0.1380770E+04  0.7818608E-02  0.8967857E-01
          4   -1    0    0  501    0  0.00000000000E+00  0.00000000000E+00  0.32892480409E+03  0.32892480409E+03  0.00000000000E+00 0. -1.
         -3   -1    0    0    0  501 -0.00000000000E+00 -0.00000000000E+00 -0.14490597049E+04  0.14490597049E+04  0.00000000000E+00 0.  1.
         24    2    1    2    0    0  0.35927245096E+03 -0.97358835309E+02 -0.33705126255E+03  0.50649446742E+03  0.66163850480E+02 0.  0.
        254    2    1    2    0    0 -0.35927245096E+03  0.97358835309E+02 -0.78308363827E+03  0.12714900416E+04  0.93000618519E+03 0.  0.
         23    2    4    4    0    0 -0.40552324962E+03 -0.32599449607E+03 -0.59375745405E+03  0.79655899963E+03  0.10600381221E+03 0.  0.
         23    2    4    4    0    0  0.46250798659E+02  0.42335333138E+03 -0.18932618422E+03  0.47493104195E+03  0.91366903261E+02 0.  0.
          4    1    3    3  502    0  0.27268796392E+03 -0.68160746620E+02 -0.21422695491E+03  0.35340883020E+03  0.00000000000E+00 0. -1.
         -3    1    3    3    0  502  0.86584487035E+02 -0.29198088690E+02 -0.12282430763E+03  0.15308563722E+03  0.00000000000E+00 0.  1.
         11    1    5    5    0    0 -0.28131940075E+03 -0.23986988020E+03 -0.48738479217E+03  0.61173695352E+03  0.00000000000E+00 0. -1.
        -11    1    5    5    0    0 -0.12420384887E+03 -0.86124615877E+02 -0.10637266188E+03  0.18482204611E+03  0.00000000000E+00 0.  1.
          3    1    6    6  503    0  0.31781520264E+02  0.38809627863E+03 -0.14271860877E+03  0.41472567778E+03  0.00000000000E+00 0. -1.
         -3    1    6    6    0  503  0.14469278395E+02  0.35257052747E+02 -0.46607575457E+02  0.60205364177E+02  0.00000000000E+00 0.  1.
<mgrwt>
<rscale>  0 0.13807703E+04</rscale>
<asrwt>0</asrwt>
<pdfrwt beam="1">  1        4 0.50603815E-01 0.13807703E+04</pdfrwt>
<pdfrwt beam="2">  1       -3 0.22293226E+00 0.13807703E+04</pdfrwt>
<totfact> 0.88901129E-01</totfact>
</mgrwt>
</event>
<event>
11    6  0.1705838E-008  0.1680938E+04  0.7818608E-02  0.8772312E-01
          2   -1    0    0  501    0  0.00000000000E+00  0.00000000000E+00  0.51066890701E+03  0.51066890701E+03  0.00000000000E+00 0. -1.
         -1   -1    0    0    0  501 -0.00000000000E+00 -0.00000000000E+00 -0.13832597141E+04  0.13832597141E+04  0.00000000000E+00 0.  1.
         24    2    1    2    0    0 -0.16449695518E+03 -0.15855642442E+03 -0.89811942426E+03  0.93119309109E+03  0.91119068576E+02 0.  0.
        254    2    1    2    0    0  0.16449695518E+03  0.15855642442E+03  0.25528617125E+02  0.96273553007E+03  0.93488427229E+03 0.  0.
         23    2    4    4    0    0  0.16613956649E+03 -0.32166162559E+03 -0.18052882275E+03  0.41466597527E+03  0.91042068705E+02 0.  0.
          2    1    3    3  502    0 -0.73651141644E+02 -0.65073523084E+02 -0.22439189742E+03  0.24497097318E+03  0.00000000000E+00 0. -1.
         -1    1    3    3    0  502 -0.90845813539E+02 -0.93482901336E+02 -0.67372752685E+03  0.68622211791E+03  0.00000000000E+00 0.  1.
         11    1    4    4    0    0  0.31333636182E+02  0.23239092213E+03  0.18213091021E+03  0.29691582292E+03  0.00000000000E+00 0.  1.
        -11    1    4    4    0    0 -0.32976247491E+02  0.24782712789E+03  0.23926529658E+02  0.25115373188E+03  0.00000000000E+00 0. -1.
          2    1    5    5  503    0  0.68635690618E+01 -0.18901008513E+02 -0.40110009205E+02  0.44868357909E+02  0.00000000000E+00 0. -1.
         -2    1    5    5    0  503  0.15927599743E+03 -0.30276061708E+03 -0.14041881354E+03  0.36979761736E+03  0.00000000000E+00 0.  1.
<mgrwt>
<rscale>  0 0.16809375E+04</rscale>
<asrwt>0</asrwt>
<pdfrwt beam="1">  1        2 0.78564450E-01 0.16809375E+04</pdfrwt>
<pdfrwt beam="2">  1       -1 0.21280918E+00 0.16809375E+04</pdfrwt>
<totfact> 0.80501892E+00</totfact>
</mgrwt>
</event>
<event>
12    6  0.1705838E-008  0.1457833E+04  0.7818608E-02  0.8912988E-01
          4   -1    0    0  501    0  0.00000000000E+00  0.00000000000E+00  0.52055731617E+03  0.52055731617E+03  0.00000000000E+00 0. -1.
         -3   -1    0    0    0  501 -0.00000000000E+00 -0.00000000000E+00 -0.10206743351E+04  0.10206743351E+04  0.00000000000E+00 0.  1.
         24    2    1    2    0    0 -0.39913834474E+03  0.11641882117E+03  0.11044070066E+02  0.42338962111E+03  0.79196209618E+02 0.  0.
        254    2    1    2    0    0  0.39913834474E+03 -0.11641882117E+03 -0.51116108896E+03  0.11178420301E+04  0.90300630411E+03 0.  0.
         23    2    4    4    0    0 -0.11564267232E+03 -0.36851534036E+03 -0.14533555457E+03  0.43159479920E+03  0.12639170676E+03 0.  0.
         23    2    4    4    0    0  0.51478101706E+03  0.25209651919E+03 -0.36582553439E+03  0.68624723091E+03  0.92492106752E+02 0.  0.
          4    1    3    3  502    0 -0.23742377290E+02 -0.11821799220E+02  0.18462091055E+01  0.26586912274E+02  0.00000000000E+00 0. -1.
         -3    1    3    3    0  502 -0.37539596745E+03  0.12824062039E+03  0.91978609610E+01  0.39680270883E+03  0.00000000000E+00 0.  1.
         11    1    5    5    0    0 -0.75848745933E+02 -0.83927106772E+02 -0.88411430501E+01  0.11346786911E+03  0.00000000000E+00 0. -1.
        -11    1    5    5    0    0 -0.39793926392E+02 -0.28458823359E+03 -0.13649441152E+03  0.31812693009E+03  0.00000000000E+00 0.  1.
          2    1    6    6  503    0  0.46894777349E+03  0.20235586251E+03 -0.30256977086E+03  0.59363993767E+03  0.00000000000E+00 0. -1.
         -2    1    6    6    0  503  0.45833243569E+02  0.49740656676E+02 -0.63255763525E+02  0.92607293243E+02  0.00000000000E+00 0.  1.
<mgrwt>
<rscale>  0 0.14578333E+04</rscale>
<asrwt>0</asrwt>
<pdfrwt beam="1">  1        4 0.80085742E-01 0.14578333E+04</pdfrwt>
<pdfrwt beam="2">  1       -3 0.15702682E+00 0.14578333E+04</pdfrwt>
<totfact> 0.87852520E-01</totfact>
</mgrwt>
</event>
<event>
11    6  0.1705838E-008  0.1416776E+04  0.7818608E-02  0.8941764E-01
          2   -1    0    0  501    0  0.00000000000E+00  0.00000000000E+00  0.68901729202E+03  0.68901729202E+03  0.00000000000E+00 0. -1.
         -1   -1    0    0    0  501 -0.00000000000E+00 -0.00000000000E+00 -0.72830322832E+03  0.72830322832E+03  0.00000000000E+00 0.  1.
         24    2    1    2    0    0 -0.38143217002E+02 -0.40815559446E+03  0.79184478331E+01  0.41778731839E+03  0.80234950594E+02 0.  0.
        254    2    1    2    0    0  0.38143217002E+02  0.40815559446E+03 -0.47204384136E+02  0.99953320195E+03  0.91038040050E+03 0.  0.
         23    2    4    4    0    0 -0.17488542476E+02  0.51972130972E+03  0.25430642557E+03  0.58609889209E+03  0.91782701656E+02 0.  0.
          2    1    3    3  502    0 -0.47010307786E+02 -0.22350652980E+03  0.34624188371E+02  0.23100643350E+03  0.00000000000E+00 0. -1.
         -1    1    3    3    0  502  0.88670907849E+01 -0.18464906466E+03 -0.26705740538E+02  0.18678088488E+03  0.00000000000E+00 0.  1.
         11    1    4    4    0    0  0.14964643507E+03 -0.32704546798E+02 -0.12119478212E+03  0.19532490401E+03  0.00000000000E+00 0. -1.
        -11    1    4    4    0    0 -0.94014675595E+02 -0.78861168465E+02 -0.18031602758E+03  0.21810940585E+03  0.00000000000E+00 0.  1.
          3    1    5    5  503    0 -0.55291308057E+02  0.29271946742E+03  0.14039586630E+03  0.32932174940E+03  0.00000000000E+00 0. -1.
         -3    1    5    5    0  503  0.37802765581E+02  0.22700184231E+03  0.11391055927E+03  0.25677714269E+03  0.00000000000E+00 0.  1.
<mgrwt>
<rscale>  0 0.14167759E+04</rscale>
<asrwt>0</asrwt>
<pdfrwt beam="1">  1        2 0.10600266E+00 0.14167759E+04</pdfrwt>
<pdfrwt beam="2">  1       -1 0.11204665E+00 0.14167759E+04</pdfrwt>
<totfact> 0.33920640E+01</totfact>
</mgrwt>
</event>
<event>
12    6  0.1705838E-008  0.1229990E+04  0.7818608E-02  0.9087004E-01
         -1   -1    0    0    0  501 -0.00000000000E+00  0.00000000000E+00  0.55122477350E+03  0.55122477350E+03  0.00000000000E+00 0.  1.
          2   -1    0    0  501    0  0.00000000000E+00 -0.00000000000E+00 -0.68614249381E+03  0.68614249381E+03  0.00000000000E+00 0. -1.
         24    2    1    2    0    0  0.11095327146E+03 -0.24477739411E+03 -0.50403358524E+02  0.28438822737E+03  0.78163701296E+02 0.  0.
        254    2    1    2    0    0 -0.11095327146E+03  0.24477739411E+03 -0.84514361790E+02  0.95297903993E+03  0.91038440897E+03 0.  0.
         23    2    4    4    0    0 -0.44807582783E+03 -0.13684993094E+02 -0.20297625708E+03  0.50321168810E+03  0.10518277225E+03 0.  0.
         23    2    4    4    0    0  0.33712255637E+03  0.25846238720E+03  0.11846189529E+03  0.44976735183E+03  0.88334741350E+02 0.  0.
          2    1    3    3  502    0  0.84801794336E+02 -0.23824676842E+03 -0.44081956615E+02  0.25670232934E+03  0.00000000000E+00 0. -1.
         -1    1    3    3    0  502  0.26151477129E+02 -0.65306256847E+01 -0.63214019093E+01  0.27685898034E+02  0.00000000000E+00 0.  1.
         11    1    5    5    0    0 -0.21434323212E+03 -0.99254477684E+01 -0.15467558643E+03  0.26451100677E+03  0.00000000000E+00 0.  1.
        -11    1    5    5    0    0 -0.23373259571E+03 -0.37595453257E+01 -0.48300670658E+02  0.23870068133E+03  0.00000000000E+00 0. -1.
          4    1    6    6  503    0  0.18983900659E+03  0.19149298716E+03  0.50767875630E+02  0.27438256095E+03  0.00000000000E+00 0.  1.
         -4    1    6    6    0  503  0.14728354977E+03  0.66969400041E+02  0.67694019665E+02  0.17538479088E+03  0.00000000000E+00 0. -1.
<mgrwt>
<rscale>  0 0.12299898E+04</rscale>
<asrwt>0</asrwt>
<pdfrwt beam="1">  1        2 0.10556038E+00 0.12299898E+04</pdfrwt>
<pdfrwt beam="2">  1       -1 0.84803811E-01 0.12299898E+04</pdfrwt>
<totfact> 0.65078970E+01</totfact>
</mgrwt>
</event>
<event>
12    6  0.1705838E-008  0.1800846E+04  0.7818608E-02  0.8705850E-01
          2   -1    0    0  501    0  0.00000000000E+00  0.00000000000E+00  0.36774491922E+04  0.36774491922E+04  0.00000000000E+00 0. -1.
         -1   -1    0    0    0  501 -0.00000000000E+00 -0.00000000000E+00 -0.22046839881E+03  0.22046839881E+03  0.00000000000E+00 0.  1.
         24    2    1    2    0    0 -0.20337351652E+03 -0.28342894523E+03  0.55701231488E+02  0.36208686721E+03  0.79445062766E+02 0.  0.
        254    2    1    2    0    0  0.20337351652E+03  0.28342894523E+03  0.34012795619E+04  0.35358307238E+04  0.90094588904E+03 0.  0.
         23    2    4    4    0    0  0.49554000517E+03  0.26915821350E+03  0.28290152146E+04  0.28866892708E+04  0.10789726995E+03 0.  0.
         23    2    4    4    0    0 -0.29216648865E+03  0.14270731739E+02  0.57226434732E+03  0.64914145306E+03  0.91286537880E+02 0.  0.
          4    1    3    3  502    0 -0.63899117520E+01 -0.27912196004E+02 -0.14211486694E+02  0.31966983155E+02  0.00000000000E+00 0. -1.
         -3    1    3    3    0  502 -0.19698360477E+03 -0.25551674923E+03  0.69912718182E+02  0.33011988406E+03  0.00000000000E+00 0.  1.
         11    1    5    5    0    0  0.43395008641E+03  0.19612533665E+03  0.22497132339E+04  0.22995624496E+04  0.00000000000E+00 0. -1.
        -11    1    5    5    0    0  0.61589918763E+02  0.73032876850E+02  0.57930198075E+03  0.58712682114E+03  0.00000000000E+00 0.  1.
          4    1    6    6  503    0 -0.12112773863E+03  0.13772553324E+02  0.33625117160E+03  0.35766809012E+03  0.00000000000E+00 0. -1.
         -4    1    6    6    0  503 -0.17103875002E+03  0.49817841518E+00  0.23601317572E+03  0.29147336294E+03  0.00000000000E+00 0.  1.
<mgrwt>
<rscale>  0 0.18008457E+04</rscale>
<asrwt>0</asrwt>
<pdfrwt beam="1">  1        2 0.56576137E+00 0.18008457E+04</pdfrwt>
<pdfrwt beam="2">  1       -1 0.33918218E-01 0.18008457E+04</pdfrwt>
<totfact> 0.54053024E+00</totfact>
</mgrwt>
</event>
<event>
12    6  0.1705838E-008  0.1687055E+04  0.7818608E-02  0.8768782E-01
         -1   -1    0    0    0  501 -0.00000000000E+00  0.00000000000E+00  0.42959668074E+03  0.42959668074E+03  0.00000000000E+00 0.  1.
          2   -1    0    0  501    0  0.00000000000E+00 -0.00000000000E+00 -0.16562938758E+04  0.16562938758E+04  0.00000000000E+00 0. -1.
         24    2    1    2    0    0  0.30428767796E+03 -0.48969678476E+03 -0.67113460133E+03  0.88837197392E+03  0.79932339978E+02 0.  0.
        254    2    1    2    0    0 -0.30428767796E+03  0.48969678476E+03 -0.55556259371E+03  0.11975185826E+04  0.89050942060E+03 0.  0.
         23    2    4    4    0    0  0.11380082982E+03 -0.20410676624E+03 -0.15754338130E+03  0.29053410387E+03  0.70568744005E+02 0.  0.
         23    2    4    4    0    0 -0.41808850778E+03  0.69380355100E+03 -0.39801921241E+03  0.90698447872E+03  0.89667070232E+02 0.  0.
          2    1    3    3  502    0  0.50723669249E+02 -0.74487282246E+02 -0.15345331350E+03  0.17795832451E+03  0.00000000000E+00 0. -1.
         -1    1    3    3    0  502  0.25356400871E+03 -0.41520950251E+03 -0.51768128783E+03  0.71041364941E+03  0.00000000000E+00 0.  1.
         11    1    5    5    0    0  0.71915568109E+02 -0.13336418901E+03 -0.14037062476E+03  0.20654725402E+03  0.00000000000E+00 0.  1.
        -11    1    5    5    0    0  0.41885261709E+02 -0.70742577224E+02 -0.17172756537E+02  0.83986849850E+02  0.00000000000E+00 0. -1.
          1    1    6    6  503    0 -0.19282352987E+02  0.53101832551E+02 -0.51908127955E+02  0.76720711055E+02  0.00000000000E+00 0. -1.
         -1    1    6    6    0  503 -0.39880615479E+03  0.64070171845E+03 -0.34611108445E+03  0.83026376767E+03  0.00000000000E+00 0.  1.
<mgrwt>
<rscale>  0 0.16870547E+04</rscale>
<asrwt>0</asrwt>
<pdfrwt beam="1">  1        2 0.25481445E+00 0.16870547E+04</pdfrwt>
<pdfrwt beam="2">  1       -1 0.66091796E-01 0.16870547E+04</pdfrwt>
<totfact> 0.26113580E+01</totfact>
</mgrwt>
</event>
<event>
12    6  0.1705838E-008  0.1868387E+04  0.7818608E-02  0.8670754E-01
          2   -1    0    0  501    0  0.00000000000E+00  0.00000000000E+00  0.68095873955E+03  0.68095873955E+03  0.00000000000E+00 0. -1.
         -1   -1    0    0    0  501 -0.00000000000E+00 -0.00000000000E+00 -0.12816007105E+04  0.12816007105E+04  0.00000000000E+00 0.  1.
         24    2    1    2    0    0  0.38522743931E+03  0.24583302696E+03 -0.83109097025E+03  0.95194936400E+03  0.81616993591E+02 0.  0.
        254    2    1    2    0    0 -0.38522743931E+03 -0.24583302696E+03  0.23044899929E+03  0.10106100861E+04  0.87143097699E+03 0.  0.
         23    2    4    4    0    0 -0.61462601484E+03 -0.14795758801E+03  0.33520738886E+03  0.72517002761E+03  0.11769022655E+03 0.  0.
         23    2    4    4    0    0  0.22939857554E+03 -0.97875438951E+02 -0.10475838957E+03  0.28544005846E+03  0.91095547535E+02 0.  0.
          2    1    3    3  502    0  0.26779814443E+03  0.13518499275E+03 -0.48832327942E+03  0.57310597070E+03  0.00000000000E+00 0. -1.
         -1    1    3    3    0  502  0.11742929488E+03  0.11064803422E+03 -0.34276769083E+03  0.37884339330E+03  0.00000000000E+00 0.  1.
         11    1    5    5    0    0 -0.23240813374E+03  0.83199943597E+00  0.10786534002E+03  0.25622092895E+03  0.00000000000E+00 0. -1.
        -11    1    5    5    0    0 -0.38221788110E+03 -0.14878958745E+03  0.22734204884E+03  0.46894909866E+03  0.00000000000E+00 0.  1.
          3    1    6    6  503    0  0.62985666277E+02 -0.55682892954E+02  0.48342841255E+00  0.84071472136E+02  0.00000000000E+00 0. -1.
         -3    1    6    6    0  503  0.16641290926E+03 -0.42192545997E+02 -0.10524181799E+03  0.20136858633E+03  0.00000000000E+00 0.  1.
<mgrwt>
<rscale>  0 0.18683867E+04</rscale>
<asrwt>0</asrwt>
<pdfrwt beam="1">  1        2 0.10476288E+00 0.18683867E+04</pdfrwt>
<pdfrwt beam="2">  1       -1 0.19716934E+00 0.18683867E+04</pdfrwt>
<totfact> 0.71604468E+00</totfact>
</mgrwt>
</event>
<event>
12    6  0.2000060E-008  0.1586173E+04  0.7818608E-02  0.8829088E-01
          2   -1    0    0  501    0  0.00000000000E+00  0.00000000000E+00  0.16350198154E+04  0.16350198154E+04  0.00000000000E+00 0. -1.
         -1   -1    0    0    0  501 -0.00000000000E+00 -0.00000000000E+00 -0.38469643882E+03  0.38469643882E+03  0.00000000000E+00 0.  1.
         24    2    1    2    0    0  0.20790594626E+03 -0.27439225533E+03  0.93821850121E+03  0.10045160657E+04  0.10140304707E+03 0.  0.
        254    2    1    2    0    0 -0.20790594626E+03  0.27439225533E+03  0.31210487540E+03  0.10152001886E+04  0.90261064547E+03 0.  0.
         23    2    4    4    0    0 -0.25708672804E+03  0.56429450383E+03  0.33041259226E+03  0.70669786983E+03  0.75680415659E+02 0.  0.
         23    2    4    4    0    0  0.49180781781E+02 -0.28990224850E+03 -0.18307716860E+02  0.30850231872E+03  0.91522921597E+02 0.  0.
          2    1    3    3  502    0  0.97326456481E+02 -0.18102397473E+03  0.65458027934E+03  0.68608852247E+03  0.00000000000E+00 0. -1.
         -1    1    3    3    0  502  0.11057948978E+03 -0.93368280598E+02  0.28363822186E+03  0.31842754322E+03  0.00000000000E+00 0.  1.
         11    1    5    5    0    0 -0.12467841336E+03  0.22131569765E+03  0.16948803695E+03  0.30537115033E+03  0.00000000000E+00 0. -1.
        -11    1    5    5    0    0 -0.13240831469E+03  0.34297880618E+03  0.16092455531E+03  0.40132671950E+03  0.00000000000E+00 0.  1.
          1    1    6    6  503    0  0.54465349168E+02 -0.88456665352E+02 -0.25113424787E+02  0.10687254095E+03  0.00000000000E+00 0. -1.
         -1    1    6    6    0  503 -0.52845673868E+01 -0.20144558315E+03  0.68057079273E+01  0.20162977777E+03  0.00000000000E+00 0.  1.
<mgrwt>
<rscale>  0 0.15861731E+04</rscale>
<asrwt>0</asrwt>
<pdfrwt beam="1">  1        2 0.25154151E+00 0.15861731E+04</pdfrwt>
<pdfrwt beam="2">  1       -1 0.59184068E-01 0.15861731E+04</pdfrwt>
<totfact> 0.33737327E+01</totfact>
</mgrwt>
</event>
<event>
12    6  0.1705838E-008  0.1735091E+04  0.7818608E-02  0.8741600E-01
         -1   -1    0    0    0  501 -0.00000000000E+00  0.00000000000E+00  0.65763350729E+03  0.65763350729E+03  0.00000000000E+00 0.  1.
          2   -1    0    0  501    0  0.00000000000E+00 -0.00000000000E+00 -0.11444603408E+04  0.11444603408E+04  0.00000000000E+00 0. -1.
         24    2    1    2    0    0  0.44133477759E+03 -0.13366993418E+03  0.26583847466E+03  0.53880182061E+03  0.83625773947E+02 0.  0.
        254    2    1    2    0    0 -0.44133477759E+03  0.13366993418E+03 -0.75266530818E+03  0.12632920275E+04  0.90374644861E+03 0.  0.
         23    2    4    4    0    0  0.22427958596E+03  0.16567267452E+03 -0.41032338312E+03  0.50859806381E+03  0.11206223277E+03 0.  0.
         23    2    4    4    0    0 -0.66561436354E+03 -0.32002740346E+02 -0.34234192506E+03  0.75469396369E+03  0.91095163567E+02 0.  0.
          2    1    3    3  502    0  0.10100212305E+02 -0.19800070904E+02  0.80077858955E+01  0.23625869960E+02  0.00000000000E+00 0. -1.
         -1    1    3    3    0  502  0.43123456528E+03 -0.11386986327E+03  0.25783068877E+03  0.51517595065E+03  0.00000000000E+00 0.  1.
         11    1    5    5    0    0 -0.63574089803E+01  0.20661882033E+02 -0.87258685509E+01  0.23312460188E+02  0.00000000000E+00 0.  1.
        -11    1    5    5    0    0  0.23063699494E+03  0.14501079249E+03 -0.40159751457E+03  0.48528560362E+03  0.00000000000E+00 0. -1.
          3    1    6    6  503    0 -0.34052578336E+03  0.11064287763E+02 -0.13359304323E+03  0.36596082959E+03  0.00000000000E+00 0. -1.
         -3    1    6    6    0  503 -0.32508858018E+03 -0.43067028109E+02 -0.20874888183E+03  0.38873313409E+03  0.00000000000E+00 0.  1.
<mgrwt>
<rscale>  0 0.17350913E+04</rscale>
<asrwt>0</asrwt>
<pdfrwt beam="1">  1        2 0.17607082E+00 0.17350913E+04</pdfrwt>
<pdfrwt beam="2">  1       -1 0.10117439E+00 0.17350913E+04</pdfrwt>
<totfact> 0.20548153E+01</totfact>
</mgrwt>
</event>
<event>
11    6  0.1705838E-008  0.1300060E+04  0.7818608E-02  0.9029518E-01
          2   -1    0    0  501    0  0.00000000000E+00  0.00000000000E+00  0.27382435354E+04  0.27382435354E+04  0.00000000000E+00 0. -1.
         -1   -1    0    0    0  501 -0.00000000000E+00 -0.00000000000E+00 -0.15431015836E+03  0.15431015836E+03  0.00000000000E+00 0.  1.
         24    2    1    2    0    0 -0.28748211842E+02  0.16512987440E+03  0.13304553969E+04  0.13432821376E+04  0.78746448108E+02 0.  0.
        254    2    1    2    0    0  0.28748211842E+02 -0.16512987440E+03  0.12534779802E+04  0.15492715561E+04  0.89495305617E+03 0.  0.
         23    2    4    4    0    0  0.21742884257E+03  0.17085172872E+03  0.13793755256E+03  0.32219534854E+03  0.91200106521E+02 0.  0.
          2    1    3    3  502    0 -0.13836304917E+02  0.52809275876E+02  0.74278119373E+03  0.74478464318E+03  0.00000000000E+00 0. -1.
         -1    1    3    3    0  502 -0.14911906924E+02  0.11232059853E+03  0.58767420314E+03  0.59849749445E+03  0.00000000000E+00 0.  1.
         11    1    4    4    0    0 -0.25639545985E+03 -0.29930236147E+03  0.10633827193E+04  0.11340649642E+04  0.00000000000E+00 0. -1.
        -11    1    4    4    0    0  0.67714829119E+02 -0.36679241649E+02  0.52157708292E+02  0.93011243324E+02  0.00000000000E+00 0.  1.
          3    1    5    5  503    0  0.16661113747E+03  0.15666603232E+03  0.76370403429E+02  0.24111398826E+03  0.00000000000E+00 0. -1.
         -3    1    5    5    0  503  0.50817705099E+02  0.14185696395E+02  0.61567149132E+02  0.81081360287E+02  0.00000000000E+00 0.  1.
<mgrwt>
<rscale>  0 0.13000597E+04</rscale>
<asrwt>0</asrwt>
<pdfrwt beam="1">  1        2 0.42126820E+00 0.13000597E+04</pdfrwt>
<pdfrwt beam="2">  1       -1 0.23740026E-01 0.13000597E+04</pdfrwt>
<totfact> 0.43371444E+01</totfact>
</mgrwt>
</event>
<event>
11    6  0.1705838E-008  0.1471604E+04  0.7818608E-02  0.8903558E-01
         -1   -1    0    0    0  501 -0.00000000000E+00  0.00000000000E+00  0.18226513319E+03  0.18226513319E+03  0.00000000000E+00 0.  1.
          2   -1    0    0  501    0  0.00000000000E+00 -0.00000000000E+00 -0.29704247353E+04  0.29704247353E+04  0.00000000000E+00 0. -1.
         24    2    1    2    0    0  0.10141348028E+03 -0.18230091718E+03 -0.96897193837E+01  0.22289259334E+03  0.77903139331E+02 0.  0.
        254    2    1    2    0    0 -0.10141348028E+03  0.18230091718E+03 -0.27784698827E+04  0.29297972751E+04  0.90570351984E+03 0.  0.
         23    2    4    4    0    0  0.27515373553E+03  0.29612285501E+03 -0.72096995505E+03  0.83107963859E+03  0.86587332587E+02 0.  0.
          4    1    3    3  502    0 -0.87391624138E+01 -0.24195483952E+01 -0.77912448888E+01  0.11955361603E+02  0.00000000000E+00 0. -1.
         -3    1    3    3    0  502  0.11015264269E+03 -0.17988136878E+03 -0.18984744950E+01  0.21093723174E+03  0.00000000000E+00 0.  1.
         11    1    4    4    0    0 -0.29919829722E+01 -0.20727507568E+01 -0.23238845997E+03  0.23241696277E+03  0.00000000000E+00 0. -1.
        -11    1    4    4    0    0 -0.37357523283E+03 -0.11174918708E+03 -0.18251114677E+04  0.18663006738E+04  0.00000000000E+00 0.  1.
          2    1    5    5  503    0  0.66375601680E+01  0.33880357483E+02 -0.96566383139E+02  0.10255243625E+03  0.00000000000E+00 0. -1.
         -2    1    5    5    0  503  0.26851617536E+03  0.26224249753E+03 -0.62440357191E+03  0.72852720234E+03  0.00000000000E+00 0.  1.
<mgrwt>
<rscale>  0 0.14716044E+04</rscale>
<asrwt>0</asrwt>
<pdfrwt beam="1">  1        2 0.45698839E+00 0.14716044E+04</pdfrwt>
<pdfrwt beam="2">  1       -1 0.28040792E-01 0.14716044E+04</pdfrwt>
<totfact> 0.23179906E+01</totfact>
</mgrwt>
</event>
<event>
11    6  0.1705838E-008  0.2167453E+04  0.7818608E-02  0.8532098E-01
         -1   -1    0    0    0  501 -0.00000000000E+00  0.00000000000E+00  0.11872091882E+04  0.11872091882E+04  0.00000000000E+00 0.  1.
          2   -1    0    0  501    0  0.00000000000E+00 -0.00000000000E+00 -0.98926395934E+03  0.98926395934E+03  0.00000000000E+00 0. -1.
         24    2    1    2    0    0 -0.69528752564E+03 -0.32908578847E+03  0.53138454218E+03  0.93823986586E+03  0.78754775868E+02 0.  0.
        254    2    1    2    0    0  0.69528752564E+03  0.32908578847E+03 -0.33343931334E+03  0.12382332817E+04  0.91121769334E+03 0.  0.
         23    2    4    4    0    0  0.77402299130E+03  0.19161414665E+03  0.47426606829E+02  0.80368231782E+03  0.88478317547E+02 0.  0.
          2    1    3    3  502    0 -0.67345061829E+03 -0.32358166390E+03  0.52926333542E+03  0.91562028522E+03  0.00000000000E+00 0. -1.
         -1    1    3    3    0  502 -0.21836907348E+02 -0.55041245782E+01  0.21212067612E+01  0.22619580633E+02  0.00000000000E+00 0.  1.
         11    1    4    4    0    0 -0.83276840981E+02  0.12394224726E+03 -0.38999905833E+03  0.41760744533E+03  0.00000000000E+00 0.  1.
        -11    1    4    4    0    0  0.45413753215E+01  0.13529394565E+02  0.91331381586E+01  0.16943518517E+02  0.00000000000E+00 0. -1.
          4    1    5    5  503    0  0.30906461449E+02  0.26912398755E+02 -0.99918411063E+00  0.40993718237E+02  0.00000000000E+00 0. -1.
         -4    1    5    5    0  503  0.74311652985E+03  0.16470174789E+03  0.48425790939E+02  0.76268859958E+03  0.00000000000E+00 0.  1.
<mgrwt>
<rscale>  0 0.21674531E+04</rscale>
<asrwt>0</asrwt>
<pdfrwt beam="1">  1        2 0.15219446E+00 0.21674531E+04</pdfrwt>
<pdfrwt beam="2">  1       -1 0.18264757E+00 0.21674531E+04</pdfrwt>
<totfact> 0.53293434E+00</totfact>
</mgrwt>
</event>
<event>
12    6  0.1705838E-008  0.2094214E+04  0.7818608E-02  0.8563796E-01
         -1   -1    0    0    0  501 -0.00000000000E+00  0.00000000000E+00  0.31313937763E+03  0.31313937763E+03  0.00000000000E+00 0.  1.
          2   -1    0    0  501    0  0.00000000000E+00 -0.00000000000E+00 -0.35014218262E+04  0.35014218262E+04  0.00000000000E+00 0. -1.
         24    2    1    2    0    0  0.69210514956E+03 -0.26216241947E+03 -0.20920975507E+04  0.22204354933E+04  0.75650157351E+02 0.  0.
        254    2    1    2    0    0 -0.69210514956E+03  0.26216241947E+03 -0.10961848979E+04  0.15941257105E+04  0.88987458570E+03 0.  0.
         23    2    4    4    0    0 -0.15581047581E+03 -0.28542658812E+03 -0.55106438003E+03  0.64908085139E+03  0.10903558647E+03 0.  0.
         23    2    4    4    0    0 -0.53629467375E+03  0.54758900760E+03 -0.54512051788E+03  0.94504485913E+03  0.92128759980E+02 0.  0.
          2    1    3    3  502    0  0.65080514604E+03 -0.24038195167E+03 -0.20045601530E+04  0.21212242286E+04  0.00000000000E+00 0. -1.
         -1    1    3    3    0  502  0.41300003525E+02 -0.21780467801E+02 -0.87537397646E+02  0.99211264760E+02  0.00000000000E+00 0.  1.
         11    1    5    5    0    0 -0.12700384674E+03 -0.28297146392E+03 -0.52684356906E+03  0.61136484421E+03  0.00000000000E+00 0.  1.
        -11    1    5    5    0    0 -0.28806629066E+02 -0.24551242044E+01 -0.24220810977E+02  0.37716007177E+02  0.00000000000E+00 0. -1.
          3    1    6    6  503    0 -0.17709026220E+03  0.18710216535E+03 -0.13142201278E+03  0.28920568232E+03  0.00000000000E+00 0. -1.
         -3    1    6    6    0  503 -0.35920441155E+03  0.36048684225E+03 -0.41369850510E+03  0.65583917681E+03  0.00000000000E+00 0.  1.
<mgrwt>
<rscale>  0 0.20942140E+04</rscale>
<asrwt>0</asrwt>
<pdfrwt beam="1">  1        2 0.53868024E+00 0.20942140E+04</pdfrwt>
<pdfrwt beam="2">  1       -1 0.48175292E-01 0.20942140E+04</pdfrwt>
<totfact> 0.36830539E+00</totfact>
</mgrwt>
</event>
<event>
12    6  0.1705838E-008  0.2739422E+04  0.7818608E-02  0.8322326E-01
         -1   -1    0    0    0  501 -0.00000000000E+00  0.00000000000E+00  0.10172134921E+04  0.10172134921E+04  0.00000000000E+00 0.  1.
          2   -1    0    0  501    0  0.00000000000E+00 -0.00000000000E+00 -0.18443605010E+04  0.18443605010E+04  0.00000000000E+00 0. -1.
         24    2    1    2    0    0  0.11723394587E+04 -0.34261150167E+03 -0.41049179474E+03  0.12909870865E+04  0.79885521654E+02 0.  0.
        254    2    1    2    0    0 -0.11723394587E+04  0.34261150167E+03 -0.41665521416E+03  0.15705869066E+04  0.89519786426E+03 0.  0.
         23    2    4    4    0    0 -0.10300644949E+04 -0.97424816524E+02 -0.25181422150E+03  0.10712196476E+04  0.11651897958E+03 0.  0.
         23    2    4    4    0    0 -0.14227496374E+03  0.44003631819E+03 -0.16484099266E+03  0.49936725900E+03  0.91219405093E+02 0.  0.
          4    1    3    3  502    0  0.11563840291E+04 -0.32999258816E+03 -0.39622754155E+03  0.12661419335E+04  0.00000000000E+00 0. -1.
         -3    1    3    3    0  502  0.15955429572E+02 -0.12618913511E+02 -0.14264253195E+02  0.24845153053E+02  0.00000000000E+00 0.  1.
         11    1    5    5    0    0 -0.48065449198E+03 -0.25543194874E+02 -0.17336184669E+03  0.51160094346E+03  0.00000000000E+00 0.  1.
        -11    1    5    5    0    0 -0.54941000295E+03 -0.71881621650E+02 -0.78452374807E+02  0.55961870411E+03  0.00000000000E+00 0. -1.
          1    1    6    6  503    0 -0.67806446292E+00  0.24905703942E+02  0.10455670840E+02  0.27019898463E+02  0.00000000000E+00 0.  1.
         -1    1    6    6    0  503 -0.14159689928E+03  0.41513061425E+03 -0.17529666350E+03  0.47234736054E+03  0.00000000000E+00 0. -1.
<mgrwt>
<rscale>  0 0.27394221E+04</rscale>
<asrwt>0</asrwt>
<pdfrwt beam="1">  1        2 0.28374777E+00 0.27394221E+04</pdfrwt>
<pdfrwt beam="2">  1       -1 0.15649438E+00 0.27394221E+04</pdfrwt>
<totfact> 0.25217609E+00</totfact>
</mgrwt>
</event>
<event>
11    6  0.1705838E-008  0.2251759E+04  0.7818608E-02  0.8497188E-01
         -1   -1    0    0    0  501 -0.00000000000E+00  0.00000000000E+00  0.46784591384E+03  0.46784591384E+03  0.00000000000E+00 0.  1.
          2   -1    0    0  501    0  0.00000000000E+00 -0.00000000000E+00 -0.27094498232E+04  0.27094498232E+04  0.00000000000E+00 0. -1.
         24    2    1    2    0    0  0.30998031358E+03 -0.59672455115E+03 -0.18775072039E+04  0.19959054806E+04  0.80233423128E+02 0.  0.
        254    2    1    2    0    0 -0.30998031358E+03  0.59672455115E+03 -0.36409670547E+03  0.11813902564E+04  0.90052681372E+03 0.  0.
         23    2    4    4    0    0 -0.54127701485E+02 -0.21362105645E+03 -0.15296374913E+03  0.28439747201E+03  0.94447073600E+02 0.  0.
          4    1    3    3  502    0  0.26698271739E+03 -0.55563974109E+03 -0.16745161735E+04  0.17843821644E+04  0.00000000000E+00 0. -1.
         -3    1    3    3    0  502  0.42997596189E+02 -0.41084810066E+02 -0.20299103035E+03  0.21152331620E+03  0.00000000000E+00 0.  1.
         11    1    4    4    0    0 -0.26609180061E+03  0.75837093809E+03 -0.23717531995E+03  0.83796387660E+03  0.00000000000E+00 0. -1.
        -11    1    4    4    0    0  0.10239188522E+02  0.51974669514E+02  0.26042363611E+02  0.59028907792E+02  0.00000000000E+00 0.  1.
          1    1    5    5  503    0 -0.12170985151E+02 -0.18243392710E+03 -0.14067610930E+03  0.23069468646E+03  0.00000000000E+00 0. -1.
         -1    1    5    5    0  503 -0.41956716334E+02 -0.31187129351E+02 -0.12287639831E+02  0.53702785545E+02  0.00000000000E+00 0.  1.
<mgrwt>
<rscale>  0 0.22517593E+04</rscale>
<asrwt>0</asrwt>
<pdfrwt beam="1">  1        2 0.41683844E+00 0.22517593E+04</pdfrwt>
<pdfrwt beam="2">  1       -1 0.71976293E-01 0.22517593E+04</pdfrwt>
<totfact> 0.52896550E+00</totfact>
</mgrwt>
</event>
<event>
12    6  0.1705838E-008  0.1302219E+04  0.7818608E-02  0.9027807E-01
         -1   -1    0    0    0  501 -0.00000000000E+00  0.00000000000E+00  0.15306447380E+03  0.15306447380E+03  0.00000000000E+00 0.  1.
          2   -1    0    0  501    0  0.00000000000E+00 -0.00000000000E+00 -0.27697055553E+04  0.27697055553E+04  0.00000000000E+00 0. -1.
         24    2    1    2    0    0 -0.56259102446E+02 -0.20254287230E+03 -0.13408176453E+04  0.13595890922E+04  0.80633988910E+02 0.  0.
        254    2    1    2    0    0  0.56259102446E+02  0.20254287230E+03 -0.12758234362E+04  0.15631809368E+04  0.87841931852E+03 0.  0.
         23    2    4    4    0    0  0.33465283674E+03  0.15611332371E+03 -0.17729371525E+03  0.42533272953E+03  0.11450318058E+03 0.  0.
         23    2    4    4    0    0 -0.27839373430E+03  0.46429548592E+02 -0.10985297210E+04  0.11378482073E+04  0.90951749533E+02 0.  0.
          2    1    3    3  502    0 -0.48141172272E+02 -0.19296907559E+03 -0.13225758257E+04  0.13374458686E+04  0.00000000000E+00 0. -1.
         -1    1    3    3    0  502 -0.81179301746E+01 -0.95737967122E+01 -0.18241819524E+02  0.22143223644E+02  0.00000000000E+00 0.  1.
         11    1    5    5    0    0  0.32085386551E+03  0.16814635501E+03 -0.14912748779E+03  0.39173895304E+03  0.00000000000E+00 0.  1.
        -11    1    5    5    0    0  0.13798971236E+02 -0.12033031305E+02 -0.28166227456E+02  0.33593776487E+02  0.00000000000E+00 0. -1.
          1    1    6    6  503    0 -0.78481743133E+02  0.16491772148E+02 -0.17567057527E+03  0.19311010738E+03  0.00000000000E+00 0. -1.
         -1    1    6    6    0  503 -0.19991199116E+03  0.29937776444E+02 -0.92285914569E+03  0.94473809993E+03  0.00000000000E+00 0.  1.
<mgrwt>
<rscale>  0 0.13022189E+04</rscale>
<asrwt>0</asrwt>
<pdfrwt beam="1">  1        2 0.42610856E+00 0.13022189E+04</pdfrwt>
<pdfrwt beam="2">  1       -1 0.23548380E-01 0.13022189E+04</pdfrwt>
<totfact> 0.42111114E+01</totfact>
</mgrwt>
</event>
<event>
12    6  0.1705838E-008  0.2907641E+04  0.7818608E-02  0.8270608E-01
          2   -1    0    0  501    0  0.00000000000E+00  0.00000000000E+00  0.23793187075E+04  0.23793187075E+04  0.00000000000E+00 0. -1.
         -1   -1    0    0    0  501 -0.00000000000E+00 -0.00000000000E+00 -0.88831878545E+03  0.88831878545E+03  0.00000000000E+00 0.  1.
         24    2    1    2    0    0 -0.56344498823E+03  0.95034239351E+02  0.19649774796E+04  0.20476212134E+04  0.71514873136E+02 0.  0.
        254    2    1    2    0    0  0.56344498823E+03 -0.95034239351E+02 -0.47397755748E+03  0.12200162795E+04  0.96813389361E+03 0.  0.
         23    2    4    4    0    0  0.63315223563E+03 -0.15553727960E+03 -0.69782855187E+03  0.96081364411E+03  0.10547308699E+03 0.  0.
         23    2    4    4    0    0 -0.69707247396E+02  0.60503040247E+02  0.22385099439E+03  0.25920263544E+03  0.92504163727E+02 0.  0.
          2    1    3    3  502    0 -0.30573239223E+03  0.21357135686E+02  0.97810831303E+03  0.10249996561E+04  0.00000000000E+00 0. -1.
         -1    1    3    3    0  502 -0.25771259600E+03  0.73677103665E+02  0.98686916653E+03  0.10226215574E+04  0.00000000000E+00 0.  1.
         11    1    5    5    0    0  0.55498962330E+03 -0.11749746146E+03 -0.64548638787E+03  0.85934382662E+03  0.00000000000E+00 0.  1.
        -11    1    5    5    0    0  0.78162612330E+02 -0.38039818139E+02 -0.52342164003E+02  0.10146981750E+03  0.00000000000E+00 0. -1.
          4    1    6    6  503    0 -0.66981387862E+01  0.52682969144E+02  0.45657570425E+02  0.70035519832E+02  0.00000000000E+00 0. -1.
         -4    1    6    6    0  503 -0.63009108610E+02  0.78200711030E+01  0.17819342397E+03  0.18916711560E+03  0.00000000000E+00 0.  1.
<mgrwt>
<rscale>  0 0.29076406E+04</rscale>
<asrwt>0</asrwt>
<pdfrwt beam="1">  1        2 0.36604903E+00 0.29076406E+04</pdfrwt>
<pdfrwt beam="2">  1       -1 0.13666443E+00 0.29076406E+04</pdfrwt>
<totfact> 0.17877910E+00</totfact>
</mgrwt>
</event>
<event>
12    6  0.1705838E-008  0.2203115E+04  0.7818608E-02  0.8517133E-01
          2   -1    0    0  501    0  0.00000000000E+00  0.00000000000E+00  0.18724068283E+04  0.18724068283E+04  0.00000000000E+00 0. -1.
         -1   -1    0    0    0  501 -0.00000000000E+00 -0.00000000000E+00 -0.64805816778E+03  0.64805816778E+03  0.00000000000E+00 0.  1.
         24    2    1    2    0    0  0.64781686815E+03 -0.31550709772E+02 -0.22770588209E+03  0.69204059968E+03  0.80050489846E+02 0.  0.
        254    2    1    2    0    0 -0.64781686815E+03  0.31550709772E+02  0.14520545426E+04  0.18284243964E+04  0.90222571274E+03 0.  0.
         23    2    4    4    0    0 -0.30869193564E+03 -0.28788025101E+03  0.18055920306E+03  0.47123853586E+03  0.10629384658E+03 0.  0.
         23    2    4    4    0    0 -0.33912493251E+03  0.31943096078E+03  0.12714953396E+04  0.13571858606E+04  0.90615688549E+02 0.  0.
          2    1    3    3  502    0  0.34519372542E+03 -0.30161556411E+02 -0.81584317050E+02  0.35598374731E+03  0.00000000000E+00 0. -1.
         -3    1    3    3    0  502  0.30262314272E+03 -0.13891533614E+01 -0.14612156504E+03  0.33605685237E+03  0.00000000000E+00 0.  1.
         11    1    5    5    0    0 -0.21310735762E+03 -0.19983742810E+03  0.17628885052E+03  0.34121474523E+03  0.00000000000E+00 0.  1.
        -11    1    5    5    0    0 -0.95584578016E+02 -0.88042822905E+02  0.42703525422E+01  0.13002379063E+03  0.00000000000E+00 0. -1.
          3    1    6    6  503    0 -0.20403899017E+03  0.13276545239E+03  0.69152401864E+03  0.73311939219E+03  0.00000000000E+00 0. -1.
         -3    1    6    6    0  503 -0.13508594234E+03  0.18666550839E+03  0.57997132095E+03  0.62406646839E+03  0.00000000000E+00 0.  1.
<mgrwt>
<rscale>  0 0.22031146E+04</rscale>
<asrwt>0</asrwt>
<pdfrwt beam="1">  1        2 0.28806259E+00 0.22031146E+04</pdfrwt>
<pdfrwt beam="2">  1       -1 0.99701257E-01 0.22031146E+04</pdfrwt>
<totfact> 0.78527163E+00</totfact>
</mgrwt>
</event>
<event>
12    6  0.1705838E-008  0.3921986E+04  0.7818608E-02  0.8020472E-01
          2   -1    0    0  501    0  0.00000000000E+00  0.00000000000E+00  0.31130709011E+04  0.31130709011E+04  0.00000000000E+00 0. -1.
         -1   -1    0    0    0  501 -0.00000000000E+00 -0.00000000000E+00 -0.12352732148E+04  0.12352732148E+04  0.00000000000E+00 0.  1.
         24    2    1    2    0    0  0.40218940983E+02  0.81537286919E+02 -0.11661509073E+04  0.11722669577E+04  0.77691628810E+02 0.  0.
        254    2    1    2    0    0 -0.40218940983E+02 -0.81537286919E+02  0.30439485935E+04  0.31760771582E+04  0.90198513416E+03 0.  0.
         23    2    4    4    0    0 -0.27332576254E+03 -0.17806602995E+03  0.44175996575E+03  0.56005991270E+03  0.11000343167E+03 0.  0.
         23    2    4    4    0    0  0.23310682155E+03  0.96528743033E+02  0.26021886278E+04  0.26160172455E+04  0.92217057040E+02 0.  0.
          2    1    3    3  502    0 -0.84762501422E+01 -0.70538938518E+01 -0.37230215050E+02  0.38829024551E+02  0.00000000000E+00 0. -1.
         -1    1    3    3    0  502  0.48695191125E+02  0.88591180770E+02 -0.11289206922E+04  0.11334379332E+04  0.00000000000E+00 0.  1.
         11    1    5    5    0    0 -0.23001353158E+03 -0.17842293236E+03  0.32916245816E+03  0.43941881089E+03  0.00000000000E+00 0.  1.
        -11    1    5    5    0    0 -0.43312230960E+02  0.35690240458E+00  0.11259750759E+03  0.12064110181E+03  0.00000000000E+00 0. -1.
          2    1    6    6  503    0  0.80480907817E+02  0.42541492645E+02  0.55291335015E+03  0.56035714316E+03  0.00000000000E+00 0. -1.
         -2    1    6    6    0  503  0.15262591374E+03  0.53987250387E+02  0.20492752776E+04  0.20556601023E+04  0.00000000000E+00 0.  1.
<mgrwt>
<rscale>  0 0.39219858E+04</rscale>
<asrwt>0</asrwt>
<pdfrwt beam="1">  1        2 0.47893398E+00 0.39219858E+04</pdfrwt>
<pdfrwt beam="2">  1       -1 0.19004203E+00 0.39219858E+04</pdfrwt>
<totfact> 0.23474644E-01</totfact>
</mgrwt>
</event>
<event>
11    6  0.1705838E-008  0.1449745E+04  0.7818608E-02  0.8918578E-01
         -1   -1    0    0    0  501 -0.00000000000E+00  0.00000000000E+00  0.55989526394E+03  0.55989526394E+03  0.00000000000E+00 0.  1.
          2   -1    0    0  501    0  0.00000000000E+00 -0.00000000000E+00 -0.93846105149E+03  0.93846105149E+03  0.00000000000E+00 0. -1.
         24    2    1    2    0    0  0.95803594220E+01  0.57730544998E+02  0.32832160603E+03  0.34317853672E+03  0.80943387403E+02 0.  0.
        254    2    1    2    0    0 -0.95803594220E+01 -0.57730544998E+02 -0.70688739359E+03  0.11551777787E+04  0.91176823486E+03 0.  0.
         23    2    4    4    0    0  0.24830665838E+03 -0.19529439638E+03  0.50381942104E+02  0.33284223377E+03  0.91921241499E+02 0.  0.
          4    1    3    3  502    0 -0.10273123560E+02  0.16172857088E+02  0.10133680854E+02  0.21674636369E+02  0.00000000000E+00 0. -1.
         -3    1    3    3    0  502  0.19853482982E+02  0.41557687910E+02  0.31818792518E+03  0.32150390035E+03  0.00000000000E+00 0.  1.
         11    1    4    4    0    0 -0.23374550700E+03  0.13315450897E+03 -0.74993169724E+03  0.79672117822E+03  0.00000000000E+00 0. -1.
        -11    1    4    4    0    0 -0.24141510802E+02  0.44093424154E+01 -0.73376384485E+01  0.25614366717E+02  0.00000000000E+00 0.  1.
          3    1    5    5  503    0  0.14097299305E+03 -0.16574338128E+03  0.37055521724E+02  0.22072010533E+03  0.00000000000E+00 0. -1.
         -3    1    5    5    0  503  0.10733366533E+03 -0.29551015107E+02  0.13326420380E+02  0.11212212844E+03  0.00000000000E+00 0.  1.
<mgrwt>
<rscale>  0 0.14497447E+04</rscale>
<asrwt>0</asrwt>
<pdfrwt beam="1">  1        2 0.14437862E+00 0.14497447E+04</pdfrwt>
<pdfrwt beam="2">  1       -1 0.86137734E-01 0.14497447E+04</pdfrwt>
<totfact> 0.40683305E+01</totfact>
</mgrwt>
</event>
<event>
11    6  0.1705838E-008  0.2175705E+04  0.7818608E-02  0.8528609E-01
         -1   -1    0    0    0  501 -0.00000000000E+00  0.00000000000E+00  0.66430249323E+03  0.66430249323E+03  0.00000000000E+00 0.  1.
          2   -1    0    0  501    0  0.00000000000E+00 -0.00000000000E+00 -0.17814522391E+04  0.17814522391E+04  0.00000000000E+00 0. -1.
         24    2    1    2    0    0 -0.34076009503E+03  0.31015183044E+03 -0.13260444725E+04  0.14061138452E+04  0.80315641775E+02 0.  0.
        254    2    1    2    0    0  0.34076009503E+03 -0.31015183044E+03  0.20889472658E+03  0.10396408872E+04  0.90824257068E+03 0.  0.
         23    2    4    4    0    0  0.52689429874E+02 -0.24741043145E+03  0.45752587291E+03  0.53100532949E+03  0.92998053486E+02 0.  0.
          2    1    3    3  502    0 -0.27691438467E+03  0.23171419553E+03 -0.93769505436E+03  0.10048109572E+04  0.00000000000E+00 0. -1.
         -1    1    3    3    0  502 -0.63845710360E+02  0.78437634916E+02 -0.38834941810E+03  0.40130288790E+03  0.00000000000E+00 0.  1.
         11    1    4    4    0    0  0.19720495247E+03 -0.99546061187E+02 -0.31895564349E+03  0.38798442506E+03  0.00000000000E+00 0.  1.
        -11    1    4    4    0    0  0.90865712687E+02  0.36804662195E+02  0.70324497166E+02  0.12065113262E+03  0.00000000000E+00 0. -1.
          1    1    5    5  503    0 -0.16139413236E+02 -0.87358912426E+01  0.15753863919E+02  0.24186373928E+02  0.00000000000E+00 0. -1.
         -1    1    5    5    0  503  0.68828843110E+02 -0.23867454021E+03  0.44177200899E+03  0.50681895556E+03  0.00000000000E+00 0.  1.
<mgrwt>
<rscale>  0 0.21757051E+04</rscale>
<asrwt>0</asrwt>
<pdfrwt beam="1">  1        2 0.27406957E+00 0.21757051E+04</pdfrwt>
<pdfrwt beam="2">  1       -1 0.10220038E+00 0.21757051E+04</pdfrwt>
<totfact> 0.83525259E+00</totfact>
</mgrwt>
</event>
<event>
11    6  0.1705838E-008  0.1837318E+04  0.7818608E-02  0.8686702E-01
          2   -1    0    0  501    0  0.00000000000E+00  0.00000000000E+00  0.70863891627E+03  0.70863891627E+03  0.00000000000E+00 0. -1.
         -1   -1    0    0    0  501 -0.00000000000E+00 -0.00000000000E+00 -0.11909232697E+04  0.11909232697E+04  0.00000000000E+00 0.  1.
         24    2    1    2    0    0  0.45557019690E+03 -0.31811470041E+03 -0.75441371969E+03  0.94050522918E+03  0.81663080716E+02 0.  0.
        254    2    1    2    0    0 -0.45557019690E+03  0.31811470041E+03  0.27212936628E+03  0.95905695676E+03  0.73279921356E+03 0.  0.
         23    2    4    4    0    0  0.82161518553E+02  0.35855461137E+03  0.86835433774E+02  0.38685258229E+03  0.82477896412E+02 0.  0.
          2    1    3    3  502    0  0.15645333697E+02 -0.56585179220E+00 -0.75763968860E+01  0.17392482414E+02  0.00000000000E+00 0. -1.
         -1    1    3    3    0  502  0.43992486320E+03 -0.31754884861E+03 -0.74683732280E+03  0.92311274677E+03  0.00000000000E+00 0.  1.
         11    1    4    4    0    0 -0.28183353581E+03 -0.40101670622E+02  0.11310616398E+03  0.30631893547E+03  0.00000000000E+00 0. -1.
        -11    1    4    4    0    0 -0.25589817964E+03 -0.33824034113E+00  0.72187768523E+02  0.26588543901E+03  0.00000000000E+00 0.  1.
          3    1    5    5  503    0  0.50859509409E+02  0.32521305955E+03  0.62495467813E+02  0.33504612711E+03  0.00000000000E+00 0. -1.
         -3    1    5    5    0  503  0.31302009144E+02  0.33341551823E+02  0.24339965961E+02  0.51806455171E+02  0.00000000000E+00 0.  1.
<mgrwt>
<rscale>  0 0.18373182E+04</rscale>
<asrwt>0</asrwt>
<pdfrwt beam="1">  1        2 0.10902137E+00 0.18373182E+04</pdfrwt>
<pdfrwt beam="2">  1       -1 0.18321896E+00 0.18373182E+04</pdfrwt>
<totfact> 0.85547101E+00</totfact>
</mgrwt>
</event>
<event>
11    6  0.1705838E-008  0.2250546E+04  0.7818608E-02  0.8497680E-01
          2   -1    0    0  501    0  0.00000000000E+00  0.00000000000E+00  0.17302877051E+04  0.17302877051E+04  0.00000000000E+00 0. -1.
         -1   -1    0    0    0  501 -0.00000000000E+00 -0.00000000000E+00 -0.73180825280E+03  0.73180825280E+03  0.00000000000E+00 0.  1.
         24    2    1    2    0    0  0.91295353058E+03  0.19148849856E+03  0.27803603450E+03  0.97668214164E+03  0.80324188410E+02 0.  0.
        254    2    1    2    0    0 -0.91295353058E+03 -0.19148849856E+03  0.72044341777E+03  0.14854138162E+04  0.90402626798E+03 0.  0.
         23    2    4    4    0    0 -0.94630680508E+03 -0.20446508592E+03  0.46782385593E+03  0.10791116308E+04  0.91215189884E+02 0.  0.
          2    1    3    3  502    0  0.89208322555E+02  0.70618185263E+01  0.55696575681E+01  0.89660555315E+02  0.00000000000E+00 0. -1.
         -1    1    3    3    0  502  0.82374520802E+03  0.18442668003E+03  0.27246637694E+03  0.88702158633E+03  0.00000000000E+00 0.  1.
         11    1    4    4    0    0  0.11199882211E+03 -0.22105700105E+01 -0.27173765349E+02  0.11526940747E+03  0.00000000000E+00 0.  1.
        -11    1    4    4    0    0 -0.78645547608E+02  0.15187157372E+02  0.27979332719E+03  0.29103277796E+03  0.00000000000E+00 0. -1.
          3    1    5    5  503    0 -0.41435564653E+03 -0.92820076639E+02  0.25553696502E+03  0.49558582398E+03  0.00000000000E+00 0. -1.
         -3    1    5    5    0  503 -0.53195115856E+03 -0.11164500928E+03  0.21228689090E+03  0.58352580683E+03  0.00000000000E+00 0.  1.
<mgrwt>
<rscale>  0 0.22505456E+04</rscale>
<asrwt>0</asrwt>
<pdfrwt beam="1">  1        2 0.26619811E+00 0.22505456E+04</pdfrwt>
<pdfrwt beam="2">  1       -1 0.11258589E+00 0.22505456E+04</pdfrwt>
<totfact> 0.70611357E+00</totfact>
</mgrwt>
</event>
<event>
11    6  0.1705838E-008  0.1271076E+04  0.7818608E-02  0.9052822E-01
          2   -1    0    0  501    0  0.00000000000E+00  0.00000000000E+00  0.87208035022E+03  0.87208035022E+03  0.00000000000E+00 0. -1.
         -1   -1    0    0    0  501 -0.00000000000E+00 -0.00000000000E+00 -0.46315511405E+03  0.46315511405E+03  0.00000000000E+00 0.  1.
         24    2    1    2    0    0 -0.12010709325E+03 -0.25561164512E+03 -0.24513224272E+02  0.29444105227E+03  0.79571402722E+02 0.  0.
        254    2    1    2    0    0  0.12010709325E+03  0.25561164512E+03  0.43343846043E+03  0.10407944120E+04  0.90311742431E+03 0.  0.
         23    2    4    4    0    0  0.71731138472E+02 -0.31126263083E+03  0.39239485673E+02  0.33551731064E+03  0.94880698390E+02 0.  0.
          4    1    3    3  502    0  0.87855918402E+01 -0.15079704767E+02  0.87645867037E+01  0.19529518681E+02  0.00000000000E+00 0. -1.
         -3    1    3    3    0  502 -0.12889268509E+03 -0.24053194035E+03 -0.33277810975E+02  0.27491153359E+03  0.00000000000E+00 0.  1.
         11    1    4    4    0    0  0.55086762895E+02  0.10055106287E+03  0.11141456903E+03  0.15986955271E+03  0.00000000000E+00 0.  1.
        -11    1    4    4    0    0 -0.67108081157E+01  0.46632321308E+03  0.28278440573E+03  0.54540754865E+03  0.00000000000E+00 0. -1.
          4    1    5    5  503    0 -0.48161917642E+01 -0.42610546295E+01 -0.13310308645E+02  0.14782307191E+02  0.00000000000E+00 0.  1.
         -4    1    5    5    0  503  0.76547330237E+02 -0.30700157620E+03  0.52549794318E+02  0.32073500345E+03  0.00000000000E+00 0. -1.
<mgrwt>
<rscale>  0 0.12710759E+04</rscale>
<asrwt>0</asrwt>
<pdfrwt beam="1">  1        2 0.13416621E+00 0.12710759E+04</pdfrwt>
<pdfrwt beam="2">  1       -1 0.71254633E-01 0.12710759E+04</pdfrwt>
<totfact> 0.68327576E+01</totfact>
</mgrwt>
</event>
<event>
12    6  0.1705838E-008  0.1700335E+04  0.7818608E-02  0.8761173E-01
          2   -1    0    0  501    0  0.00000000000E+00  0.00000000000E+00  0.24044847185E+04  0.24044847185E+04  0.00000000000E+00 0. -1.
         -1   -1    0    0    0  501 -0.00000000000E+00 -0.00000000000E+00 -0.30059873340E+03  0.30059873340E+03  0.00000000000E+00 0.  1.
         24    2    1    2    0    0  0.16886732768E+02  0.53228565333E+02  0.17163855797E+04  0.17204442612E+04  0.10406995620E+03 0.  0.
        254    2    1    2    0    0 -0.16886732768E+02 -0.53228565333E+02  0.38750040540E+03  0.98463919070E+03  0.90345964479E+03 0.  0.
         23    2    4    4    0    0 -0.36448185684E+03 -0.94034988822E+02  0.47154612431E+03  0.61365122282E+03  0.11190385530E+03 0.  0.
         23    2    4    4    0    0  0.34759512407E+03  0.40806423489E+02 -0.84045718904E+02  0.37098796788E+03  0.89893575798E+02 0.  0.
          4    1    3    3  502    0 -0.68857506020E+00  0.36886966584E+01  0.13775906437E+04  0.13775957543E+04  0.00000000000E+00 0. -1.
         -3    1    3    3    0  502  0.17575307829E+02  0.49539868674E+02  0.33879493600E+03  0.34284850691E+03  0.00000000000E+00 0.  1.
         11    1    5    5    0    0 -0.11010389637E+02  0.18641074755E+02  0.28350805839E+02  0.35671929297E+02  0.00000000000E+00 0. -1.
        -11    1    5    5    0    0 -0.35347146720E+03 -0.11267606358E+03  0.44319531847E+03  0.57797929352E+03  0.00000000000E+00 0.  1.
          1    1    6    6  503    0  0.45554813764E+02  0.10220299750E+02  0.18979801912E+02  0.50397702970E+02  0.00000000000E+00 0. -1.
         -1    1    6    6    0  503  0.30204031031E+03  0.30586123739E+02 -0.10302552082E+03  0.32059026491E+03  0.00000000000E+00 0.  1.
<mgrwt>
<rscale>  0 0.17003353E+04</rscale>
<asrwt>0</asrwt>
<pdfrwt beam="1">  1        2 0.36992071E+00 0.17003353E+04</pdfrwt>
<pdfrwt beam="2">  1       -1 0.46245961E-01 0.17003353E+04</pdfrwt>
<totfact> 0.19948967E+01</totfact>
</mgrwt>
</event>
<event>
11    6  0.1705838E-008  0.1609830E+04  0.7818608E-02  0.8814531E-01
         -1   -1    0    0    0  501 -0.00000000000E+00  0.00000000000E+00  0.43620428022E+03  0.43620428022E+03  0.00000000000E+00 0.  1.
          2   -1    0    0  501    0  0.00000000000E+00 -0.00000000000E+00 -0.14852869580E+04  0.14852869580E+04  0.00000000000E+00 0. -1.
         24    2    1    2    0    0  0.17371332347E+03  0.48603635125E+03 -0.10993835777E+03  0.53369129570E+03  0.79575769599E+02 0.  0.
        254    2    1    2    0    0 -0.17371332347E+03 -0.48603635125E+03 -0.93914432005E+03  0.13877999426E+04  0.88181005506E+03 0.  0.
         23    2    4    4    0    0  0.13065449850E+02  0.20154301397E+03 -0.28126047267E+02  0.22360706674E+03  0.91753764512E+02 0.  0.
          2    1    3    3  502    0  0.18714363790E+02  0.93862670321E+01 -0.24767836837E+01  0.21082311977E+02  0.00000000000E+00 0. -1.
         -1    1    3    3    0  502  0.15499895968E+03  0.47665008422E+03 -0.10746157408E+03  0.51260898373E+03  0.00000000000E+00 0.  1.
         11    1    4    4    0    0  0.19056334673E+02 -0.96818009421E+02 -0.10879726249E+03  0.14687993452E+03  0.00000000000E+00 0. -1.
        -11    1    4    4    0    0 -0.20583510800E+03 -0.59076135580E+03 -0.80222101029E+03  0.10173129413E+04  0.00000000000E+00 0.  1.
          1    1    5    5  503    0 -0.35272214345E+02  0.41236656190E+02 -0.35822435825E+01  0.54382197341E+02  0.00000000000E+00 0. -1.
         -1    1    5    5    0  503  0.48337664195E+02  0.16030635778E+03 -0.24543803684E+02  0.16922486940E+03  0.00000000000E+00 0.  1.
<mgrwt>
<rscale>  0 0.16098305E+04</rscale>
<asrwt>0</asrwt>
<pdfrwt beam="1">  1        2 0.22850569E+00 0.16098305E+04</pdfrwt>
<pdfrwt beam="2">  1       -1 0.67108350E-01 0.16098305E+04</pdfrwt>
<totfact> 0.31779075E+01</totfact>
</mgrwt>
</event>
<event>
11    6  0.1705838E-008  0.2231805E+04  0.7818608E-02  0.8505306E-01
         -1   -1    0    0    0  501 -0.00000000000E+00  0.00000000000E+00  0.97385710911E+03  0.97385710911E+03  0.00000000000E+00 0.  1.
          2   -1    0    0  501    0  0.00000000000E+00 -0.00000000000E+00 -0.12786665439E+04  0.12786665439E+04  0.00000000000E+00 0. -1.
         24    2    1    2    0    0  0.55394412418E+03 -0.18890912289E+03 -0.85754462975E+03  0.10416435857E+04  0.84248549862E+02 0.  0.
        254    2    1    2    0    0 -0.55394412418E+03  0.18890912289E+03  0.55273519498E+03  0.12108800673E+04  0.90452948664E+03 0.  0.
         23    2    4    4    0    0 -0.69141087803E+03  0.24268894076E+02  0.45262063680E+03  0.83177002956E+03  0.91312429250E+02 0.  0.
          2    1    3    3  502    0  0.47584404473E+03 -0.18605725505E+03 -0.77216664431E+03  0.92589750169E+03  0.00000000000E+00 0. -1.
         -1    1    3    3    0  502  0.78100079451E+02 -0.28518678413E+01 -0.85377985440E+02  0.11574608399E+03  0.00000000000E+00 0.  1.
         11    1    4    4    0    0  0.10192328536E+03  0.17639915519E+02 -0.89350536299E+02  0.13668592120E+03  0.00000000000E+00 0. -1.
        -11    1    4    4    0    0  0.35543468487E+02  0.14700031329E+03  0.18946509447E+03  0.24242411655E+03  0.00000000000E+00 0.  1.
          3    1    5    5  503    0 -0.64397183432E+03 -0.94649208152E+00  0.41324748153E+03  0.76516279329E+03  0.00000000000E+00 0. -1.
         -3    1    5    5    0  503 -0.47439043706E+02  0.25215386157E+02  0.39373155278E+02  0.66607236268E+02  0.00000000000E+00 0.  1.
<mgrwt>
<rscale>  0 0.22318051E+04</rscale>
<asrwt>0</asrwt>
<pdfrwt beam="1">  1        2 0.19671793E+00 0.22318051E+04</pdfrwt>
<pdfrwt beam="2">  1       -1 0.14982417E+00 0.22318051E+04</pdfrwt>
<totfact> 0.61879376E+00</totfact>
</mgrwt>
</event>
<event>
12    6  0.1705838E-008  0.1650570E+04  0.7818608E-02  0.8790069E-01
         -1   -1    0    0    0  501 -0.00000000000E+00  0.00000000000E+00  0.72465907291E+03  0.72465907291E+03  0.00000000000E+00 0.  1.
          2   -1    0    0  501    0  0.00000000000E+00 -0.00000000000E+00 -0.93988421321E+03  0.93988421321E+03  0.00000000000E+00 0. -1.
         24    2    1    2    0    0  0.11601378467E+03 -0.82406964651E+02  0.46599954623E+03  0.49372264111E+03  0.79726803560E+02 0.  0.
        254    2    1    2    0    0 -0.11601378467E+03  0.82406964651E+02 -0.68122468652E+03  0.11708206450E+04  0.94154330925E+03 0.  0.
         23    2    4    4    0    0 -0.37399463865E+02  0.49849155067E+03 -0.42882188458E+03  0.66945036954E+03  0.11992932333E+03 0.  0.
         23    2    4    4    0    0 -0.78614320809E+02 -0.41608458602E+03 -0.25240280195E+03  0.50137027547E+03  0.91424201002E+02 0.  0.
          2    1    3    3  502    0  0.34868993687E+02  0.11328388526E+01  0.45163228689E+02  0.57068794190E+02  0.00000000000E+00 0. -1.
         -1    1    3    3    0  502  0.81144790987E+02 -0.83539803503E+02  0.42083631754E+03  0.43665384693E+03  0.00000000000E+00 0.  1.
         11    1    5    5    0    0  0.51569049285E+01  0.95825638607E+00  0.55327260926E+01  0.76238429784E+01  0.00000000000E+00 0.  1.
        -11    1    5    5    0    0 -0.42556368794E+02  0.49753329429E+03 -0.43435461067E+03  0.66182652656E+03  0.00000000000E+00 0. -1.
          1    1    6    6  503    0 -0.63909711208E+02 -0.36149327574E+03 -0.25120402852E+03  0.44482052958E+03  0.00000000000E+00 0. -1.
         -1    1    6    6    0  503 -0.14704609602E+02 -0.54591310281E+02 -0.11987734247E+01  0.56549745883E+02  0.00000000000E+00 0.  1.
<mgrwt>
<rscale>  0 0.16505704E+04</rscale>
<asrwt>0</asrwt>
<pdfrwt beam="1">  1        2 0.14459757E+00 0.16505704E+04</pdfrwt>
<pdfrwt beam="2">  1       -1 0.11148601E+00 0.16505704E+04</pdfrwt>
<totfact> 0.22222002E+01</totfact>
</mgrwt>
</event>
<event>
12    6  0.1705838E-008  0.1826070E+04  0.7818608E-02  0.8692557E-01
         -1   -1    0    0    0  501 -0.00000000000E+00  0.00000000000E+00  0.49735006780E+03  0.49735006780E+03  0.00000000000E+00 0.  1.
          2   -1    0    0  501    0  0.00000000000E+00 -0.00000000000E+00 -0.16761488643E+04  0.16761488643E+04  0.00000000000E+00 0. -1.
         24    2    1    2    0    0 -0.63265601582E+03  0.22438220634E+03 -0.68451268413E+03  0.96195198876E+03  0.78695648256E+02 0.  0.
        254    2    1    2    0    0  0.63265601582E+03 -0.22438220634E+03 -0.49428611240E+03  0.12115469434E+04  0.87916222975E+03 0.  0.
         23    2    4    4    0    0  0.50000470960E+03 -0.17335152893E+03 -0.73913634734E+03  0.91658474389E+03  0.11725864820E+03 0.  0.
         23    2    4    4    0    0  0.13265130623E+03 -0.51030677416E+02  0.24485023494E+03  0.29496219949E+03  0.82768124896E+02 0.  0.
          4    1    3    3  502    0 -0.66387694232E+02  0.35663823569E+01 -0.88477934040E+02  0.11067244391E+03  0.00000000000E+00 0. -1.
         -3    1    3    3    0  502 -0.56626832159E+03  0.22081582399E+03 -0.59603475009E+03  0.85127954485E+03  0.00000000000E+00 0.  1.
         11    1    5    5    0    0  0.24107166724E+03 -0.25931534604E+02 -0.36703622449E+03  0.43989042194E+03  0.00000000000E+00 0.  1.
        -11    1    5    5    0    0  0.25893304236E+03 -0.14741999432E+03 -0.37210012285E+03  0.47669432195E+03  0.00000000000E+00 0. -1.
          3    1    6    6  503    0  0.14434468872E+03 -0.49262967967E+02  0.23006215273E+03  0.27602685248E+03  0.00000000000E+00 0. -1.
         -3    1    6    6    0  503 -0.11693382494E+02 -0.17677094491E+01  0.14788082210E+02  0.18935347008E+02  0.00000000000E+00 0.  1.
<mgrwt>
<rscale>  0 0.18260698E+04</rscale>
<asrwt>0</asrwt>
<pdfrwt beam="1">  1        2 0.25786906E+00 0.18260698E+04</pdfrwt>
<pdfrwt beam="2">  1       -1 0.76515395E-01 0.18260698E+04</pdfrwt>
<totfact> 0.18602000E+01</totfact>
</mgrwt>
</event>
<event>
11    6  0.1705838E-008  0.1702062E+04  0.7818608E-02  0.8760189E-01
          2   -1    0    0  501    0  0.00000000000E+00  0.00000000000E+00  0.22301401749E+04  0.22301401749E+04  0.00000000000E+00 0. -1.
         -1   -1    0    0    0  501 -0.00000000000E+00 -0.00000000000E+00 -0.32475704021E+03  0.32475704021E+03  0.00000000000E+00 0.  1.
         24    2    1    2    0    0  0.60229193436E+03 -0.49181125436E+02  0.81754764249E+03  0.10197408249E+04  0.79453414095E+02 0.  0.
        254    2    1    2    0    0 -0.60229193436E+03  0.49181125436E+02  0.10878354922E+04  0.15351563902E+04  0.89896870184E+03 0.  0.
         23    2    4    4    0    0 -0.46916965400E+03 -0.15798430363E+03  0.10816873360E+03  0.51538398572E+03  0.94026450403E+02 0.  0.
          4    1    3    3  502    0  0.20375893781E+03  0.17439824638E+02  0.30175130741E+03  0.36452119793E+03  0.00000000000E+00 0. -1.
         -1    1    3    3    0  502  0.39853299655E+03 -0.66620950075E+02  0.51579633508E+03  0.65521962701E+03  0.00000000000E+00 0.  1.
         11    1    4    4    0    0 -0.36528582363E+01  0.46834769586E+01 -0.40066200714E+01  0.71645889005E+01  0.00000000000E+00 0. -1.
        -11    1    4    4    0    0 -0.12946942213E+03  0.20248195211E+03  0.98367337870E+03  0.10126078156E+04  0.00000000000E+00 0.  1.
          3    1    5    5  503    0 -0.26803530332E+03 -0.44401356754E+02  0.40525290772E+02  0.27469383593E+03  0.00000000000E+00 0. -1.
         -3    1    5    5    0  503 -0.20113435068E+03 -0.11358294688E+03  0.67643442827E+02  0.24069014978E+03  0.00000000000E+00 0.  1.
<mgrwt>
<rscale>  0 0.17020620E+04</rscale>
<asrwt>0</asrwt>
<pdfrwt beam="1">  1        2 0.34309848E+00 0.17020620E+04</pdfrwt>
<pdfrwt beam="2">  1       -1 0.49962623E-01 0.17020620E+04</pdfrwt>
<totfact> 0.21639212E+01</totfact>
</mgrwt>
</event>
<event>
12    6  0.1705838E-008  0.1198036E+04  0.7818608E-02  0.9114578E-01
          2   -1    0    0  501    0  0.00000000000E+00  0.00000000000E+00  0.78729254661E+03  0.78729254661E+03  0.00000000000E+00 0. -1.
         -1   -1    0    0    0  501 -0.00000000000E+00 -0.00000000000E+00 -0.45576747925E+03  0.45576747925E+03  0.00000000000E+00 0.  1.
         24    2    1    2    0    0 -0.19257406550E+03  0.12172246133E+03  0.17967328248E+03  0.30115164293E+03  0.80676485442E+02 0.  0.
        254    2    1    2    0    0  0.19257406550E+03 -0.12172246133E+03  0.15185178488E+03  0.94190838294E+03  0.90123876359E+03 0.  0.
         23    2    4    4    0    0  0.23845881608E+03 -0.15091269366E+03  0.49653793706E+03  0.58105754893E+03  0.10696122733E+03 0.  0.
         23    2    4    4    0    0 -0.45884750583E+02  0.29190232327E+02 -0.34468615218E+03  0.36085083401E+03  0.91909199205E+02 0.  0.
          4    1    3    3  502    0 -0.17386901718E+03  0.85622723569E+02  0.17331489675E+03  0.25999949877E+03  0.00000000000E+00 0. -1.
         -3    1    3    3    0  502 -0.18705048322E+02  0.36099737765E+02  0.63583857298E+01  0.41152144155E+02  0.00000000000E+00 0.  1.
         11    1    5    5    0    0  0.19164308387E+03 -0.14875410027E+03  0.46526648831E+03  0.52471683706E+03  0.00000000000E+00 0. -1.
        -11    1    5    5    0    0  0.46815732209E+02 -0.21585933911E+01  0.31271448753E+02  0.56340711877E+02  0.00000000000E+00 0.  1.
          3    1    6    6  503    0 -0.55202664256E+02  0.54667228554E+02 -0.28285518970E+03  0.29333069795E+03  0.00000000000E+00 0. -1.
         -3    1    6    6    0  503  0.93179136727E+01 -0.25476996227E+02 -0.61830962481E+02  0.67520136058E+02  0.00000000000E+00 0.  1.
<mgrwt>
<rscale>  0 0.11980356E+04</rscale>
<asrwt>0</asrwt>
<pdfrwt beam="1">  1        2 0.12112193E+00 0.11980356E+04</pdfrwt>
<pdfrwt beam="2">  1       -1 0.70118074E-01 0.11980356E+04</pdfrwt>
<totfact> 0.81539829E+01</totfact>
</mgrwt>
</event>
<event>
12    6  0.1705838E-008  0.1973317E+04  0.7818608E-02  0.8619199E-01
         -3   -1    0    0    0  501 -0.00000000000E+00  0.00000000000E+00  0.44355780247E+03  0.44355780247E+03  0.00000000000E+00 0.  1.
          2   -1    0    0  501    0  0.00000000000E+00 -0.00000000000E+00 -0.21947415577E+04  0.21947415577E+04  0.00000000000E+00 0. -1.
         24    2    1    2    0    0  0.21833541550E+03  0.74533746269E+03 -0.69164186679E+03  0.10430026953E+04  0.79296049838E+02 0.  0.
        254    2    1    2    0    0 -0.21833541550E+03 -0.74533746269E+03 -0.10595418884E+04  0.15952966648E+04  0.90506582558E+03 0.  0.
         23    2    4    4    0    0 -0.39822414739E+01 -0.38999599374E+03 -0.10957462523E+04  0.11692579279E+04  0.11996465826E+03 0.  0.
         23    2    4    4    0    0 -0.21435317402E+03 -0.35534146894E+03  0.36204363882E+02  0.42603873693E+03  0.89349911209E+02 0.  0.
          4    1    3    3  502    0  0.15209523573E+03  0.51081716890E+03 -0.42420615393E+03  0.68118866829E+03  0.00000000000E+00 0. -1.
         -3    1    3    3    0  502  0.66240179770E+02  0.23452029378E+03 -0.26743571286E+03  0.36181402699E+03  0.00000000000E+00 0.  1.
         11    1    5    5    0    0 -0.39894005495E+02 -0.16944813239E+03 -0.61419285482E+03  0.63838629697E+03  0.00000000000E+00 0.  1.
        -11    1    5    5    0    0  0.35911764021E+02 -0.22054786135E+03 -0.48155339746E+03  0.53087163094E+03  0.00000000000E+00 0. -1.
          4    1    6    6  503    0 -0.59734240354E+02 -0.18367414921E+03  0.82470524789E+01  0.19331938970E+03  0.00000000000E+00 0. -1.
         -4    1    6    6    0  503 -0.15461893367E+03 -0.17166731973E+03  0.27957311403E+02  0.23271934723E+03  0.00000000000E+00 0.  1.
<mgrwt>
<rscale>  0 0.19733167E+04</rscale>
<asrwt>0</asrwt>
<pdfrwt beam="1">  1        2 0.33765255E+00 0.19733167E+04</pdfrwt>
<pdfrwt beam="2">  1       -3 0.68239662E-01 0.19733167E+04</pdfrwt>
<totfact> 0.63988861E+00</totfact>
</mgrwt>
</event>
<event>
11    6  0.1705838E-008  0.1645898E+04  0.7818608E-02  0.8792837E-01
          2   -1    0    0  501    0  0.00000000000E+00  0.00000000000E+00  0.12199773828E+04  0.12199773828E+04  0.00000000000E+00 0. -1.
         -1   -1    0    0    0  501 -0.00000000000E+00 -0.00000000000E+00 -0.55512915687E+03  0.55512915687E+03  0.00000000000E+00 0.  1.
         24    2    1    2    0    0 -0.48716046633E+03 -0.12792650085E+03  0.53898342327E+03  0.74145881607E+03  0.74615921884E+02 0.  0.
        254    2    1    2    0    0  0.48716046633E+03  0.12792650085E+03  0.12586480264E+03  0.10336477236E+04  0.89380935235E+03 0.  0.
         23    2    4    4    0    0  0.16789155908E+03 -0.30303153355E+02 -0.36322618777E+03  0.41185772146E+03  0.92669641943E+02 0.  0.
          2    1    3    3  502    0 -0.38974182297E+03 -0.70722069910E+02  0.42527591608E+03  0.58117114910E+03  0.00000000000E+00 0. -1.
         -1    1    3    3    0  502 -0.97418643359E+02 -0.57204430945E+02  0.11370750719E+03  0.16028766697E+03  0.00000000000E+00 0.  1.
         11    1    4    4    0    0  0.22132148210E+03  0.15639764452E+03  0.27370852613E+03  0.38517499780E+03  0.00000000000E+00 0.  1.
        -11    1    4    4    0    0  0.97947425149E+02  0.18320096914E+01  0.21538246428E+03  0.23661500432E+03  0.00000000000E+00 0. -1.
          1    1    5    5  503    0  0.35905058259E+02 -0.24398436255E+02 -0.28314219773E+02  0.51828099923E+02  0.00000000000E+00 0. -1.
         -1    1    5    5    0  503  0.13198650082E+03 -0.59047171000E+01 -0.33491196799E+03  0.36002962154E+03  0.00000000000E+00 0.  1.
<mgrwt>
<rscale>  0 0.16458980E+04</rscale>
<asrwt>0</asrwt>
<pdfrwt beam="1">  1        2 0.18768883E+00 0.16458980E+04</pdfrwt>
<pdfrwt beam="2">  1       -1 0.85404486E-01 0.16458980E+04</pdfrwt>
<totfact> 0.27209373E+01</totfact>
</mgrwt>
</event>
<event>
12    6  0.1705838E-008  0.2532575E+04  0.7818608E-02  0.8391472E-01
          2   -1    0    0  501    0  0.00000000000E+00  0.00000000000E+00  0.11069853288E+04  0.11069853288E+04  0.00000000000E+00 0. -1.
         -1   -1    0    0    0  501 -0.00000000000E+00 -0.00000000000E+00 -0.14485145080E+04  0.14485145080E+04  0.00000000000E+00 0.  1.
         24    2    1    2    0    0 -0.15952185664E+03  0.47952760157E+03 -0.11416794231E+04  0.12520729181E+04  0.94131523922E+02 0.  0.
        254    2    1    2    0    0  0.15952185664E+03 -0.47952760157E+03  0.80015024384E+03  0.13034269187E+04  0.89626300618E+03 0.  0.
         23    2    4    4    0    0  0.44251995299E+03 -0.34483254266E+03  0.17633947427E+03  0.59911503941E+03  0.11449816153E+03 0.  0.
         23    2    4    4    0    0 -0.28299809635E+03 -0.13469505892E+03  0.62381076957E+03  0.70431187929E+03  0.93191553488E+02 0.  0.
          4    1    3    3  502    0 -0.45756560164E+02  0.57037551346E+02 -0.21950768828E+03  0.23136674410E+03  0.00000000000E+00 0. -1.
         -3    1    3    3    0  502 -0.11376529647E+03  0.42249005023E+03 -0.92217173481E+03  0.10207061740E+04  0.00000000000E+00 0.  1.
         11    1    5    5    0    0  0.41834603867E+03 -0.31149035002E+03  0.13081959958E+03  0.53772987072E+03  0.00000000000E+00 0.  1.
        -11    1    5    5    0    0  0.24173914311E+02 -0.33342192636E+02  0.45519874691E+02  0.61385168688E+02  0.00000000000E+00 0. -1.
          2    1    6    6  503    0 -0.14802348795E+03 -0.74507771675E+02  0.22840043633E+03  0.28218632203E+03  0.00000000000E+00 0. -1.
         -2    1    6    6    0  503 -0.13497460840E+03 -0.60187287243E+02  0.39541033324E+03  0.42212555726E+03  0.00000000000E+00 0.  1.
<mgrwt>
<rscale>  0 0.25325752E+04</rscale>
<asrwt>0</asrwt>
<pdfrwt beam="1">  1        2 0.17030544E+00 0.25325752E+04</pdfrwt>
<pdfrwt beam="2">  1       -1 0.22284839E+00 0.25325752E+04</pdfrwt>
<totfact> 0.23034322E+00</totfact>
</mgrwt>
</event>
<event>
11    6  0.1705838E-008  0.2471546E+04  0.7818608E-02  0.8413193E-01
         -1   -1    0    0    0  501 -0.00000000000E+00  0.00000000000E+00  0.81863457578E+03  0.81863457578E+03  0.00000000000E+00 0.  1.
          2   -1    0    0  501    0  0.00000000000E+00 -0.00000000000E+00 -0.18654653394E+04  0.18654653394E+04  0.00000000000E+00 0. -1.
         24    2    1    2    0    0  0.20687476925E+03 -0.64767066073E+03 -0.13499069667E+04  0.15135592662E+04  0.79613934761E+02 0.  0.
        254    2    1    2    0    0 -0.20687476925E+03  0.64767066073E+03  0.30307620307E+03  0.11705406490E+04  0.90334698270E+03 0.  0.
         23    2    4    4    0    0 -0.41008143611E+03  0.75584831825E+03  0.21405386037E+03  0.89097100352E+03  0.92394856636E+02 0.  0.
          4    1    3    3  502    0  0.20428688884E+03 -0.62294081107E+03 -0.13252669967E+04  0.14785536851E+04  0.00000000000E+00 0. -1.
         -3    1    3    3    0  502  0.25878804087E+01 -0.24729849661E+02 -0.24639970010E+02  0.35005581146E+02  0.00000000000E+00 0.  1.
         11    1    4    4    0    0  0.10357229462E+03 -0.11394716935E+03  0.92638770911E+02  0.17970286445E+03  0.00000000000E+00 0. -1.
        -11    1    4    4    0    0  0.99634372241E+02  0.57695118367E+01 -0.36164282123E+01  0.99866781022E+02  0.00000000000E+00 0.  1.
          3    1    5    5  503    0 -0.90464902413E+02  0.19980630040E+03  0.16834173329E+02  0.21997692070E+03  0.00000000000E+00 0. -1.
         -3    1    5    5    0  503 -0.31961653370E+03  0.55604201785E+03  0.19721968704E+03  0.67099408282E+03  0.00000000000E+00 0.  1.
<mgrwt>
<rscale>  0 0.24715456E+04</rscale>
<asrwt>0</asrwt>
<pdfrwt beam="1">  1        2 0.28699467E+00 0.24715456E+04</pdfrwt>
<pdfrwt beam="2">  1       -1 0.12594378E+00 0.24715456E+04</pdfrwt>
<totfact> 0.44348370E+00</totfact>
</mgrwt>
</event>
<event>
11    6  0.1705838E-008  0.2477325E+04  0.7818608E-02  0.8411108E-01
          2   -1    0    0  501    0  0.00000000000E+00  0.00000000000E+00  0.22665913027E+04  0.22665913027E+04  0.00000000000E+00 0. -1.
         -1   -1    0    0    0  501 -0.00000000000E+00 -0.00000000000E+00 -0.67691275542E+03  0.67691275542E+03  0.00000000000E+00 0.  1.
         24    2    1    2    0    0  0.16836084269E+03  0.24096072123E+03  0.19230887851E+04  0.19470626509E+04  0.79843902161E+02 0.  0.
        254    2    1    2    0    0 -0.16836084269E+03 -0.24096072123E+03 -0.33341023773E+03  0.99644140729E+03  0.89181032121E+03 0.  0.
         23    2    4    4    0    0 -0.16909439384E+03 -0.13428253433E+03 -0.61871623554E+03  0.66204410794E+03  0.94169568791E+02 0.  0.
          4    1    3    3  502    0  0.16206870304E+03  0.24649529835E+03  0.18332395855E+04  0.18568235173E+04  0.00000000000E+00 0. -1.
         -1    1    3    3    0  502  0.62921396451E+01 -0.55345771212E+01  0.89849199542E+02  0.90239133549E+02  0.00000000000E+00 0.  1.
         11    1    4    4    0    0  0.21325228641E+02 -0.85468466758E+02  0.29121928689E+03  0.30425038577E+03  0.00000000000E+00 0. -1.
        -11    1    4    4    0    0 -0.20591677491E+02 -0.21209720141E+02 -0.59132890739E+01  0.30146913574E+02  0.00000000000E+00 0.  1.
          2    1    5    5  503    0 -0.15398406372E+03 -0.14840358199E+03 -0.54423370344E+03  0.58474356686E+03  0.00000000000E+00 0. -1.
         -2    1    5    5    0  503 -0.15110330116E+02  0.14121047656E+02 -0.74482532104E+02  0.77300541083E+02  0.00000000000E+00 0.  1.
<mgrwt>
<rscale>  0 0.24773248E+04</rscale>
<asrwt>0</asrwt>
<pdfrwt beam="1">  1        2 0.34870635E+00 0.24773248E+04</pdfrwt>
<pdfrwt beam="2">  1       -1 0.10414042E+00 0.24773248E+04</pdfrwt>
<totfact> 0.41767635E+00</totfact>
</mgrwt>
</event>
<event>
11    6  0.1705838E-008  0.1248840E+04  0.7818608E-02  0.9071149E-01
         -1   -1    0    0    0  501 -0.00000000000E+00  0.00000000000E+00  0.65181716127E+03  0.65181716127E+03  0.00000000000E+00 0.  1.
          2   -1    0    0  501    0  0.00000000000E+00 -0.00000000000E+00 -0.59817476066E+03  0.59817476066E+03  0.00000000000E+00 0. -1.
         24    2    1    2    0    0  0.26269452356E+02  0.13574928747E+03  0.33019254774E+03  0.36690347058E+03  0.80455484375E+02 0.  0.
        254    2    1    2    0    0 -0.26269452356E+02 -0.13574928747E+03 -0.27655014713E+03  0.88308845135E+03  0.82719240558E+03 0.  0.
         23    2    4    4    0    0 -0.32991008792E+02 -0.39309542951E+03  0.83190354091E+02  0.41337077420E+03  0.91336403410E+02 0.  0.
          2    1    3    3  502    0  0.15570341628E+02  0.40023238089E+02  0.32046895967E+02  0.53584500247E+02  0.00000000000E+00 0. -1.
         -1    1    3    3    0  502  0.10699110728E+02  0.95726049380E+02  0.29814565177E+03  0.31331897033E+03  0.00000000000E+00 0.  1.
         11    1    4    4    0    0  0.19008137549E+02  0.13666485553E+03 -0.68132348572E+02  0.15388505110E+03  0.00000000000E+00 0.  1.
        -11    1    4    4    0    0 -0.12286581113E+02  0.12068128651E+03 -0.29160815265E+03  0.31583262605E+03  0.00000000000E+00 0. -1.
          3    1    5    5  503    0 -0.30403268928E+02 -0.30091977480E+03  0.23153251235E+02  0.30333668204E+03  0.00000000000E+00 0. -1.
         -3    1    5    5    0  503 -0.25877398641E+01 -0.92175654704E+02  0.60037102856E+02  0.11003409216E+03  0.00000000000E+00 0.  1.
<mgrwt>
<rscale>  0 0.12488404E+04</rscale>
<asrwt>0</asrwt>
<pdfrwt beam="1">  1        2 0.92026886E-01 0.12488404E+04</pdfrwt>
<pdfrwt beam="2">  1       -1 0.10027956E+00 0.12488404E+04</pdfrwt>
<totfact> 0.53021102E+01</totfact>
</mgrwt>
</event>
<event>
11    6  0.1705838E-008  0.1781064E+04  0.7818608E-02  0.8716435E-01
          2   -1    0    0  501    0  0.00000000000E+00  0.00000000000E+00  0.18473925068E+04  0.18473925068E+04  0.00000000000E+00 0. -1.
         -1   -1    0    0    0  501 -0.00000000000E+00 -0.00000000000E+00 -0.42927908404E+03  0.42927908404E+03  0.00000000000E+00 0.  1.
         24    2    1    2    0    0 -0.22505189996E+03  0.52324077804E+03  0.88642120509E+02  0.58296518883E+03  0.86958130017E+02 0.  0.
        254    2    1    2    0    0  0.22505189996E+03 -0.52324077804E+03  0.13294713022E+04  0.16937064020E+04  0.88131615393E+03 0.  0.
         23    2    4    4    0    0 -0.30891410552E+03 -0.21862701516E+03  0.29100600857E+03  0.48592402541E+03  0.90619893511E+02 0.  0.
          2    1    3    3  502    0 -0.99132652836E+02  0.22860846211E+03  0.82550964682E+02  0.26249528296E+03  0.00000000000E+00 0. -1.
         -1    1    3    3    0  502 -0.12591924713E+03  0.29463231593E+03  0.60911558265E+01  0.32046990587E+03  0.00000000000E+00 0.  1.
         11    1    4    4    0    0  0.15380712283E+03 -0.77362713729E+02  0.25239466186E+03  0.30552362568E+03  0.00000000000E+00 0.  1.
        -11    1    4    4    0    0  0.38015888265E+03 -0.22725104915E+03  0.78607063178E+03  0.90225875088E+03  0.00000000000E+00 0. -1.
          4    1    5    5  503    0 -0.48483449316E+02 -0.29956859726E+02  0.80202906905E+01  0.57553308896E+02  0.00000000000E+00 0. -1.
         -4    1    5    5    0  503 -0.26043065620E+03 -0.18867015543E+03  0.28298571788E+03  0.42837071651E+03  0.00000000000E+00 0.  1.
<mgrwt>
<rscale>  0 0.17810637E+04</rscale>
<asrwt>0</asrwt>
<pdfrwt beam="1">  1        2 0.28421423E+00 0.17810637E+04</pdfrwt>
<pdfrwt beam="2">  1       -1 0.66042937E-01 0.17810637E+04</pdfrwt>
<totfact> 0.20321316E+01</totfact>
</mgrwt>
</event>
<event>
12    6  0.1705838E-008  0.2349694E+04  0.7818608E-02  0.8458581E-01
         -1   -1    0    0    0  501 -0.00000000000E+00  0.00000000000E+00  0.18556808470E+04  0.18556808470E+04  0.00000000000E+00 0.  1.
          2   -1    0    0  501    0  0.00000000000E+00 -0.00000000000E+00 -0.74380543339E+03  0.74380543339E+03  0.00000000000E+00 0. -1.
         24    2    1    2    0    0  0.77958935556E+03  0.62100876753E+03  0.39395188072E+03  0.10746668504E+04  0.79368144213E+02 0.  0.
        254    2    1    2    0    0 -0.77958935556E+03 -0.62100876753E+03  0.71792353284E+03  0.15248194300E+04  0.90346479862E+03 0.  0.
         23    2    4    4    0    0 -0.69280859518E+03 -0.36063156642E+03  0.44961721431E+02  0.79167786168E+03  0.12121635213E+03 0.  0.
         23    2    4    4    0    0 -0.86780760387E+02 -0.26037720111E+03  0.67296181141E+03  0.73314156829E+03  0.96393839568E+02 0.  0.
          4    1    3    3  502    0  0.32581371861E+03  0.28138954477E+03  0.13214292290E+03  0.45032922092E+03  0.00000000000E+00 0. -1.
         -3    1    3    3    0  502  0.45377563695E+03  0.33961922276E+03  0.26180895782E+03  0.62433762946E+03  0.00000000000E+00 0.  1.
         11    1    5    5    0    0 -0.52553543329E+03 -0.28800392812E+03  0.84144100575E+02  0.60515616491E+03  0.00000000000E+00 0. -1.
        -11    1    5    5    0    0 -0.16727316188E+03 -0.72627638301E+02 -0.39182379143E+02  0.18652169677E+03  0.00000000000E+00 0.  1.
          3    1    6    6  503    0 -0.62314663851E+02 -0.21829005618E+03  0.62437300200E+03  0.66436082936E+03  0.00000000000E+00 0. -1.
         -3    1    6    6    0  503 -0.24466096535E+02 -0.42087144929E+02  0.48588809405E+02  0.68780738927E+02  0.00000000000E+00 0.  1.
<mgrwt>
<rscale>  0 0.23496940E+04</rscale>
<asrwt>0</asrwt>
<pdfrwt beam="1">  1        2 0.11443161E+00 0.23496940E+04</pdfrwt>
<pdfrwt beam="2">  1       -1 0.28548936E+00 0.23496940E+04</pdfrwt>
<totfact> 0.16015673E+00</totfact>
</mgrwt>
</event>
<event>
12    6  0.1705838E-008  0.1876563E+04  0.7818608E-02  0.8666611E-01
         -1   -1    0    0    0  501 -0.00000000000E+00  0.00000000000E+00  0.10582196796E+04  0.10582196796E+04  0.00000000000E+00 0.  1.
          2   -1    0    0  501    0  0.00000000000E+00 -0.00000000000E+00 -0.83193663747E+03  0.83193663747E+03  0.00000000000E+00 0. -1.
         24    2    1    2    0    0 -0.56234190098E+03 -0.15197602348E+03 -0.34484251654E+03  0.68160242554E+03  0.79626502981E+02 0.  0.
        254    2    1    2    0    0  0.56234190098E+03  0.15197602348E+03  0.57112555864E+03  0.12085538915E+04  0.89167986386E+03 0.  0.
         23    2    4    4    0    0  0.50290935714E+03 -0.23602785159E+03  0.57312022444E+03  0.80588438192E+03  0.11115699313E+03 0.  0.
         23    2    4    4    0    0  0.59432543838E+02  0.38800387508E+03 -0.19946658008E+01  0.40266950959E+03  0.89774834541E+02 0.  0.
          2    1    3    3  502    0 -0.45649912187E+03 -0.10127621509E+03 -0.30212022869E+03  0.55670903764E+03  0.00000000000E+00 0. -1.
         -1    1    3    3    0  502 -0.10584277911E+03 -0.50699808398E+02 -0.42722287853E+02  0.12489338790E+03  0.00000000000E+00 0.  1.
         11    1    5    5    0    0  0.23427276117E+03 -0.11774814812E+03  0.19272515130E+03  0.32540949119E+03  0.00000000000E+00 0. -1.
        -11    1    5    5    0    0  0.26863659598E+03 -0.11827970348E+03  0.38039507314E+03  0.48047489073E+03  0.00000000000E+00 0.  1.
          1    1    6    6  503    0  0.65604089007E+02  0.38600528286E+03 -0.10851766907E+02  0.39169086757E+03  0.00000000000E+00 0. -1.
         -1    1    6    6    0  503 -0.61715451692E+01  0.19985922195E+01  0.88571011062E+01  0.10978642022E+02  0.00000000000E+00 0.  1.
<mgrwt>
<rscale>  0 0.18765625E+04</rscale>
<asrwt>0</asrwt>
<pdfrwt beam="1">  1        2 0.12799025E+00 0.18765625E+04</pdfrwt>
<pdfrwt beam="2">  1       -1 0.16280303E+00 0.18765625E+04</pdfrwt>
<totfact> 0.97414052E+00</totfact>
</mgrwt>
</event>
<event>
12    6  0.1705838E-008  0.1650215E+04  0.7818608E-02  0.8790280E-01
          2   -1    0    0  501    0  0.00000000000E+00  0.00000000000E+00  0.16038965630E+04  0.16038965630E+04  0.00000000000E+00 0. -1.
         -1   -1    0    0    0  501 -0.00000000000E+00 -0.00000000000E+00 -0.42446753865E+03  0.42446753865E+03  0.00000000000E+00 0.  1.
         24    2    1    2    0    0 -0.38545995887E+03 -0.23745137199E+03 -0.40735911298E+01  0.45994581704E+03  0.81061868461E+02 0.  0.
        254    2    1    2    0    0  0.38545995887E+03  0.23745137199E+03  0.11835026155E+04  0.15684182847E+04  0.92428076941E+03 0.  0.
         23    2    4    4    0    0  0.60989160671E+03  0.12410040439E+03  0.11280196023E+04  0.12937182073E+04  0.11794021542E+03 0.  0.
         23    2    4    4    0    0 -0.22443164784E+03  0.11335096761E+03  0.55483013247E+02  0.27470007737E+03  0.95727537005E+02 0.  0.
          2    1    3    3  502    0 -0.31292744687E+03 -0.16412356260E+03  0.20392067712E+02  0.35394345203E+03  0.00000000000E+00 0. -1.
         -1    1    3    3    0  502 -0.72532511996E+02 -0.73327809388E+02 -0.24465658842E+02  0.10600236501E+03  0.00000000000E+00 0.  1.
         11    1    5    5    0    0  0.13799927606E+03  0.68353110966E+02  0.21519507844E+03  0.26462212636E+03  0.00000000000E+00 0.  1.
        -11    1    5    5    0    0  0.47189233064E+03  0.55747293422E+02  0.91282452384E+03  0.10290960809E+04  0.00000000000E+00 0. -1.
          2    1    6    6  503    0 -0.82286127727E+02  0.92269188827E+02  0.10279191229E+02  0.12405753422E+03  0.00000000000E+00 0. -1.
         -2    1    6    6    0  503 -0.14214552011E+03  0.21081778778E+02  0.45203822018E+02  0.15064254316E+03  0.00000000000E+00 0.  1.
<mgrwt>
<rscale>  0 0.16502146E+04</rscale>
<asrwt>0</asrwt>
<pdfrwt beam="1">  1        2 0.24675331E+00 0.16502146E+04</pdfrwt>
<pdfrwt beam="2">  1       -1 0.65302699E-01 0.16502146E+04</pdfrwt>
<totfact> 0.28706935E+01</totfact>
</mgrwt>
</event>
<event>
12    6  0.1705838E-008  0.1206418E+04  0.7818608E-02  0.9107257E-01
          2   -1    0    0  501    0  0.00000000000E+00  0.00000000000E+00  0.23842100419E+04  0.23842100419E+04  0.00000000000E+00 0. -1.
         -1   -1    0    0    0  501 -0.00000000000E+00 -0.00000000000E+00 -0.15261287762E+03  0.15261287762E+03  0.00000000000E+00 0.  1.
         24    2    1    2    0    0 -0.98375587542E+02  0.18685527366E+03  0.71682232862E+03  0.75153222065E+03  0.79835946455E+02 0.  0.
        254    2    1    2    0    0  0.98375587542E+02 -0.18685527366E+03  0.15147748357E+04  0.17852906989E+04  0.92093834060E+03 0.  0.
         23    2    4    4    0    0 -0.39729451848E+03 -0.11754810068E+03  0.84498772185E+03  0.94431830333E+03  0.77925076396E+02 0.  0.
         23    2    4    4    0    0  0.49567010602E+03 -0.69307172976E+02  0.66978711380E+03  0.84097239554E+03  0.90152393260E+02 0.  0.
          4    1    3    3  502    0  0.12559793039E+02  0.29954116890E+02  0.13257936829E+03  0.13650013339E+03  0.00000000000E+00 0. -1.
         -3    1    3    3    0  502 -0.11093538058E+03  0.15690115677E+03  0.58424296034E+03  0.61503208726E+03  0.00000000000E+00 0.  1.
         11    1    5    5    0    0 -0.34250329266E+03 -0.78032483105E+02  0.74479864047E+03  0.82348199055E+03  0.00000000000E+00 0. -1.
        -11    1    5    5    0    0 -0.54791225816E+02 -0.39515617577E+02  0.10018908138E+03  0.12083631278E+03  0.00000000000E+00 0.  1.
          3    1    6    6  503    0  0.46844221810E+03 -0.67716685534E+02  0.58842601205E+03  0.75516146145E+03  0.00000000000E+00 0. -1.
         -3    1    6    6    0  503  0.27227887919E+02 -0.15904874421E+01  0.81361101750E+02  0.85810934086E+02  0.00000000000E+00 0.  1.
<mgrwt>
<rscale>  0 0.12064181E+04</rscale>
<asrwt>0</asrwt>
<pdfrwt beam="1">  1        2 0.36680152E+00 0.12064181E+04</pdfrwt>
<pdfrwt beam="2">  1       -1 0.23478906E-01 0.12064181E+04</pdfrwt>
<totfact> 0.71470599E+01</totfact>
</mgrwt>
</event>
<event>
11    6  0.1705838E-008  0.1474535E+04  0.7818608E-02  0.8901565E-01
         -1   -1    0    0    0  501 -0.00000000000E+00  0.00000000000E+00  0.75016701340E+03  0.75016701340E+03  0.00000000000E+00 0.  1.
          2   -1    0    0  501    0  0.00000000000E+00 -0.00000000000E+00 -0.72459006968E+03  0.72459006968E+03  0.00000000000E+00 0. -1.
         24    2    1    2    0    0  0.13200553511E+03  0.20772804858E+03  0.46555187353E+03  0.53260167161E+03  0.79684315818E+02 0.  0.
        254    2    1    2    0    0 -0.13200553511E+03 -0.20772804858E+03 -0.43997492980E+03  0.94215541146E+03  0.79592868841E+03 0.  0.
         23    2    4    4    0    0 -0.13948593777E+03 -0.24969944395E+03 -0.61170916516E+03  0.68056128329E+03  0.84672418333E+02 0.  0.
          4    1    3    3  502    0 -0.19407036114E+01  0.24441553581E+02  0.94362564394E+02  0.97495894431E+02  0.00000000000E+00 0. -1.
         -3    1    3    3    0  502  0.13394623872E+03  0.18328649500E+03  0.37118930913E+03  0.43510577718E+03  0.00000000000E+00 0.  1.
         11    1    4    4    0    0 -0.89797337898E+02  0.30970672231E+02  0.11222684889E+03  0.14702928295E+03  0.00000000000E+00 0. -1.
        -11    1    4    4    0    0  0.97277740559E+02  0.11000723133E+02  0.59507386465E+02  0.11456484523E+03  0.00000000000E+00 0.  1.
          1    1    5    5  503    0 -0.53854397784E+02 -0.17743704022E+03 -0.35659580369E+03  0.40192631988E+03  0.00000000000E+00 0. -1.
         -1    1    5    5    0  503 -0.85631539987E+02 -0.72262403728E+02 -0.25511336148E+03  0.27863496341E+03  0.00000000000E+00 0.  1.
<mgrwt>
<rscale>  0 0.14745353E+04</rscale>
<asrwt>0</asrwt>
<pdfrwt beam="1">  1        2 0.11147539E+00 0.14745353E+04</pdfrwt>
<pdfrwt beam="2">  1       -1 0.11541031E+00 0.14745353E+04</pdfrwt>
<totfact> 0.29508639E+01</totfact>
</mgrwt>
</event>
<event>
12    6  0.1705838E-008  0.2441797E+04  0.7818608E-02  0.8424019E-01
          2   -1    0    0  501    0  0.00000000000E+00  0.00000000000E+00  0.14515266579E+04  0.14515266579E+04  0.00000000000E+00 0. -1.
         -1   -1    0    0    0  501 -0.00000000000E+00 -0.00000000000E+00 -0.10269144607E+04  0.10269144607E+04  0.00000000000E+00 0.  1.
         24    2    1    2    0    0 -0.30626012235E+03 -0.96080552253E+03 -0.16270670297E+03  0.10245594029E+04  0.79410227266E+02 0.  0.
        254    2    1    2    0    0  0.30626012235E+03  0.96080552253E+03  0.58731890026E+03  0.14538817157E+04  0.86711362462E+03 0.  0.
         23    2    4    4    0    0  0.14335849518E+03  0.10352335723E+04  0.65975838584E+03  0.12406385675E+04  0.10790143716E+03 0.  0.
         23    2    4    4    0    0  0.16290162717E+03 -0.74428049762E+02 -0.72439485586E+02  0.21324314821E+03  0.90270075105E+02 0.  0.
          2    1    3    3  502    0 -0.17577997797E+03 -0.62539615655E+03 -0.73510132544E+02  0.65377572062E+03  0.00000000000E+00 0. -1.
         -1    1    3    3    0  502 -0.13048014438E+03 -0.33540936599E+03 -0.89196570426E+02  0.37078368228E+03  0.00000000000E+00 0.  1.
         11    1    5    5    0    0 -0.16293008995E+02  0.53825479347E+02  0.31138565019E+02  0.64282615072E+02  0.00000000000E+00 0. -1.
        -11    1    5    5    0    0  0.15965150418E+03  0.98140809295E+03  0.62861982082E+03  0.11763559524E+04  0.00000000000E+00 0.  1.
          1    1    6    6  503    0  0.44105164090E+02 -0.49588815198E+02  0.91634157165E+01  0.66994658591E+02  0.00000000000E+00 0. -1.
         -1    1    6    6    0  503  0.11879646308E+03 -0.24839234564E+02 -0.81602901303E+02  0.14624848962E+03  0.00000000000E+00 0.  1.
<mgrwt>
<rscale>  0 0.24417975E+04</rscale>
<asrwt>0</asrwt>
<pdfrwt beam="1">  1        2 0.22331179E+00 0.24417975E+04</pdfrwt>
<pdfrwt beam="2">  1       -1 0.15798684E+00 0.24417975E+04</pdfrwt>
<totfact> 0.41794425E+00</totfact>
</mgrwt>
</event>
<event>
11    6  0.1705838E-008  0.1443739E+04  0.7818608E-02  0.8922753E-01
         -1   -1    0    0    0  501 -0.00000000000E+00  0.00000000000E+00  0.35671883857E+03  0.35671883857E+03  0.00000000000E+00 0.  1.
          2   -1    0    0  501    0  0.00000000000E+00 -0.00000000000E+00 -0.14608014586E+04  0.14608014586E+04  0.00000000000E+00 0. -1.
         24    2    1    2    0    0 -0.90229309758E+02  0.38098887051E+03 -0.10062879831E+03  0.41227272812E+03  0.80924653300E+02 0.  0.
        254    2    1    2    0    0  0.90229309758E+02 -0.38098887051E+03 -0.10034538218E+04  0.14052475691E+04  0.90250058736E+03 0.  0.
         23    2    4    4    0    0  0.36223215397E+03 -0.24692903122E+02 -0.80743687656E+03  0.89044452307E+03  0.95473903279E+02 0.  0.
          2    1    3    3  502    0 -0.86518108184E+02  0.20671770961E+03 -0.73657599688E+02  0.23588776251E+03  0.00000000000E+00 0. -1.
         -1    1    3    3    0  502 -0.37112015744E+01  0.17427116091E+03 -0.26971198621E+02  0.17638496562E+03  0.00000000000E+00 0.  1.
         11    1    4    4    0    0 -0.10827917726E+03 -0.15873777102E+03 -0.17061496606E+03  0.25696600324E+03  0.00000000000E+00 0. -1.
        -11    1    4    4    0    0 -0.16372366695E+03 -0.19755819638E+03 -0.25401979132E+02  0.25783704276E+03  0.00000000000E+00 0.  1.
          3    1    5    5  503    0  0.57944326798E+02  0.16003771932E+02 -0.21425461780E+03  0.22252799144E+03  0.00000000000E+00 0. -1.
         -3    1    5    5    0  503  0.30428782717E+03 -0.40696675053E+02 -0.59318225876E+03  0.66791653163E+03  0.00000000000E+00 0.  1.
<mgrwt>
<rscale>  0 0.14437388E+04</rscale>
<asrwt>0</asrwt>
<pdfrwt beam="1">  1        2 0.22473869E+00 0.14437388E+04</pdfrwt>
<pdfrwt beam="2">  1       -1 0.54879820E-01 0.14437388E+04</pdfrwt>
<totfact> 0.49557504E+01</totfact>
</mgrwt>
</event>
<event>
11    6  0.1705838E-008  0.3271451E+04  0.7818608E-02  0.8170198E-01
          2   -1    0    0  501    0  0.00000000000E+00  0.00000000000E+00  0.19710568876E+04  0.19710568876E+04  0.00000000000E+00 0. -1.
         -1   -1    0    0    0  501 -0.00000000000E+00 -0.00000000000E+00 -0.13574429384E+04  0.13574429384E+04  0.00000000000E+00 0.  1.
         24    2    1    2    0    0  0.80949202908E+03  0.11634718576E+04  0.81620537120E+03  0.16376151134E+04  0.81534918902E+02 0.  0.
        254    2    1    2    0    0 -0.80949202908E+03 -0.11634718576E+04 -0.20259142202E+03  0.16908847127E+04  0.89950192822E+03 0.  0.
         23    2    4    4    0    0  0.46316499693E+02 -0.64741455720E+03 -0.66975917517E+02  0.65861514453E+03  0.89427669424E+02 0.  0.
          4    1    3    3  502    0  0.79371131236E+03  0.11441540408E+04  0.81300915447E+03  0.16124670545E+04  0.00000000000E+00 0. -1.
         -3    1    3    3    0  502  0.15780716719E+02  0.19317816760E+02  0.31962167292E+01  0.25148058890E+02  0.00000000000E+00 0.  1.
         11    1    4    4    0    0 -0.40608470830E+03 -0.12606603350E+03 -0.18604528777E+02  0.42560963759E+03  0.00000000000E+00 0. -1.
        -11    1    4    4    0    0 -0.44972382047E+03 -0.38999126688E+03 -0.11701097572E+03  0.60665993059E+03  0.00000000000E+00 0.  1.
          4    1    5    5  503    0 -0.73419804416E+01 -0.21468389947E+03 -0.57900391456E+02  0.22247592387E+03  0.00000000000E+00 0. -1.
         -4    1    5    5    0  503  0.53658480134E+02 -0.43273065773E+03 -0.90755260609E+01  0.43613922066E+03  0.00000000000E+00 0.  1.
<mgrwt>
<rscale>  0 0.32714506E+04</rscale>
<asrwt>0</asrwt>
<pdfrwt beam="1">  1        2 0.30323952E+00 0.32714506E+04</pdfrwt>
<pdfrwt beam="2">  1       -1 0.20883738E+00 0.32714506E+04</pdfrwt>
<totfact> 0.86443800E-01</totfact>
</mgrwt>
</event>
<event>
12    6  0.1705838E-008  0.1581516E+04  0.7818608E-02  0.8831985E-01
         -1   -1    0    0    0  501 -0.00000000000E+00  0.00000000000E+00  0.24696822832E+03  0.24696822832E+03  0.00000000000E+00 0.  1.
          2   -1    0    0  501    0  0.00000000000E+00 -0.00000000000E+00 -0.25318964487E+04  0.25318964487E+04  0.00000000000E+00 0. -1.
         24    2    1    2    0    0  0.17052225965E+03  0.44099220100E+03 -0.11946781614E+04  0.12874945352E+04  0.82669863951E+02 0.  0.
        254    2    1    2    0    0 -0.17052225965E+03 -0.44099220100E+03 -0.10902500590E+04  0.14913701419E+04  0.90110362696E+03 0.  0.
         23    2    4    4    0    0 -0.20512916637E+03 -0.17297883663E+03 -0.11606923147E+04  0.11975162387E+04  0.12181477599E+03 0.  0.
         23    2    4    4    0    0  0.34606906724E+02 -0.26801336437E+03  0.70442255713E+02  0.29385390319E+03  0.91428680172E+02 0.  0.
          4    1    3    3  502    0  0.11125592725E+03  0.34442499098E+03 -0.98086781773E+03  0.10455181164E+04  0.00000000000E+00 0. -1.
         -3    1    3    3    0  502  0.59266332398E+02  0.96567210016E+02 -0.21381034364E+03  0.24197641880E+03  0.00000000000E+00 0.  1.
         11    1    5    5    0    0  0.33241996565E+01 -0.26006922912E+02 -0.26268823679E+03  0.26399340918E+03  0.00000000000E+00 0.  1.
        -11    1    5    5    0    0 -0.20845336603E+03 -0.14697191372E+03 -0.89800407791E+03  0.93352282949E+03  0.00000000000E+00 0. -1.
          3    1    6    6  503    0  0.50721382975E+02 -0.17539218195E+03  0.80040115584E+02  0.19935269319E+03  0.00000000000E+00 0. -1.
         -3    1    6    6    0  503 -0.16114476251E+02 -0.92621182415E+02 -0.95978598712E+01  0.94501209997E+02  0.00000000000E+00 0.  1.
<mgrwt>
<rscale>  0 0.15815157E+04</rscale>
<asrwt>0</asrwt>
<pdfrwt beam="1">  1        2 0.38952253E+00 0.15815157E+04</pdfrwt>
<pdfrwt beam="2">  1       -1 0.37995112E-01 0.15815157E+04</pdfrwt>
<totfact> 0.24464091E+01</totfact>
</mgrwt>
</event>
<event>
11    6  0.1705838E-008  0.2588194E+04  0.7818608E-02  0.8372223E-01
          2   -1    0    0  501    0  0.00000000000E+00  0.00000000000E+00  0.18068382457E+04  0.18068382457E+04  0.00000000000E+00 0. -1.
         -1   -1    0    0    0  501 -0.00000000000E+00 -0.00000000000E+00 -0.92686029414E+03  0.92686029414E+03  0.00000000000E+00 0.  1.
         24    2    1    2    0    0 -0.12189577721E+03  0.95715703266E+03 -0.24803015985E+03  0.99952066498E+03  0.80712042733E+02 0.  0.
        254    2    1    2    0    0  0.12189577721E+03 -0.95715703266E+03  0.11280081114E+04  0.17341778748E+04  0.89663952428E+03 0.  0.
         23    2    4    4    0    0  0.19694794728E+03  0.38746217251E+02 -0.14214317032E+01  0.22068972239E+03  0.91717881627E+02 0.  0.
          4    1    3    3  502    0 -0.94212078501E+02  0.67901535385E+03 -0.21282243132E+03  0.71779603912E+03  0.00000000000E+00 0. -1.
         -3    1    3    3    0  502 -0.27683698712E+02  0.27814167882E+03 -0.35207728529E+02  0.28172462586E+03  0.00000000000E+00 0.  1.
         11    1    4    4    0    0 -0.12913098600E+02 -0.54233512513E+01  0.86051534659E+01  0.16438050992E+02  0.00000000000E+00 0.  1.
        -11    1    4    4    0    0 -0.62139071471E+02 -0.99047989866E+03  0.11208243896E+04  0.14970501014E+04  0.00000000000E+00 0. -1.
          2    1    5    5  503    0  0.69915075494E+02  0.32233222503E+02  0.40203018969E+02  0.86852640423E+02  0.00000000000E+00 0.  1.
         -2    1    5    5    0  503  0.12703287179E+03  0.65129947486E+01 -0.41624450672E+02  0.13383708197E+03  0.00000000000E+00 0. -1.
<mgrwt>
<rscale>  0 0.25881937E+04</rscale>
<asrwt>0</asrwt>
<pdfrwt beam="1">  1        2 0.27797511E+00 0.25881937E+04</pdfrwt>
<pdfrwt beam="2">  1       -1 0.14259389E+00 0.25881937E+04</pdfrwt>
<totfact> 0.34430242E+00</totfact>
</mgrwt>
</event>
<event>
12    6  0.1705838E-008  0.2390117E+04  0.7818608E-02  0.8443213E-01
          2   -1    0    0  501    0  0.00000000000E+00  0.00000000000E+00  0.44834563874E+04  0.44834563874E+04  0.00000000000E+00 0. -1.
         -1   -1    0    0    0  501 -0.00000000000E+00 -0.00000000000E+00 -0.31854100296E+03  0.31854100296E+03  0.00000000000E+00 0.  1.
         24    2    1    2    0    0  0.14104416627E+03 -0.70651226390E+02 -0.24382361974E+03  0.30130017284E+03  0.80291867496E+02 0.  0.
        254    2    1    2    0    0 -0.14104416627E+03  0.70651226390E+02  0.44087390041E+04  0.45006972175E+04  0.89129724791E+03 0.  0.
         23    2    4    4    0    0  0.17908804257E+03 -0.14120604622E+03  0.35081332117E+04  0.35175194441E+04  0.11803700368E+03 0.  0.
         23    2    4    4    0    0 -0.32013220884E+03  0.21185727261E+03  0.90060579245E+03  0.98317777336E+03  0.90441171765E+02 0.  0.
          4    1    3    3  502    0 -0.17071448127E-01  0.22732962278E+01 -0.52990072583E+02  0.53038815594E+02  0.00000000000E+00 0. -1.
         -3    1    3    3    0  502  0.14106123771E+03 -0.72924522617E+02 -0.19083354715E+03  0.24826135725E+03  0.00000000000E+00 0.  1.
         11    1    5    5    0    0  0.91979894555E+02 -0.92128378591E+02  0.11644623036E+04  0.11717168582E+04  0.00000000000E+00 0. -1.
        -11    1    5    5    0    0  0.87108148019E+02 -0.49077667631E+02  0.23436709080E+04  0.23458025859E+04  0.00000000000E+00 0.  1.
          3    1    6    6  503    0 -0.24581570062E+03  0.16020309416E+03  0.77234366321E+03  0.82619920368E+03  0.00000000000E+00 0. -1.
         -3    1    6    6    0  503 -0.74316508216E+02  0.51654178448E+02  0.12826212923E+03  0.15697856968E+03  0.00000000000E+00 0.  1.
<mgrwt>
<rscale>  0 0.23901169E+04</rscale>
<asrwt>0</asrwt>
<pdfrwt beam="1">  1        2 0.68976248E+00 0.23901169E+04</pdfrwt>
<pdfrwt beam="2">  1       -1 0.49006311E-01 0.23901169E+04</pdfrwt>
<totfact> 0.54959461E-01</totfact>
</mgrwt>
</event>
<event>
12    6  0.1705838E-008  0.1531697E+04  0.7818608E-02  0.8863644E-01
          2   -1    0    0  501    0  0.00000000000E+00  0.00000000000E+00  0.19966034315E+04  0.19966034315E+04  0.00000000000E+00 0. -1.
         -1   -1    0    0    0  501 -0.00000000000E+00 -0.00000000000E+00 -0.29376069044E+03  0.29376069044E+03  0.00000000000E+00 0.  1.
         24    2    1    2    0    0  0.29628946256E+03 -0.29640005165E+03  0.92619576224E+03  0.10189426315E+04  0.69029413882E+02 0.  0.
        254    2    1    2    0    0 -0.29628946256E+03  0.29640005165E+03  0.77664697883E+03  0.12714214905E+04  0.91525495928E+03 0.  0.
         23    2    4    4    0    0 -0.51137383083E+03  0.47521717269E+03  0.60920879338E+03  0.93268384682E+03  0.10690766156E+03 0.  0.
         23    2    4    4    0    0  0.21508436827E+03 -0.17881712104E+03  0.16743818544E+03  0.33873764366E+03  0.92036933024E+02 0.  0.
          4    1    3    3  502    0  0.56211219596E+02 -0.24455657207E+02  0.15533806329E+03  0.16699609063E+03  0.00000000000E+00 0. -1.
         -3    1    3    3    0  502  0.24007824296E+03 -0.27194439445E+03  0.77085769895E+03  0.85194654084E+03  0.00000000000E+00 0.  1.
         11    1    5    5    0    0 -0.47972001679E+03  0.42537921582E+03  0.58798187959E+03  0.86994336740E+03  0.00000000000E+00 0. -1.
        -11    1    5    5    0    0 -0.31653814039E+02  0.49837956865E+02  0.21226913794E+02  0.62740479413E+02  0.00000000000E+00 0.  1.
          1    1    6    6  503    0  0.16126123610E+03 -0.15427937341E+03  0.88469613547E+02  0.24007120579E+03  0.00000000000E+00 0. -1.
         -1    1    6    6    0  503  0.53823132173E+02 -0.24537747624E+02  0.78968571898E+02  0.98666437875E+02  0.00000000000E+00 0.  1.
<mgrwt>
<rscale>  0 0.15316966E+04</rscale>
<asrwt>0</asrwt>
<pdfrwt beam="1">  1        2 0.30716975E+00 0.15316966E+04</pdfrwt>
<pdfrwt beam="2">  1       -1 0.45193954E-01 0.15316966E+04</pdfrwt>
<totfact> 0.35804358E+01</totfact>
</mgrwt>
</event>
<event>
12    6  0.1705838E-008  0.1105739E+04  0.7818608E-02  0.9199616E-01
         -1   -1    0    0    0  501 -0.00000000000E+00  0.00000000000E+00  0.53659031476E+03  0.53659031476E+03  0.00000000000E+00 0.  1.
          2   -1    0    0  501    0  0.00000000000E+00 -0.00000000000E+00 -0.56964283763E+03  0.56964283763E+03  0.00000000000E+00 0. -1.
         24    2    1    2    0    0  0.78599355907E+01  0.76802116494E+02  0.14345608423E+03  0.18158674672E+03  0.80210690028E+02 0.  0.
        254    2    1    2    0    0 -0.78599355907E+01 -0.76802116494E+02 -0.17650860710E+03  0.92464640567E+03  0.90435355004E+03 0.  0.
         23    2    4    4    0    0  0.98700776048E+02  0.23369752724E+03  0.25974571458E+03  0.37139602870E+03  0.78171583476E+02 0.  0.
         23    2    4    4    0    0 -0.10656071164E+03 -0.31049964373E+03 -0.43625432167E+03  0.55325037697E+03  0.89459110328E+02 0.  0.
          2    1    3    3  502    0  0.40697214551E+02  0.31636562504E+02  0.45135569534E+02  0.68515363214E+02  0.00000000000E+00 0. -1.
         -1    1    3    3    0  502 -0.32837278960E+02  0.45165553991E+02  0.98320514700E+02  0.11307138350E+03  0.00000000000E+00 0.  1.
         11    1    5    5    0    0  0.38608438674E+02  0.74991160618E+02  0.38913697148E+02  0.92890050777E+02  0.00000000000E+00 0. -1.
        -11    1    5    5    0    0  0.60092337374E+02  0.15870636662E+03  0.22083201743E+03  0.27850597792E+03  0.00000000000E+00 0.  1.
          2    1    6    6  503    0 -0.61344757127E+02 -0.19283597909E+03 -0.19485782980E+03  0.28092430990E+03  0.00000000000E+00 0. -1.
         -2    1    6    6    0  503 -0.45215954511E+02 -0.11766366465E+03 -0.24139649188E+03  0.27232606708E+03  0.00000000000E+00 0.  1.
<mgrwt>
<rscale>  0 0.11057393E+04</rscale>
<asrwt>0</asrwt>
<pdfrwt beam="1">  1        2 0.87637360E-01 0.11057393E+04</pdfrwt>
<pdfrwt beam="2">  1       -1 0.82552356E-01 0.11057393E+04</pdfrwt>
<totfact> 0.87402864E+01</totfact>
</mgrwt>
</event>
<event>
12    6  0.1705838E-008  0.1440372E+04  0.7818608E-02  0.8925103E-01
          2   -1    0    0  501    0  0.00000000000E+00  0.00000000000E+00  0.13575567479E+04  0.13575567479E+04  0.00000000000E+00 0. -1.
         -1   -1    0    0    0  501 -0.00000000000E+00 -0.00000000000E+00 -0.38205955650E+03  0.38205955650E+03  0.00000000000E+00 0.  1.
         24    2    1    2    0    0 -0.21357958852E+03  0.38111880949E+03  0.37738244687E+03  0.58291910530E+03  0.80680756877E+02 0.  0.
        254    2    1    2    0    0  0.21357958852E+03 -0.38111880949E+03  0.59811474455E+03  0.11566971991E+04  0.88844773354E+03 0.  0.
         23    2    4    4    0    0  0.30153756515E+02 -0.92805443859E+02  0.75832435417E+03  0.76852185296E+03  0.77768328357E+02 0.  0.
         23    2    4    4    0    0  0.18342583201E+03 -0.28831336564E+03 -0.16020960963E+03  0.38817534617E+03  0.90792883550E+02 0.  0.
          4    1    3    3  502    0 -0.15580551087E+03  0.33521351881E+03  0.32737757087E+03  0.49378085658E+03  0.00000000000E+00 0. -1.
         -3    1    3    3    0  502 -0.57774077652E+02  0.45905290680E+02  0.50004876003E+02  0.89138248721E+02  0.00000000000E+00 0.  1.
         11    1    5    5    0    0  0.20404741138E+02  0.90305228885E+01  0.12128681703E+03  0.12332232478E+03  0.00000000000E+00 0.  1.
        -11    1    5    5    0    0  0.97490153772E+01 -0.10183596675E+03  0.63703753714E+03  0.64519952817E+03  0.00000000000E+00 0. -1.
          2    1    6    6  503    0  0.17982493948E+03 -0.23858420748E+03 -0.15869031652E+03  0.33829284573E+03  0.00000000000E+00 0. -1.
         -2    1    6    6    0  503  0.36008925304E+01 -0.49729158156E+02 -0.15192931037E+01  0.49882500433E+02  0.00000000000E+00 0.  1.
<mgrwt>
<rscale>  0 0.14403715E+04</rscale>
<asrwt>0</asrwt>
<pdfrwt beam="1">  1        2 0.20885488E+00 0.14403715E+04</pdfrwt>
<pdfrwt beam="2">  1       -1 0.58778394E-01 0.14403715E+04</pdfrwt>
<totfact> 0.49666336E+01</totfact>
</mgrwt>
</event>
<event>
12    6  0.1705838E-008  0.1910256E+04  0.7818608E-02  0.8649768E-01
          2   -1    0    0  501    0  0.00000000000E+00  0.00000000000E+00  0.66129279020E+03  0.66129279020E+03  0.00000000000E+00 0. -1.
         -1   -1    0    0    0  501 -0.00000000000E+00 -0.00000000000E+00 -0.13795237540E+04  0.13795237540E+04  0.00000000000E+00 0.  1.
         24    2    1    2    0    0  0.43494677434E+03 -0.18462120137E+03 -0.88844069204E+03  0.10088042154E+04  0.71382051466E+02 0.  0.
        254    2    1    2    0    0 -0.43494677434E+03  0.18462120137E+03  0.17020972828E+03  0.10320123287E+04  0.90156220561E+03 0.  0.
         23    2    4    4    0    0  0.15647777624E+03 -0.23049717735E+03  0.54881849699E+02  0.29448977687E+03  0.78089487309E+02 0.  0.
         23    2    4    4    0    0 -0.59142455058E+03  0.41511837872E+03  0.11532787858E+03  0.73752255188E+03  0.92372764210E+02 0.  0.
          2    1    3    3  502    0  0.34509435593E-01  0.38490284821E+01 -0.62495342250E+01  0.73398153374E+01  0.00000000000E+00 0. -1.
         -1    1    3    3    0  502  0.43491226490E+03 -0.18847022985E+03 -0.88219115782E+03  0.10014644001E+04  0.00000000000E+00 0.  1.
         11    1    5    5    0    0  0.10271154099E+03 -0.19740257980E+03  0.22854713939E+02  0.22369572439E+03  0.00000000000E+00 0. -1.
        -11    1    5    5    0    0  0.53766235254E+02 -0.33094597555E+02  0.32027135760E+02  0.70794052474E+02  0.00000000000E+00 0.  1.
          4    1    6    6  503    0 -0.41899869190E+03  0.24162226807E+03  0.84110902803E+02  0.49093366986E+03  0.00000000000E+00 0. -1.
         -4    1    6    6    0  503 -0.17242585868E+03  0.17349611066E+03  0.31216975774E+02  0.24658888201E+03  0.00000000000E+00 0.  1.
<mgrwt>
<rscale>  0 0.19102556E+04</rscale>
<asrwt>0</asrwt>
<pdfrwt beam="1">  1        2 0.10173735E+00 0.19102556E+04</pdfrwt>
<pdfrwt beam="2">  1       -1 0.21223442E+00 0.19102556E+04</pdfrwt>
<totfact> 0.58373211E+00</totfact>
</mgrwt>
</event>
<event>
11    6  0.1705838E-008  0.2044757E+04  0.7818608E-02  0.8585977E-01
          2   -1    0    0  501    0  0.00000000000E+00  0.00000000000E+00  0.15025860091E+04  0.15025860091E+04  0.00000000000E+00 0. -1.
         -1   -1    0    0    0  501 -0.00000000000E+00 -0.00000000000E+00 -0.69563911110E+03  0.69563911110E+03  0.00000000000E+00 0.  1.
         24    2    1    2    0    0  0.47905925265E+03 -0.51737023092E+03  0.81156184710E+03  0.10783727865E+04  0.84175480494E+02 0.  0.
        254    2    1    2    0    0 -0.47905925265E+03  0.51737023092E+03 -0.46149491489E+01  0.11198523337E+04  0.86998748734E+03 0.  0.
         23    2    4    4    0    0 -0.19188306587E+03 -0.37926965565E+02 -0.32768805840E+03  0.39247743977E+03  0.91659759073E+02 0.  0.
          4    1    3    3  502    0  0.47792479964E+03 -0.50839021583E+03  0.81014879197E+03  0.10692117614E+04  0.00000000000E+00 0. -1.
         -3    1    3    3    0  502  0.11344530155E+01 -0.89800150963E+01  0.14130551293E+01  0.91610250285E+01  0.00000000000E+00 0.  1.
         11    1    4    4    0    0 -0.56766054392E+02  0.12253435082E+02  0.80579616645E+01  0.58629875906E+02  0.00000000000E+00 0.  1.
        -11    1    4    4    0    0 -0.23041013239E+03  0.54304376141E+03  0.31501514758E+03  0.66874501801E+03  0.00000000000E+00 0. -1.
          3    1    5    5  503    0 -0.67717041834E+02  0.30421656624E+02 -0.11604673274E+03  0.13776036849E+03  0.00000000000E+00 0. -1.
         -3    1    5    5    0  503 -0.12416602403E+03 -0.68348622188E+02 -0.21164132566E+03  0.25471707129E+03  0.00000000000E+00 0.  1.
<mgrwt>
<rscale>  0 0.20447568E+04</rscale>
<asrwt>0</asrwt>
<pdfrwt beam="1">  1        2 0.23116708E+00 0.20447568E+04</pdfrwt>
<pdfrwt beam="2">  1       -1 0.10702140E+00 0.20447568E+04</pdfrwt>
<totfact> 0.10864156E+01</totfact>
</mgrwt>
</event>
<event>
12    6  0.1705838E-008  0.1287825E+04  0.7818608E-02  0.9039276E-01
         -1   -1    0    0    0  501 -0.00000000000E+00  0.00000000000E+00  0.21078173612E+03  0.21078173612E+03  0.00000000000E+00 0.  1.
          2   -1    0    0  501    0  0.00000000000E+00 -0.00000000000E+00 -0.19670753950E+04  0.19670753950E+04  0.00000000000E+00 0. -1.
         24    2    1    2    0    0  0.95035549812E+02 -0.21725263270E+03 -0.76732368431E+02  0.26133996306E+03  0.78614615600E+02 0.  0.
        254    2    1    2    0    0 -0.95035549812E+02  0.21725263270E+03 -0.16795612904E+04  0.19165171680E+04  0.89212188905E+03 0.  0.
         23    2    4    4    0    0  0.32057343783E+03  0.15475416432E+03 -0.30069421576E+03  0.47204803472E+03  0.75472877751E+02 0.  0.
         23    2    4    4    0    0 -0.41560898764E+03  0.62498468379E+02 -0.13788670747E+04  0.14444691333E+04  0.92627092862E+02 0.  0.
          4    1    3    3  502    0  0.37914466593E+02 -0.16101112665E+03 -0.73781735368E+02  0.18112380891E+03  0.00000000000E+00 0. -1.
         -3    1    3    3    0  502  0.57121083218E+02 -0.56241506049E+02 -0.29506330627E+01  0.80216154147E+02  0.00000000000E+00 0.  1.
         11    1    5    5    0    0  0.71156982437E+01  0.18150271929E+02 -0.30724260558E+02  0.36387439034E+02  0.00000000000E+00 0.  1.
        -11    1    5    5    0    0  0.31345773959E+03  0.13660389239E+03 -0.26996995520E+03  0.43566059569E+03  0.00000000000E+00 0. -1.
          2    1    6    6  503    0 -0.41936762972E+03  0.63982748937E+02 -0.13746884967E+04  0.14386561313E+04  0.00000000000E+00 0. -1.
         -2    1    6    6    0  503  0.37586420809E+01 -0.14842805581E+01 -0.41785779338E+01  0.58130020314E+01  0.00000000000E+00 0.  1.
<mgrwt>
<rscale>  0 0.12878254E+04</rscale>
<asrwt>0</asrwt>
<pdfrwt beam="1">  1        2 0.30262699E+00 0.12878254E+04</pdfrwt>
<pdfrwt beam="2">  1       -1 0.32427958E-01 0.12878254E+04</pdfrwt>
<totfact> 0.69309652E+01</totfact>
</mgrwt>
</event>
<event>
12    6  0.1705838E-008  0.1849080E+04  0.7818608E-02  0.8680626E-01
         -1   -1    0    0    0  501 -0.00000000000E+00  0.00000000000E+00  0.26732113844E+03  0.26732113844E+03  0.00000000000E+00 0.  1.
          2   -1    0    0  501    0  0.00000000000E+00 -0.00000000000E+00 -0.31975553658E+04  0.31975553658E+04  0.00000000000E+00 0. -1.
         24    2    1    2    0    0 -0.50217332312E+02 -0.11459530457E+03  0.17467489444E+03  0.23042740417E+03  0.83256264309E+02 0.  0.
        254    2    1    2    0    0  0.50217332312E+02  0.11459530457E+03 -0.31049091218E+04  0.32344491000E+04  0.89752240194E+03 0.  0.
         23    2    4    4    0    0 -0.32641996069E+03  0.96796564859E+02 -0.24294739282E+04  0.24554111573E+04  0.10383071835E+03 0.  0.
         23    2    4    4    0    0  0.37663729300E+03  0.17798739716E+02 -0.67543519358E+03  0.77903794271E+03  0.92276594210E+02 0.  0.
          4    1    3    3  502    0  0.11993881890E+02 -0.73882611887E+02  0.10145171271E+03  0.12607515042E+03  0.00000000000E+00 0. -1.
         -3    1    3    3    0  502 -0.62211214202E+02 -0.40712692688E+02  0.73223181737E+02  0.10435225375E+03  0.00000000000E+00 0.  1.
         11    1    5    5    0    0 -0.32991387925E+03  0.10316726678E+03 -0.23103533447E+04  0.23360691835E+04  0.00000000000E+00 0. -1.
        -11    1    5    5    0    0  0.34939185665E+01 -0.63707019209E+01 -0.11912058349E+03  0.11934197384E+03  0.00000000000E+00 0.  1.
          1    1    6    6  503    0  0.35573448874E+03  0.39280617173E+02 -0.61438299325E+03  0.71102493329E+03  0.00000000000E+00 0. -1.
         -1    1    6    6    0  503  0.20902804258E+02 -0.21481877457E+02 -0.61052200336E+02  0.68013009423E+02  0.00000000000E+00 0.  1.
<mgrwt>
<rscale>  0 0.18490799E+04</rscale>
<asrwt>0</asrwt>
<pdfrwt beam="1">  1        2 0.49193156E+00 0.18490799E+04</pdfrwt>
<pdfrwt beam="2">  1       -1 0.41126332E-01 0.18490799E+04</pdfrwt>
<totfact> 0.81035054E+00</totfact>
</mgrwt>
</event>
<event>
12    6  0.1705838E-008  0.1617341E+04  0.7818608E-02  0.8809965E-01
         -1   -1    0    0    0  501 -0.00000000000E+00  0.00000000000E+00  0.31604000742E+03  0.31604000742E+03  0.00000000000E+00 0.  1.
          2   -1    0    0  501    0  0.00000000000E+00 -0.00000000000E+00 -0.20691934151E+04  0.20691934151E+04  0.00000000000E+00 0. -1.
         24    2    1    2    0    0 -0.24324582832E+03 -0.49642374818E+03 -0.62498685547E+03  0.83850306960E+03  0.82908126642E+02 0.  0.
        254    2    1    2    0    0  0.24324582832E+03  0.49642374818E+03 -0.11281665522E+04  0.15467303529E+04  0.90222499653E+03 0.  0.
         23    2    4    4    0    0  0.57048023059E+03  0.39232322361E+03 -0.70703116676E+03  0.99684622066E+03  0.12018365770E+03 0.  0.
         23    2    4    4    0    0 -0.32723440227E+03  0.10410052456E+03 -0.42113538543E+03  0.54988413225E+03  0.84251248032E+02 0.  0.
          2    1    3    3  502    0 -0.19616232287E+03 -0.41126256750E+03 -0.55781781698E+03  0.72026194768E+03  0.00000000000E+00 0. -1.
         -3    1    3    3    0  502 -0.47083505452E+02 -0.85161180673E+02 -0.67169038493E+02  0.11824112191E+03  0.00000000000E+00 0.  1.
         11    1    5    5    0    0  0.53296237779E+03  0.34122021537E+03 -0.59775624991E+03  0.87051287516E+03  0.00000000000E+00 0. -1.
        -11    1    5    5    0    0  0.37517852805E+02  0.51103008242E+02 -0.10927491686E+03  0.12633334550E+03  0.00000000000E+00 0.  1.
          1    1    6    6  503    0 -0.30048357429E+03  0.69505447512E+02 -0.35118516610E+03  0.46738892428E+03  0.00000000000E+00 0. -1.
         -1    1    6    6    0  503 -0.26750827986E+02  0.34595077051E+02 -0.69950219325E+02  0.82495207968E+02  0.00000000000E+00 0.  1.
<mgrwt>
<rscale>  0 0.16173409E+04</rscale>
<asrwt>0</asrwt>
<pdfrwt beam="1">  1        2 0.31833743E+00 0.16173409E+04</pdfrwt>
<pdfrwt beam="2">  1       -1 0.48621542E-01 0.16173409E+04</pdfrwt>
<totfact> 0.28237133E+01</totfact>
</mgrwt>
</event>
<event>
12    6  0.1705838E-008  0.2451566E+04  0.7818608E-02  0.8420446E-01
         -1   -1    0    0    0  501 -0.00000000000E+00  0.00000000000E+00  0.10018734713E+04  0.10018734713E+04  0.00000000000E+00 0.  1.
          2   -1    0    0  501    0  0.00000000000E+00 -0.00000000000E+00 -0.14997342604E+04  0.14997342604E+04  0.00000000000E+00 0. -1.
         24    2    1    2    0    0 -0.31395170157E+03  0.89953358652E+03 -0.69241004850E+03  0.11804600911E+04  0.79548772707E+02 0.  0.
        254    2    1    2    0    0  0.31395170157E+03 -0.89953358652E+03  0.19454925940E+03  0.13211476406E+04  0.89434631417E+03 0.  0.
         23    2    4    4    0    0  0.49786064574E+03 -0.95779018359E+03  0.21588252317E+03  0.11065310136E+04  0.11215329623E+03 0.  0.
         23    2    4    4    0    0 -0.18390894417E+03  0.58256597069E+02 -0.21333263765E+02  0.21461662700E+03  0.91590706914E+02 0.  0.
          2    1    3    3  502    0 -0.17496349593E+03  0.54331697033E+03 -0.36921960754E+03  0.67980046613E+03  0.00000000000E+00 0. -1.
         -1    1    3    3    0  502 -0.13898820564E+03  0.35621661619E+03 -0.32319044096E+03  0.50065962498E+03  0.00000000000E+00 0.  1.
         11    1    5    5    0    0  0.44630183155E+03 -0.76486122257E+03  0.17865640610E+03  0.90339145783E+03  0.00000000000E+00 0. -1.
        -11    1    5    5    0    0  0.51558814194E+02 -0.19292896102E+03  0.37226117062E+02  0.20313955575E+03  0.00000000000E+00 0.  1.
          2    1    6    6  503    0 -0.15762781751E+03  0.49840957621E+02 -0.52054241096E+02  0.17332136027E+03  0.00000000000E+00 0. -1.
         -2    1    6    6    0  503 -0.26281126653E+02  0.84156394486E+01  0.30720977331E+02  0.41295266722E+02  0.00000000000E+00 0.  1.
<mgrwt>
<rscale>  0 0.24515660E+04</rscale>
<asrwt>0</asrwt>
<pdfrwt beam="1">  1        2 0.23072835E+00 0.24515660E+04</pdfrwt>
<pdfrwt beam="2">  1       -1 0.15413438E+00 0.24515660E+04</pdfrwt>
<totfact> 0.41971405E+00</totfact>
</mgrwt>
</event>
<event>
12    6  0.1705838E-008  0.1961440E+04  0.7818608E-02  0.8624864E-01
          2   -1    0    0  501    0  0.00000000000E+00  0.00000000000E+00  0.19419801283E+04  0.19419801283E+04  0.00000000000E+00 0. -1.
         -1   -1    0    0    0  501 -0.00000000000E+00 -0.00000000000E+00 -0.49527374053E+03  0.49527374053E+03  0.00000000000E+00 0.  1.
         24    2    1    2    0    0 -0.41764011748E+03 -0.64447653845E+03  0.42609625588E+03  0.88188085380E+03  0.79890829775E+02 0.  0.
        254    2    1    2    0    0  0.41764011748E+03  0.64447653845E+03  0.10206101318E+04  0.15553730150E+04  0.88756233481E+03 0.  0.
         23    2    4    4    0    0  0.31823833589E+02 -0.18589783048E+03  0.35304352380E+02  0.20715880817E+03  0.78087225232E+02 0.  0.
         23    2    4    4    0    0  0.38581628389E+03  0.83037436893E+03  0.98530577946E+03  0.13482142068E+04  0.92077526657E+02 0.  0.
          4    1    3    3  502    0 -0.29235520597E+03 -0.44640558748E+03  0.33713422448E+03  0.63119648313E+03  0.00000000000E+00 0. -1.
         -1    1    3    3    0  502 -0.12528491151E+03 -0.19807095097E+03  0.88962031392E+02  0.25068437067E+03  0.00000000000E+00 0.  1.
         11    1    5    5    0    0  0.45469822329E+02 -0.18054337024E+03  0.42285102108E+02  0.19092261034E+03  0.00000000000E+00 0.  1.
        -11    1    5    5    0    0 -0.13645988741E+02 -0.53544602418E+01 -0.69807497272E+01  0.16236197829E+02  0.00000000000E+00 0. -1.
          1    1    6    6  503    0  0.62979678625E+02  0.21969342569E+03  0.21910972495E+03  0.31660813757E+03  0.00000000000E+00 0. -1.
         -1    1    6    6    0  503  0.32283660527E+03  0.61068094324E+03  0.76619605451E+03  0.10316060692E+04  0.00000000000E+00 0.  1.
<mgrwt>
<rscale>  0 0.19614400E+04</rscale>
<asrwt>0</asrwt>
<pdfrwt beam="1">  1        2 0.29876617E+00 0.19614400E+04</pdfrwt>
<pdfrwt beam="2">  1       -1 0.76195961E-01 0.19614400E+04</pdfrwt>
<totfact> 0.13207119E+01</totfact>
</mgrwt>
</event>
<event>
11    6  0.1705838E-008  0.1352487E+04  0.7818608E-02  0.8988948E-01
          2   -1    0    0  501    0  0.00000000000E+00  0.00000000000E+00  0.16492840694E+04  0.16492840694E+04  0.00000000000E+00 0. -1.
         -1   -1    0    0    0  501 -0.00000000000E+00 -0.00000000000E+00 -0.27727504401E+03  0.27727504401E+03  0.00000000000E+00 0.  1.
         24    2    1    2    0    0  0.65901027392E+01 -0.21144165223E+03  0.81671529925E+03  0.84748217645E+03  0.80319098711E+02 0.  0.
        254    2    1    2    0    0 -0.65901027392E+01  0.21144165223E+03  0.55529372618E+03  0.10790769370E+04  0.90072465930E+03 0.  0.
         23    2    4    4    0    0  0.21549495733E+03  0.42422259562E+03  0.98307570937E+02  0.49485720352E+03  0.93895612817E+02 0.  0.
          2    1    3    3  502    0 -0.77678759656E+01 -0.19775840679E+03  0.64648355084E+03  0.67609888985E+03  0.00000000000E+00 0. -1.
         -1    1    3    3    0  502  0.14357978705E+02 -0.13683245446E+02  0.17023174841E+03  0.17138328660E+03  0.00000000000E+00 0.  1.
         11    1    4    4    0    0 -0.23112403365E+03 -0.23669835759E+03  0.44843405070E+03  0.55725894273E+03  0.00000000000E+00 0. -1.
        -11    1    4    4    0    0  0.90389735818E+01  0.23917414211E+02  0.85521045355E+01  0.26960790751E+02  0.00000000000E+00 0.  1.
          3    1    5    5  503    0  0.16985127855E+03  0.39611657614E+03  0.81102682779E+02  0.43856065017E+03  0.00000000000E+00 0. -1.
         -3    1    5    5    0  503  0.45643678774E+02  0.28106019471E+02  0.17204888158E+02  0.56296553350E+02  0.00000000000E+00 0.  1.
<mgrwt>
<rscale>  0 0.13524871E+04</rscale>
<asrwt>0</asrwt>
<pdfrwt beam="1">  1        2 0.25373600E+00 0.13524871E+04</pdfrwt>
<pdfrwt beam="2">  1       -1 0.42657700E-01 0.13524871E+04</pdfrwt>
<totfact> 0.62993345E+01</totfact>
</mgrwt>
</event>
<event>
12    6  0.1705838E-008  0.1433799E+04  0.7818608E-02  0.8929710E-01
         -1   -1    0    0    0  501 -0.00000000000E+00  0.00000000000E+00  0.15612883038E+03  0.15612883038E+03  0.00000000000E+00 0.  1.
          2   -1    0    0  501    0  0.00000000000E+00 -0.00000000000E+00 -0.32918017107E+04  0.32918017107E+04  0.00000000000E+00 0. -1.
         24    2    1    2    0    0 -0.30590836289E+03 -0.19715111724E+03 -0.14068985702E+04  0.14552988965E+04  0.77992319901E+02 0.  0.
        254    2    1    2    0    0  0.30590836289E+03  0.19715111724E+03 -0.17287743102E+04  0.19926316446E+04  0.92166792606E+03 0.  0.
         23    2    4    4    0    0 -0.21747637970E+03  0.17998881280E+03 -0.12173077910E+04  0.12545180371E+04  0.11083906821E+03 0.  0.
         23    2    4    4    0    0  0.52338474259E+03  0.17162304437E+02 -0.51146651923E+03  0.73811360748E+03  0.94802762529E+02 0.  0.
          2    1    3    3  502    0 -0.25173125836E+03 -0.12864386949E+03 -0.11371537962E+04  0.11717664562E+04  0.00000000000E+00 0. -1.
         -1    1    3    3    0  502 -0.54177104532E+02 -0.68507247746E+02 -0.26974477397E+03  0.28353244036E+03  0.00000000000E+00 0.  1.
         11    1    5    5    0    0 -0.11533240430E+03  0.71047422416E+02 -0.36710923929E+03  0.39130358200E+03  0.00000000000E+00 0. -1.
        -11    1    5    5    0    0 -0.10214397539E+03  0.10894139039E+03 -0.85019855166E+03  0.86321445510E+03  0.00000000000E+00 0.  1.
          2    1    6    6  503    0  0.33424514624E+03  0.32397305569E+02 -0.38082715339E+03  0.50773883440E+03  0.00000000000E+00 0. -1.
         -2    1    6    6    0  503  0.18913959635E+03 -0.15235001132E+02 -0.13063936584E+03  0.23037477309E+03  0.00000000000E+00 0.  1.
<mgrwt>
<rscale>  0 0.14337994E+04</rscale>
<asrwt>0</asrwt>
<pdfrwt beam="1">  1        2 0.50643105E+00 0.14337994E+04</pdfrwt>
<pdfrwt beam="2">  1       -1 0.24019819E-01 0.14337994E+04</pdfrwt>
<totfact> 0.18947073E+01</totfact>
</mgrwt>
</event>
<event>
12    6  0.1705838E-008  0.1856413E+04  0.7818608E-02  0.8676862E-01
          2   -1    0    0  501    0  0.00000000000E+00  0.00000000000E+00  0.30733289915E+04  0.30733289915E+04  0.00000000000E+00 0. -1.
         -1   -1    0    0    0  501 -0.00000000000E+00 -0.00000000000E+00 -0.28033691937E+03  0.28033691937E+03  0.00000000000E+00 0.  1.
         24    2    1    2    0    0  0.86699116963E+02 -0.52045142839E+03  0.18851859434E+03  0.56580903701E+03  0.78830068850E+02 0.  0.
        254    2    1    2    0    0 -0.86699116963E+02  0.52045142839E+03  0.26044734778E+04  0.27878568739E+04  0.84289823021E+03 0.  0.
         23    2    4    4    0    0  0.35476426751E+02  0.76992582424E+02 -0.69015144852E+01  0.13450894990E+03  0.10420456850E+03 0.  0.
         23    2    4    4    0    0 -0.12217554371E+03  0.44345884596E+03  0.26113749923E+04  0.26533479240E+04  0.96918748601E+02 0.  0.
          2    1    3    3  502    0 -0.12663373763E+02 -0.28061417955E+02  0.15984034404E+02  0.34688522144E+02  0.00000000000E+00 0. -1.
         -1    1    3    3    0  502  0.99362490726E+02 -0.49239001043E+03  0.17253455994E+03  0.53112051486E+03  0.00000000000E+00 0.  1.
         11    1    5    5    0    0 -0.35797602083E+02  0.21845221688E+02 -0.13744931499E+02  0.44131679862E+02  0.00000000000E+00 0.  1.
        -11    1    5    5    0    0  0.71274028834E+02  0.55147360736E+02  0.68434170138E+01  0.90377270034E+02  0.00000000000E+00 0. -1.
          4    1    6    6  503    0 -0.13656525090E+03  0.37484925515E+03  0.22797323166E+04  0.23143771230E+04  0.00000000000E+00 0. -1.
         -4    1    6    6    0  503  0.14389707182E+02  0.68609590809E+02  0.33164267568E+03  0.33897080104E+03  0.00000000000E+00 0.  1.
<mgrwt>
<rscale>  0 0.18564133E+04</rscale>
<asrwt>0</asrwt>
<pdfrwt beam="1">  1        2 0.47281982E+00 0.18564133E+04</pdfrwt>
<pdfrwt beam="2">  1       -1 0.43128759E-01 0.18564133E+04</pdfrwt>
<totfact> 0.89098798E+00</totfact>
</mgrwt>
</event>
<event>
12    6  0.1705838E-008  0.1627870E+04  0.7818608E-02  0.8803607E-01
          2   -1    0    0  501    0  0.00000000000E+00  0.00000000000E+00  0.36407893849E+04  0.36407893849E+04  0.00000000000E+00 0. -1.
         -1   -1    0    0    0  501 -0.00000000000E+00 -0.00000000000E+00 -0.18196329044E+03  0.18196329044E+03  0.00000000000E+00 0.  1.
         24    2    1    2    0    0  0.35499938153E+03 -0.26946466549E+03  0.39481173407E+03  0.60052807183E+03  0.78242525889E+02 0.  0.
        254    2    1    2    0    0 -0.35499938153E+03  0.26946466549E+03  0.30640143603E+04  0.32222246035E+04  0.89213879411E+03 0.  0.
         23    2    4    4    0    0 -0.15499612669E+02 -0.24788599718E+03  0.41480875771E+03  0.50019389588E+03  0.12821826081E+03 0.  0.
         23    2    4    4    0    0 -0.33949976886E+03  0.51735066268E+03  0.26492056026E+04  0.27220307076E+04  0.90824263318E+02 0.  0.
          4    1    3    3  502    0  0.52836968588E+02 -0.10839236592E+02  0.59549991088E+02  0.80345726321E+02  0.00000000000E+00 0. -1.
         -3    1    3    3    0  502  0.30216241294E+03 -0.25862542890E+03  0.33526174298E+03  0.52018234551E+03  0.00000000000E+00 0.  1.
         11    1    5    5    0    0 -0.92330404237E+01 -0.90040624862E+02  0.27405095098E+03  0.28861130764E+03  0.00000000000E+00 0.  1.
        -11    1    5    5    0    0 -0.62665722449E+01 -0.15784537232E+03  0.14075780673E+03  0.21158258824E+03  0.00000000000E+00 0. -1.
          1    1    6    6  503    0 -0.27413398162E+03  0.37716518848E+03  0.21208985608E+04  0.21715463902E+04  0.00000000000E+00 0. -1.
         -1    1    6    6    0  503 -0.65365787241E+02  0.14018547420E+03  0.52830704178E+03  0.55048431741E+03  0.00000000000E+00 0.  1.
<mgrwt>
<rscale>  0 0.16278698E+04</rscale>
<asrwt>0</asrwt>
<pdfrwt beam="1">  1        2 0.56012139E+00 0.16278698E+04</pdfrwt>
<pdfrwt beam="2">  1       -1 0.27994355E-01 0.16278698E+04</pdfrwt>
<totfact> 0.82031941E+00</totfact>
</mgrwt>
</event>
<event>
12    6  0.1705838E-008  0.1739647E+04  0.7818608E-02  0.8739070E-01
         -1   -1    0    0    0  501 -0.00000000000E+00  0.00000000000E+00  0.12457442736E+04  0.12457442736E+04  0.00000000000E+00 0.  1.
          2   -1    0    0  501    0  0.00000000000E+00 -0.00000000000E+00 -0.60734198479E+03  0.60734198479E+03  0.00000000000E+00 0. -1.
         24    2    1    2    0    0  0.22630212080E+03 -0.49131661377E+03  0.59169034341E+03  0.80610061244E+03  0.84238174588E+02 0.  0.
        254    2    1    2    0    0 -0.22630212080E+03  0.49131661377E+03  0.46711945454E+02  0.10469856460E+04  0.89520515650E+03 0.  0.
         23    2    4    4    0    0 -0.53438764875E+03  0.40622172274E+03 -0.97659538051E+02  0.68654170841E+03  0.10590507473E+03 0.  0.
         23    2    4    4    0    0  0.30808552795E+03  0.85094891030E+02  0.14437148350E+03  0.36044393758E+03  0.83179768461E+02 0.  0.
          2    1    3    3  502    0  0.87433312942E+02 -0.23701076749E+03  0.22134458783E+03  0.33587514746E+03  0.00000000000E+00 0. -1.
         -1    1    3    3    0  502  0.13886880786E+03 -0.25430584628E+03  0.37034575558E+03  0.47022546499E+03  0.00000000000E+00 0.  1.
         11    1    5    5    0    0 -0.36979098613E+02  0.31830747027E+02 -0.36597443727E+02  0.60991991916E+02  0.00000000000E+00 0.  1.
        -11    1    5    5    0    0 -0.49740855014E+03  0.37439097571E+03 -0.61062094324E+02  0.62554971649E+03  0.00000000000E+00 0. -1.
          2    1    6    6  503    0  0.18420252900E+03  0.28512467455E+02  0.12108970802E+03  0.22227516704E+03  0.00000000000E+00 0. -1.
         -2    1    6    6    0  503  0.12388299894E+03  0.56582423575E+02  0.23281775480E+02  0.13816877055E+03  0.00000000000E+00 0.  1.
<mgrwt>
<rscale>  0 0.17396469E+04</rscale>
<asrwt>0</asrwt>
<pdfrwt beam="1">  1        2 0.93437228E-01 0.17396469E+04</pdfrwt>
<pdfrwt beam="2">  1       -1 0.19165297E+00 0.17396469E+04</pdfrwt>
<totfact> 0.91091112E+00</totfact>
</mgrwt>
</event>
<event>
12    6  0.1705838E-008  0.1983087E+04  0.7818608E-02  0.8614569E-01
          2   -1    0    0  501    0  0.00000000000E+00  0.00000000000E+00  0.68776799739E+03  0.68776799739E+03  0.00000000000E+00 0. -1.
         -1   -1    0    0    0  501 -0.00000000000E+00 -0.00000000000E+00 -0.14294914170E+04  0.14294914170E+04  0.00000000000E+00 0.  1.
         24    2    1    2    0    0  0.23569362631E+03  0.22738390141E+03  0.46377979128E+03  0.57336166548E+03  0.79981126129E+02 0.  0.
        254    2    1    2    0    0 -0.23569362631E+03 -0.22738390141E+03 -0.12055032109E+04  0.15438977489E+04  0.90726365712E+03 0.  0.
         23    2    4    4    0    0 -0.40259311891E+03  0.21226027110E+03 -0.76830692129E+03  0.89583777487E+03  0.71373324872E+02 0.  0.
         23    2    4    4    0    0  0.16689949260E+03 -0.43964417251E+03 -0.43719628964E+03  0.64805997407E+03  0.87742209168E+02 0.  0.
          2    1    3    3  502    0  0.10831007185E+03  0.15021768278E+03  0.21869221604E+03  0.28657060080E+03  0.00000000000E+00 0. -1.
         -1    1    3    3    0  502  0.12738355446E+03  0.77166218631E+02  0.24508757524E+03  0.28679106468E+03  0.00000000000E+00 0.  1.
         11    1    5    5    0    0 -0.20380840888E+03  0.14042964528E+03 -0.37456981047E+03  0.44895533822E+03  0.00000000000E+00 0.  1.
        -11    1    5    5    0    0 -0.19878471003E+03  0.71830625817E+02 -0.39373711083E+03  0.44688243665E+03  0.00000000000E+00 0. -1.
          3    1    6    6  503    0  0.39737467153E+01 -0.23220528948E+01  0.38049070597E+01  0.59715919432E+01  0.00000000000E+00 0. -1.
         -3    1    6    6    0  503  0.16292574588E+03 -0.43732211961E+03 -0.44100119670E+03  0.64208838213E+03  0.00000000000E+00 0.  1.
<mgrwt>
<rscale>  0 0.19830869E+04</rscale>
<asrwt>0</asrwt>
<pdfrwt beam="1">  1        2 0.10581046E+00 0.19830869E+04</pdfrwt>
<pdfrwt beam="2">  1       -1 0.21992175E+00 0.19830869E+04</pdfrwt>
<totfact> 0.49024131E+00</totfact>
</mgrwt>
</event>
<event>
12    6  0.1705838E-008  0.2756688E+04  0.7818608E-02  0.8316842E-01
         -1   -1    0    0    0  501 -0.00000000000E+00  0.00000000000E+00  0.54682008861E+03  0.54682008861E+03  0.00000000000E+00 0.  1.
          2   -1    0    0  501    0  0.00000000000E+00 -0.00000000000E+00 -0.34743286831E+04  0.34743286831E+04  0.00000000000E+00 0. -1.
         24    2    1    2    0    0  0.41605476937E+03 -0.30394767631E+02  0.37983308786E+03  0.56936515599E+03  0.76668723744E+02 0.  0.
        254    2    1    2    0    0 -0.41605476937E+03  0.30394767631E+02 -0.33073416823E+04  0.34517836157E+04  0.89569844978E+03 0.  0.
         23    2    4    4    0    0 -0.48081388799E+03 -0.25419561084E+03 -0.28488173565E+04  0.29008530304E+04  0.58228600053E+02 0.  0.
         23    2    4    4    0    0  0.64759118618E+02  0.28459037847E+03 -0.45852432584E+03  0.55093058531E+03  0.89969580831E+02 0.  0.
          2    1    3    3  502    0  0.12987476297E+02 -0.31427393741E+01 -0.19689798484E+01  0.13506599609E+02  0.00000000000E+00 0. -1.
         -1    1    3    3    0  502  0.40306729307E+03 -0.27252028257E+02  0.38180206771E+03  0.55585855638E+03  0.00000000000E+00 0.  1.
         11    1    5    5    0    0 -0.25005468147E+03 -0.10963449550E+03 -0.13138417760E+04  0.13419117999E+04  0.00000000000E+00 0.  1.
        -11    1    5    5    0    0 -0.23075920652E+03 -0.14456111534E+03 -0.15349755805E+04  0.15589412305E+04  0.00000000000E+00 0. -1.
          1    1    6    6  503    0  0.41977951700E+02  0.26545316480E+03 -0.44089089666E+03  0.51634514996E+03  0.00000000000E+00 0. -1.
         -1    1    6    6    0  503  0.22781166918E+02  0.19137213673E+02 -0.17633429181E+02  0.34585435344E+02  0.00000000000E+00 0.  1.
<mgrwt>
<rscale>  0 0.27566884E+04</rscale>
<asrwt>0</asrwt>
<pdfrwt beam="1">  1        2 0.53451213E+00 0.27566884E+04</pdfrwt>
<pdfrwt beam="2">  1       -1 0.84126163E-01 0.27566884E+04</pdfrwt>
<totfact> 0.11773318E+00</totfact>
</mgrwt>
</event>
<event>
12    6  0.1705838E-008  0.3234052E+04  0.7818608E-02  0.8179882E-01
          2   -1    0    0  501    0  0.00000000000E+00  0.00000000000E+00  0.14469529578E+04  0.14469529578E+04  0.00000000000E+00 0. -1.
         -1   -1    0    0    0  501 -0.00000000000E+00 -0.00000000000E+00 -0.18070893214E+04  0.18070893214E+04  0.00000000000E+00 0.  1.
         24    2    1    2    0    0 -0.61658159961E+03 -0.13070069007E+04  0.20434258272E+03  0.14617683616E+04  0.81061362998E+02 0.  0.
        254    2    1    2    0    0  0.61658159961E+03  0.13070069007E+04 -0.56447894634E+03  0.17922739175E+04  0.89731232418E+03 0.  0.
         23    2    4    4    0    0  0.24006962216E+03  0.75201851208E+03 -0.74885417567E+03  0.10900495315E+04  0.65269738478E+02 0.  0.
         23    2    4    4    0    0  0.37651197745E+03  0.55498838859E+03  0.18437522933E+03  0.70222438598E+03  0.96703063259E+02 0.  0.
          2    1    3    3  502    0 -0.60794730313E+03 -0.13027077049E+04  0.20487031827E+03  0.14521085136E+04  0.00000000000E+00 0. -1.
         -3    1    3    3    0  502 -0.86342964854E+01 -0.42991957378E+01 -0.52773554553E+00  0.96598480627E+01  0.00000000000E+00 0.  1.
         11    1    5    5    0    0  0.22696140461E+03  0.68251052739E+03 -0.70299795989E+03  0.10057525694E+04  0.00000000000E+00 0.  1.
        -11    1    5    5    0    0  0.13108217545E+02  0.69507984687E+02 -0.45856215780E+02  0.84296962153E+02  0.00000000000E+00 0. -1.
          3    1    6    6  503    0  0.22954423988E+03  0.28258675810E+03  0.13753581012E+03  0.38918110563E+03  0.00000000000E+00 0. -1.
         -3    1    6    6    0  503  0.14696773757E+03  0.27240163049E+03  0.46839419208E+02  0.31304328035E+03  0.00000000000E+00 0.  1.
<mgrwt>
<rscale>  0 0.32340521E+04</rscale>
<asrwt>0</asrwt>
<pdfrwt beam="1">  1        2 0.22260815E+00 0.32340521E+04</pdfrwt>
<pdfrwt beam="2">  1       -1 0.27801374E+00 0.32340521E+04</pdfrwt>
<totfact> 0.59627989E-01</totfact>
</mgrwt>
</event>
<event>
11    6  0.1705838E-008  0.1694524E+04  0.7818608E-02  0.8764494E-01
          2   -1    0    0  501    0  0.00000000000E+00  0.00000000000E+00  0.13668094755E+04  0.13668094755E+04  0.00000000000E+00 0. -1.
         -1   -1    0    0    0  501 -0.00000000000E+00 -0.00000000000E+00 -0.52520343555E+03  0.52520343555E+03  0.00000000000E+00 0.  1.
         24    2    1    2    0    0  0.32637306203E+03 -0.42448811821E+03  0.60876751300E+03  0.81490571484E+03  0.82242939277E+02 0.  0.
        254    2    1    2    0    0 -0.32637306203E+03  0.42448811821E+03  0.23283852698E+03  0.10771071962E+04  0.90511689545E+03 0.  0.
         23    2    4    4    0    0  0.90738936932E+02 -0.17122582027E+03  0.26017585600E+03  0.33681841540E+03  0.90572251300E+02 0.  0.
          2    1    3    3  502    0  0.23694745228E+03 -0.29140522948E+03  0.36939294859E+03  0.52679431790E+03  0.00000000000E+00 0. -1.
         -1    1    3    3    0  502  0.89425609757E+02 -0.13308288873E+03  0.23937456442E+03  0.28811139694E+03  0.00000000000E+00 0.  1.
         11    1    4    4    0    0 -0.33370411529E+03  0.40282779963E+03 -0.63902127430E+02  0.52698401741E+03  0.00000000000E+00 0. -1.
        -11    1    4    4    0    0 -0.83407883679E+02  0.19288613886E+03  0.36564798405E+02  0.21330476344E+03  0.00000000000E+00 0.  1.
          1    1    5    5  503    0  0.10328656587E+02 -0.16725742146E+02  0.94193290152E+02  0.96222697462E+02  0.00000000000E+00 0. -1.
         -1    1    5    5    0  503  0.80410280345E+02 -0.15450007812E+03  0.16598256585E+03  0.24059571794E+03  0.00000000000E+00 0.  1.
<mgrwt>
<rscale>  0 0.16945242E+04</rscale>
<asrwt>0</asrwt>
<pdfrwt beam="1">  1        2 0.21027838E+00 0.16945242E+04</pdfrwt>
<pdfrwt beam="2">  1       -1 0.80800529E-01 0.16945242E+04</pdfrwt>
<totfact> 0.25054656E+01</totfact>
</mgrwt>
</event>
<event>
11    6  0.1705838E-008  0.1587234E+04  0.7818608E-02  0.8828429E-01
          2   -1    0    0  501    0  0.00000000000E+00  0.00000000000E+00  0.11106851484E+04  0.11106851484E+04  0.00000000000E+00 0. -1.
         -1   -1    0    0    0  501 -0.00000000000E+00 -0.00000000000E+00 -0.56706251211E+03  0.56706251211E+03  0.00000000000E+00 0.  1.
         24    2    1    2    0    0  0.46667753462E+03 -0.91712148504E+02  0.45372659190E+03  0.66200762613E+03  0.78658994072E+02 0.  0.
        254    2    1    2    0    0 -0.46667753462E+03  0.91712148504E+02  0.89896044425E+02  0.10157400344E+04  0.89299914850E+03 0.  0.
         23    2    4    4    0    0  0.65769235542E+02  0.19651887262E+03  0.28466387203E+03  0.36362413460E+03  0.90794997595E+02 0.  0.
          2    1    3    3  502    0  0.28312541603E+03 -0.71590443396E+02  0.22877582686E+03  0.37097651104E+03  0.00000000000E+00 0. -1.
         -1    1    3    3    0  502  0.18355211859E+03 -0.20121705107E+02  0.22495076504E+03  0.29103111509E+03  0.00000000000E+00 0.  1.
         11    1    4    4    0    0 -0.46822126979E+03 -0.60766400963E+02 -0.33867830746E+02  0.47336111261E+03  0.00000000000E+00 0. -1.
        -11    1    4    4    0    0 -0.64225500375E+02 -0.44040323152E+02 -0.16089999686E+03  0.17875478721E+03  0.00000000000E+00 0.  1.
          2    1    5    5  503    0 -0.21473423441E+02  0.62993882925E+02  0.76999942204E+02  0.10177587288E+03  0.00000000000E+00 0.  1.
         -2    1    5    5    0  503  0.87242658983E+02  0.13352498969E+03  0.20766392983E+03  0.26184826173E+03  0.00000000000E+00 0. -1.
<mgrwt>
<rscale>  0 0.15872340E+04</rscale>
<asrwt>0</asrwt>
<pdfrwt beam="1">  1        2 0.17087464E+00 0.15872340E+04</pdfrwt>
<pdfrwt beam="2">  1       -1 0.87240387E-01 0.15872340E+04</pdfrwt>
<totfact> 0.30393860E+01</totfact>
</mgrwt>
</event>
<event>
12    6  0.1705838E-008  0.1400921E+04  0.7818608E-02  0.8953152E-01
         -1   -1    0    0    0  501 -0.00000000000E+00  0.00000000000E+00  0.44426818512E+03  0.44426818512E+03  0.00000000000E+00 0.  1.
          2   -1    0    0  501    0  0.00000000000E+00 -0.00000000000E+00 -0.11043883439E+04  0.11043883439E+04  0.00000000000E+00 0. -1.
         24    2    1    2    0    0 -0.12158331491E+03 -0.26153417813E+03  0.13052597630E+03  0.32672051110E+03  0.80787580039E+02 0.  0.
        254    2    1    2    0    0  0.12158331491E+03  0.26153417813E+03 -0.79064613509E+03  0.12219360179E+04  0.88590275549E+03 0.  0.
         23    2    4    4    0    0  0.12147742104E+03 -0.71989437785E+02 -0.85270457913E+03  0.87105084315E+03  0.10809823826E+03 0.  0.
         23    2    4    4    0    0  0.10589387359E+00  0.33352361591E+03  0.62058444041E+02  0.35088517477E+03  0.89616638038E+02 0.  0.
          4    1    3    3  502    0 -0.18514724206E+02 -0.22009586812E+01  0.13097155647E-01  0.18645090589E+02  0.00000000000E+00 0. -1.
         -3    1    3    3    0  502 -0.10306859070E+03 -0.25933321945E+03  0.13051287915E+03  0.30807542051E+03  0.00000000000E+00 0.  1.
         11    1    5    5    0    0  0.15691338328E+02 -0.58739569520E+02 -0.18101212598E+03  0.19095011097E+03  0.00000000000E+00 0. -1.
        -11    1    5    5    0    0  0.10578608271E+03 -0.13249868265E+02 -0.67169245315E+03  0.68010073219E+03  0.00000000000E+00 0.  1.
          4    1    6    6  503    0 -0.36167280312E+02  0.67205030830E+02  0.19371244813E+02  0.78739021201E+02  0.00000000000E+00 0. -1.
         -4    1    6    6    0  503  0.36273174186E+02  0.26631858508E+03  0.42687199229E+02  0.27214615357E+03  0.00000000000E+00 0.  1.
<mgrwt>
<rscale>  0 0.14009206E+04</rscale>
<asrwt>0</asrwt>
<pdfrwt beam="1">  1        2 0.16990590E+00 0.14009206E+04</pdfrwt>
<pdfrwt beam="2">  1       -1 0.68348952E-01 0.14009206E+04</pdfrwt>
<totfact> 0.52077380E+01</totfact>
</mgrwt>
</event>
<event>
12    6  0.1705838E-008  0.2084987E+04  0.7818608E-02  0.8567886E-01
         -1   -1    0    0    0  501 -0.00000000000E+00  0.00000000000E+00  0.16497928297E+04  0.16497928297E+04  0.00000000000E+00 0.  1.
          2   -1    0    0  501    0  0.00000000000E+00 -0.00000000000E+00 -0.65874501340E+03  0.65874501340E+03  0.00000000000E+00 0. -1.
         24    2    1    2    0    0  0.96035074249E+02  0.31738470004E+03  0.12585353370E+04  0.13039751455E+04  0.80524545418E+02 0.  0.
        254    2    1    2    0    0 -0.96035074249E+02 -0.31738470004E+03 -0.26748752067E+03  0.10045626976E+04  0.90974768828E+03 0.  0.
         23    2    4    4    0    0  0.13164621719E+03 -0.11807855858E+03 -0.54564102193E+03  0.58369814733E+03  0.10819486999E+03 0.  0.
         23    2    4    4    0    0 -0.22768129144E+03 -0.19930614146E+03  0.27815350125E+03  0.42086455024E+03  0.90531159800E+02 0.  0.
          2    1    3    3  502    0  0.67293624792E+02  0.13599459588E+03  0.69106241973E+03  0.70752401373E+03  0.00000000000E+00 0. -1.
         -1    1    3    3    0  502  0.28741449457E+02  0.18139010415E+03  0.56747291723E+03  0.59645113177E+03  0.00000000000E+00 0.  1.
         11    1    5    5    0    0  0.11505795152E+03 -0.36436105099E+02 -0.27009473327E+03  0.29583286988E+03  0.00000000000E+00 0.  1.
        -11    1    5    5    0    0  0.16588265672E+02 -0.81642453481E+02 -0.27554628866E+03  0.28786527745E+03  0.00000000000E+00 0. -1.
          2    1    6    6  503    0 -0.17851989707E+03 -0.16706630807E+03  0.26511285921E+03  0.36064571682E+03  0.00000000000E+00 0. -1.
         -2    1    6    6    0  503 -0.49161394375E+02 -0.32239833389E+02  0.13040642041E+02  0.60218833422E+02  0.00000000000E+00 0.  1.
<mgrwt>
<rscale>  0 0.20849871E+04</rscale>
<asrwt>0</asrwt>
<pdfrwt beam="1">  1        2 0.10134539E+00 0.20849871E+04</pdfrwt>
<pdfrwt beam="2">  1       -1 0.25381428E+00 0.20849871E+04</pdfrwt>
<totfact> 0.30665182E+00</totfact>
</mgrwt>
</event>
<event>
11    6  0.1705838E-008  0.1384044E+04  0.7818608E-02  0.8965450E-01
          2   -1    0    0  501    0  0.00000000000E+00  0.00000000000E+00  0.11039656191E+04  0.11039656191E+04  0.00000000000E+00 0. -1.
         -1   -1    0    0    0  501 -0.00000000000E+00 -0.00000000000E+00 -0.43379495072E+03  0.43379495072E+03  0.00000000000E+00 0.  1.
         24    2    1    2    0    0 -0.10523331041E+03 -0.10491736484E+03 -0.20571560728E+03  0.26609888801E+03  0.80050009712E+02 0.  0.
        254    2    1    2    0    0  0.10523331041E+03  0.10491736484E+03  0.87588627566E+03  0.12716616818E+04  0.90987084908E+03 0.  0.
         23    2    4    4    0    0 -0.11771601264E+02 -0.14978902791E+03  0.86028126132E+03  0.87870359279E+03  0.97266807890E+02 0.  0.
          2    1    3    3  502    0 -0.90770756866E+02 -0.52218035769E+02 -0.89808834235E+02  0.13795535607E+03  0.00000000000E+00 0. -1.
         -1    1    3    3    0  502 -0.14462553545E+02 -0.52699329074E+02 -0.11590677305E+03  0.12814353194E+03  0.00000000000E+00 0.  1.
         11    1    4    4    0    0 -0.30649883598E+02  0.99400215135E+02  0.11643207825E+03  0.15612894344E+03  0.00000000000E+00 0.  1.
        -11    1    4    4    0    0  0.14765479527E+03  0.15530617762E+03 -0.10082706392E+03  0.23682914557E+03  0.00000000000E+00 0. -1.
          4    1    5    5  503    0 -0.18172251476E+02 -0.22085539628E+02  0.39914959289E+03  0.40017296171E+03  0.00000000000E+00 0. -1.
         -4    1    5    5    0  503  0.64006502122E+01 -0.12770348828E+03  0.46113166844E+03  0.47853063108E+03  0.00000000000E+00 0.  1.
<mgrwt>
<rscale>  0 0.13840444E+04</rscale>
<asrwt>0</asrwt>
<pdfrwt beam="1">  1        2 0.16984086E+00 0.13840444E+04</pdfrwt>
<pdfrwt beam="2">  1       -1 0.66737685E-01 0.13840444E+04</pdfrwt>
<totfact> 0.54770887E+01</totfact>
</mgrwt>
</event>
<event>
12    6  0.1705838E-008  0.1653331E+04  0.7818608E-02  0.8788438E-01
         -1   -1    0    0    0  501 -0.00000000000E+00  0.00000000000E+00  0.52300598284E+03  0.52300598284E+03  0.00000000000E+00 0.  1.
          2   -1    0    0  501    0  0.00000000000E+00 -0.00000000000E+00 -0.13066318074E+04  0.13066318074E+04  0.00000000000E+00 0. -1.
         24    2    1    2    0    0 -0.39953522438E+03 -0.55737959949E+02 -0.54101692201E+03  0.67958271955E+03  0.79989043681E+02 0.  0.
        254    2    1    2    0    0  0.39953522438E+03  0.55737959949E+02 -0.24260890251E+03  0.11500550707E+04  0.10493009436E+04 0.  0.
         23    2    4    4    0    0 -0.30733683952E+03 -0.16415230380E+03  0.25724394795E+02  0.35721101601E+03  0.74404661819E+02 0.  0.
         23    2    4    4    0    0  0.70687206390E+03  0.21989026375E+03 -0.26833329731E+03  0.79284405465E+03  0.92623397321E+02 0.  0.
          4    1    3    3  502    0 -0.19647624692E+03  0.11818747145E+02 -0.24379812428E+03  0.31333707695E+03  0.00000000000E+00 0. -1.
         -3    1    3    3    0  502 -0.20305897746E+03 -0.67556707094E+02 -0.29721879773E+03  0.36624564261E+03  0.00000000000E+00 0.  1.
         11    1    5    5    0    0 -0.18527347788E+03 -0.86514441562E+02 -0.20104129862E+02  0.20546334525E+03  0.00000000000E+00 0. -1.
        -11    1    5    5    0    0 -0.12206336164E+03 -0.77637862234E+02  0.45828524657E+02  0.15174767076E+03  0.00000000000E+00 0.  1.
          3    1    6    6  503    0  0.87900849892E+02  0.33444963210E+02 -0.30837067574E+01  0.94099066006E+02  0.00000000000E+00 0. -1.
         -3    1    6    6    0  503  0.61897121401E+03  0.18644530054E+03 -0.26524959055E+03  0.69874498864E+03  0.00000000000E+00 0.  1.
<mgrwt>
<rscale>  0 0.16533315E+04</rscale>
<asrwt>0</asrwt>
<pdfrwt beam="1">  1        2 0.20102028E+00 0.16533315E+04</pdfrwt>
<pdfrwt beam="2">  1       -1 0.80462460E-01 0.16533315E+04</pdfrwt>
<totfact> 0.27486716E+01</totfact>
</mgrwt>
</event>
<event>
12    6  0.1705838E-008  0.1371765E+04  0.7818608E-02  0.8974514E-01
          2   -1    0    0  501    0  0.00000000000E+00  0.00000000000E+00  0.88382237145E+03  0.88382237145E+03  0.00000000000E+00 0. -1.
         -1   -1    0    0    0  501 -0.00000000000E+00 -0.00000000000E+00 -0.53227274535E+03  0.53227274535E+03  0.00000000000E+00 0.  1.
         24    2    1    2    0    0 -0.25809776158E+03 -0.16262484953E+03 -0.14068057136E+03  0.34553786273E+03  0.80895582136E+02 0.  0.
        254    2    1    2    0    0  0.25809776158E+03  0.16262484953E+03  0.49223019746E+03  0.10705572541E+04  0.90041155629E+03 0.  0.
         23    2    4    4    0    0  0.45980871045E+02 -0.34233715395E+03  0.64561165952E+02  0.36986949664E+03  0.11543973719E+03 0.  0.
         23    2    4    4    0    0  0.21211689053E+03  0.50496200348E+03  0.42766903151E+03  0.70068775741E+03  0.89901794594E+02 0.  0.
          2    1    3    3  502    0 -0.22117245472E+03 -0.16837491296E+03 -0.12848146037E+03  0.30622679781E+03  0.00000000000E+00 0. -1.
         -1    1    3    3    0  502 -0.36925306859E+02  0.57500634340E+01 -0.12199110994E+02  0.39311064920E+02  0.00000000000E+00 0.  1.
         11    1    5    5    0    0 -0.36474909268E+02 -0.11759949246E+03  0.38829849090E+02  0.12910389929E+03  0.00000000000E+00 0. -1.
        -11    1    5    5    0    0  0.82455780313E+02 -0.22473766149E+03  0.25731316862E+02  0.24076559735E+03  0.00000000000E+00 0.  1.
          4    1    6    6  503    0  0.65763748496E+02  0.24627755054E+03  0.23335485020E+03  0.34558933524E+03  0.00000000000E+00 0. -1.
         -4    1    6    6    0  503  0.14635314204E+03  0.25868445294E+03  0.19431418131E+03  0.35509842218E+03  0.00000000000E+00 0.  1.
<mgrwt>
<rscale>  0 0.13717646E+04</rscale>
<asrwt>0</asrwt>
<pdfrwt beam="1">  1        2 0.13597267E+00 0.13717646E+04</pdfrwt>
<pdfrwt beam="2">  1       -1 0.81888115E-01 0.13717646E+04</pdfrwt>
<totfact> 0.49694589E+01</totfact>
</mgrwt>
</event>
<event>
11    6  0.1705838E-008  0.1739747E+04  0.7818608E-02  0.8739014E-01
          2   -1    0    0  501    0  0.00000000000E+00  0.00000000000E+00  0.73810499464E+03  0.73810499464E+03  0.00000000000E+00 0. -1.
         -1   -1    0    0    0  501 -0.00000000000E+00 -0.00000000000E+00 -0.10251653319E+04  0.10251653319E+04  0.00000000000E+00 0.  1.
         24    2    1    2    0    0 -0.11558161870E+03 -0.59716689825E+03  0.16494125932E+02  0.61364626906E+03  0.79512718454E+02 0.  0.
        254    2    1    2    0    0  0.11558161870E+03  0.59716689825E+03 -0.30355446315E+03  0.11496240574E+04  0.92710449593E+03 0.  0.
         23    2    4    4    0    0 -0.67849517099E+02  0.79203090422E+03 -0.28962219064E+03  0.85120180625E+03  0.93525351805E+02 0.  0.
          2    1    3    3  502    0 -0.88562251885E+02 -0.55364902815E+03  0.27076849569E+02  0.56134096110E+03  0.00000000000E+00 0. -1.
         -3    1    3    3    0  502 -0.27019366811E+02 -0.43517870103E+02 -0.10582723637E+02  0.52305307960E+02  0.00000000000E+00 0.  1.
         11    1    4    4    0    0  0.26447318234E+02 -0.10571957394E+03  0.29180989116E+02  0.11281675001E+03  0.00000000000E+00 0.  1.
        -11    1    4    4    0    0  0.15698381756E+03 -0.89144432030E+02 -0.43113261623E+02  0.18560550117E+03  0.00000000000E+00 0. -1.
          1    1    5    5  503    0 -0.48338943515E+02  0.16986460780E+03 -0.43883872273E+02  0.18197920950E+03  0.00000000000E+00 0. -1.
         -1    1    5    5    0  503 -0.19510573583E+02  0.62216629642E+03 -0.24573831837E+03  0.66922259675E+03  0.00000000000E+00 0.  1.
<mgrwt>
<rscale>  0 0.17397467E+04</rscale>
<asrwt>0</asrwt>
<pdfrwt beam="1">  1        2 0.11355462E+00 0.17397467E+04</pdfrwt>
<pdfrwt beam="2">  1       -1 0.15771774E+00 0.17397467E+04</pdfrwt>
<totfact> 0.12612723E+01</totfact>
</mgrwt>
</event>
<event>
11    6  0.1705838E-008  0.1431951E+04  0.7818608E-02  0.8931010E-01
          2   -1    0    0  501    0  0.00000000000E+00  0.00000000000E+00  0.75160067940E+03  0.75160067940E+03  0.00000000000E+00 0. -1.
         -1   -1    0    0    0  501 -0.00000000000E+00 -0.00000000000E+00 -0.68203917176E+03  0.68203917176E+03  0.00000000000E+00 0.  1.
         24    2    1    2    0    0  0.17495178010E+03  0.29948990673E+03  0.26923524407E+03  0.44647679665E+03  0.80941853822E+02 0.  0.
        254    2    1    2    0    0 -0.17495178010E+03 -0.29948990673E+03 -0.19967373643E+03  0.98716305451E+03  0.90239623535E+03 0.  0.
         23    2    4    4    0    0 -0.47482826166E+03 -0.70971577781E+02 -0.23075723525E+03  0.54036782527E+03  0.90827540134E+02 0.  0.
          4    1    3    3  502    0  0.74237324019E+02  0.18970196705E+03  0.12438754180E+03  0.23868447192E+03  0.00000000000E+00 0. -1.
         -3    1    3    3    0  502  0.10071445608E+03  0.10978793968E+03  0.14484770226E+03  0.20779232473E+03  0.00000000000E+00 0.  1.
         11    1    4    4    0    0  0.28116452158E+03 -0.77865255379E+02 -0.43277099338E+00  0.29174761949E+03  0.00000000000E+00 0.  1.
        -11    1    4    4    0    0  0.18711959977E+02 -0.15065307357E+03  0.31516269813E+02  0.15504760974E+03  0.00000000000E+00 0. -1.
          3    1    5    5  503    0 -0.22965249333E+02  0.15140787568E+02 -0.49923798307E+01  0.27956573135E+02  0.00000000000E+00 0. -1.
         -3    1    5    5    0  503 -0.45186301233E+03 -0.86112365349E+02 -0.22576485542E+03  0.51241125214E+03  0.00000000000E+00 0.  1.
<mgrwt>
<rscale>  0 0.14319513E+04</rscale>
<asrwt>0</asrwt>
<pdfrwt beam="1">  1        2 0.11563087E+00 0.14319513E+04</pdfrwt>
<pdfrwt beam="2">  1       -1 0.10492910E+00 0.14319513E+04</pdfrwt>
<totfact> 0.35374650E+01</totfact>
</mgrwt>
</event>
<event>
11    6  0.1705838E-008  0.1040454E+04  0.7818608E-02  0.9265255E-01
         -1   -1    0    0    0  501 -0.00000000000E+00  0.00000000000E+00  0.19897006331E+03  0.19897006331E+03  0.00000000000E+00 0.  1.
          2   -1    0    0  501    0  0.00000000000E+00 -0.00000000000E+00 -0.13601853222E+04  0.13601853222E+04  0.00000000000E+00 0. -1.
         24    2    1    2    0    0 -0.13305596736E+03  0.16022019040E+02 -0.20555498271E+03  0.25881249537E+03  0.82282812901E+02 0.  0.
        254    2    1    2    0    0  0.13305596736E+03 -0.16022019040E+02 -0.95566027617E+03  0.13003428901E+04  0.87157585610E+03 0.  0.
         23    2    4    4    0    0 -0.33075815698E+03 -0.14288772114E+03 -0.46354250146E+03  0.59317948077E+03  0.84689943242E+02 0.  0.
          2    1    3    3  502    0 -0.44000569013E+02 -0.28928834868E+02 -0.10335767992E+03  0.11599886879E+03  0.00000000000E+00 0. -1.
         -1    1    3    3    0  502 -0.89055398348E+02  0.44950853907E+02 -0.10219730279E+03  0.14281362659E+03  0.00000000000E+00 0.  1.
         11    1    4    4    0    0  0.52900899705E+02  0.63444220799E+02 -0.13888628925E+03  0.16159540737E+03  0.00000000000E+00 0. -1.
        -11    1    4    4    0    0  0.41091322464E+03  0.63421481302E+02 -0.35323148546E+03  0.54556800199E+03  0.00000000000E+00 0.  1.
          4    1    5    5  503    0 -0.54836877366E+02  0.66043203439E+01 -0.86461006263E+02  0.10259729904E+03  0.00000000000E+00 0. -1.
         -4    1    5    5    0  503 -0.27592127962E+03 -0.14949204148E+03 -0.37708149519E+03  0.49058218173E+03  0.00000000000E+00 0.  1.
<mgrwt>
<rscale>  0 0.10404541E+04</rscale>
<asrwt>0</asrwt>
<pdfrwt beam="1">  1        2 0.20925928E+00 0.10404541E+04</pdfrwt>
<pdfrwt beam="2">  1       -1 0.30610778E-01 0.10404541E+04</pdfrwt>
<totfact> 0.17034255E+02</totfact>
</mgrwt>
</event>
<event>
11    6  0.1705838E-008  0.1899156E+04  0.7818608E-02  0.8655277E-01
         -1   -1    0    0    0  501 -0.00000000000E+00  0.00000000000E+00  0.78917525851E+03  0.78917525851E+03  0.00000000000E+00 0.  1.
          2   -1    0    0  501    0  0.00000000000E+00 -0.00000000000E+00 -0.11425830223E+04  0.11425830223E+04  0.00000000000E+00 0. -1.
         24    2    1    2    0    0 -0.28047395397E+03  0.40913362709E+03 -0.69278166809E+03  0.85575201547E+03  0.79429897778E+02 0.  0.
        254    2    1    2    0    0  0.28047395397E+03 -0.40913362709E+03  0.33937390431E+03  0.10760062653E+04  0.89250146917E+03 0.  0.
         23    2    4    4    0    0 -0.15732222747E+03  0.18526328649E+03  0.10417500626E+03  0.27987905242E+03  0.91690149279E+02 0.  0.
          2    1    3    3  502    0 -0.26428744021E+03  0.40324803082E+03 -0.64736494385E+03  0.80717915976E+03  0.00000000000E+00 0. -1.
         -1    1    3    3    0  502 -0.16186513761E+02  0.58855962611E+01 -0.45416724239E+02  0.48572855709E+02  0.00000000000E+00 0.  1.
         11    1    4    4    0    0  0.32667974923E+03 -0.48424798395E+03  0.10700490844E+03  0.59385673268E+03  0.00000000000E+00 0. -1.
        -11    1    4    4    0    0  0.11111643221E+03 -0.11014892963E+03  0.12819398962E+03  0.20227048025E+03  0.00000000000E+00 0.  1.
          1    1    5    5  503    0 -0.78989068797E+02  0.86190210794E+02  0.11931544692E+01  0.11691641905E+03  0.00000000000E+00 0.  1.
         -1    1    5    5    0  503 -0.78333158678E+02  0.99073075697E+02  0.10298185179E+03  0.16296263337E+03  0.00000000000E+00 0. -1.
<mgrwt>
<rscale>  0 0.18991559E+04</rscale>
<asrwt>0</asrwt>
<pdfrwt beam="1">  1        2 0.17578200E+00 0.18991559E+04</pdfrwt>
<pdfrwt beam="2">  1       -1 0.12141158E+00 0.18991559E+04</pdfrwt>
<totfact> 0.13181872E+01</totfact>
</mgrwt>
</event>
<event>
11    6  0.1705838E-008  0.2923481E+04  0.7818608E-02  0.8265925E-01
         -1   -1    0    0    0  501 -0.00000000000E+00  0.00000000000E+00  0.10861986202E+04  0.10861986202E+04  0.00000000000E+00 0.  1.
          2   -1    0    0  501    0  0.00000000000E+00 -0.00000000000E+00 -0.19671225808E+04  0.19671225808E+04  0.00000000000E+00 0. -1.
         24    2    1    2    0    0  0.34842660110E+03  0.29582467459E+03  0.89629079747E+03  0.10092107399E+04  0.79093548257E+02 0.  0.
        254    2    1    2    0    0 -0.34842660110E+03 -0.29582467459E+03 -0.17772147581E+04  0.20441104612E+04  0.90054536070E+03 0.  0.
         23    2    4    4    0    0 -0.14859110722E+03  0.28929935575E+03 -0.86485357109E+03  0.92870739696E+03  0.93553703081E+02 0.  0.
          4    1    3    3  502    0  0.12602989617E+03  0.10240184547E+03  0.24002329710E+03  0.28979450621E+03  0.00000000000E+00 0. -1.
         -3    1    3    3    0  502  0.22239670493E+03  0.19342282913E+03  0.65626750037E+03  0.71941623365E+03  0.00000000000E+00 0.  1.
         11    1    4    4    0    0 -0.20176269977E+03 -0.59259042744E+03 -0.86690182105E+03  0.10692943323E+04  0.00000000000E+00 0. -1.
        -11    1    4    4    0    0  0.19272058979E+01  0.74663970906E+01 -0.45459365932E+02  0.46108731918E+02  0.00000000000E+00 0.  1.
          3    1    5    5  503    0 -0.85647385784E+02  0.16346907554E+03 -0.61349855348E+03  0.64065442203E+03  0.00000000000E+00 0. -1.
         -3    1    5    5    0  503 -0.62943721439E+02  0.12583028022E+03 -0.25135501761E+03  0.28805297493E+03  0.00000000000E+00 0.  1.
<mgrwt>
<rscale>  0 0.29234814E+04</rscale>
<asrwt>0</asrwt>
<pdfrwt beam="1">  1        2 0.30263424E+00 0.29234814E+04</pdfrwt>
<pdfrwt beam="2">  1       -1 0.16710748E+00 0.29234814E+04</pdfrwt>
<totfact> 0.17651523E+00</totfact>
</mgrwt>
</event>
<event>
11    6  0.1705838E-008  0.2234581E+04  0.7818608E-02  0.8504171E-01
         -1   -1    0    0    0  501 -0.00000000000E+00  0.00000000000E+00  0.64988873316E+03  0.64988873316E+03  0.00000000000E+00 0.  1.
          2   -1    0    0  501    0  0.00000000000E+00 -0.00000000000E+00 -0.19208492897E+04  0.19208492897E+04  0.00000000000E+00 0. -1.
         24    2    1    2    0    0 -0.83852447514E+03  0.24894761551E+03 -0.15822260377E+03  0.89250637280E+03  0.80218591710E+02 0.  0.
        254    2    1    2    0    0  0.83852447514E+03 -0.24894761551E+03 -0.11127379528E+04  0.16782316501E+04  0.90176355496E+03 0.  0.
         23    2    4    4    0    0  0.26253366068E+03 -0.45026094684E+03 -0.66241632704E+03  0.84714260284E+03  0.84831338361E+02 0.  0.
          4    1    3    3  502    0 -0.19675203032E+03  0.63138966242E+02 -0.72085529376E+02  0.21884746752E+03  0.00000000000E+00 0. -1.
         -3    1    3    3    0  502 -0.64177244482E+03  0.18580864927E+03 -0.86137074391E+02  0.67365890528E+03  0.00000000000E+00 0.  1.
         11    1    4    4    0    0 -0.26977160916E+01 -0.43084019948E+02 -0.10662436621E+03  0.11503158660E+03  0.00000000000E+00 0.  1.
        -11    1    4    4    0    0  0.57868853056E+03  0.24439735128E+03 -0.34369725952E+03  0.71605746062E+03  0.00000000000E+00 0. -1.
          3    1    5    5  503    0  0.20227329877E+03 -0.38654001028E+03 -0.50856118769E+03  0.67004637792E+03  0.00000000000E+00 0. -1.
         -3    1    5    5    0  503  0.60260361901E+02 -0.63720936562E+02 -0.15385513935E+03  0.17709622491E+03  0.00000000000E+00 0.  1.
<mgrwt>
<rscale>  0 0.22345812E+04</rscale>
<asrwt>0</asrwt>
<pdfrwt beam="1">  1        2 0.29551528E+00 0.22345812E+04</pdfrwt>
<pdfrwt beam="2">  1       -1 0.99982882E-01 0.22345812E+04</pdfrwt>
<totfact> 0.73139937E+00</totfact>
</mgrwt>
</event>
<event>
11    6  0.1705838E-008  0.1503999E+04  0.7818608E-02  0.8881798E-01
          2   -1    0    0  501    0  0.00000000000E+00  0.00000000000E+00  0.78140757981E+03  0.78140757981E+03  0.00000000000E+00 0. -1.
         -1   -1    0    0    0  501 -0.00000000000E+00 -0.00000000000E+00 -0.72369804507E+03  0.72369804507E+03  0.00000000000E+00 0.  1.
         24    2    1    2    0    0  0.23837060384E+03 -0.20764467140E+03 -0.32492223395E+03  0.46059874974E+03  0.81485555821E+02 0.  0.
        254    2    1    2    0    0 -0.23837060384E+03  0.20764467140E+03  0.38263176869E+03  0.10445068751E+04  0.91904879493E+03 0.  0.
         23    2    4    4    0    0  0.13136765481E+03 -0.21328064437E+03  0.37726982972E+03  0.46200453681E+03  0.91485373819E+02 0.  0.
          2    1    3    3  502    0  0.36248686962E+02 -0.29476702884E+00 -0.27508166606E+02  0.45505531797E+02  0.00000000000E+00 0. -1.
         -1    1    3    3    0  502  0.20212191688E+03 -0.20734990437E+03 -0.29741406734E+03  0.41509321794E+03  0.00000000000E+00 0.  1.
         11    1    4    4    0    0 -0.12945958143E+03  0.72479288362E+02 -0.47891987703E+02  0.15590597471E+03  0.00000000000E+00 0. -1.
        -11    1    4    4    0    0 -0.24027867722E+03  0.34844602741E+03  0.53253926671E+02  0.42659636361E+03  0.00000000000E+00 0.  1.
          2    1    5    5  503    0  0.95215722327E+02 -0.71908640239E+02  0.19373580936E+03  0.22753120697E+03  0.00000000000E+00 0. -1.
         -2    1    5    5    0  503  0.36151932483E+02 -0.14137200413E+03  0.18353402037E+03  0.23447332984E+03  0.00000000000E+00 0.  1.
<mgrwt>
<rscale>  0 0.15039989E+04</rscale>
<asrwt>0</asrwt>
<pdfrwt beam="1">  1        2 0.12021655E+00 0.15039989E+04</pdfrwt>
<pdfrwt beam="2">  1       -1 0.11133816E+00 0.15039989E+04</pdfrwt>
<totfact> 0.29075336E+01</totfact>
</mgrwt>
</event>
<event>
12    6  0.1705838E-008  0.1675924E+04  0.7818608E-02  0.8775216E-01
          2   -1    0    0  501    0  0.00000000000E+00  0.00000000000E+00  0.15160347375E+04  0.15160347375E+04  0.00000000000E+00 0. -1.
         -1   -1    0    0    0  501 -0.00000000000E+00 -0.00000000000E+00 -0.46316875952E+03  0.46316875952E+03  0.00000000000E+00 0.  1.
         24    2    1    2    0    0  0.46643723175E+03  0.26043410670E+03  0.75131417684E+02  0.54605195562E+03  0.84489012391E+02 0.  0.
        254    2    1    2    0    0 -0.46643723175E+03 -0.26043410670E+03  0.97773456029E+03  0.14331515414E+04  0.90142601201E+03 0.  0.
         23    2    4    4    0    0  0.12598483118E+02  0.29188410240E+03  0.28990187284E+03  0.42508631909E+03  0.10630254837E+03 0.  0.
         23    2    4    4    0    0 -0.47903571487E+03 -0.55231820909E+03  0.68783268745E+03  0.10080652223E+04  0.92471975734E+02 0.  0.
          2    1    3    3  502    0  0.35651914247E+03  0.20489150233E+03  0.21604647631E+02  0.41176836629E+03  0.00000000000E+00 0. -1.
         -1    1    3    3    0  502  0.10991808928E+03  0.55542604361E+02  0.53526770053E+02  0.13428358933E+03  0.00000000000E+00 0.  1.
         11    1    5    5    0    0  0.16764991129E+02  0.29591533103E+03  0.29439590533E+03  0.41775099897E+03  0.00000000000E+00 0. -1.
        -11    1    5    5    0    0 -0.41665080112E+01 -0.40312286325E+01 -0.44940324852E+01  0.73353201207E+01  0.00000000000E+00 0.  1.
          4    1    6    6  503    0 -0.14896458473E+03 -0.23252149393E+03  0.23047322681E+03  0.35968680948E+03  0.00000000000E+00 0. -1.
         -4    1    6    6    0  503 -0.33007113014E+03 -0.31979671516E+03  0.45735946064E+03  0.64837841283E+03  0.00000000000E+00 0.  1.
<mgrwt>
<rscale>  0 0.16759235E+04</rscale>
<asrwt>0</asrwt>
<pdfrwt beam="1">  1        2 0.23323611E+00 0.16759235E+04</pdfrwt>
<pdfrwt beam="2">  1       -1 0.71256733E-01 0.16759235E+04</pdfrwt>
<totfact> 0.26859162E+01</totfact>
</mgrwt>
</event>
<event>
12    6  0.1705838E-008  0.2743061E+04  0.7818608E-02  0.8321167E-01
          2   -1    0    0  501    0  0.00000000000E+00  0.00000000000E+00  0.78444487951E+03  0.78444487951E+03  0.00000000000E+00 0. -1.
         -1   -1    0    0    0  501 -0.00000000000E+00 -0.00000000000E+00 -0.23979959427E+04  0.23979959427E+04  0.00000000000E+00 0.  1.
         24    2    1    2    0    0 -0.26661707661E+03  0.11118774790E+04 -0.12203255385E+04  0.16742281403E+04  0.80555893732E+02 0.  0.
        254    2    1    2    0    0  0.26661707661E+03 -0.11118774790E+04 -0.39322552472E+03  0.15082126819E+04  0.90151150124E+03 0.  0.
         23    2    4    4    0    0  0.16096228503E+03 -0.10613551168E+04  0.10456287745E+02  0.10786054288E+04  0.10438771951E+03 0.  0.
         23    2    4    4    0    0  0.10565479158E+03 -0.50522362227E+02 -0.40368181247E+03  0.42960725316E+03  0.88814087726E+02 0.  0.
          2    1    3    3  502    0 -0.18390946031E+03  0.81991698273E+03 -0.84656691806E+03  0.11927959150E+04  0.00000000000E+00 0. -1.
         -1    1    3    3    0  502 -0.82707616306E+02  0.29196049626E+03 -0.37375862042E+03  0.48143222525E+03  0.00000000000E+00 0.  1.
         11    1    5    5    0    0  0.47062436516E+02 -0.12144509705E+03 -0.17445343503E+02  0.13140823619E+03  0.00000000000E+00 0.  1.
        -11    1    5    5    0    0  0.11389984851E+03 -0.93991001970E+03  0.27901631248E+02  0.94719719259E+03  0.00000000000E+00 0. -1.
          3    1    6    6  503    0  0.72400183815E+02 -0.69233287549E+02 -0.21617743582E+03  0.23825977100E+03  0.00000000000E+00 0. -1.
         -3    1    6    6    0  503  0.33254607768E+02  0.18710925322E+02 -0.18750437665E+03  0.19134748215E+03  0.00000000000E+00 0.  1.
<mgrwt>
<rscale>  0 0.27430608E+04</rscale>
<asrwt>0</asrwt>
<pdfrwt beam="1">  1        2 0.12068383E+00 0.27430608E+04</pdfrwt>
<pdfrwt beam="2">  1       -1 0.36892245E+00 0.27430608E+04</pdfrwt>
<totfact> 0.40941487E-01</totfact>
</mgrwt>
</event>
<event>
11    6  0.1705838E-008  0.2070320E+04  0.7818608E-02  0.8574431E-01
          2   -1    0    0  501    0  0.00000000000E+00  0.00000000000E+00  0.11708177637E+04  0.11708177637E+04  0.00000000000E+00 0. -1.
         -1   -1    0    0    0  501 -0.00000000000E+00 -0.00000000000E+00 -0.91522064608E+03  0.91522064608E+03  0.00000000000E+00 0.  1.
         24    2    1    2    0    0  0.53512114299E+03 -0.47142076360E+03  0.54557830396E+03  0.90176793656E+03  0.83291966190E+02 0.  0.
        254    2    1    2    0    0 -0.53512114299E+03  0.47142076360E+03 -0.28998118630E+03  0.11842704733E+04  0.89989737827E+03 0.  0.
         23    2    4    4    0    0 -0.40761185751E+03  0.69050500133E+03 -0.13093782651E+03  0.81743122897E+03  0.90025087858E+02 0.  0.
          4    1    3    3  502    0  0.27375664169E+03 -0.22454103179E+03  0.32062634785E+03  0.47766371933E+03  0.00000000000E+00 0. -1.
         -3    1    3    3    0  502  0.26136450130E+03 -0.24687973181E+03  0.22495195611E+03  0.42410421723E+03  0.00000000000E+00 0.  1.
         11    1    4    4    0    0 -0.15142075244E+02 -0.18245491853E+03 -0.16777627176E+03  0.24833033867E+03  0.00000000000E+00 0.  1.
        -11    1    4    4    0    0 -0.11236721023E+03 -0.36629319197E+02  0.87329119686E+01  0.11850890562E+03  0.00000000000E+00 0. -1.
          2    1    5    5  503    0 -0.86079168523E+01  0.45896432263E+02  0.59228833652E+01  0.47070790033E+02  0.00000000000E+00 0. -1.
         -2    1    5    5    0  503 -0.39900394066E+03  0.64460856907E+03 -0.13686070987E+03  0.77036043894E+03  0.00000000000E+00 0.  1.
<mgrwt>
<rscale>  0 0.20703204E+04</rscale>
<asrwt>0</asrwt>
<pdfrwt beam="1">  1        2 0.18012581E+00 0.20703204E+04</pdfrwt>
<pdfrwt beam="2">  1       -1 0.14080318E+00 0.20703204E+04</pdfrwt>
<totfact> 0.85778619E+00</totfact>
</mgrwt>
</event>
<event>
12    6  0.1705838E-008  0.1248257E+04  0.7818608E-02  0.9071636E-01
          2   -1    0    0  501    0  0.00000000000E+00  0.00000000000E+00  0.95560546850E+03  0.95560546850E+03  0.00000000000E+00 0. -1.
         -1   -1    0    0    0  501 -0.00000000000E+00 -0.00000000000E+00 -0.40763279584E+03  0.40763279584E+03  0.00000000000E+00 0.  1.
         24    2    1    2    0    0 -0.28514150401E+03  0.17703028788E+03  0.19882835719E+03  0.39589612648E+03  0.67495386545E+02 0.  0.
        254    2    1    2    0    0  0.28514150401E+03 -0.17703028788E+03  0.34914431548E+03  0.96734213786E+03  0.83737904112E+03 0.  0.
         23    2    4    4    0    0 -0.11705641075E+03 -0.39575404374E+03  0.12423480456E+03  0.44918593819E+03  0.12653163228E+03 0.  0.
         23    2    4    4    0    0  0.40219791476E+03  0.21872375587E+03  0.22490951092E+03  0.51815619967E+03  0.91095088423E+02 0.  0.
          4    1    3    3  502    0 -0.28419867057E+03  0.16970536867E+03  0.20208611246E+03  0.38782417840E+03  0.00000000000E+00 0. -1.
         -3    1    3    3    0  502 -0.94283343851E+00  0.73249192087E+01 -0.32577552680E+01  0.80719480730E+01  0.00000000000E+00 0.  1.
         11    1    5    5    0    0 -0.38533697376E+02 -0.17919969665E+02 -0.36191017044E+01  0.42650545640E+02  0.00000000000E+00 0.  1.
        -11    1    5    5    0    0 -0.78522713376E+02 -0.37783407408E+03  0.12785390626E+03  0.40653539255E+03  0.00000000000E+00 0. -1.
          1    1    6    6  503    0  0.36450134871E+03  0.18622756366E+03  0.22754862873E+03  0.46831647111E+03  0.00000000000E+00 0. -1.
         -1    1    6    6    0  503  0.37696566047E+02  0.32496192205E+02 -0.26391178075E+01  0.49839728554E+02  0.00000000000E+00 0.  1.
<mgrwt>
<rscale>  0 0.12482566E+04</rscale>
<asrwt>0</asrwt>
<pdfrwt beam="1">  1        2 0.14701622E+00 0.12482566E+04</pdfrwt>
<pdfrwt beam="2">  1       -1 0.62712738E-01 0.12482566E+04</pdfrwt>
<totfact> 0.77920047E+01</totfact>
</mgrwt>
</event>
<event>
11    6  0.1705838E-008  0.1437456E+04  0.7818608E-02  0.8927143E-01
          2   -1    0    0  501    0  0.00000000000E+00  0.00000000000E+00  0.98348733994E+03  0.98348733994E+03  0.00000000000E+00 0. -1.
         -1   -1    0    0    0  501 -0.00000000000E+00 -0.00000000000E+00 -0.52524339804E+03  0.52524339804E+03  0.00000000000E+00 0.  1.
         24    2    1    2    0    0  0.63174791869E+02 -0.27140187166E+03 -0.20634543652E+03  0.35612247466E+03  0.81208050801E+02 0.  0.
        254    2    1    2    0    0 -0.63174791869E+02  0.27140187166E+03  0.66458937842E+03  0.11526082633E+04  0.89954251511E+03 0.  0.
         23    2    4    4    0    0 -0.10051875429E+03 -0.30415835546E+03  0.34470109254E+03  0.47985845393E+03  0.93962585369E+02 0.  0.
          2    1    3    3  502    0 -0.18027039827E+02 -0.32577258514E+02 -0.18262701581E+02  0.41470208660E+02  0.00000000000E+00 0. -1.
         -1    1    3    3    0  502  0.81201831697E+02 -0.23882461315E+03 -0.18808273494E+03  0.31465226600E+03  0.00000000000E+00 0.  1.
         11    1    4    4    0    0 -0.44224757579E+01  0.43911617318E+02  0.72498544424E+02  0.84875363745E+02  0.00000000000E+00 0. -1.
        -11    1    4    4    0    0  0.41766438181E+02  0.53164860980E+03  0.24738974146E+03  0.58787444564E+03  0.00000000000E+00 0.  1.
          4    1    5    5  503    0 -0.30000218120E+02 -0.55038075283E+02  0.12684209128E+03  0.14148540186E+03  0.00000000000E+00 0. -1.
         -4    1    5    5    0  503 -0.70518536173E+02 -0.24912028017E+03  0.21785900125E+03  0.33837305207E+03  0.00000000000E+00 0.  1.
<mgrwt>
<rscale>  0 0.14374564E+04</rscale>
<asrwt>0</asrwt>
<pdfrwt beam="1">  1        2 0.15130574E+00 0.14374564E+04</pdfrwt>
<pdfrwt beam="2">  1       -1 0.80806677E-01 0.14374564E+04</pdfrwt>
<totfact> 0.43662925E+01</totfact>
</mgrwt>
</event>
<event>
11    6  0.1705838E-008  0.1675607E+04  0.7818608E-02  0.8775400E-01
          2   -1    0    0  501    0  0.00000000000E+00  0.00000000000E+00  0.54793172801E+03  0.54793172801E+03  0.00000000000E+00 0. -1.
         -1   -1    0    0    0  501 -0.00000000000E+00 -0.00000000000E+00 -0.12810261682E+04  0.12810261682E+04  0.00000000000E+00 0.  1.
         24    2    1    2    0    0 -0.16880998439E+03 -0.14479659855E+03  0.34038137336E+03  0.41442009714E+03  0.80135334318E+02 0.  0.
        254    2    1    2    0    0  0.16880998439E+03  0.14479659855E+03 -0.10734758135E+04  0.14145377990E+04  0.89392616973E+03 0.  0.
         23    2    4    4    0    0 -0.47236530794E+02 -0.90555866157E+02 -0.10832437034E+04  0.10917707137E+04  0.90081716083E+02 0.  0.
          4    1    3    3  502    0 -0.10264718267E+03 -0.13018631493E+03  0.21068799787E+03  0.26809392599E+03  0.00000000000E+00 0. -1.
         -3    1    3    3    0  502 -0.66162801722E+02 -0.14610283612E+02  0.12969337549E+03  0.14632617115E+03  0.00000000000E+00 0.  1.
         11    1    4    4    0    0  0.83089940957E+02  0.66435110495E+02 -0.10218385016E+02  0.10687365245E+03  0.00000000000E+00 0.  1.
        -11    1    4    4    0    0  0.13295657423E+03  0.16891735421E+03  0.19986274914E+02  0.21589343290E+03  0.00000000000E+00 0. -1.
          4    1    5    5  503    0 -0.54339898077E+02 -0.82443503707E+02 -0.10706413898E+04  0.10751849801E+04  0.00000000000E+00 0. -1.
         -4    1    5    5    0  503  0.71033672835E+01 -0.81123624509E+01 -0.12602313590E+02  0.16585733602E+02  0.00000000000E+00 0.  1.
<mgrwt>
<rscale>  0 0.16756072E+04</rscale>
<asrwt>0</asrwt>
<pdfrwt beam="1">  1        2 0.84297190E-01 0.16756072E+04</pdfrwt>
<pdfrwt beam="2">  1       -1 0.19708095E+00 0.16756072E+04</pdfrwt>
<totfact> 0.94971103E+00</totfact>
</mgrwt>
</event>
<event>
12    6  0.1705838E-008  0.4814973E+04  0.7818608E-02  0.7857701E-01
          2   -1    0    0  501    0  0.00000000000E+00  0.00000000000E+00  0.27373352793E+04  0.27373352793E+04  0.00000000000E+00 0. -1.
         -1   -1    0    0    0  501 -0.00000000000E+00 -0.00000000000E+00 -0.21173845382E+04  0.21173845382E+04  0.00000000000E+00 0.  1.
         24    2    1    2    0    0 -0.19489301456E+04  0.92530759127E+03  0.11615449533E+04  0.24515387184E+04  0.79577372747E+02 0.  0.
        254    2    1    2    0    0  0.19489301456E+04 -0.92530759127E+03 -0.54159421229E+03  0.24031810991E+04  0.90963303224E+03 0.  0.
         23    2    4    4    0    0  0.11548208570E+04 -0.33269593661E+03  0.11772729230E+03  0.12095004310E+04  0.68802466130E+02 0.  0.
         23    2    4    4    0    0  0.79410928869E+03 -0.59261165466E+03 -0.65932150458E+03  0.11936806681E+04  0.91490739575E+02 0.  0.
          2    1    3    3  502    0 -0.56742573440E+03  0.28845847641E+03  0.37918610980E+03  0.74091994341E+03  0.00000000000E+00 0. -1.
         -3    1    3    3    0  502 -0.13815044112E+04  0.63684911485E+03  0.78235884354E+03  0.17106187750E+04  0.00000000000E+00 0.  1.
         11    1    5    5    0    0  0.68866218285E+03 -0.17800246368E+03  0.97310769204E+02  0.71792051438E+03  0.00000000000E+00 0.  1.
        -11    1    5    5    0    0  0.46615867410E+03 -0.15469347293E+03  0.20416523093E+02  0.49157991662E+03  0.00000000000E+00 0. -1.
          2    1    6    6  503    0  0.14867458274E+03 -0.95617865758E+02 -0.79693207511E+02  0.19390181827E+03  0.00000000000E+00 0. -1.
         -2    1    6    6    0  503  0.64543470595E+03 -0.49699378890E+03 -0.57962829707E+03  0.99977884986E+03  0.00000000000E+00 0.  1.
<mgrwt>
<rscale>  0 0.48149731E+04</rscale>
<asrwt>0</asrwt>
<pdfrwt beam="1">  1        2 0.42112851E+00 0.48149731E+04</pdfrwt>
<pdfrwt beam="2">  1       -1 0.32575146E+00 0.48149731E+04</pdfrwt>
<totfact> 0.47551552E-02</totfact>
</mgrwt>
</event>
<event>
11    6  0.1705838E-008  0.2638068E+04  0.7818608E-02  0.8355384E-01
          2   -1    0    0  501    0  0.00000000000E+00  0.00000000000E+00  0.19453575096E+04  0.19453575096E+04  0.00000000000E+00 0. -1.
         -1   -1    0    0    0  501 -0.00000000000E+00 -0.00000000000E+00 -0.89436056552E+03  0.89436056552E+03  0.00000000000E+00 0.  1.
         24    2    1    2    0    0  0.15130060361E+03 -0.11161370692E+04  0.15796050216E+03  0.11401272915E+04  0.79277302702E+02 0.  0.
        254    2    1    2    0    0 -0.15130060361E+03  0.11161370692E+04  0.89303644187E+03  0.16995907836E+04  0.90688528224E+03 0.  0.
         23    2    4    4    0    0  0.32467942483E+03  0.38269262026E+03  0.54872870617E+03  0.74915555741E+03  0.90887214268E+02 0.  0.
          4    1    3    3  502    0  0.45584848726E+02 -0.40672581368E+03  0.20185951876E+02  0.40976986053E+03  0.00000000000E+00 0. -1.
         -3    1    3    3    0  502  0.10571575488E+03 -0.70941125553E+03  0.13777455029E+03  0.73035743099E+03  0.00000000000E+00 0.  1.
         11    1    4    4    0    0 -0.12695972707E+03  0.32324090638E+03  0.13651927142E+03  0.37315006006E+03  0.00000000000E+00 0.  1.
        -11    1    4    4    0    0 -0.34902030136E+03  0.41020354256E+03  0.20778846428E+03  0.57728516608E+03  0.00000000000E+00 0. -1.
          4    1    5    5  503    0  0.29925060538E+03  0.37719315660E+03  0.53493277405E+03  0.71970735370E+03  0.00000000000E+00 0. -1.
         -4    1    5    5    0  503  0.25428819448E+02  0.54994636549E+01  0.13795932116E+02  0.29448203713E+02  0.00000000000E+00 0.  1.
<mgrwt>
<rscale>  0 0.26380683E+04</rscale>
<asrwt>0</asrwt>
<pdfrwt beam="1">  1        2 0.29928577E+00 0.26380683E+04</pdfrwt>
<pdfrwt beam="2">  1       -1 0.13759393E+00 0.26380683E+04</pdfrwt>
<totfact> 0.31529327E+00</totfact>
</mgrwt>
</event>
<event>
11    6  0.1705838E-008  0.1748215E+04  0.7818608E-02  0.8734333E-01
          2   -1    0    0  501    0  0.00000000000E+00  0.00000000000E+00  0.61369522303E+03  0.61369522303E+03  0.00000000000E+00 0. -1.
         -1   -1    0    0    0  501 -0.00000000000E+00 -0.00000000000E+00 -0.12450218263E+04  0.12450218263E+04  0.00000000000E+00 0.  1.
         24    2    1    2    0    0 -0.29860203371E+03  0.57477833236E+03 -0.39617440201E+02  0.65376732692E+03  0.79428397263E+02 0.  0.
        254    2    1    2    0    0  0.29860203371E+03 -0.57477833236E+03 -0.59170916309E+03  0.12049497224E+04  0.82598474200E+03 0.  0.
         23    2    4    4    0    0  0.55784414067E+03 -0.40443668235E+03 -0.47361276384E+03  0.83984695871E+03  0.79213311215E+02 0.  0.
          4    1    3    3  502    0 -0.19528441567E+03  0.40371106391E+03 -0.61771856829E+02  0.45269679524E+03  0.00000000000E+00 0. -1.
         -3    1    3    3    0  502 -0.10331761804E+03  0.17106726845E+03  0.22154416628E+02  0.20107053168E+03  0.00000000000E+00 0.  1.
         11    1    4    4    0    0 -0.20689827811E+02 -0.63254721378E+02 -0.74689421818E+02  0.10003868493E+03  0.00000000000E+00 0.  1.
        -11    1    4    4    0    0 -0.23855227915E+03 -0.10708692863E+03 -0.43406977430E+02  0.26506407878E+03  0.00000000000E+00 0. -1.
          2    1    5    5  503    0  0.54235261505E+03 -0.40392446065E+03 -0.47106719654E+03  0.82413932840E+03  0.00000000000E+00 0. -1.
         -2    1    5    5    0  503  0.15491525620E+02 -0.51222170538E+00 -0.25455672987E+01  0.15707630310E+02  0.00000000000E+00 0.  1.
<mgrwt>
<rscale>  0 0.17482150E+04</rscale>
<asrwt>0</asrwt>
<pdfrwt beam="1">  1        2 0.94414650E-01 0.17482150E+04</pdfrwt>
<pdfrwt beam="2">  1       -1 0.19154182E+00 0.17482150E+04</pdfrwt>
<totfact> 0.90041397E+00</totfact>
</mgrwt>
</event>
<event>
12    6  0.1705838E-008  0.1379731E+04  0.7818608E-02  0.8968622E-01
         -1   -1    0    0    0  501 -0.00000000000E+00  0.00000000000E+00  0.57378289411E+03  0.57378289411E+03  0.00000000000E+00 0.  1.
          2   -1    0    0  501    0  0.00000000000E+00 -0.00000000000E+00 -0.82943316457E+03  0.82943316457E+03  0.00000000000E+00 0. -1.
         24    2    1    2    0    0  0.19907152017E+03  0.12662510475E+03  0.24893780558E+03  0.35231051581E+03  0.80556074910E+02 0.  0.
        254    2    1    2    0    0 -0.19907152017E+03 -0.12662510475E+03 -0.50458807604E+03  0.10509055429E+04  0.89113968953E+03 0.  0.
         23    2    4    4    0    0 -0.13175360066E+03  0.35609062755E+03 -0.35410099406E+03  0.53182268865E+03  0.11527494031E+03 0.  0.
         23    2    4    4    0    0 -0.67317919516E+02 -0.48271573230E+03 -0.15048708198E+03  0.51908285421E+03  0.96200141387E+02 0.  0.
          2    1    3    3  502    0  0.23279128793E+02 -0.10008103306E+02  0.15422583282E+02  0.29663715955E+02  0.00000000000E+00 0. -1.
         -1    1    3    3    0  502  0.17579239138E+03  0.13663320805E+03  0.23351522230E+03  0.32264679985E+03  0.00000000000E+00 0.  1.
         11    1    5    5    0    0 -0.12166460021E+03  0.35482079815E+03 -0.36013598140E+03  0.51999807581E+03  0.00000000000E+00 0.  1.
        -11    1    5    5    0    0 -0.10089000442E+02  0.12698293999E+01  0.60349873485E+01  0.11824612845E+02  0.00000000000E+00 0. -1.
          3    1    6    6  503    0 -0.22337381122E+02 -0.10056633019E+03  0.71328128557E+01  0.10326384838E+03  0.00000000000E+00 0. -1.
         -3    1    6    6    0  503 -0.44980538394E+02 -0.38214940210E+03 -0.15761989484E+03  0.41581900583E+03  0.00000000000E+00 0.  1.
<mgrwt>
<rscale>  0 0.13797312E+04</rscale>
<asrwt>0</asrwt>
<pdfrwt beam="1">  1        2 0.12760510E+00 0.13797312E+04</pdfrwt>
<pdfrwt beam="2">  1       -1 0.88274292E-01 0.13797312E+04</pdfrwt>
<totfact> 0.46046990E+01</totfact>
</mgrwt>
</event>
<event>
12    6  0.1705838E-008  0.1765379E+04  0.7818608E-02  0.8724930E-01
         -1   -1    0    0    0  501 -0.00000000000E+00  0.00000000000E+00  0.26859489011E+03  0.26859489011E+03  0.00000000000E+00 0.  1.
          2   -1    0    0  501    0  0.00000000000E+00 -0.00000000000E+00 -0.29008037287E+04  0.29008037287E+04  0.00000000000E+00 0. -1.
         24    2    1    2    0    0  0.13934002623E+03  0.58739810257E+03 -0.53371810723E+03  0.80972331040E+03  0.79653296252E+02 0.  0.
        254    2    1    2    0    0 -0.13934002623E+03 -0.58739810257E+03 -0.20984907313E+04  0.23596753084E+04  0.89440037888E+03 0.  0.
         23    2    4    4    0    0  0.31897171191E+03 -0.11341090528E+03 -0.41260313009E+03  0.54715182669E+03  0.12053543898E+03 0.  0.
         23    2    4    4    0    0 -0.45831173815E+03 -0.47398719728E+03 -0.16858876012E+04  0.18125234817E+04  0.91163891943E+02 0.  0.
          2    1    3    3  502    0  0.12509265551E+03  0.53465990545E+03 -0.51252804365E+03  0.75112873895E+03  0.00000000000E+00 0. -1.
         -1    1    3    3    0  502  0.14247370725E+02  0.52738197120E+02 -0.21190063581E+02  0.58594571443E+02  0.00000000000E+00 0.  1.
         11    1    5    5    0    0  0.32012289233E+03 -0.10996833696E+03 -0.35893831053E+03  0.49336438065E+03  0.00000000000E+00 0. -1.
        -11    1    5    5    0    0 -0.11511804191E+01 -0.34425683238E+01 -0.53664819554E+02  0.53787446033E+02  0.00000000000E+00 0.  1.
          2    1    6    6  503    0 -0.41535283327E+03 -0.38568874533E+03 -0.14631262509E+04  0.15690800522E+04  0.00000000000E+00 0. -1.
         -2    1    6    6    0  503 -0.42958904881E+02 -0.88298451953E+02 -0.22276135038E+03  0.24344342946E+03  0.00000000000E+00 0.  1.
<mgrwt>
<rscale>  0 0.17653793E+04</rscale>
<asrwt>0</asrwt>
<pdfrwt beam="1">  1        2 0.44627750E+00 0.17653793E+04</pdfrwt>
<pdfrwt beam="2">  1       -1 0.41322290E-01 0.17653793E+04</pdfrwt>
<totfact> 0.12453130E+01</totfact>
</mgrwt>
</event>
<event>
11    6  0.1705838E-008  0.1260390E+04  0.7818608E-02  0.9061580E-01
          2   -1    0    0  501    0  0.00000000000E+00  0.00000000000E+00  0.28155299817E+03  0.28155299817E+03  0.00000000000E+00 0. -1.
         -1   -1    0    0    0  501 -0.00000000000E+00 -0.00000000000E+00 -0.14105538426E+04  0.14105538426E+04  0.00000000000E+00 0.  1.
         24    2    1    2    0    0 -0.12078813445E+03 -0.14902947181E+03 -0.58827102090E+03  0.62378855076E+03  0.79055709073E+02 0.  0.
        254    2    1    2    0    0  0.12078813445E+03  0.14902947181E+03 -0.54072982356E+03  0.10683182900E+04  0.90117460565E+03 0.  0.
         23    2    4    4    0    0 -0.25648646847E+03  0.29698089669E+03 -0.98553905000E+02  0.41477966168E+03  0.91358272984E+02 0.  0.
          4    1    3    3  502    0 -0.74536227530E+02 -0.34263460295E+02 -0.19632117233E+03  0.21277132474E+03  0.00000000000E+00 0. -1.
         -3    1    3    3    0  502 -0.46251906916E+02 -0.11476601151E+03 -0.39194984857E+03  0.41101722602E+03  0.00000000000E+00 0.  1.
         11    1    4    4    0    0  0.50165602108E+02  0.71166891006E+02 -0.91274305335E+02  0.12614401621E+03  0.00000000000E+00 0.  1.
        -11    1    4    4    0    0  0.32710900081E+03 -0.21911831589E+03 -0.35090161323E+03  0.52739461216E+03  0.00000000000E+00 0. -1.
          2    1    5    5  503    0 -0.79208351257E+02  0.14605189017E+03 -0.69695744947E+02  0.18017384493E+03  0.00000000000E+00 0. -1.
         -2    1    5    5    0  503 -0.17727811722E+03  0.15092900651E+03 -0.28858160053E+02  0.23460581675E+03  0.00000000000E+00 0.  1.
<mgrwt>
<rscale>  0 0.12603899E+04</rscale>
<asrwt>0</asrwt>
<pdfrwt beam="1">  1        2 0.43315846E-01 0.12603899E+04</pdfrwt>
<pdfrwt beam="2">  1       -1 0.21700828E+00 0.12603899E+04</pdfrwt>
<totfact> 0.15306177E+01</totfact>
</mgrwt>
</event>
<event>
12    6  0.1705838E-008  0.1799112E+04  0.7818608E-02  0.8706772E-01
          2   -1    0    0  501    0  0.00000000000E+00  0.00000000000E+00  0.65719433383E+03  0.65719433383E+03  0.00000000000E+00 0. -1.
         -1   -1    0    0    0  501 -0.00000000000E+00 -0.00000000000E+00 -0.12312968725E+04  0.12312968725E+04  0.00000000000E+00 0.  1.
         24    2    1    2    0    0 -0.59566962076E+03  0.28742351688E+03 -0.10687268658E+03  0.67464993335E+03  0.79348511515E+02 0.  0.
        254    2    1    2    0    0  0.59566962076E+03 -0.28742351688E+03 -0.46722985212E+03  0.12138412730E+04  0.90425235759E+03 0.  0.
         23    2    4    4    0    0  0.22346871122E+03 -0.58583466897E+03 -0.21710610937E+03  0.66755556576E+03  0.73176815896E+02 0.  0.
         23    2    4    4    0    0  0.37220090953E+03  0.29841115209E+03 -0.25012374275E+03  0.54628570726E+03  0.91013485361E+02 0.  0.
          4    1    3    3  502    0 -0.46606133509E+03  0.22266799255E+03 -0.11632238219E+03  0.52945736332E+03  0.00000000000E+00 0. -1.
         -3    1    3    3    0  502 -0.12960828566E+03  0.64755524334E+02  0.94496956088E+01  0.14519257003E+03  0.00000000000E+00 0.  1.
         11    1    5    5    0    0  0.16100551985E+03 -0.38896072361E+03 -0.17938508833E+03  0.45759395959E+03  0.00000000000E+00 0. -1.
        -11    1    5    5    0    0  0.62463191370E+02 -0.19687394535E+03 -0.37721021039E+02  0.20996160617E+03  0.00000000000E+00 0.  1.
          1    1    6    6  503    0  0.12545594724E+03  0.10592995341E+03 -0.38930728375E+02  0.16874818915E+03  0.00000000000E+00 0. -1.
         -1    1    6    6    0  503  0.24674496229E+03  0.19248119867E+03 -0.21119301438E+03  0.37753751811E+03  0.00000000000E+00 0.  1.
<mgrwt>
<rscale>  0 0.17991124E+04</rscale>
<asrwt>0</asrwt>
<pdfrwt beam="1">  1        2 0.10110682E+00 0.17991124E+04</pdfrwt>
<pdfrwt beam="2">  1       -1 0.18943029E+00 0.17991124E+04</pdfrwt>
<totfact> 0.85270872E+00</totfact>
</mgrwt>
</event>
<event>
11    6  0.1705838E-008  0.1996930E+04  0.7818608E-02  0.8608058E-01
         -1   -1    0    0    0  501 -0.00000000000E+00  0.00000000000E+00  0.56055866904E+03  0.56055866904E+03  0.00000000000E+00 0.  1.
          2   -1    0    0  501    0  0.00000000000E+00 -0.00000000000E+00 -0.17784613242E+04  0.17784613242E+04  0.00000000000E+00 0. -1.
         24    2    1    2    0    0 -0.71930134627E+03  0.32109835741E+03 -0.60643627350E+03  0.99731483169E+03  0.79833187483E+02 0.  0.
        254    2    1    2    0    0  0.71930134627E+03 -0.32109835741E+03 -0.61146638164E+03  0.13417051615E+04  0.89765417768E+03 0.  0.
         23    2    4    4    0    0  0.10944530999E+03 -0.44937055024E+03 -0.51065791599E+03  0.69479905383E+03  0.89788923241E+02 0.  0.
          2    1    3    3  502    0 -0.54500508434E+03  0.21310030156E+03 -0.42139944461E+03  0.72112396465E+03  0.00000000000E+00 0. -1.
         -1    1    3    3    0  502 -0.17429626193E+03  0.10799805585E+03 -0.18503682889E+03  0.27619086704E+03  0.00000000000E+00 0.  1.
         11    1    4    4    0    0  0.99000784275E+02 -0.23868406173E+02  0.10506659210E+02  0.10237795655E+03  0.00000000000E+00 0.  1.
        -11    1    4    4    0    0  0.51085525200E+03  0.15214059900E+03 -0.11131512486E+03  0.54452815114E+03  0.00000000000E+00 0. -1.
          3    1    5    5  503    0  0.37071705917E+02 -0.23129032029E+03 -0.31789088800E+03  0.39487230887E+03  0.00000000000E+00 0. -1.
         -3    1    5    5    0  503  0.72373604077E+02 -0.21808022994E+03 -0.19276702799E+03  0.29992674496E+03  0.00000000000E+00 0.  1.
<mgrwt>
<rscale>  0 0.19969296E+04</rscale>
<asrwt>0</asrwt>
<pdfrwt beam="1">  1        2 0.27360943E+00 0.19969296E+04</pdfrwt>
<pdfrwt beam="2">  1       -1 0.86239795E-01 0.19969296E+04</pdfrwt>
<totfact> 0.12452088E+01</totfact>
</mgrwt>
</event>
<event>
12    6  0.1705838E-008  0.2009409E+04  0.7818608E-02  0.8602234E-01
         -1   -1    0    0    0  501 -0.00000000000E+00  0.00000000000E+00  0.10687775400E+04  0.10687775400E+04  0.00000000000E+00 0.  1.
          2   -1    0    0  501    0  0.00000000000E+00 -0.00000000000E+00 -0.94447307718E+03  0.94447307718E+03  0.00000000000E+00 0. -1.
         24    2    1    2    0    0  0.68944057450E+03 -0.36828940447E+03  0.91494761399E+02  0.79104394784E+03  0.80086483462E+02 0.  0.
        254    2    1    2    0    0 -0.68944057450E+03  0.36828940447E+03  0.32809701417E+02  0.12222066693E+04  0.93901399078E+03 0.  0.
         23    2    4    4    0    0 -0.52492081370E+03 -0.21851864067E+03  0.13367231738E+03  0.59763598387E+03  0.12652360970E+03 0.  0.
         23    2    4    4    0    0 -0.16451976081E+03  0.58680804514E+03 -0.10086261596E+03  0.62457068548E+03  0.92221691191E+02 0.  0.
          4    1    3    3  502    0  0.31773426461E+03 -0.13648238030E+03  0.13350691714E+02  0.34606465293E+03  0.00000000000E+00 0. -1.
         -3    1    3    3    0  502  0.37170630990E+03 -0.23180702417E+03  0.78144069686E+02  0.44497929491E+03  0.00000000000E+00 0.  1.
         11    1    5    5    0    0 -0.17753926479E+03 -0.12380877890E+03  0.91091109099E+01  0.21663743946E+03  0.00000000000E+00 0.  1.
        -11    1    5    5    0    0 -0.34738154890E+03 -0.94709861774E+02  0.12456320647E+03  0.38099854441E+03  0.00000000000E+00 0. -1.
          3    1    6    6  503    0 -0.12904093395E+03  0.50835621371E+03 -0.11598871578E+03  0.53715080270E+03  0.00000000000E+00 0. -1.
         -3    1    6    6    0  503 -0.35478826853E+02  0.78451831426E+02  0.15126099818E+02  0.87419882777E+02  0.00000000000E+00 0.  1.
<mgrwt>
<rscale>  0 0.20094095E+04</rscale>
<asrwt>0</asrwt>
<pdfrwt beam="1">  1        2 0.14530355E+00 0.20094095E+04</pdfrwt>
<pdfrwt beam="2">  1       -1 0.16442731E+00 0.20094095E+04</pdfrwt>
<totfact> 0.78479679E+00</totfact>
</mgrwt>
</event>
<event>
12    6  0.1705838E-008  0.1533645E+04  0.7818608E-02  0.8862383E-01
          2   -1    0    0  501    0  0.00000000000E+00  0.00000000000E+00  0.78648043967E+03  0.78648043967E+03  0.00000000000E+00 0. -1.
         -1   -1    0    0    0  501 -0.00000000000E+00 -0.00000000000E+00 -0.74765555199E+03  0.74765555199E+03  0.00000000000E+00 0.  1.
         24    2    1    2    0    0 -0.42452515575E+03 -0.19735254838E+03  0.85745368314E+02  0.48253271026E+03  0.79472712738E+02 0.  0.
        254    2    1    2    0    0  0.42452515575E+03  0.19735254838E+03 -0.46920480638E+02  0.10516032814E+04  0.94047769443E+03 0.  0.
         23    2    4    4    0    0  0.31570719276E+03  0.53589836715E+03  0.12933218007E+03  0.64379395661E+03  0.10433481822E+03 0.  0.
         23    2    4    4    0    0  0.10881796300E+03 -0.33854581877E+03 -0.17625266071E+03  0.40780932479E+03  0.93748730696E+02 0.  0.
          2    1    3    3  502    0 -0.26541981311E+02 -0.13028350648E+02  0.26963716000E+02  0.40015705330E+02  0.00000000000E+00 0. -1.
         -1    1    3    3    0  502 -0.39798317444E+03 -0.18432419773E+03  0.58781652314E+02  0.44251700493E+03  0.00000000000E+00 0.  1.
         11    1    5    5    0    0  0.13736209961E+03  0.27311980950E+03  0.14409434260E+02  0.30605621795E+03  0.00000000000E+00 0.  1.
        -11    1    5    5    0    0  0.17834509314E+03  0.26277855765E+03  0.11492274581E+03  0.33773773865E+03  0.00000000000E+00 0. -1.
          3    1    6    6  503    0  0.95882945331E+02 -0.22263614269E+03 -0.15902992229E+03  0.28991534527E+03  0.00000000000E+00 0. -1.
         -3    1    6    6    0  503  0.12935017664E+02 -0.11590967607E+03 -0.17222738415E+02  0.11789397952E+03  0.00000000000E+00 0.  1.
<mgrwt>
<rscale>  0 0.15336446E+04</rscale>
<asrwt>0</asrwt>
<pdfrwt beam="1">  1        2 0.12099699E+00 0.15336446E+04</pdfrwt>
<pdfrwt beam="2">  1       -1 0.11502393E+00 0.15336446E+04</pdfrwt>
<totfact> 0.26607824E+01</totfact>
</mgrwt>
</event>
<event>
12    6  0.1934538E-008  0.2269791E+04  0.7818608E-02  0.8489928E-01
          2   -1    0    0  501    0  0.00000000000E+00  0.00000000000E+00  0.12900633638E+04  0.12900633638E+04  0.00000000000E+00 0. -1.
         -1   -1    0    0    0  501 -0.00000000000E+00 -0.00000000000E+00 -0.99839129486E+03  0.99839129486E+03  0.00000000000E+00 0.  1.
         24    2    1    2    0    0 -0.30797661099E+03 -0.30867876941E+03 -0.73604114403E+03  0.85927328239E+03  0.80385524346E+02 0.  0.
        254    2    1    2    0    0  0.30797661099E+03  0.30867876941E+03  0.10277132130E+04  0.14291813763E+04  0.89231876737E+03 0.  0.
         23    2    4    4    0    0  0.10661546973E+03 -0.10884696939E+03  0.92723592103E+03  0.94607642751E+03  0.10990738053E+03 0.  0.
         23    2    4    4    0    0  0.20136114126E+03  0.41752573879E+03  0.10047729198E+03  0.48310494881E+03  0.91764119347E+02 0.  0.
          4    1    3    3  502    0 -0.37771762879E+02 -0.49542763514E+02 -0.60020565696E+02  0.86508148715E+02  0.00000000000E+00 0. -1.
         -3    1    3    3    0  502 -0.27020484811E+03 -0.25913600589E+03 -0.67602057833E+03  0.77276513367E+03  0.00000000000E+00 0.  1.
         11    1    5    5    0    0  0.17635139108E+02 -0.46862726225E+02  0.58341276606E+03  0.58555748552E+03  0.00000000000E+00 0. -1.
        -11    1    5    5    0    0  0.88980330622E+02 -0.61984243162E+02  0.34382315497E+03  0.36051894199E+03  0.00000000000E+00 0.  1.
          1    1    6    6  503    0  0.18568798100E+03  0.41668272438E+03  0.10162487476E+03  0.46736723703E+03  0.00000000000E+00 0. -1.
         -1    1    6    6    0  503  0.15673160262E+02  0.84301441648E+00 -0.11475827739E+01  0.15737711782E+02  0.00000000000E+00 0.  1.
<mgrwt>
<rscale>  0 0.22697912E+04</rscale>
<asrwt>0</asrwt>
<pdfrwt beam="1">  1        2 0.19847129E+00 0.22697912E+04</pdfrwt>
<pdfrwt beam="2">  1       -1 0.15359866E+00 0.22697912E+04</pdfrwt>
<totfact> 0.56777494E+00</totfact>
</mgrwt>
</event>
<event>
11    6  0.1705838E-008  0.1291025E+04  0.7818608E-02  0.9036713E-01
          2   -1    0    0  501    0  0.00000000000E+00  0.00000000000E+00  0.12128813355E+04  0.12128813355E+04  0.00000000000E+00 0. -1.
         -1   -1    0    0    0  501 -0.00000000000E+00 -0.00000000000E+00 -0.34355105258E+03  0.34355105258E+03  0.00000000000E+00 0.  1.
         24    2    1    2    0    0  0.83154912481E+00 -0.21180212252E+03  0.42679372520E+03  0.48274327370E+03  0.77636034508E+02 0.  0.
        254    2    1    2    0    0 -0.83154912481E+00  0.21180212252E+03  0.44253655773E+03  0.10736891144E+04  0.95504391462E+03 0.  0.
         23    2    4    4    0    0  0.34363222500E+03  0.26821013851E+02 -0.76243512719E+02  0.36457643079E+03  0.91106683687E+02 0.  0.
          4    1    3    3  502    0 -0.31636386518E+01 -0.15763062979E+03  0.23188408679E+03  0.28040622990E+03  0.00000000000E+00 0. -1.
         -3    1    3    3    0  502  0.39951877766E+01 -0.54171492723E+02  0.19490963841E+03  0.20233704380E+03  0.00000000000E+00 0.  1.
         11    1    4    4    0    0 -0.33686854056E+03  0.16160798906E+03  0.27456250126E+03  0.46366164694E+03  0.00000000000E+00 0.  1.
        -11    1    4    4    0    0 -0.75952335684E+01  0.23373119608E+02  0.24421756919E+03  0.24545103665E+03  0.00000000000E+00 0. -1.
          4    1    5    5  503    0  0.23970532058E+02 -0.72082262149E+01  0.16521456430E+02  0.29991723106E+02  0.00000000000E+00 0. -1.
         -4    1    5    5    0  503  0.31966169295E+03  0.34029240066E+02 -0.92764969149E+02  0.33458470769E+03  0.00000000000E+00 0.  1.
<mgrwt>
<rscale>  0 0.12910254E+04</rscale>
<asrwt>0</asrwt>
<pdfrwt beam="1">  1        2 0.18659713E+00 0.12910254E+04</pdfrwt>
<pdfrwt beam="2">  1       -1 0.52854009E-01 0.12910254E+04</pdfrwt>
<totfact> 0.75070564E+01</totfact>
</mgrwt>
</event>
<event>
11    6  0.1705838E-008  0.3220409E+04  0.7818608E-02  0.8183448E-01
         -1   -1    0    0    0  501 -0.00000000000E+00  0.00000000000E+00  0.13859106139E+04  0.13859106139E+04  0.00000000000E+00 0.  1.
          2   -1    0    0  501    0  0.00000000000E+00 -0.00000000000E+00 -0.18707982060E+04  0.18707982060E+04  0.00000000000E+00 0. -1.
         24    2    1    2    0    0  0.13796085039E+04 -0.49330501588E+03 -0.47361257495E+03  0.15420135696E+04  0.82628777994E+02 0.  0.
        254    2    1    2    0    0 -0.13796085039E+04  0.49330501588E+03 -0.11275017120E+02  0.17146952503E+04  0.89072061413E+03 0.  0.
         23    2    4    4    0    0 -0.30110245938E+03 -0.24601965541E+03 -0.26031481451E+01  0.39902934110E+03  0.89606231833E+02 0.  0.
          2    1    3    3  502    0  0.73129941087E+02 -0.31350309866E+02 -0.45438651362E+02  0.91626967917E+02  0.00000000000E+00 0. -1.
         -1    1    3    3    0  502  0.13064785629E+04 -0.46195470601E+03 -0.42817392359E+03  0.14503866017E+04  0.00000000000E+00 0.  1.
         11    1    4    4    0    0 -0.99278376774E+03  0.72355831990E+03 -0.81089836938E+01  0.12285039713E+04  0.00000000000E+00 0. -1.
        -11    1    4    4    0    0 -0.85722276825E+02  0.15766351391E+02 -0.56288528138E+00  0.87161937909E+02  0.00000000000E+00 0.  1.
          4    1    5    5  503    0 -0.18515755428E+03 -0.10282429915E+03  0.22881021061E+02  0.21302511009E+03  0.00000000000E+00 0. -1.
         -4    1    5    5    0  503 -0.11594490510E+03 -0.14319535627E+03 -0.25484169207E+02  0.18600423101E+03  0.00000000000E+00 0.  1.
<mgrwt>
<rscale>  0 0.32204093E+04</rscale>
<asrwt>0</asrwt>
<pdfrwt beam="1">  1        2 0.28781511E+00 0.32204093E+04</pdfrwt>
<pdfrwt beam="2">  1       -1 0.21321702E+00 0.32204093E+04</pdfrwt>
<totfact> 0.92173404E-01</totfact>
</mgrwt>
</event>
<event>
12    6  0.1705838E-008  0.1753930E+04  0.7818608E-02  0.8731190E-01
         -1   -1    0    0    0  501 -0.00000000000E+00  0.00000000000E+00  0.48996942337E+03  0.48996942337E+03  0.00000000000E+00 0.  1.
          2   -1    0    0  501    0  0.00000000000E+00 -0.00000000000E+00 -0.15696233935E+04  0.15696233935E+04  0.00000000000E+00 0. -1.
         24    2    1    2    0    0  0.29712391718E+03  0.42620408199E+03 -0.85526647283E+03  0.10037370727E+04  0.77941194549E+02 0.  0.
        254    2    1    2    0    0 -0.29712391718E+03 -0.42620408199E+03 -0.22438749731E+03  0.10558557442E+04  0.89137481566E+03 0.  0.
         23    2    4    4    0    0 -0.59450874834E+03 -0.36677322905E+03 -0.81653194845E+02  0.70748979314E+03  0.76885042552E+02 0.  0.
         23    2    4    4    0    0  0.29738483115E+03 -0.59430852940E+02 -0.14273430246E+03  0.34836595109E+03  0.94952570779E+02 0.  0.
          2    1    3    3  502    0  0.29164684455E+03  0.42505006306E+03 -0.82388287888E+03  0.97185823871E+03  0.00000000000E+00 0. -1.
         -1    1    3    3    0  502  0.54770726322E+01  0.11540189322E+01 -0.31383593949E+02  0.31878833942E+02  0.00000000000E+00 0.  1.
         11    1    5    5    0    0 -0.45239740332E+03 -0.30763435420E+03 -0.84297363881E+02  0.55354164430E+03  0.00000000000E+00 0.  1.
        -11    1    5    5    0    0 -0.14211134502E+03 -0.59138874848E+02  0.26441690363E+01  0.15394814884E+03  0.00000000000E+00 0. -1.
          1    1    6    6  503    0  0.12859966517E+03 -0.63628312103E+02 -0.97833519187E+02  0.17366010900E+03  0.00000000000E+00 0. -1.
         -1    1    6    6    0  503  0.16878516599E+03  0.41974591626E+01 -0.44900783274E+02  0.17470584209E+03  0.00000000000E+00 0.  1.
<mgrwt>
<rscale>  0 0.17539298E+04</rscale>
<asrwt>0</asrwt>
<pdfrwt beam="1">  1        2 0.24148053E+00 0.17539298E+04</pdfrwt>
<pdfrwt beam="2">  1       -1 0.75379909E-01 0.17539298E+04</pdfrwt>
<totfact> 0.22149260E+01</totfact>
</mgrwt>
</event>
<event>
12    6  0.1705838E-008  0.1583294E+04  0.7818608E-02  0.8830877E-01
         -1   -1    0    0    0  501 -0.00000000000E+00  0.00000000000E+00  0.26282956856E+03  0.26282956856E+03  0.00000000000E+00 0.  1.
          2   -1    0    0  501    0  0.00000000000E+00 -0.00000000000E+00 -0.23844541700E+04  0.23844541700E+04  0.00000000000E+00 0. -1.
         24    2    1    2    0    0  0.13468183468E+03  0.46271960254E+03 -0.33406619254E+03  0.59345787419E+03  0.91342215201E+02 0.  0.
        254    2    1    2    0    0 -0.13468183468E+03 -0.46271960254E+03 -0.17875584089E+04  0.20538258644E+04  0.88914958736E+03 0.  0.
         23    2    4    4    0    0 -0.37031161486E+03  0.92902320529E+02 -0.85481843965E+03  0.93911680351E+03  0.73920718345E+02 0.  0.
         23    2    4    4    0    0  0.23562978018E+03 -0.55562192307E+03 -0.93273996928E+03  0.11147090609E+04  0.91298003307E+02 0.  0.
          4    1    3    3  502    0  0.14309636091E+02  0.52672192975E+02 -0.64159730113E+01  0.54957167936E+02  0.00000000000E+00 0. -1.
         -3    1    3    3    0  502  0.12037219859E+03  0.41004740957E+03 -0.32765021953E+03  0.53850070626E+03  0.00000000000E+00 0.  1.
         11    1    5    5    0    0 -0.34969427428E+01  0.44095468183E+01 -0.11121229943E+01  0.57366827735E+01  0.00000000000E+00 0.  1.
        -11    1    5    5    0    0 -0.36681467212E+03  0.88492773711E+02 -0.85370631666E+03  0.93338012073E+03  0.00000000000E+00 0. -1.
          4    1    6    6  503    0  0.21909079095E+03 -0.48609287005E+03 -0.86567825286E+03  0.10167034427E+04  0.00000000000E+00 0. -1.
         -4    1    6    6    0  503  0.16538989229E+02 -0.69529053019E+02 -0.67061716419E+02  0.98005618143E+02  0.00000000000E+00 0.  1.
<mgrwt>
<rscale>  0 0.15832941E+04</rscale>
<asrwt>0</asrwt>
<pdfrwt beam="1">  1        2 0.36683910E+00 0.15832941E+04</pdfrwt>
<pdfrwt beam="2">  1       -1 0.40435318E-01 0.15832941E+04</pdfrwt>
<totfact> 0.26537599E+01</totfact>
</mgrwt>
</event>
<event>
12    6  0.1705838E-008  0.1450662E+04  0.7818608E-02  0.8917942E-01
         -1   -1    0    0    0  501 -0.00000000000E+00  0.00000000000E+00  0.41326965289E+03  0.41326965289E+03  0.00000000000E+00 0.  1.
          2   -1    0    0  501    0  0.00000000000E+00 -0.00000000000E+00 -0.12730301875E+04  0.12730301875E+04  0.00000000000E+00 0. -1.
         24    2    1    2    0    0  0.14128668572E+02  0.24231482254E+02  0.24956509512E+03  0.26384294663E+03  0.80892396280E+02 0.  0.
        254    2    1    2    0    0 -0.14128668572E+02 -0.24231482254E+02 -0.11093256298E+04  0.14224568938E+04  0.88994015407E+03 0.  0.
         23    2    4    4    0    0  0.27211833852E+03 -0.62065519452E+02 -0.37297021001E+02  0.30791413371E+03  0.12457739401E+03 0.  0.
         23    2    4    4    0    0 -0.28624700709E+03  0.37834037198E+02 -0.10720286088E+04  0.11145427601E+04  0.97936012763E+02 0.  0.
          2    1    3    3  502    0  0.33205910302E+02 -0.12340592153E+02  0.58613750399E+02  0.68487184417E+02  0.00000000000E+00 0. -1.
         -1    1    3    3    0  502 -0.19077241729E+02  0.36572074407E+02  0.19095134473E+03  0.19535576222E+03  0.00000000000E+00 0.  1.
         11    1    5    5    0    0  0.11576678692E+03 -0.90019876414E+02 -0.23011525980E+02  0.14844210128E+03  0.00000000000E+00 0.  1.
        -11    1    5    5    0    0  0.15635155160E+03  0.27954356961E+02 -0.14285495020E+02  0.15947203243E+03  0.00000000000E+00 0. -1.
          4    1    6    6  503    0 -0.25747469323E+03  0.55676356132E+02 -0.10109673130E+04  0.10447238784E+04  0.00000000000E+00 0. -1.
         -4    1    6    6    0  503 -0.28772313856E+02 -0.17842318934E+02 -0.61061295820E+02  0.69818881663E+02  0.00000000000E+00 0.  1.
<mgrwt>
<rscale>  0 0.14506616E+04</rscale>
<asrwt>0</asrwt>
<pdfrwt beam="1">  1        2 0.19585080E+00 0.14506616E+04</pdfrwt>
<pdfrwt beam="2">  1       -1 0.63579947E-01 0.14506616E+04</pdfrwt>
<totfact> 0.47549932E+01</totfact>
</mgrwt>
</event>
<event>
12    6  0.1705838E-008  0.1597547E+04  0.7818608E-02  0.8822056E-01
         -1   -1    0    0    0  501 -0.00000000000E+00  0.00000000000E+00  0.29900436492E+03  0.29900436492E+03  0.00000000000E+00 0.  1.
          2   -1    0    0  501    0  0.00000000000E+00 -0.00000000000E+00 -0.21338795909E+04  0.21338795909E+04  0.00000000000E+00 0. -1.
         24    2    1    2    0    0  0.22305011933E+03 -0.47638703841E+03 -0.76397049067E+03  0.93099136602E+03  0.79987792037E+02 0.  0.
        254    2    1    2    0    0 -0.22305011933E+03  0.47638703841E+03 -0.10709047353E+04  0.15018925898E+04  0.91222170174E+03 0.  0.
         23    2    4    4    0    0 -0.13407100209E+03  0.60265518501E+03 -0.11467297075E+04  0.13066953960E+04  0.10628043249E+03 0.  0.
         23    2    4    4    0    0 -0.88979117240E+02 -0.12626814660E+03  0.75824972217E+02  0.19519719375E+03  0.92149823041E+02 0.  0.
          4    1    3    3  502    0  0.22560477940E+03 -0.45801604438E+03 -0.71461489371E+03  0.87826571133E+03  0.00000000000E+00 0. -1.
         -3    1    3    3    0  502 -0.25546600655E+01 -0.18370994034E+02 -0.49355596966E+02  0.52725654683E+02  0.00000000000E+00 0.  1.
         11    1    5    5    0    0 -0.11591726569E+02  0.27599367143E+02 -0.11862190542E+03  0.12234071128E+03  0.00000000000E+00 0.  1.
        -11    1    5    5    0    0 -0.12247927553E+03  0.57505581787E+03 -0.10281078021E+04  0.11843546848E+04  0.00000000000E+00 0. -1.
          2    1    6    6  503    0 -0.85318625791E+02 -0.68070913723E+02  0.82059180627E+02  0.13655265038E+03  0.00000000000E+00 0. -1.
         -2    1    6    6    0  503 -0.36604914493E+01 -0.58197232881E+02 -0.62342084095E+01  0.58644543370E+02  0.00000000000E+00 0.  1.
<mgrwt>
<rscale>  0 0.15975473E+04</rscale>
<asrwt>0</asrwt>
<pdfrwt beam="1">  1        2 0.32828917E+00 0.15975473E+04</pdfrwt>
<pdfrwt beam="2">  1       -1 0.46000672E-01 0.15975473E+04</pdfrwt>
<totfact> 0.28893153E+01</totfact>
</mgrwt>
</event>
<event>
12    6  0.1705838E-008  0.1386433E+04  0.7818608E-02  0.8963698E-01
         -1   -1    0    0    0  501 -0.00000000000E+00  0.00000000000E+00  0.27957513557E+03  0.27957513557E+03  0.00000000000E+00 0.  1.
          2   -1    0    0  501    0  0.00000000000E+00 -0.00000000000E+00 -0.17188562080E+04  0.17188562080E+04  0.00000000000E+00 0. -1.
         24    2    1    2    0    0 -0.18123194886E+03 -0.88509248577E+02 -0.91085863064E+03  0.93642233280E+03  0.80897676096E+02 0.  0.
        254    2    1    2    0    0  0.18123194886E+03  0.88509248577E+02 -0.52842244176E+03  0.10620090107E+04  0.89886258991E+03 0.  0.
         23    2    4    4    0    0 -0.18270518599E+03 -0.32359281841E+02 -0.61929351150E+03  0.65554588053E+03  0.10857089842E+03 0.  0.
         23    2    4    4    0    0  0.36393713485E+03  0.12086853042E+03  0.90871069736E+02  0.40646313021E+03  0.99475047773E+02 0.  0.
          2    1    3    3  502    0 -0.40675697688E+02 -0.26576766971E+02 -0.40093113915E+03  0.40386460016E+03  0.00000000000E+00 0. -1.
         -1    1    3    3    0  502 -0.14055625117E+03 -0.61932481606E+02 -0.50992749149E+03  0.53255773264E+03  0.00000000000E+00 0.  1.
         11    1    5    5    0    0 -0.13198839536E+02  0.76818192508E+01 -0.35987106490E+01  0.15689819324E+02  0.00000000000E+00 0.  1.
        -11    1    5    5    0    0 -0.16950634646E+03 -0.40041101092E+02 -0.61569480085E+03  0.63985606120E+03  0.00000000000E+00 0. -1.
          1    1    6    6  503    0  0.33892746944E+03  0.11949967834E+03  0.56282130746E+02  0.36375772281E+03  0.00000000000E+00 0. -1.
         -1    1    6    6    0  503  0.25009665417E+02  0.13688520770E+01  0.34588938990E+02  0.42705407395E+02  0.00000000000E+00 0.  1.
<mgrwt>
<rscale>  0 0.13864335E+04</rscale>
<asrwt>0</asrwt>
<pdfrwt beam="1">  1        2 0.26443941E+00 0.13864335E+04</pdfrwt>
<pdfrwt beam="2">  1       -1 0.43011560E-01 0.13864335E+04</pdfrwt>
<totfact> 0.56604702E+01</totfact>
</mgrwt>
</event>
<event>
11    6  0.1705838E-008  0.1531868E+04  0.7818608E-02  0.8863534E-01
          2   -1    0    0  501    0  0.00000000000E+00  0.00000000000E+00  0.17103147478E+04  0.17103147478E+04  0.00000000000E+00 0. -1.
         -1   -1    0    0    0  501 -0.00000000000E+00 -0.00000000000E+00 -0.34300974716E+03  0.34300974716E+03  0.00000000000E+00 0.  1.
         24    2    1    2    0    0 -0.20932191539E+03  0.27152827475E+03 -0.28527684289E+02  0.35350232922E+03  0.81282222780E+02 0.  0.
        254    2    1    2    0    0  0.20932191539E+03 -0.27152827475E+03  0.13958326849E+04  0.16998221657E+04  0.90747079435E+03 0.  0.
         23    2    4    4    0    0  0.53954005070E+03 -0.15198046221E+03  0.10286246492E+04  0.11751224945E+04  0.92966021125E+02 0.  0.
          4    1    3    3  502    0 -0.75676828091E+02  0.47531541507E+02  0.96567704999E+01  0.89885944198E+02  0.00000000000E+00 0. -1.
         -3    1    3    3    0  502 -0.13364508729E+03  0.22399673325E+03 -0.38184454789E+02  0.26361638502E+03  0.00000000000E+00 0.  1.
         11    1    4    4    0    0 -0.24765130901E+03 -0.96611979691E+02  0.34617028439E+03  0.43646180964E+03  0.00000000000E+00 0.  1.
        -11    1    4    4    0    0 -0.82566826299E+02 -0.22935832856E+02  0.21037751382E+02  0.88237861585E+02  0.00000000000E+00 0. -1.
          2    1    5    5  503    0  0.47186666266E+03 -0.10373841233E+03  0.84062069311E+03  0.96956843761E+03  0.00000000000E+00 0.  1.
         -2    1    5    5    0  503  0.67673388035E+02 -0.48242049877E+02  0.18800395605E+03  0.20555405691E+03  0.00000000000E+00 0. -1.
<mgrwt>
<rscale>  0 0.15318677E+04</rscale>
<asrwt>0</asrwt>
<pdfrwt beam="1">  1        2 0.26312534E+00 0.15318677E+04</pdfrwt>
<pdfrwt beam="2">  1       -1 0.52770731E-01 0.15318677E+04</pdfrwt>
<totfact> 0.38465607E+01</totfact>
</mgrwt>
</event>
<event>
12    6  0.1705838E-008  0.2630910E+04  0.7818608E-02  0.8357777E-01
         -3   -1    0    0    0  501 -0.00000000000E+00  0.00000000000E+00  0.12058112418E+04  0.12058112418E+04  0.00000000000E+00 0.  1.
          4   -1    0    0  501    0  0.00000000000E+00 -0.00000000000E+00 -0.14350682574E+04  0.14350682574E+04  0.00000000000E+00 0. -1.
         24    2    1    2    0    0 -0.62259803433E+03 -0.90447371834E+03  0.24405304405E+03  0.11276264662E+04  0.79237235530E+02 0.  0.
        254    2    1    2    0    0  0.62259803433E+03  0.90447371834E+03 -0.47331005963E+03  0.15132530330E+04  0.92747577317E+03 0.  0.
         23    2    4    4    0    0  0.41918501939E+03  0.19035159753E+03  0.19375168875E+03  0.51078638022E+03  0.10683257071E+03 0.  0.
         23    2    4    4    0    0  0.20341301494E+03  0.71412212081E+03 -0.66706174838E+03  0.10024666528E+04  0.92848024812E+02 0.  0.
          2    1    3    3  502    0 -0.26290478420E+03 -0.34667297350E+03  0.62728212665E+02  0.43958606072E+03  0.00000000000E+00 0. -1.
         -1    1    3    3    0  502 -0.35969325013E+03 -0.55780074484E+03  0.18132483138E+03  0.68804040551E+03  0.00000000000E+00 0.  1.
         11    1    5    5    0    0  0.37770935365E+03  0.13016459816E+03  0.16255304609E+03  0.43131273021E+03  0.00000000000E+00 0.  1.
        -11    1    5    5    0    0  0.41475665734E+02  0.60186999376E+02  0.31198642662E+02  0.79473650010E+02  0.00000000000E+00 0. -1.
          4    1    6    6  503    0 -0.62135694739E+01  0.11487297343E+02 -0.34263829822E+01  0.13502094141E+02  0.00000000000E+00 0. -1.
         -4    1    6    6    0  503  0.20962658442E+03  0.70263482347E+03 -0.66363536540E+03  0.98896455864E+03  0.00000000000E+00 0.  1.
<mgrwt>
<rscale>  0 0.26309097E+04</rscale>
<asrwt>0</asrwt>
<pdfrwt beam="1">  1        4 0.22077973E+00 0.26309097E+04</pdfrwt>
<pdfrwt beam="2">  1       -3 0.18550942E+00 0.26309097E+04</pdfrwt>
<totfact> 0.35152549E-02</totfact>
</mgrwt>
</event>
<event>
11    6  0.1705838E-008  0.1443548E+04  0.7818608E-02  0.8922886E-01
         -1   -1    0    0    0  501 -0.00000000000E+00  0.00000000000E+00  0.10234955787E+04  0.10234955787E+04  0.00000000000E+00 0.  1.
          2   -1    0    0  501    0  0.00000000000E+00 -0.00000000000E+00 -0.50899856324E+03  0.50899856324E+03  0.00000000000E+00 0. -1.
         24    2    1    2    0    0 -0.72636559755E+02  0.40584239431E+03  0.29212382739E+02  0.42148234473E+03  0.82522026048E+02 0.  0.
        254    2    1    2    0    0  0.72636559755E+02 -0.40584239431E+03  0.48528463275E+03  0.11110117972E+04  0.91041854110E+03 0.  0.
         23    2    4    4    0    0 -0.92397419617E+02 -0.87004806546E+02  0.64755247993E+03  0.66618501886E+03  0.91493964673E+02 0.  0.
          2    1    3    3  502    0 -0.31594921596E+02  0.98234013204E+02 -0.25664305672E+02  0.10633351779E+03  0.00000000000E+00 0. -1.
         -1    1    3    3    0  502 -0.41041638159E+02  0.30760838110E+03  0.54876688411E+02  0.31514882694E+03  0.00000000000E+00 0.  1.
         11    1    4    4    0    0  0.11665612803E+03 -0.23396578582E+03 -0.21071512838E+03  0.33578193291E+03  0.00000000000E+00 0.  1.
        -11    1    4    4    0    0  0.48377851344E+02 -0.84871801939E+02  0.48447281206E+02  0.10904484546E+03  0.00000000000E+00 0. -1.
          2    1    5    5  503    0  0.14632532591E+02 -0.11870714592E+02  0.17036617283E+03  0.17140495243E+03  0.00000000000E+00 0. -1.
         -2    1    5    5    0  503 -0.10702995221E+03 -0.75134091954E+02  0.47718630711E+03  0.49478006643E+03  0.00000000000E+00 0.  1.
<mgrwt>
<rscale>  0 0.14435481E+04</rscale>
<asrwt>0</asrwt>
<pdfrwt beam="1">  1        2 0.78307472E-01 0.14435481E+04</pdfrwt>
<pdfrwt beam="2">  1       -1 0.15746086E+00 0.14435481E+04</pdfrwt>
<totfact> 0.20441679E+01</totfact>
</mgrwt>
</event>
<event>
12    6  0.1705838E-008  0.2759873E+04  0.7818608E-02  0.8315836E-01
          2   -1    0    0  501    0  0.00000000000E+00  0.00000000000E+00  0.20225876560E+04  0.20225876560E+04  0.00000000000E+00 0. -1.
         -3   -1    0    0    0  501 -0.00000000000E+00 -0.00000000000E+00 -0.94147949301E+03  0.94147949301E+03  0.00000000000E+00 0.  1.
         24    2    1    2    0    0 -0.10303890778E+04 -0.38393430540E+03  0.10765497272E+04  0.15409087398E+04  0.79581572747E+02 0.  0.
        254    2    1    2    0    0  0.10303890778E+04  0.38393430540E+03  0.45584358308E+01  0.14231584092E+04  0.90346658812E+03 0.  0.
         23    2    4    4    0    0  0.42032218589E+03  0.20981603199E+03  0.43439523595E+03  0.65214399763E+03  0.12609149612E+03 0.  0.
         23    2    4    4    0    0  0.61006689195E+03  0.17411827341E+03 -0.42983680012E+03  0.77101441160E+03  0.84880871679E+02 0.  0.
          2    1    3    3  502    0 -0.57662564847E+03 -0.23684818742E+03  0.56260329166E+03  0.83971225199E+03  0.00000000000E+00 0. -1.
         -1    1    3    3    0  502 -0.45376342936E+03 -0.14708611798E+03  0.51394643555E+03  0.70119648783E+03  0.00000000000E+00 0.  1.
         11    1    5    5    0    0  0.37832171132E+03  0.14459166082E+03  0.39241720839E+03  0.56393734676E+03  0.00000000000E+00 0. -1.
        -11    1    5    5    0    0  0.42000474565E+02  0.65224371172E+02  0.41978027564E+02  0.88206650864E+02  0.00000000000E+00 0.  1.
          3    1    6    6  503    0  0.30801207472E+03  0.53341212994E+02 -0.17889778707E+03  0.36016821264E+03  0.00000000000E+00 0. -1.
         -3    1    6    6    0  503  0.30205481723E+03  0.12077706041E+03 -0.25093901305E+03  0.41084619897E+03  0.00000000000E+00 0.  1.
<mgrwt>
<rscale>  0 0.27598730E+04</rscale>
<asrwt>0</asrwt>
<pdfrwt beam="1">  1        2 0.31116733E+00 0.27598730E+04</pdfrwt>
<pdfrwt beam="2">  1       -3 0.14484300E+00 0.27598730E+04</pdfrwt>
<totfact> 0.12708260E+00</totfact>
</mgrwt>
</event>
<event>
12    6  0.1705838E-008  0.1785285E+04  0.7818608E-02  0.8714164E-01
          2   -1    0    0  501    0  0.00000000000E+00  0.00000000000E+00  0.64053182309E+03  0.64053182309E+03  0.00000000000E+00 0. -1.
         -1   -1    0    0    0  501 -0.00000000000E+00 -0.00000000000E+00 -0.12439830858E+04  0.12439830858E+04  0.00000000000E+00 0.  1.
         24    2    1    2    0    0 -0.45721947186E+03 -0.14325052346E+03 -0.72114776204E+03  0.86954050361E+03  0.80475057066E+02 0.  0.
        254    2    1    2    0    0  0.45721947186E+03  0.14325052346E+03  0.11769649938E+03  0.10149744052E+04  0.88698941336E+03 0.  0.
         23    2    4    4    0    0  0.20953662483E+03 -0.36568840952E+03  0.11294171963E+03  0.44172556261E+03  0.68789756684E+02 0.  0.
         23    2    4    4    0    0  0.24768284703E+03  0.50893893298E+03  0.47547797462E+01  0.57324884264E+03  0.90697284613E+02 0.  0.
          2    1    3    3  502    0 -0.11263275355E+03 -0.40145584534E+02 -0.24684267625E+03  0.27427925905E+03  0.00000000000E+00 0. -1.
         -1    1    3    3    0  502 -0.34458671831E+03 -0.10310493892E+03 -0.47430508579E+03  0.59526124456E+03  0.00000000000E+00 0.  1.
         11    1    5    5    0    0  0.14822488921E+02 -0.79076553976E+02  0.17702831892E+02  0.82378382016E+02  0.00000000000E+00 0. -1.
        -11    1    5    5    0    0  0.19471413590E+03 -0.28661185555E+03  0.95238887738E+02  0.35934718059E+03  0.00000000000E+00 0.  1.
          1    1    6    6  503    0  0.29541803686E+02  0.24056064942E+02  0.16283319620E+02  0.41431376074E+02  0.00000000000E+00 0. -1.
         -1    1    6    6    0  503  0.21814104335E+03  0.48488286804E+03 -0.11528539874E+02  0.53181746656E+03  0.00000000000E+00 0.  1.
<mgrwt>
<rscale>  0 0.17852851E+04</rscale>
<asrwt>0</asrwt>
<pdfrwt beam="1">  1        2 0.98543358E-01 0.17852851E+04</pdfrwt>
<pdfrwt beam="2">  1       -1 0.19138201E+00 0.17852851E+04</pdfrwt>
<totfact> 0.85393163E+00</totfact>
</mgrwt>
</event>
<event>
11    6  0.1705838E-008  0.2021329E+04  0.7818608E-02  0.8596713E-01
          2   -1    0    0  501    0  0.00000000000E+00  0.00000000000E+00  0.15649070317E+04  0.15649070317E+04  0.00000000000E+00 0. -1.
         -1   -1    0    0    0  501 -0.00000000000E+00 -0.00000000000E+00 -0.65271791195E+03  0.65271791195E+03  0.00000000000E+00 0.  1.
         24    2    1    2    0    0  0.18051182250E+03  0.15906673023E+03  0.12128641269E+04  0.12389371333E+04  0.77711564087E+02 0.  0.
        254    2    1    2    0    0 -0.18051182250E+03 -0.15906673023E+03 -0.30067500722E+03  0.97868781029E+03  0.89974308962E+03 0.  0.
         23    2    4    4    0    0  0.25081329586E+03 -0.22567882627E+03 -0.37584967020E+03  0.51315252311E+03  0.90687900963E+02 0.  0.
          4    1    3    3  502    0  0.15484187343E+03  0.93249155910E+02  0.80965503793E+03  0.82958585529E+03  0.00000000000E+00 0. -1.
         -3    1    3    3    0  502  0.25669949072E+02  0.65817574317E+02  0.40320908900E+03  0.40935127803E+03  0.00000000000E+00 0.  1.
         11    1    4    4    0    0 -0.35254657582E+03  0.60341191810E+02  0.17724109018E+01  0.35767763278E+03  0.00000000000E+00 0. -1.
        -11    1    4    4    0    0 -0.78778542537E+02  0.62709042306E+01  0.73402252071E+02  0.10785765440E+03  0.00000000000E+00 0.  1.
          2    1    5    5  503    0  0.19748278249E+03 -0.16227635602E+03 -0.22261641388E+03  0.33895594527E+03  0.00000000000E+00 0. -1.
         -2    1    5    5    0  503  0.53330513362E+02 -0.63402470245E+02 -0.15323325632E+03  0.17419657784E+03  0.00000000000E+00 0.  1.
<mgrwt>
<rscale>  0 0.20213291E+04</rscale>
<asrwt>0</asrwt>
<pdfrwt beam="1">  1        2 0.24075493E+00 0.20213291E+04</pdfrwt>
<pdfrwt beam="2">  1       -1 0.10041814E+00 0.20213291E+04</pdfrwt>
<totfact> 0.11639009E+01</totfact>
</mgrwt>
</event>
<event>
12    6  0.1705838E-008  0.1696985E+04  0.7818608E-02  0.8763086E-01
         -1   -1    0    0    0  501 -0.00000000000E+00  0.00000000000E+00  0.18077443042E+04  0.18077443042E+04  0.00000000000E+00 0.  1.
          2   -1    0    0  501    0  0.00000000000E+00 -0.00000000000E+00 -0.39825302793E+03  0.39825302793E+03  0.00000000000E+00 0. -1.
         24    2    1    2    0    0  0.51564015168E+03 -0.16485374438E+03  0.86952474133E+03  0.10276817790E+04  0.83636356613E+02 0.  0.
        254    2    1    2    0    0 -0.51564015168E+03  0.16485374438E+03  0.53996653497E+03  0.11783155531E+04  0.89655014403E+03 0.  0.
         23    2    4    4    0    0 -0.59687447540E+03 -0.15217192385E+03  0.55741246078E+03  0.83876105250E+03  0.11574116797E+03 0.  0.
         23    2    4    4    0    0  0.81234323718E+02  0.31702566823E+03 -0.17445925807E+02  0.33955450062E+03  0.88817841103E+02 0.  0.
          4    1    3    3  502    0  0.22566031973E+03 -0.61142739615E+02  0.30133546891E+03  0.38139753452E+03  0.00000000000E+00 0. -1.
         -3    1    3    3    0  502  0.28997983195E+03 -0.10371100476E+03  0.56818927241E+03  0.64628424453E+03  0.00000000000E+00 0.  1.
         11    1    5    5    0    0 -0.59930906222E+03 -0.15513901419E+03  0.54175753448E+03  0.82264250556E+03  0.00000000000E+00 0.  1.
        -11    1    5    5    0    0  0.24345868177E+01  0.29670903418E+01  0.15654926300E+02  0.16118546942E+02  0.00000000000E+00 0. -1.
          4    1    6    6  503    0  0.12419775878E+02  0.31466675333E+02 -0.30475760417E+02  0.45532125607E+02  0.00000000000E+00 0. -1.
         -4    1    6    6    0  503  0.68814547840E+02  0.28555899289E+03  0.13029834609E+02  0.29402237501E+03  0.00000000000E+00 0.  1.
<mgrwt>
<rscale>  0 0.16969851E+04</rscale>
<asrwt>0</asrwt>
<pdfrwt beam="1">  1        2 0.61269698E-01 0.16969851E+04</pdfrwt>
<pdfrwt beam="2">  1       -1 0.27811450E+00 0.16969851E+04</pdfrwt>
<totfact> 0.39853066E+00</totfact>
</mgrwt>
</event>
<event>
11    6  0.1705838E-008  0.2489531E+04  0.7818608E-02  0.8406725E-01
          2   -1    0    0  501    0  0.00000000000E+00  0.00000000000E+00  0.13343778948E+04  0.13343778948E+04  0.00000000000E+00 0. -1.
         -1   -1    0    0    0  501 -0.00000000000E+00 -0.00000000000E+00 -0.11611712345E+04  0.11611712345E+04  0.00000000000E+00 0.  1.
         24    2    1    2    0    0  0.53535333206E+02 -0.15905220363E+03 -0.98794368996E+03  0.10050626822E+04  0.77166217682E+02 0.  0.
        254    2    1    2    0    0 -0.53535333206E+02  0.15905220363E+03  0.11611503503E+04  0.14904864472E+04  0.91930195140E+03 0.  0.
         23    2    4    4    0    0 -0.96248306849E+02 -0.15149555657E+03  0.11297312648E+04  0.11475076761E+04  0.90920272539E+02 0.  0.
          4    1    3    3  502    0  0.17002086742E+02 -0.24750813787E+02 -0.63994066859E+02  0.70688855768E+02  0.00000000000E+00 0. -1.
         -3    1    3    3    0  502  0.36533246464E+02 -0.13430138984E+03 -0.92394962310E+03  0.93437382639E+03  0.00000000000E+00 0.  1.
         11    1    4    4    0    0  0.44747557753E+02  0.10691357556E+03  0.70443935777E+02  0.13562892262E+03  0.00000000000E+00 0. -1.
        -11    1    4    4    0    0 -0.20345841091E+01  0.20363418464E+03 -0.39024850288E+02  0.20734984839E+03  0.00000000000E+00 0.  1.
          1    1    5    5  503    0 -0.13659487798E+02  0.10946701696E+02  0.66103184462E+02  0.68381597532E+02  0.00000000000E+00 0. -1.
         -1    1    5    5    0  503 -0.82588819052E+02 -0.16244225827E+03  0.10636280803E+04  0.10791260786E+04  0.00000000000E+00 0.  1.
<mgrwt>
<rscale>  0 0.24895311E+04</rscale>
<asrwt>0</asrwt>
<pdfrwt beam="1">  1        2 0.20528891E+00 0.24895311E+04</pdfrwt>
<pdfrwt beam="2">  1       -1 0.17864173E+00 0.24895311E+04</pdfrwt>
<totfact> 0.34178730E+00</totfact>
</mgrwt>
</event>
<event>
11    6  0.1705838E-008  0.1821681E+04  0.7818608E-02  0.8694854E-01
         -1   -1    0    0    0  501 -0.00000000000E+00  0.00000000000E+00  0.39600046837E+03  0.39600046837E+03  0.00000000000E+00 0.  1.
          2   -1    0    0  501    0  0.00000000000E+00 -0.00000000000E+00 -0.20950233528E+04  0.20950233528E+04  0.00000000000E+00 0. -1.
         24    2    1    2    0    0  0.34557727179E+03  0.50237245845E+03 -0.10914279315E+04  0.12527330116E+04  0.79519374536E+02 0.  0.
        254    2    1    2    0    0 -0.34557727179E+03 -0.50237245845E+03 -0.60759495290E+03  0.12382908095E+04  0.89016333580E+03 0.  0.
         23    2    4    4    0    0 -0.29762755806E+03 -0.58559804886E+03 -0.20815773931E+03  0.69457231319E+03  0.87142502117E+02 0.  0.
          2    1    3    3  502    0  0.11238375696E+03  0.19583170096E+03 -0.33653418537E+03  0.40525969680E+03  0.00000000000E+00 0. -1.
         -1    1    3    3    0  502  0.23319351483E+03  0.30654075750E+03 -0.75489374616E+03  0.84747331483E+03  0.00000000000E+00 0.  1.
         11    1    4    4    0    0  0.11098117061E+03 -0.54949000356E+02 -0.45632169533E+02  0.13197919445E+03  0.00000000000E+00 0. -1.
        -11    1    4    4    0    0 -0.15893088433E+03  0.13817459076E+03 -0.35380504405E+03  0.41173930190E+03  0.00000000000E+00 0.  1.
          3    1    5    5  503    0 -0.16057381774E+00 -0.44512634924E+02 -0.22032293203E+02  0.49667115837E+02  0.00000000000E+00 0. -1.
         -3    1    5    5    0  503 -0.29746698425E+03 -0.54108541393E+03 -0.18612544611E+03  0.64490519736E+03  0.00000000000E+00 0.  1.
<mgrwt>
<rscale>  0 0.18216808E+04</rscale>
<asrwt>0</asrwt>
<pdfrwt beam="1">  1        2 0.32231128E+00 0.18216808E+04</pdfrwt>
<pdfrwt beam="2">  1       -1 0.60923149E-01 0.18216808E+04</pdfrwt>
<totfact> 0.17342838E+01</totfact>
</mgrwt>
</event>
<event>
12    6  0.1705838E-008  0.2722593E+04  0.7818608E-02  0.8327711E-01
          2   -1    0    0  501    0  0.00000000000E+00  0.00000000000E+00  0.20916229481E+04  0.20916229481E+04  0.00000000000E+00 0. -1.
         -1   -1    0    0    0  501 -0.00000000000E+00 -0.00000000000E+00 -0.88597650909E+03  0.88597650909E+03  0.00000000000E+00 0.  1.
         24    2    1    2    0    0 -0.73883412553E+03  0.56461896547E+03 -0.31095576338E+03  0.98376114180E+03  0.80137732270E+02 0.  0.
        254    2    1    2    0    0  0.73883412553E+03 -0.56461896547E+03  0.15166022024E+04  0.19938383154E+04  0.90035467814E+03 0.  0.
         23    2    4    4    0    0  0.46529915843E+03 -0.79344500039E+03  0.10685619810E+04  0.14138963409E+04  0.10592393521E+03 0.  0.
         23    2    4    4    0    0  0.27353496710E+03  0.22882603492E+03  0.44804022144E+03  0.57994197456E+03  0.91705623286E+02 0.  0.
          4    1    3    3  502    0 -0.30775232716E+03  0.18709572507E+03 -0.12828580900E+03  0.38232650183E+03  0.00000000000E+00 0. -1.
         -3    1    3    3    0  502 -0.43108179837E+03  0.37752324040E+03 -0.18266995437E+03  0.60143463997E+03  0.00000000000E+00 0.  1.
         11    1    5    5    0    0  0.73704461011E+02 -0.16568652749E+03  0.27015760932E+03  0.32537594693E+03  0.00000000000E+00 0.  1.
        -11    1    5    5    0    0  0.39159469742E+03 -0.62775847290E+03  0.79840437166E+03  0.10885203939E+04  0.00000000000E+00 0. -1.
          2    1    6    6  503    0  0.14585471539E+03  0.16744092496E+03  0.22822213664E+03  0.31842645149E+03  0.00000000000E+00 0. -1.
         -2    1    6    6    0  503  0.12768025171E+03  0.61385109952E+02  0.21981808480E+03  0.26151552307E+03  0.00000000000E+00 0.  1.
<mgrwt>
<rscale>  0 0.27225935E+04</rscale>
<asrwt>0</asrwt>
<pdfrwt beam="1">  1        2 0.32178814E+00 0.27225935E+04</pdfrwt>
<pdfrwt beam="2">  1       -1 0.13630408E+00 0.27225935E+04</pdfrwt>
<totfact> 0.26585888E+00</totfact>
</mgrwt>
</event>
<event>
11    6  0.1705838E-008  0.1272355E+04  0.7818608E-02  0.9051780E-01
          2   -1    0    0  501    0  0.00000000000E+00  0.00000000000E+00  0.10278761800E+04  0.10278761800E+04  0.00000000000E+00 0. -1.
         -1   -1    0    0    0  501 -0.00000000000E+00 -0.00000000000E+00 -0.39374554084E+03  0.39374554084E+03  0.00000000000E+00 0.  1.
         24    2    1    2    0    0  0.91031746004E+02  0.18408935476E+03 -0.10008848571E+03  0.24271584204E+03  0.81961001034E+02 0.  0.
        254    2    1    2    0    0 -0.91031746004E+02 -0.18408935476E+03  0.73421912487E+03  0.11789058788E+04  0.89920280160E+03 0.  0.
         23    2    4    4    0    0 -0.12296947822E+03  0.23862010726E+03  0.29055685695E+02  0.28486138473E+03  0.90778452728E+02 0.  0.
          4    1    3    3  502    0  0.64396356851E+01 -0.78587703166E+01  0.31081340036E+00  0.10164929100E+02  0.00000000000E+00 0. -1.
         -3    1    3    3    0  502  0.84592110319E+02  0.19194812508E+03 -0.10039929911E+03  0.23255091294E+03  0.00000000000E+00 0.  1.
         11    1    4    4    0    0  0.13046860338E+03 -0.18047398211E+02  0.14304720180E+03  0.19444862301E+03  0.00000000000E+00 0. -1.
        -11    1    4    4    0    0 -0.98530871164E+02 -0.40466206381E+03  0.56211623738E+03  0.69959587105E+03  0.00000000000E+00 0.  1.
          1    1    5    5  503    0 -0.11653674143E+03  0.13180170276E+03  0.10443282693E+02  0.17624290938E+03  0.00000000000E+00 0.  1.
         -1    1    5    5    0  503 -0.64327367850E+01  0.10681840450E+03  0.18612403002E+02  0.10861847535E+03  0.00000000000E+00 0. -1.
<mgrwt>
<rscale>  0 0.12723548E+04</rscale>
<asrwt>0</asrwt>
<pdfrwt beam="1">  1        2 0.15813480E+00 0.12723548E+04</pdfrwt>
<pdfrwt beam="2">  1       -1 0.60576237E-01 0.12723548E+04</pdfrwt>
<totfact> 0.74840277E+01</totfact>
</mgrwt>
</event>
<event>
12    6  0.1705838E-008  0.2260718E+04  0.7818608E-02  0.8493573E-01
          2   -1    0    0  501    0  0.00000000000E+00  0.00000000000E+00  0.16995506902E+04  0.16995506902E+04  0.00000000000E+00 0. -1.
         -1   -1    0    0    0  501 -0.00000000000E+00 -0.00000000000E+00 -0.75179357605E+03  0.75179357605E+03  0.00000000000E+00 0.  1.
         24    2    1    2    0    0 -0.41956611667E+02  0.37152320866E+02  0.14303634548E+04  0.14336719633E+04  0.79592923046E+02 0.  0.
        254    2    1    2    0    0  0.41956611667E+02 -0.37152320866E+02 -0.48260634063E+03  0.10176723029E+04  0.89420768501E+03 0.  0.
         23    2    4    4    0    0  0.27911114629E+03 -0.34850356703E+01 -0.64601203152E+03  0.71338533674E+03  0.11692697019E+03 0.  0.
         23    2    4    4    0    0 -0.23715453463E+03 -0.33667285196E+02  0.16340569089E+03  0.30428696619E+03  0.92267971648E+02 0.  0.
          4    1    3    3  502    0 -0.65518099752E+02  0.30687813507E+02  0.11321473771E+04  0.11344567188E+04  0.00000000000E+00 0. -1.
         -3    1    3    3    0  502  0.23561488085E+02  0.64645073598E+01  0.29821607760E+03  0.29921524446E+03  0.00000000000E+00 0.  1.
         11    1    5    5    0    0  0.62216412779E+02 -0.51167280768E+02 -0.17382808221E+03  0.19158594627E+03  0.00000000000E+00 0. -1.
        -11    1    5    5    0    0  0.21689473351E+03  0.47682245097E+02 -0.47218394930E+03  0.52179939048E+03  0.00000000000E+00 0.  1.
          2    1    6    6  503    0 -0.91886484350E+02  0.20419631865E+02  0.27309836144E+02  0.98009767482E+02  0.00000000000E+00 0. -1.
         -2    1    6    6    0  503 -0.14526805028E+03 -0.54086917061E+02  0.13609585474E+03  0.20627719871E+03  0.00000000000E+00 0.  1.
<mgrwt>
<rscale>  0 0.22607178E+04</rscale>
<asrwt>0</asrwt>
<pdfrwt beam="1">  1        2 0.26146934E+00 0.22607178E+04</pdfrwt>
<pdfrwt beam="2">  1       -1 0.11566055E+00 0.22607178E+04</pdfrwt>
<totfact> 0.68801828E+00</totfact>
</mgrwt>
</event>
<event>
12    6  0.1705838E-008  0.1217242E+04  0.7818608E-02  0.9097897E-01
         -1   -1    0    0    0  501 -0.00000000000E+00  0.00000000000E+00  0.31174803836E+03  0.31174803836E+03  0.00000000000E+00 0.  1.
          2   -1    0    0  501    0  0.00000000000E+00 -0.00000000000E+00 -0.11882011804E+04  0.11882011804E+04  0.00000000000E+00 0. -1.
         24    2    1    2    0    0 -0.24206429935E+03  0.65730347227E+02 -0.14867991084E+03  0.30246707624E+03  0.80405303053E+02 0.  0.
        254    2    1    2    0    0  0.24206429935E+03 -0.65730347227E+02 -0.72777323118E+03  0.11974821425E+04  0.91727531419E+03 0.  0.
         23    2    4    4    0    0  0.63653080778E+02  0.29955388579E+03  0.45865771890E+02  0.31876453680E+03  0.75649955110E+02 0.  0.
         23    2    4    4    0    0  0.17841121857E+03 -0.36528423302E+03 -0.77363900307E+03  0.87871760570E+03  0.91455943979E+02 0.  0.
          4    1    3    3  502    0 -0.72899110146E+02  0.13641994954E+02 -0.88604197717E+02  0.11554690883E+03  0.00000000000E+00 0. -1.
         -3    1    3    3    0  502 -0.16916518920E+03  0.52088352272E+02 -0.60075713123E+02  0.18692016741E+03  0.00000000000E+00 0.  1.
         11    1    5    5    0    0  0.43554264545E+02  0.64387732729E+02  0.25734080294E+02  0.81884045910E+02  0.00000000000E+00 0. -1.
        -11    1    5    5    0    0  0.20098816233E+02  0.23516615306E+03  0.20131691596E+02  0.23688049089E+03  0.00000000000E+00 0.  1.
          2    1    6    6  503    0 -0.62872913813E+01 -0.11623797520E+02 -0.56858429036E+02  0.58373998100E+02  0.00000000000E+00 0. -1.
         -2    1    6    6    0  503  0.18469850995E+03 -0.35366043550E+03 -0.71678057403E+03  0.82034360760E+03  0.00000000000E+00 0.  1.
<mgrwt>
<rscale>  0 0.12172418E+04</rscale>
<asrwt>0</asrwt>
<pdfrwt beam="1">  1        2 0.18280018E+00 0.12172418E+04</pdfrwt>
<pdfrwt beam="2">  1       -1 0.47961236E-01 0.12172418E+04</pdfrwt>
<totfact> 0.93943596E+01</totfact>
</mgrwt>
</event>
<event>
12    6  0.1705838E-008  0.1263564E+04  0.7818608E-02  0.9058969E-01
         -1   -1    0    0    0  501 -0.00000000000E+00  0.00000000000E+00  0.18929726589E+04  0.18929726589E+04  0.00000000000E+00 0.  1.
          2   -1    0    0  501    0  0.00000000000E+00 -0.00000000000E+00 -0.21085787998E+03  0.21085787998E+03  0.00000000000E+00 0. -1.
         24    2    1    2    0    0 -0.62727668496E+02 -0.62326430763E+02  0.90097229279E+03  0.90863240199E+03  0.77733038064E+02 0.  0.
        254    2    1    2    0    0  0.62727668496E+02  0.62326430763E+02  0.78114248614E+03  0.11951981369E+04  0.90027532367E+03 0.  0.
         23    2    4    4    0    0 -0.38569273675E+03 -0.78647613145E+02  0.48019718438E+03  0.62977364771E+03  0.10526717073E+03 0.  0.
         23    2    4    4    0    0  0.44842040525E+03  0.14097404391E+03  0.30094530176E+03  0.56542448917E+03  0.90455720711E+02 0.  0.
          2    1    3    3  502    0 -0.33373006926E+02 -0.10957689358E+02  0.11048978787E+03  0.11593887083E+03  0.00000000000E+00 0. -1.
         -1    1    3    3    0  502 -0.29354661570E+02 -0.51368741405E+02  0.79048250492E+03  0.79269353116E+03  0.00000000000E+00 0.  1.
         11    1    5    5    0    0 -0.26900836734E+03 -0.55856558937E+02  0.25367284335E+03  0.37394567564E+03  0.00000000000E+00 0.  1.
        -11    1    5    5    0    0 -0.11668436941E+03 -0.22791054208E+02  0.22652434103E+03  0.25582797208E+03  0.00000000000E+00 0. -1.
          3    1    6    6  503    0  0.10780225500E+02  0.20467552364E+02  0.25647505793E+02  0.34538797243E+02  0.00000000000E+00 0. -1.
         -3    1    6    6    0  503  0.43764017975E+03  0.12050649154E+03  0.27529779596E+03  0.53088569193E+03  0.00000000000E+00 0.  1.
<mgrwt>
<rscale>  0 0.12635635E+04</rscale>
<asrwt>0</asrwt>
<pdfrwt beam="1">  1        2 0.32439675E-01 0.12635635E+04</pdfrwt>
<pdfrwt beam="2">  1       -1 0.29122655E+00 0.12635635E+04</pdfrwt>
<totfact> 0.69473286E+00</totfact>
</mgrwt>
</event>
<event>
11    6  0.1705838E-008  0.1598471E+04  0.7818608E-02  0.8821488E-01
          4   -1    0    0  501    0  0.00000000000E+00  0.00000000000E+00  0.17013045152E+04  0.17013045152E+04  0.00000000000E+00 0. -1.
         -3   -1    0    0    0  501 -0.00000000000E+00 -0.00000000000E+00 -0.37546312248E+03  0.37546312248E+03  0.00000000000E+00 0.  1.
         24    2    1    2    0    0 -0.35294622207E+03 -0.40508279475E+03  0.38220338629E+03  0.66476326570E+03  0.84662061478E+02 0.  0.
        254    2    1    2    0    0  0.35294622207E+03  0.40508279475E+03  0.94363800646E+03  0.14120043720E+04  0.90257440305E+03 0.  0.
         23    2    4    4    0    0  0.23825643799E+03 -0.18741263736E+03  0.10057353197E+03  0.33209766434E+03  0.91017561198E+02 0.  0.
          4    1    3    3  502    0 -0.60052066360E+02 -0.48694572434E+02  0.24754124490E+02  0.81179915853E+02  0.00000000000E+00 0. -1.
         -3    1    3    3    0  502 -0.29289415571E+03 -0.35638822232E+03  0.35744926180E+03  0.58358334985E+03  0.00000000000E+00 0.  1.
         11    1    4    4    0    0 -0.96500741066E+02  0.13981646719E+03  0.15749663435E+03  0.23165972321E+03  0.00000000000E+00 0. -1.
        -11    1    4    4    0    0  0.21119052514E+03  0.45267896492E+03  0.68556784015E+03  0.84824698445E+03  0.00000000000E+00 0.  1.
          1    1    5    5  503    0  0.53091963204E+02 -0.93835100220E+02  0.48348536752E+02  0.11815821426E+03  0.00000000000E+00 0. -1.
         -1    1    5    5    0  503  0.18516447478E+03 -0.93577537140E+02  0.52224995213E+02  0.21393945009E+03  0.00000000000E+00 0.  1.
<mgrwt>
<rscale>  0 0.15984707E+04</rscale>
<asrwt>0</asrwt>
<pdfrwt beam="1">  1        4 0.26173915E+00 0.15984707E+04</pdfrwt>
<pdfrwt beam="2">  1       -3 0.57763558E-01 0.15984707E+04</pdfrwt>
<totfact> 0.34490721E-01</totfact>
</mgrwt>
</event>
<event>
12    6  0.1705838E-008  0.2002983E+04  0.7818608E-02  0.8605227E-01
          2   -1    0    0  501    0  0.00000000000E+00  0.00000000000E+00  0.49738042874E+03  0.49738042874E+03  0.00000000000E+00 0. -1.
         -1   -1    0    0    0  501 -0.00000000000E+00 -0.00000000000E+00 -0.20165362276E+04  0.20165362276E+04  0.00000000000E+00 0.  1.
         24    2    1    2    0    0  0.17100477374E+03 -0.31576625259E+03 -0.15266450943E+04  0.15703026433E+04  0.79083429029E+02 0.  0.
        254    2    1    2    0    0 -0.17100477374E+03  0.31576625259E+03  0.74892954482E+01  0.94361401301E+03  0.87258257895E+03 0.  0.
         23    2    4    4    0    0  0.92528687185E+02 -0.18442446859E+03 -0.22580431226E+03  0.32543780006E+03  0.11112259764E+03 0.  0.
         23    2    4    4    0    0 -0.26353346092E+03  0.50019072117E+03  0.23329360770E+03  0.61817621295E+03  0.89862563326E+02 0.  0.
          2    1    3    3  502    0  0.37282894166E+02 -0.24079694618E+02 -0.25270086530E+03  0.25656884693E+03  0.00000000000E+00 0. -1.
         -1    1    3    3    0  502  0.13372187957E+03 -0.29168655797E+03 -0.12739442290E+04  0.13137337964E+04  0.00000000000E+00 0.  1.
         11    1    5    5    0    0  0.11639219012E+03 -0.16613328006E+03 -0.20779503578E+03  0.29038971325E+03  0.00000000000E+00 0. -1.
        -11    1    5    5    0    0 -0.23863502933E+02 -0.18291188521E+02 -0.18009276473E+02  0.35048086807E+02  0.00000000000E+00 0.  1.
          1    1    6    6  503    0 -0.15553622197E+03  0.23596264101E+03  0.77802612000E+02  0.29312647566E+03  0.00000000000E+00 0. -1.
         -1    1    6    6    0  503 -0.10799723895E+03  0.26422808016E+03  0.15549099570E+03  0.32504973729E+03  0.00000000000E+00 0.  1.
<mgrwt>
<rscale>  0 0.20029834E+04</rscale>
<asrwt>0</asrwt>
<pdfrwt beam="1">  1        2 0.76520066E-01 0.20029834E+04</pdfrwt>
<pdfrwt beam="2">  1       -1 0.31023634E+00 0.20029834E+04</pdfrwt>
<totfact> 0.18645118E+00</totfact>
</mgrwt>
</event>
<event>
12    6  0.1705838E-008  0.1222308E+04  0.7818608E-02  0.9093551E-01
         -1   -1    0    0    0  501 -0.00000000000E+00  0.00000000000E+00  0.35897894110E+03  0.35897894110E+03  0.00000000000E+00 0.  1.
          2   -1    0    0  501    0  0.00000000000E+00 -0.00000000000E+00 -0.10404772543E+04  0.10404772543E+04  0.00000000000E+00 0. -1.
         24    2    1    2    0    0 -0.12436688022E+03  0.15502902164E+03  0.52540545912E+02  0.22059039066E+03  0.79990580948E+02 0.  0.
        254    2    1    2    0    0  0.12436688022E+03 -0.15502902164E+03 -0.73403885910E+03  0.11788658047E+04  0.90078322612E+03 0.  0.
         23    2    4    4    0    0  0.29791653561E+03 -0.45386159848E+03 -0.37009254828E+03  0.66866589405E+03  0.12410064787E+03 0.  0.
         23    2    4    4    0    0 -0.17354965540E+03  0.29883257684E+03 -0.36394631083E+03  0.51019991069E+03  0.91796731076E+02 0.  0.
          4    1    3    3  502    0 -0.39342773307E+02  0.11230805817E+03  0.26039539109E+02  0.12181548070E+03  0.00000000000E+00 0. -1.
         -3    1    3    3    0  502 -0.85024106912E+02  0.42720963474E+02  0.26501006803E+02  0.98774909961E+02  0.00000000000E+00 0.  1.
         11    1    5    5    0    0  0.53201642407E+02 -0.64021974959E+02 -0.91591998847E+01  0.83744366826E+02  0.00000000000E+00 0. -1.
        -11    1    5    5    0    0  0.24471489321E+03 -0.38983962352E+03 -0.36093334839E+03  0.58492152722E+03  0.00000000000E+00 0.  1.
          2    1    6    6  503    0 -0.57862214985E+02  0.58432236140E+02 -0.42834261810E+02  0.92720742707E+02  0.00000000000E+00 0. -1.
         -2    1    6    6    0  503 -0.11568744041E+03  0.24040034070E+03 -0.32111204902E+03  0.41747916798E+03  0.00000000000E+00 0.  1.
<mgrwt>
<rscale>  0 0.12223083E+04</rscale>
<asrwt>0</asrwt>
<pdfrwt beam="1">  1        2 0.16007342E+00 0.12223083E+04</pdfrwt>
<pdfrwt beam="2">  1       -1 0.55227529E-01 0.12223083E+04</pdfrwt>
<totfact> 0.88393226E+01</totfact>
</mgrwt>
</event>
<event>
12    6  0.1705838E-008  0.1695345E+04  0.7818608E-02  0.8764023E-01
         -1   -1    0    0    0  501 -0.00000000000E+00  0.00000000000E+00  0.72320836319E+03  0.72320836319E+03  0.00000000000E+00 0.  1.
          2   -1    0    0  501    0  0.00000000000E+00 -0.00000000000E+00 -0.99355738367E+03  0.99355738367E+03  0.00000000000E+00 0. -1.
         24    2    1    2    0    0 -0.22445027141E+03  0.39471601500E+02  0.46529473604E+03  0.52357869066E+03  0.75495180366E+02 0.  0.
        254    2    1    2    0    0  0.22445027141E+03 -0.39471601500E+02 -0.73564375652E+03  0.11931870562E+04  0.91136583374E+03 0.  0.
         23    2    4    4    0    0  0.50509267420E+03  0.91673946937E+02 -0.18618650433E+03  0.55582370312E+03  0.10369113981E+03 0.  0.
         23    2    4    4    0    0 -0.28064240279E+03 -0.13114554844E+03 -0.54945725219E+03  0.63736335308E+03  0.91484745988E+02 0.  0.
          4    1    3    3  502    0  0.34048538592E+00  0.13494477998E+02  0.32628422097E+02  0.35310491292E+02  0.00000000000E+00 0. -1.
         -3    1    3    3    0  502 -0.22479075680E+03  0.25977123502E+02  0.43266631395E+03  0.48826819936E+03  0.00000000000E+00 0.  1.
         11    1    5    5    0    0  0.43874706143E+03  0.42672427282E+02 -0.16480969852E+03  0.47061890813E+03  0.00000000000E+00 0. -1.
        -11    1    5    5    0    0  0.66345612770E+02  0.49001519654E+02 -0.21376805813E+02  0.85204794989E+02  0.00000000000E+00 0.  1.
          1    1    6    6  503    0 -0.95124446839E+02 -0.45689296667E+02 -0.28010652110E+03  0.29932563435E+03  0.00000000000E+00 0.  1.
         -1    1    6    6    0  503 -0.18551795595E+03 -0.85456251770E+02 -0.26935073110E+03  0.33803771874E+03  0.00000000000E+00 0. -1.
<mgrwt>
<rscale>  0 0.16953454E+04</rscale>
<asrwt>0</asrwt>
<pdfrwt beam="1">  1        2 0.15285498E+00 0.16953454E+04</pdfrwt>
<pdfrwt beam="2">  1       -1 0.11126282E+00 0.16953454E+04</pdfrwt>
<totfact> 0.20518706E+01</totfact>
</mgrwt>
</event>
<event>
11    6  0.1705838E-008  0.3182380E+04  0.7818608E-02  0.8193486E-01
          2   -1    0    0  501    0  0.00000000000E+00  0.00000000000E+00  0.39012615294E+04  0.39012615294E+04  0.00000000000E+00 0. -1.
         -1   -1    0    0    0  501 -0.00000000000E+00 -0.00000000000E+00 -0.64899135789E+03  0.64899135789E+03  0.00000000000E+00 0.  1.
         24    2    1    2    0    0 -0.97734544880E+03  0.34680842964E+03  0.19356961535E+02  0.10404561567E+04  0.81817533566E+02 0.  0.
        254    2    1    2    0    0  0.97734544880E+03 -0.34680842964E+03  0.32329132100E+04  0.35097967307E+04  0.88964321722E+03 0.  0.
         23    2    4    4    0    0  0.26255790621E+03 -0.20757844727E+03  0.21916828157E+04  0.22188999298E+04  0.89542547873E+02 0.  0.
          2    1    3    3  502    0 -0.51279652652E+03  0.19313450926E+03 -0.29247992502E+02  0.54874097837E+03  0.00000000000E+00 0. -1.
         -1    1    3    3    0  502 -0.46454892229E+03  0.15367392038E+03  0.48604954037E+02  0.49171517829E+03  0.00000000000E+00 0.  1.
         11    1    4    4    0    0  0.80310420108E+02 -0.69038918593E+02  0.64291872765E+02  0.12389342502E+03  0.00000000000E+00 0.  1.
        -11    1    4    4    0    0  0.63447712249E+03 -0.70191063778E+02  0.97693852153E+03  0.11670033758E+04  0.00000000000E+00 0. -1.
          4    1    5    5  503    0  0.12944436206E+03 -0.15241355576E+03  0.14004264451E+04  0.14146306808E+04  0.00000000000E+00 0. -1.
         -4    1    5    5    0  503  0.13311354415E+03 -0.55164891509E+02  0.79125637060E+03  0.80426924902E+03  0.00000000000E+00 0.  1.
<mgrwt>
<rscale>  0 0.31823796E+04</rscale>
<asrwt>0</asrwt>
<pdfrwt beam="1">  1        2 0.60019407E+00 0.31823796E+04</pdfrwt>
<pdfrwt beam="2">  1       -1 0.99844827E-01 0.31823796E+04</pdfrwt>
<totfact> 0.37511060E-01</totfact>
</mgrwt>
</event>
<event>
11    6  0.1705838E-008  0.2556280E+04  0.7818608E-02  0.8383205E-01
         -1   -1    0    0    0  501 -0.00000000000E+00  0.00000000000E+00  0.10729757138E+04  0.10729757138E+04  0.00000000000E+00 0.  1.
          2   -1    0    0  501    0  0.00000000000E+00 -0.00000000000E+00 -0.15225337231E+04  0.15225337231E+04  0.00000000000E+00 0. -1.
         24    2    1    2    0    0 -0.71391139463E+03 -0.37043691739E+03 -0.98723520991E+03  0.12757714893E+04  0.77888022418E+02 0.  0.
        254    2    1    2    0    0  0.71391139463E+03  0.37043691739E+03  0.53767720066E+03  0.13197379476E+04  0.89761823124E+03 0.  0.
         23    2    4    4    0    0  0.28366004277E+03  0.34004836476E+03 -0.16805189275E+03  0.48228353131E+03  0.90884848437E+02 0.  0.
          4    1    3    3  502    0 -0.52667957607E+03 -0.26156583279E+03 -0.66750833033E+03  0.88959284607E+03  0.00000000000E+00 0. -1.
         -3    1    3    3    0  502 -0.18723181857E+03 -0.10887108460E+03 -0.31972687958E+03  0.38617864321E+03  0.00000000000E+00 0.  1.
         11    1    4    4    0    0  0.14524616398E+03  0.58551625397E+02  0.17848474599E+03  0.23744798491E+03  0.00000000000E+00 0.  1.
        -11    1    4    4    0    0  0.28500518789E+03 -0.28163072770E+02  0.52724434743E+03  0.60000643137E+03  0.00000000000E+00 0. -1.
          1    1    5    5  503    0  0.27715004776E+03  0.34567410828E+03 -0.16193296017E+03  0.47172557880E+03  0.00000000000E+00 0. -1.
         -1    1    5    5    0  503  0.65099950081E+01 -0.56257435201E+01 -0.61189325821E+01  0.10557952505E+02  0.00000000000E+00 0.  1.
<mgrwt>
<rscale>  0 0.25562799E+04</rscale>
<asrwt>0</asrwt>
<pdfrwt beam="1">  1        2 0.23423596E+00 0.25562799E+04</pdfrwt>
<pdfrwt beam="2">  1       -1 0.16507319E+00 0.25562799E+04</pdfrwt>
<totfact> 0.33360563E+00</totfact>
</mgrwt>
</event>
<event>
12    6  0.1705838E-008  0.2175142E+04  0.7818608E-02  0.8528846E-01
         -1   -1    0    0    0  501 -0.00000000000E+00  0.00000000000E+00  0.12878916198E+04  0.12878916198E+04  0.00000000000E+00 0.  1.
          2   -1    0    0  501    0  0.00000000000E+00 -0.00000000000E+00 -0.91840861488E+03  0.91840861488E+03  0.00000000000E+00 0. -1.
         24    2    1    2    0    0 -0.21031519081E+03  0.50839985216E+03  0.86969390299E+03  0.10326599019E+04  0.85534198008E+02 0.  0.
        254    2    1    2    0    0  0.21031519081E+03 -0.50839985216E+03 -0.50021089807E+03  0.11736403327E+04  0.90802962447E+03 0.  0.
         23    2    4    4    0    0 -0.28493608127E+03  0.50831274646E+02 -0.15861681426E+03  0.34743862264E+03  0.10854452470E+03 0.  0.
         23    2    4    4    0    0  0.49525127208E+03 -0.55923112681E+03 -0.34159408382E+03  0.82620171010E+03  0.88935212333E+02 0.  0.
          4    1    3    3  502    0 -0.79350826564E+02  0.15487063897E+03  0.34699664611E+03  0.38818570415E+03  0.00000000000E+00 0. -1.
         -3    1    3    3    0  502 -0.13096436424E+03  0.35352921319E+03  0.52269725688E+03  0.64447419780E+03  0.00000000000E+00 0.  1.
         11    1    5    5    0    0 -0.12591812685E+03  0.52485289758E+02 -0.22806272811E+02  0.13831198932E+03  0.00000000000E+00 0.  1.
        -11    1    5    5    0    0 -0.15901795442E+03 -0.16540151117E+01 -0.13581054144E+03  0.20912663331E+03  0.00000000000E+00 0. -1.
          1    1    6    6  503    0  0.38561085131E+03 -0.37531890211E+03 -0.24893026694E+03  0.59289652109E+03  0.00000000000E+00 0. -1.
         -1    1    6    6    0  503  0.10964042077E+03 -0.18391222470E+03 -0.92663816874E+02  0.23330518901E+03  0.00000000000E+00 0.  1.
<mgrwt>
<rscale>  0 0.21751421E+04</rscale>
<asrwt>0</asrwt>
<pdfrwt beam="1">  1        2 0.14129363E+00 0.21751421E+04</pdfrwt>
<pdfrwt beam="2">  1       -1 0.19813717E+00 0.21751421E+04</pdfrwt>
<totfact> 0.46153608E+00</totfact>
</mgrwt>
</event>
<event>
12    6  0.1705838E-008  0.1220696E+04  0.7818608E-02  0.9094932E-01
          2   -1    0    0  501    0  0.00000000000E+00  0.00000000000E+00  0.16877779494E+04  0.16877779494E+04  0.00000000000E+00 0. -1.
         -1   -1    0    0    0  501 -0.00000000000E+00 -0.00000000000E+00 -0.22071905886E+03  0.22071905886E+03  0.00000000000E+00 0.  1.
         24    2    1    2    0    0  0.14865698692E+03  0.17967469415E+03  0.12604071399E+03  0.27622679470E+03  0.77672936395E+02 0.  0.
        254    2    1    2    0    0 -0.14865698692E+03 -0.17967469415E+03  0.13410181765E+04  0.16322702136E+04  0.90088534496E+03 0.  0.
         23    2    4    4    0    0 -0.22767164340E+03  0.32606963316E+03  0.61835809929E+03  0.74271769842E+03  0.10539002662E+03 0.  0.
         23    2    4    4    0    0  0.79014656477E+02 -0.50574432732E+03  0.72266007725E+03  0.88955251513E+03  0.83937175205E+02 0.  0.
          2    1    3    3  502    0  0.88195273538E+02  0.11894690485E+03  0.11950360132E+03  0.19028369131E+03  0.00000000000E+00 0. -1.
         -1    1    3    3    0  502  0.60461713384E+02  0.60727789305E+02  0.65371126634E+01  0.85943103395E+02  0.00000000000E+00 0.  1.
         11    1    5    5    0    0  0.10303500439E+02  0.14446748820E+02  0.15471234645E+02  0.23542085171E+02  0.00000000000E+00 0. -1.
        -11    1    5    5    0    0 -0.23797514384E+03  0.31162288434E+03  0.60288686464E+03  0.71917561325E+03  0.00000000000E+00 0.  1.
          4    1    6    6  503    0  0.80486348868E+02 -0.50843380115E+03  0.72142145031E+03  0.88624595428E+03  0.00000000000E+00 0.  1.
         -4    1    6    6    0  503 -0.14716923909E+01  0.26894738333E+01  0.12386269343E+01  0.33065608532E+01  0.00000000000E+00 0. -1.
<mgrwt>
<rscale>  0 0.12206961E+04</rscale>
<asrwt>0</asrwt>
<pdfrwt beam="1">  1        2 0.25965814E+00 0.12206961E+04</pdfrwt>
<pdfrwt beam="2">  1       -1 0.33956779E-01 0.12206961E+04</pdfrwt>
<totfact> 0.91604378E+01</totfact>
</mgrwt>
</event>
<event>
11    6  0.1705838E-008  0.2213823E+04  0.7818608E-02  0.8512697E-01
         -1   -1    0    0    0  501 -0.00000000000E+00  0.00000000000E+00  0.13367456883E+04  0.13367456883E+04  0.00000000000E+00 0.  1.
          2   -1    0    0  501    0  0.00000000000E+00 -0.00000000000E+00 -0.91659375919E+03  0.91659375919E+03  0.00000000000E+00 0. -1.
         24    2    1    2    0    0 -0.36640243823E+03 -0.73971751826E+03  0.59609473819E+03  0.10217059134E+04  0.84387695011E+02 0.  0.
        254    2    1    2    0    0  0.36640243823E+03  0.73971751826E+03 -0.17594280908E+03  0.12316335341E+04  0.89695737725E+03 0.  0.
         23    2    4    4    0    0 -0.74801339228E+02  0.33811970907E+03 -0.43642511382E+03  0.56472944515E+03  0.92370386160E+02 0.  0.
          4    1    3    3  502    0 -0.83325125235E+02 -0.22172861029E+03  0.13473152400E+03  0.27250548008E+03  0.00000000000E+00 0. -1.
         -3    1    3    3    0  502 -0.28307731299E+03 -0.51798890797E+03  0.46136321418E+03  0.74920043334E+03  0.00000000000E+00 0.  1.
         11    1    4    4    0    0  0.37637267820E+03  0.34125956011E+03  0.27413855026E+03  0.57729232197E+03  0.00000000000E+00 0. -1.
        -11    1    4    4    0    0  0.64831099258E+02  0.60338249082E+02 -0.13656245520E+02  0.89611766945E+02  0.00000000000E+00 0.  1.
          4    1    5    5  503    0 -0.63442204367E+02  0.11191953382E+03 -0.12259431075E+03  0.17770835764E+03  0.00000000000E+00 0.  1.
         -4    1    5    5    0  503 -0.11359134860E+02  0.22620017524E+03 -0.31383080307E+03  0.38702108751E+03  0.00000000000E+00 0. -1.
<mgrwt>
<rscale>  0 0.22138227E+04</rscale>
<asrwt>0</asrwt>
<pdfrwt beam="1">  1        2 0.14101442E+00 0.22138227E+04</pdfrwt>
<pdfrwt beam="2">  1       -1 0.20565318E+00 0.22138227E+04</pdfrwt>
<totfact> 0.40954594E+00</totfact>
</mgrwt>
</event>
<event>
12    6  0.1705838E-008  0.1453902E+04  0.7818608E-02  0.8915700E-01
          2   -1    0    0  501    0  0.00000000000E+00  0.00000000000E+00  0.41518382917E+03  0.41518382917E+03  0.00000000000E+00 0. -1.
         -1   -1    0    0    0  501 -0.00000000000E+00 -0.00000000000E+00 -0.12728285525E+04  0.12728285525E+04  0.00000000000E+00 0.  1.
         24    2    1    2    0    0 -0.16396293438E+03 -0.17591529931E+03 -0.69111263458E+03  0.73599300330E+03  0.78860578523E+02 0.  0.
        254    2    1    2    0    0  0.16396293438E+03  0.17591529931E+03 -0.16653208872E+03  0.95201937835E+03  0.90596794855E+03 0.  0.
         23    2    4    4    0    0 -0.99119937890E+02  0.47449423665E+03 -0.21277331484E+03  0.54098896609E+03  0.11147661286E+03 0.  0.
         23    2    4    4    0    0  0.26308287227E+03 -0.29857893734E+03  0.46241226120E+02  0.41103041226E+03  0.91900866728E+02 0.  0.
          4    1    3    3  502    0 -0.12063043748E+03 -0.13775877899E+03 -0.41028777957E+03  0.44929416389E+03  0.00000000000E+00 0. -1.
         -3    1    3    3    0  502 -0.43332496905E+02 -0.38156520323E+02 -0.28082485500E+03  0.28669883941E+03  0.00000000000E+00 0.  1.
         11    1    5    5    0    0  0.23697724878E+01  0.25789017827E+03 -0.11956417758E+03  0.28426845134E+03  0.00000000000E+00 0. -1.
        -11    1    5    5    0    0 -0.10148971038E+03  0.21660405839E+03 -0.93209137259E+02  0.25672051474E+03  0.00000000000E+00 0.  1.
          1    1    6    6  503    0  0.60473664896E+01 -0.51578730255E+02  0.48619008930E+01  0.52159123233E+02  0.00000000000E+00 0. -1.
         -1    1    6    6    0  503  0.25703550578E+03 -0.24700020708E+03  0.41379325227E+02  0.35887128903E+03  0.00000000000E+00 0.  1.
<mgrwt>
<rscale>  0 0.14539021E+04</rscale>
<asrwt>0</asrwt>
<pdfrwt beam="1">  1        2 0.63874437E-01 0.14539021E+04</pdfrwt>
<pdfrwt beam="2">  1       -1 0.19581977E+00 0.14539021E+04</pdfrwt>
<totfact> 0.13601691E+01</totfact>
</mgrwt>
</event>
<event>
12    6  0.1705838E-008  0.1633538E+04  0.7818608E-02  0.8800205E-01
         -1   -1    0    0    0  501 -0.00000000000E+00  0.00000000000E+00  0.15153924344E+03  0.15153924344E+03  0.00000000000E+00 0.  1.
          2   -1    0    0  501    0  0.00000000000E+00 -0.00000000000E+00 -0.44022361476E+04  0.44022361476E+04  0.00000000000E+00 0. -1.
         24    2    1    2    0    0 -0.43578797828E+03  0.11462775917E+03 -0.24028698562E+04  0.24460684258E+04  0.80103138380E+02 0.  0.
        254    2    1    2    0    0  0.43578797828E+03 -0.11462775917E+03 -0.18478270480E+04  0.21077069653E+04  0.90824730493E+03 0.  0.
         23    2    4    4    0    0  0.28601252390E+03  0.83562767854E+02 -0.18114576851E+04  0.18391167759E+04  0.11038872431E+03 0.  0.
         23    2    4    4    0    0  0.14977545438E+03 -0.19819052702E+03 -0.36369362875E+02  0.26859018935E+03  0.95424250191E+02 0.  0.
          4    1    3    3  502    0 -0.31278674448E+03  0.67929436381E+02 -0.15094528108E+04  0.15430157951E+04  0.00000000000E+00 0. -1.
         -3    1    3    3    0  502 -0.12300123380E+03  0.46698322787E+02 -0.89341704543E+03  0.90305263076E+03  0.00000000000E+00 0.  1.
         11    1    5    5    0    0  0.16712216078E+03  0.51667561811E+02 -0.13590675973E+04  0.13702788357E+04  0.00000000000E+00 0.  1.
        -11    1    5    5    0    0  0.11889036312E+03  0.31895206043E+02 -0.45239008781E+03  0.46883794019E+03  0.00000000000E+00 0. -1.
          1    1    6    6  503    0  0.27092327119E+02 -0.78505904635E+01 -0.31226526759E+02  0.42079946920E+02  0.00000000000E+00 0. -1.
         -1    1    6    6    0  503  0.12268312726E+03 -0.19033993656E+03 -0.51428361166E+01  0.22651024243E+03  0.00000000000E+00 0.  1.
<mgrwt>
<rscale>  0 0.16335379E+04</rscale>
<asrwt>0</asrwt>
<pdfrwt beam="1">  1        2 0.67726706E+00 0.16335379E+04</pdfrwt>
<pdfrwt beam="2">  1       -1 0.23313731E-01 0.16335379E+04</pdfrwt>
<totfact> 0.26975810E+00</totfact>
</mgrwt>
</event>
<event>
12    6  0.1705838E-008  0.2540390E+04  0.7818608E-02  0.8388736E-01
          2   -1    0    0  501    0  0.00000000000E+00  0.00000000000E+00  0.15352029642E+04  0.15352029642E+04  0.00000000000E+00 0. -1.
         -1   -1    0    0    0  501 -0.00000000000E+00 -0.00000000000E+00 -0.10509333354E+04  0.10509333354E+04  0.00000000000E+00 0.  1.
         24    2    1    2    0    0  0.11781331972E+03  0.65195358295E+03 -0.67125596980E+03  0.94665532855E+03  0.81536994304E+02 0.  0.
        254    2    1    2    0    0 -0.11781331972E+03 -0.65195358295E+03  0.11555255986E+04  0.16394809711E+04  0.95589486503E+03 0.  0.
         23    2    4    4    0    0  0.23641979243E+03 -0.48809611970E+03  0.11092637811E+04  0.12362875046E+04  0.61713188972E+02 0.  0.
         23    2    4    4    0    0 -0.35423311215E+03 -0.16385746325E+03  0.46261817498E+02  0.40319346650E+03  0.89969159516E+02 0.  0.
          4    1    3    3  502    0  0.17817576798E+01  0.17748398987E+03 -0.15095918267E+03  0.23300733069E+03  0.00000000000E+00 0. -1.
         -3    1    3    3    0  502  0.11603156204E+03  0.47446959308E+03 -0.52029678713E+03  0.71364799786E+03  0.00000000000E+00 0.  1.
         11    1    5    5    0    0  0.10517311428E+03 -0.16289061539E+03  0.35555368731E+03  0.40498538382E+03  0.00000000000E+00 0. -1.
        -11    1    5    5    0    0  0.13124667815E+03 -0.32520550431E+03  0.75371009376E+03  0.83130212077E+03  0.00000000000E+00 0.  1.
          4    1    6    6  503    0 -0.11724428873E+03 -0.91670072212E+02  0.44891180772E+02  0.15545045349E+03  0.00000000000E+00 0. -1.
         -4    1    6    6    0  503 -0.23698882341E+03 -0.72187391038E+02  0.13706367264E+01  0.24774301300E+03  0.00000000000E+00 0.  1.
<mgrwt>
<rscale>  0 0.25403905E+04</rscale>
<asrwt>0</asrwt>
<pdfrwt beam="1">  1        2 0.23618507E+00 0.25403905E+04</pdfrwt>
<pdfrwt beam="2">  1       -1 0.16168205E+00 0.25403905E+04</pdfrwt>
<totfact> 0.34842249E+00</totfact>
</mgrwt>
</event>
<event>
12    6  0.1705838E-008  0.1755723E+04  0.7818608E-02  0.8730206E-01
          2   -1    0    0  501    0  0.00000000000E+00  0.00000000000E+00  0.15078660382E+04  0.15078660382E+04  0.00000000000E+00 0. -1.
         -1   -1    0    0    0  501 -0.00000000000E+00 -0.00000000000E+00 -0.51108032989E+03  0.51108032989E+03  0.00000000000E+00 0.  1.
         24    2    1    2    0    0  0.10508190512E+03  0.18105305293E+03  0.10669377402E+04  0.10900475429E+04  0.77621450559E+02 0.  0.
        254    2    1    2    0    0 -0.10508190512E+03 -0.18105305293E+03 -0.70152031899E+02  0.92889882517E+03  0.90228005911E+03 0.  0.
         23    2    4    4    0    0  0.30077466540E+03 -0.32451048154E+03 -0.15137036913E+03  0.48139461593E+03  0.11425994756E+03 0.  0.
         23    2    4    4    0    0 -0.40585657052E+03  0.14345742861E+03  0.81218337234E+02  0.44750420924E+03  0.91454957907E+02 0.  0.
          2    1    3    3  502    0  0.94966754869E+02  0.11113727414E+03  0.83102519903E+03  0.84378496055E+03  0.00000000000E+00 0. -1.
         -1    1    3    3    0  502  0.10115150251E+02  0.69915778789E+02  0.23591254115E+03  0.24626258234E+03  0.00000000000E+00 0.  1.
         11    1    5    5    0    0  0.22347931762E+03 -0.24184064346E+03 -0.57316154391E+02  0.33423800470E+03  0.00000000000E+00 0. -1.
        -11    1    5    5    0    0  0.77295347787E+02 -0.82669838079E+02 -0.94054214742E+02  0.14715661123E+03  0.00000000000E+00 0.  1.
          3    1    6    6  503    0 -0.14518163585E+03  0.84437927971E+02 -0.72379997186E+00  0.16795235918E+03  0.00000000000E+00 0. -1.
         -3    1    6    6    0  503 -0.26067493467E+03  0.59019500641E+02  0.81942137206E+02  0.27955185006E+03  0.00000000000E+00 0.  1.
<mgrwt>
<rscale>  0 0.17557228E+04</rscale>
<asrwt>0</asrwt>
<pdfrwt beam="1">  1        2 0.23197939E+00 0.17557228E+04</pdfrwt>
<pdfrwt beam="2">  1       -1 0.78627744E-01 0.17557228E+04</pdfrwt>
<totfact> 0.21951370E+01</totfact>
</mgrwt>
</event>
<event>
12    6  0.1705838E-008  0.1688861E+04  0.7818608E-02  0.8767743E-01
          2   -1    0    0  501    0  0.00000000000E+00  0.00000000000E+00  0.85871390415E+03  0.85871390415E+03  0.00000000000E+00 0. -1.
         -1   -1    0    0    0  501 -0.00000000000E+00 -0.00000000000E+00 -0.83038461854E+03  0.83038461854E+03  0.00000000000E+00 0.  1.
         24    2    1    2    0    0 -0.48196948058E+03 -0.20898175120E+03  0.28934258567E+03  0.60525449015E+03  0.81522471855E+02 0.  0.
        254    2    1    2    0    0  0.48196948058E+03  0.20898175120E+03 -0.26101330006E+03  0.10838440325E+04  0.91138465618E+03 0.  0.
         23    2    4    4    0    0 -0.69717143214E+02  0.53433362341E+02 -0.44839197338E+03  0.47409404481E+03  0.12646816699E+03 0.  0.
         23    2    4    4    0    0  0.55168662379E+03  0.15554838885E+03  0.18737867332E+03  0.60974998773E+03  0.90171215893E+02 0.  0.
          2    1    3    3  502    0 -0.44488966689E+03 -0.21248592998E+03  0.27944996515E+03  0.56671806850E+03  0.00000000000E+00 0. -1.
         -1    1    3    3    0  502 -0.37079813692E+02  0.35041787853E+01  0.98926205144E+01  0.38536421642E+02  0.00000000000E+00 0.  1.
         11    1    5    5    0    0 -0.91677206724E+02  0.78445114238E+02 -0.35570595553E+03  0.37561292973E+03  0.00000000000E+00 0. -1.
        -11    1    5    5    0    0  0.21960063511E+02 -0.25011751897E+02 -0.92686017854E+02  0.98481115083E+02  0.00000000000E+00 0.  1.
          3    1    6    6  503    0  0.30619429533E+03  0.69215096292E+02  0.58384388461E+02  0.31930301105E+03  0.00000000000E+00 0. -1.
         -3    1    6    6    0  503  0.24549232846E+03  0.86333292562E+02  0.12899428486E+03  0.29044697668E+03  0.00000000000E+00 0.  1.
<mgrwt>
<rscale>  0 0.16888609E+04</rscale>
<asrwt>0</asrwt>
<pdfrwt beam="1">  1        2 0.13210983E+00 0.16888609E+04</pdfrwt>
<pdfrwt beam="2">  1       -1 0.12775148E+00 0.16888609E+04</pdfrwt>
<totfact> 0.18033221E+01</totfact>
</mgrwt>
</event>
<event>
11    6  0.1705838E-008  0.1399118E+04  0.7818608E-02  0.8954458E-01
         -1   -1    0    0    0  501 -0.00000000000E+00  0.00000000000E+00  0.27960436023E+03  0.27960436023E+03  0.00000000000E+00 0.  1.
          2   -1    0    0  501    0  0.00000000000E+00 -0.00000000000E+00 -0.17502677512E+04  0.17502677512E+04  0.00000000000E+00 0. -1.
         24    2    1    2    0    0  0.54700283269E+02  0.19738387755E+03  0.71281891886E+02  0.23127315817E+03  0.80334609440E+02 0.  0.
        254    2    1    2    0    0 -0.54700283269E+02 -0.19738387755E+03 -0.15419452829E+04  0.17985989533E+04  0.90300078805E+03 0.  0.
         23    2    4    4    0    0 -0.66337145284E+02 -0.16709065188E+03 -0.14765506144E+04  0.14900654073E+04  0.88166310042E+02 0.  0.
          2    1    3    3  502    0 -0.17817798272E+02  0.15963392201E+02  0.21235493136E+01  0.24016937513E+02  0.00000000000E+00 0. -1.
         -1    1    3    3    0  502  0.72518081541E+02  0.18142048535E+03  0.69158342573E+02  0.20725622066E+03  0.00000000000E+00 0.  1.
         11    1    4    4    0    0  0.14170959159E+03  0.46667654517E+02 -0.46192113294E+02  0.15618319262E+03  0.00000000000E+00 0.  1.
        -11    1    4    4    0    0 -0.13007272958E+03 -0.76960880184E+02 -0.19202555197E+02  0.15235035341E+03  0.00000000000E+00 0. -1.
          4    1    5    5  503    0  0.19367392450E+02 -0.11825766269E+02 -0.18931537787E+03  0.19067054554E+03  0.00000000000E+00 0. -1.
         -4    1    5    5    0  503 -0.85704537734E+02 -0.15526488561E+03 -0.12872352365E+04  0.12993948617E+04  0.00000000000E+00 0.  1.
<mgrwt>
<rscale>  0 0.13991176E+04</rscale>
<asrwt>0</asrwt>
<pdfrwt beam="1">  1        2 0.26927196E+00 0.13991176E+04</pdfrwt>
<pdfrwt beam="2">  1       -1 0.43016056E-01 0.13991176E+04</pdfrwt>
<totfact> 0.54314776E+01</totfact>
</mgrwt>
</event>
<event>
11    6  0.1705838E-008  0.3436207E+04  0.7818608E-02  0.8129077E-01
         -1   -1    0    0    0  501 -0.00000000000E+00  0.00000000000E+00  0.17274955333E+04  0.17274955333E+04  0.00000000000E+00 0.  1.
          2   -1    0    0  501    0  0.00000000000E+00 -0.00000000000E+00 -0.17087624764E+04  0.17087624764E+04  0.00000000000E+00 0. -1.
         24    2    1    2    0    0 -0.93933594802E+03  0.95903173652E+03  0.87517487243E+03  0.16045223773E+04  0.80418325420E+02 0.  0.
        254    2    1    2    0    0  0.93933594802E+03 -0.95903173652E+03 -0.85644181557E+03  0.18317356324E+04  0.90535570274E+03 0.  0.
         23    2    4    4    0    0  0.70092528253E+03 -0.89730413153E+03 -0.89889644023E+03  0.14535845167E+04  0.91881340637E+02 0.  0.
          4    1    3    3  502    0 -0.52601689701E+03  0.51854116212E+03  0.52647542099E+03  0.90705847753E+03  0.00000000000E+00 0. -1.
         -3    1    3    3    0  502 -0.41331905101E+03  0.44049057440E+03  0.34869945144E+03  0.69746389978E+03  0.00000000000E+00 0.  1.
         11    1    4    4    0    0  0.21272480775E+03 -0.16140437341E+03  0.58230612899E+00  0.26702725454E+03  0.00000000000E+00 0. -1.
        -11    1    4    4    0    0  0.25685857736E+02  0.99676768423E+02  0.41872318529E+02  0.11112386112E+03  0.00000000000E+00 0.  1.
          3    1    5    5  503    0  0.45134837013E+01 -0.10482062431E+02  0.22046375388E+00  0.11414629744E+02  0.00000000000E+00 0. -1.
         -3    1    5    5    0  503  0.69641179883E+03 -0.88682206910E+03 -0.89911690399E+03  0.14421698870E+04  0.00000000000E+00 0.  1.
<mgrwt>
<rscale>  0 0.34362069E+04</rscale>
<asrwt>0</asrwt>
<pdfrwt beam="1">  1        2 0.26288653E+00 0.34362069E+04</pdfrwt>
<pdfrwt beam="2">  1       -1 0.26576855E+00 0.34362069E+04</pdfrwt>
<totfact> 0.50176382E-01</totfact>
</mgrwt>
</event>
<event>
12    6  0.1705838E-008  0.2713170E+04  0.7818608E-02  0.8330745E-01
         -1   -1    0    0    0  501 -0.00000000000E+00  0.00000000000E+00  0.12206076201E+04  0.12206076201E+04  0.00000000000E+00 0.  1.
          2   -1    0    0  501    0  0.00000000000E+00 -0.00000000000E+00 -0.15077100381E+04  0.15077100381E+04  0.00000000000E+00 0. -1.
         24    2    1    2    0    0  0.40839643472E+03  0.29678765461E+03 -0.12262033285E+04  0.13284893240E+04  0.80241642782E+02 0.  0.
        254    2    1    2    0    0 -0.40839643472E+03 -0.29678765461E+03  0.93910091056E+03  0.13998283342E+04  0.90704921870E+03 0.  0.
         23    2    4    4    0    0  0.19451132610E+03 -0.43194672940E+02 -0.20222490709E+02  0.23555666923E+03  0.12400628830E+03 0.  0.
         23    2    4    4    0    0 -0.60290776082E+03 -0.25359298167E+03  0.95932340127E+03  0.11642716650E+04  0.86139150130E+02 0.  0.
          4    1    3    3  502    0  0.29448595223E+03  0.16717253538E+03 -0.81157901079E+03  0.87939133689E+03  0.00000000000E+00 0. -1.
         -3    1    3    3    0  502  0.11391048250E+03  0.12961511923E+03 -0.41462431776E+03  0.44909798712E+03  0.00000000000E+00 0.  1.
         11    1    5    5    0    0  0.15308470459E+03 -0.78912129341E+01 -0.63598751896E+02  0.16595782375E+03  0.00000000000E+00 0.  1.
        -11    1    5    5    0    0  0.41426621508E+02 -0.35303460006E+02  0.43376261187E+02  0.69598845483E+02  0.00000000000E+00 0. -1.
          2    1    6    6  503    0 -0.59295079688E+03 -0.25264894123E+03  0.95731795775E+03  0.11540709715E+04  0.00000000000E+00 0.  1.
         -2    1    6    6    0  503 -0.99569639367E+01 -0.94404044081E+00  0.20054435146E+01  0.10200693451E+02  0.00000000000E+00 0. -1.
<mgrwt>
<rscale>  0 0.27131696E+04</rscale>
<asrwt>0</asrwt>
<pdfrwt beam="1">  1        2 0.23195539E+00 0.27131696E+04</pdfrwt>
<pdfrwt beam="2">  1       -1 0.18778579E+00 0.27131696E+04</pdfrwt>
<totfact> 0.22972828E+00</totfact>
</mgrwt>
</event>
<event>
11    6  0.1705838E-008  0.2086087E+04  0.7818608E-02  0.8567397E-01
         -1   -1    0    0    0  501 -0.00000000000E+00  0.00000000000E+00  0.57708605964E+03  0.57708605964E+03  0.00000000000E+00 0.  1.
          2   -1    0    0  501    0  0.00000000000E+00 -0.00000000000E+00 -0.18852300508E+04  0.18852300508E+04  0.00000000000E+00 0. -1.
         24    2    1    2    0    0  0.82489555083E+03 -0.37765925403E+02 -0.40003241588E+03  0.92101957510E+03  0.79825992454E+02 0.  0.
        254    2    1    2    0    0 -0.82489555083E+03  0.37765925403E+02 -0.90811157524E+03  0.15412965353E+04  0.93222821335E+03 0.  0.
         23    2    4    4    0    0 -0.18639933219E+03 -0.34765914505E+03 -0.59895643126E+03  0.72291704685E+03  0.90822122262E+02 0.  0.
          4    1    3    3  502    0  0.25240706392E+03  0.20637590524E+02 -0.14217568136E+03  0.29042926924E+03  0.00000000000E+00 0. -1.
         -3    1    3    3    0  502  0.57248848691E+03 -0.58403515928E+02 -0.25785673452E+03  0.63059030586E+03  0.00000000000E+00 0.  1.
         11    1    4    4    0    0 -0.44838329824E+03  0.33558076328E+03 -0.20889329630E+03  0.59774446050E+03  0.00000000000E+00 0.  1.
        -11    1    4    4    0    0 -0.19011292040E+03  0.49844307179E+02 -0.10026184767E+03  0.22063502795E+03  0.00000000000E+00 0. -1.
          3    1    5    5  503    0 -0.40137929069E+02 -0.80133099373E+02 -0.75723721904E+02  0.11733051191E+03  0.00000000000E+00 0. -1.
         -3    1    5    5    0  503 -0.14626140312E+03 -0.26752604568E+03 -0.52323270936E+03  0.60558653494E+03  0.00000000000E+00 0.  1.
<mgrwt>
<rscale>  0 0.20860872E+04</rscale>
<asrwt>0</asrwt>
<pdfrwt beam="1">  1        2 0.29003540E+00 0.20860872E+04</pdfrwt>
<pdfrwt beam="2">  1       -1 0.88782469E-01 0.20860872E+04</pdfrwt>
<totfact> 0.10117565E+01</totfact>
</mgrwt>
</event>
<event>
11    6  0.1705838E-008  0.1534852E+04  0.7818608E-02  0.8861602E-01
          2   -1    0    0  501    0  0.00000000000E+00  0.00000000000E+00  0.23941046562E+04  0.23941046562E+04  0.00000000000E+00 0. -1.
         -1   -1    0    0    0  501 -0.00000000000E+00 -0.00000000000E+00 -0.24599717455E+03  0.24599717455E+03  0.00000000000E+00 0.  1.
         24    2    1    2    0    0  0.40123870887E+03  0.22637218273E+03  0.38070997386E+03  0.60308333186E+03  0.80824218928E+02 0.  0.
        254    2    1    2    0    0 -0.40123870887E+03 -0.22637218273E+03  0.17673975078E+04  0.20370184989E+04  0.90194985872E+03 0.  0.
         23    2    4    4    0    0 -0.38161058248E+03 -0.30591372306E+03  0.17723699248E+04  0.18410200719E+04  0.94073971184E+02 0.  0.
          2    1    3    3  502    0  0.63980357243E+02  0.67941365879E+01  0.39774264087E+02  0.75641512998E+02  0.00000000000E+00 0. -1.
         -1    1    3    3    0  502  0.33725835162E+03  0.21957804614E+03  0.34093570978E+03  0.52744181886E+03  0.00000000000E+00 0.  1.
         11    1    4    4    0    0 -0.42065596762E+02 -0.27927822713E+02 -0.55595864368E+02  0.75102449009E+02  0.00000000000E+00 0.  1.
        -11    1    4    4    0    0  0.22437470371E+02  0.10746936304E+03  0.50623447301E+02  0.12089597796E+03  0.00000000000E+00 0. -1.
          2    1    5    5  503    0 -0.24721820868E+03 -0.22421271466E+03  0.13398550282E+04  0.13807967557E+04  0.00000000000E+00 0. -1.
         -2    1    5    5    0  503 -0.13439237380E+03 -0.81701008398E+02  0.43251489667E+03  0.46022331617E+03  0.00000000000E+00 0.  1.
<mgrwt>
<rscale>  0 0.15348524E+04</rscale>
<asrwt>0</asrwt>
<pdfrwt beam="1">  1        2 0.36832378E+00 0.15348524E+04</pdfrwt>
<pdfrwt beam="2">  1       -1 0.37845721E-01 0.15348524E+04</pdfrwt>
<totfact> 0.29685701E+01</totfact>
</mgrwt>
</event>
<event>
11    6  0.1705838E-008  0.2023329E+04  0.7818608E-02  0.8595791E-01
         -1   -1    0    0    0  501 -0.00000000000E+00  0.00000000000E+00  0.82376023134E+03  0.82376023134E+03  0.00000000000E+00 0.  1.
          2   -1    0    0  501    0  0.00000000000E+00 -0.00000000000E+00 -0.12424307330E+04  0.12424307330E+04  0.00000000000E+00 0. -1.
         24    2    1    2    0    0  0.13257299257E+03 -0.26943369572E+03 -0.90550538729E+03  0.95738732897E+03  0.80500785797E+02 0.  0.
        254    2    1    2    0    0 -0.13257299257E+03  0.26943369572E+03  0.48683488564E+03  0.11088036354E+04  0.94987745587E+03 0.  0.
         23    2    4    4    0    0  0.13634319357E+03 -0.25884937265E+03  0.38255784619E+03  0.49078407684E+03  0.94477723538E+02 0.  0.
          4    1    3    3  502    0  0.10687382725E+03 -0.26094972251E+03 -0.79207824847E+03  0.84077626295E+03  0.00000000000E+00 0. -1.
         -3    1    3    3    0  502  0.25699165313E+02 -0.84839732137E+01 -0.11342713881E+03  0.11661106602E+03  0.00000000000E+00 0.  1.
         11    1    4    4    0    0 -0.40070493039E+00 -0.86867748596E+01  0.28279870588E+01  0.91442950908E+01  0.00000000000E+00 0.  1.
        -11    1    4    4    0    0 -0.26851548120E+03  0.53696984323E+03  0.10144905239E+03  0.60887526343E+03  0.00000000000E+00 0. -1.
          2    1    5    5  503    0  0.40318381872E+02 -0.13109139850E+03  0.11434481624E+03  0.17856445244E+03  0.00000000000E+00 0.  1.
         -2    1    5    5    0  503  0.96024811693E+02 -0.12775797415E+03  0.26821302996E+03  0.31221962440E+03  0.00000000000E+00 0. -1.
<mgrwt>
<rscale>  0 0.20233290E+04</rscale>
<asrwt>0</asrwt>
<pdfrwt beam="1">  1        2 0.19114319E+00 0.20233290E+04</pdfrwt>
<pdfrwt beam="2">  1       -1 0.12673234E+00 0.20233290E+04</pdfrwt>
<totfact> 0.10216085E+01</totfact>
</mgrwt>
</event>
<event>
12    6  0.1705838E-008  0.1442924E+04  0.7818608E-02  0.8923321E-01
          2   -1    0    0  501    0  0.00000000000E+00  0.00000000000E+00  0.12616302584E+04  0.12616302584E+04  0.00000000000E+00 0. -1.
         -1   -1    0    0    0  501 -0.00000000000E+00 -0.00000000000E+00 -0.41256751434E+03  0.41256751434E+03  0.00000000000E+00 0.  1.
         24    2    1    2    0    0 -0.38566458727E+03  0.19807894713E+03  0.30711661721E+03  0.53737766860E+03  0.80508999265E+02 0.  0.
        254    2    1    2    0    0  0.38566458727E+03 -0.19807894713E+03  0.54194612683E+03  0.11368201041E+04  0.90037875451E+03 0.  0.
         23    2    4    4    0    0  0.66441851482E+03 -0.66677149959E+02  0.42671746428E+03  0.79579823109E+03  0.72864429771E+02 0.  0.
         23    2    4    4    0    0 -0.27875392755E+03 -0.13140179717E+03  0.11522866256E+03  0.34102187303E+03  0.89711140806E+02 0.  0.
          2    1    3    3  502    0 -0.27702283751E+03  0.15503143754E+03  0.26377683721E+03  0.41274037721E+03  0.00000000000E+00 0. -1.
         -1    1    3    3    0  502 -0.10864174977E+03  0.43047509587E+02  0.43339780000E+02  0.12463729139E+03  0.00000000000E+00 0.  1.
         11    1    5    5    0    0  0.11647695839E+03 -0.22966803545E+02  0.10744451704E+03  0.16012082982E+03  0.00000000000E+00 0. -1.
        -11    1    5    5    0    0  0.54794155643E+03 -0.43710346414E+02  0.31927294724E+03  0.63567740127E+03  0.00000000000E+00 0.  1.
          1    1    6    6  503    0 -0.84586615230E+02 -0.20740596250E+02  0.72866819424E+02  0.11355457358E+03  0.00000000000E+00 0. -1.
         -1    1    6    6    0  503 -0.19416731232E+03 -0.11066120092E+03  0.42361843132E+02  0.22746729944E+03  0.00000000000E+00 0.  1.
<mgrwt>
<rscale>  0 0.14429243E+04</rscale>
<asrwt>0</asrwt>
<pdfrwt beam="1">  1        2 0.19409696E+00 0.14429243E+04</pdfrwt>
<pdfrwt beam="2">  1       -1 0.63471926E-01 0.14429243E+04</pdfrwt>
<totfact> 0.48483854E+01</totfact>
</mgrwt>
</event>
<event>
12    6  0.1705838E-008  0.1141969E+04  0.7818608E-02  0.9165224E-01
          2   -1    0    0  501    0  0.00000000000E+00  0.00000000000E+00  0.48535617106E+03  0.48535617106E+03  0.00000000000E+00 0. -1.
         -1   -1    0    0    0  501 -0.00000000000E+00 -0.00000000000E+00 -0.67171991094E+03  0.67171991094E+03  0.00000000000E+00 0.  1.
         24    2    1    2    0    0 -0.11637830615E+03  0.13173849759E+03  0.44605298908E+02  0.20760704850E+03  0.10105499495E+03 0.  0.
        254    2    1    2    0    0  0.11637830615E+03 -0.13173849759E+03 -0.23096903879E+03  0.94946903350E+03  0.90401648592E+03 0.  0.
         23    2    4    4    0    0 -0.20774471005E+03 -0.38215086128E+03  0.42256290587E+02  0.44983355126E+03  0.10661840562E+03 0.  0.
         23    2    4    4    0    0  0.32412301620E+03  0.25041236369E+03 -0.27322532938E+03  0.49963548224E+03  0.84979132636E+02 0.  0.
          2    1    3    3  502    0  0.24138822491E+01  0.32755239831E+02  0.41533149800E+02  0.52950307801E+02  0.00000000000E+00 0. -1.
         -1    1    3    3    0  502 -0.11879218840E+03  0.98983257764E+02  0.30721491078E+01  0.15465674069E+03  0.00000000000E+00 0.  1.
         11    1    5    5    0    0 -0.13052092054E+03 -0.13418108799E+03  0.33585032192E+01  0.18722060414E+03  0.00000000000E+00 0. -1.
        -11    1    5    5    0    0 -0.77223789509E+02 -0.24796977329E+03  0.38897787367E+02  0.26261294712E+03  0.00000000000E+00 0.  1.
          1    1    6    6  503    0  0.22950072902E+03  0.21002455720E+03 -0.23501222388E+03  0.38988670742E+03  0.00000000000E+00 0.  1.
         -1    1    6    6    0  503  0.94622287172E+02  0.40387806485E+02 -0.38213105497E+02  0.10974877482E+03  0.00000000000E+00 0. -1.
<mgrwt>
<rscale>  0 0.11419692E+04</rscale>
<asrwt>0</asrwt>
<pdfrwt beam="1">  1        2 0.74670180E-01 0.11419692E+04</pdfrwt>
<pdfrwt beam="2">  1       -1 0.10334153E+00 0.11419692E+04</pdfrwt>
<totfact> 0.63827456E+01</totfact>
</mgrwt>
</event>
<event>
11    6  0.1705838E-008  0.1769168E+04  0.7818608E-02  0.8722869E-01
         -1   -1    0    0    0  501 -0.00000000000E+00  0.00000000000E+00  0.53503248071E+03  0.53503248071E+03  0.00000000000E+00 0.  1.
          2   -1    0    0  501    0  0.00000000000E+00 -0.00000000000E+00 -0.14625075681E+04  0.14625075681E+04  0.00000000000E+00 0. -1.
         24    2    1    2    0    0  0.13784012583E+02  0.42868822982E+03  0.20909890397E+03  0.48400038169E+03  0.81058130085E+02 0.  0.
        254    2    1    2    0    0 -0.13784012583E+02 -0.42868822982E+03 -0.11365739913E+04  0.15135396671E+04  0.90279471018E+03 0.  0.
         23    2    4    4    0    0 -0.36266628811E+03 -0.40567777902E+03 -0.84269485430E+03  0.10079842213E+04  0.98976138604E+02 0.  0.
          2    1    3    3  502    0 -0.79509114408E+01  0.14839627644E+03  0.32878154394E+02  0.15220264416E+03  0.00000000000E+00 0. -1.
         -3    1    3    3    0  502  0.21734924024E+02  0.28029195338E+03  0.17622074957E+03  0.33179773753E+03  0.00000000000E+00 0.  1.
         11    1    4    4    0    0  0.71016093326E+02 -0.33376577908E+02  0.25109429893E+02  0.82387893125E+02  0.00000000000E+00 0.  1.
        -11    1    4    4    0    0  0.27786618220E+03  0.10366127107E+02 -0.31898856693E+03  0.42316755267E+03  0.00000000000E+00 0. -1.
          2    1    5    5  503    0 -0.43366637849E+02 -0.98530580432E+02 -0.20407283180E+03  0.23072637742E+03  0.00000000000E+00 0.  1.
         -2    1    5    5    0  503 -0.31929965026E+03 -0.30714719858E+03 -0.63862202250E+03  0.77725784388E+03  0.00000000000E+00 0. -1.
<mgrwt>
<rscale>  0 0.17691682E+04</rscale>
<asrwt>0</asrwt>
<pdfrwt beam="1">  1        2 0.22500116E+00 0.17691682E+04</pdfrwt>
<pdfrwt beam="2">  1       -1 0.82312691E-01 0.17691682E+04</pdfrwt>
<totfact> 0.21097515E+01</totfact>
</mgrwt>
</event>
<event>
12    6  0.1705838E-008  0.1886138E+04  0.7818608E-02  0.8661787E-01
          2   -1    0    0  501    0  0.00000000000E+00  0.00000000000E+00  0.63154200267E+03  0.63154200267E+03  0.00000000000E+00 0. -1.
         -1   -1    0    0    0  501 -0.00000000000E+00 -0.00000000000E+00 -0.14082665893E+04  0.14082665893E+04  0.00000000000E+00 0.  1.
         24    2    1    2    0    0 -0.46286428552E+03 -0.55027536532E+03 -0.24461678839E+03  0.76392975825E+03  0.81883929409E+02 0.  0.
        254    2    1    2    0    0  0.46286428552E+03  0.55027536532E+03 -0.53210779826E+03  0.12758788337E+04  0.90977017150E+03 0.  0.
         23    2    4    4    0    0 -0.14069089661E+03  0.51442086078E+03 -0.21834862100E+03  0.58843855174E+03  0.11900024572E+03 0.  0.
         23    2    4    4    0    0  0.60355518213E+03  0.35854504539E+02 -0.31375917726E+03  0.68744028201E+03  0.92546834875E+02 0.  0.
          4    1    3    3  502    0 -0.22803918282E+03 -0.21675954389E+03 -0.84825536005E+02  0.32585570476E+03  0.00000000000E+00 0. -1.
         -3    1    3    3    0  502 -0.23482510270E+03 -0.33351582143E+03 -0.15979125239E+03  0.43807405349E+03  0.00000000000E+00 0.  1.
         11    1    5    5    0    0 -0.30683289632E+02  0.55293254558E+02  0.99513969846E+01  0.64014362171E+02  0.00000000000E+00 0.  1.
        -11    1    5    5    0    0 -0.11000760698E+03  0.45912760622E+03 -0.22830001798E+03  0.52442418956E+03  0.00000000000E+00 0. -1.
          3    1    6    6  503    0  0.55204669491E+03  0.49929611958E+02 -0.30694118916E+03  0.63360982719E+03  0.00000000000E+00 0. -1.
         -3    1    6    6    0  503  0.51508487222E+02 -0.14075107419E+02 -0.68179881066E+01  0.53830454824E+02  0.00000000000E+00 0.  1.
<mgrwt>
<rscale>  0 0.18861384E+04</rscale>
<asrwt>0</asrwt>
<pdfrwt beam="1">  1        2 0.97160310E-01 0.18861384E+04</pdfrwt>
<pdfrwt beam="2">  1       -1 0.21665639E+00 0.18861384E+04</pdfrwt>
<totfact> 0.57805523E+00</totfact>
</mgrwt>
</event>
<event>
12    6  0.1705838E-008  0.2061730E+04  0.7818608E-02  0.8578291E-01
         -1   -1    0    0    0  501 -0.00000000000E+00  0.00000000000E+00  0.20960327941E+04  0.20960327941E+04  0.00000000000E+00 0.  1.
          2   -1    0    0  501    0  0.00000000000E+00 -0.00000000000E+00 -0.50699721882E+03  0.50699721882E+03  0.00000000000E+00 0. -1.
         24    2    1    2    0    0  0.89731916495E+02 -0.18639720553E+03 -0.36749731302E+03  0.42917331856E+03  0.79622404041E+02 0.  0.
        254    2    1    2    0    0 -0.89731916495E+02  0.18639720553E+03  0.19565328883E+04  0.21738566944E+04  0.92457355010E+03 0.  0.
         23    2    4    4    0    0 -0.77180468848E+02  0.50304204823E+03  0.68198515899E+03  0.85737437757E+03  0.10478043317E+03 0.  0.
         23    2    4    4    0    0 -0.12551447647E+02 -0.31664484270E+03  0.12745477293E+04  0.13164823168E+04  0.90731917611E+02 0.  0.
          4    1    3    3  502    0 -0.54063068591E+01 -0.65484702484E+02 -0.13843331275E+03  0.15323595039E+03  0.00000000000E+00 0. -1.
         -3    1    3    3    0  502  0.95138223354E+02 -0.12091250305E+03 -0.22906400026E+03  0.27593736817E+03  0.00000000000E+00 0.  1.
         11    1    5    5    0    0 -0.81061607015E+02  0.39558846936E+03  0.59492024078E+03  0.71902108044E+03  0.00000000000E+00 0.  1.
        -11    1    5    5    0    0  0.38811381671E+01  0.10745357887E+03  0.87064918208E+02  0.13835329713E+03  0.00000000000E+00 0. -1.
          1    1    6    6  503    0 -0.73446768063E+01 -0.66594886925E+02  0.44616232030E+03  0.45116475849E+03  0.00000000000E+00 0. -1.
         -1    1    6    6    0  503 -0.52067708409E+01 -0.25004995578E+03  0.82838540903E+03  0.86531755832E+03  0.00000000000E+00 0.  1.
<mgrwt>
<rscale>  0 0.20617301E+04</rscale>
<asrwt>0</asrwt>
<pdfrwt beam="1">  1        2 0.77999573E-01 0.20617301E+04</pdfrwt>
<pdfrwt beam="2">  1       -1 0.32246658E+00 0.20617301E+04</pdfrwt>
<totfact> 0.15102206E+00</totfact>
</mgrwt>
</event>
<event>
11    6  0.1705838E-008  0.2002625E+04  0.7818608E-02  0.8605394E-01
         -1   -1    0    0    0  501 -0.00000000000E+00  0.00000000000E+00  0.57282111816E+03  0.57282111816E+03  0.00000000000E+00 0.  1.
          2   -1    0    0  501    0  0.00000000000E+00 -0.00000000000E+00 -0.17503319685E+04  0.17503319685E+04  0.00000000000E+00 0. -1.
         24    2    1    2    0    0  0.99831656300E+02 -0.71343229557E+03 -0.86111191919E+03  0.11256287470E+04  0.81082295467E+02 0.  0.
        254    2    1    2    0    0 -0.99831656300E+02  0.71343229557E+03 -0.31639893113E+03  0.11975243397E+04  0.90277586396E+03 0.  0.
         23    2    4    4    0    0  0.22335195105E+03 -0.88751010920E+02 -0.17487854226E+03  0.31119287691E+03  0.92171937821E+02 0.  0.
          4    1    3    3  502    0  0.49767836445E+02 -0.19493286872E+03 -0.28603821486E+03  0.34970490590E+03  0.00000000000E+00 0. -1.
         -3    1    3    3    0  502  0.50063819855E+02 -0.51849942685E+03 -0.57507370434E+03  0.77592384106E+03  0.00000000000E+00 0.  1.
         11    1    4    4    0    0  0.19977717911E+01 -0.38337118458E+01  0.29929820823E+01  0.52579825400E+01  0.00000000000E+00 0.  1.
        -11    1    4    4    0    0 -0.32518137914E+03  0.80601701833E+03 -0.14451337095E+03  0.88107348023E+03  0.00000000000E+00 0. -1.
          2    1    5    5  503    0  0.10661308347E+02 -0.36197072358E+02 -0.33418894748E+02  0.50405496418E+02  0.00000000000E+00 0. -1.
         -2    1    5    5    0  503  0.21269064270E+03 -0.52553938562E+02 -0.14145964752E+03  0.26078738050E+03  0.00000000000E+00 0.  1.
<mgrwt>
<rscale>  0 0.20026254E+04</rscale>
<asrwt>0</asrwt>
<pdfrwt beam="1">  1        2 0.26928184E+00 0.20026254E+04</pdfrwt>
<pdfrwt beam="2">  1       -1 0.88126326E-01 0.20026254E+04</pdfrwt>
<totfact> 0.12306040E+01</totfact>
</mgrwt>
</event>
<event>
11    6  0.1705838E-008  0.1248523E+04  0.7818608E-02  0.9071414E-01
          2   -1    0    0  501    0  0.00000000000E+00  0.00000000000E+00  0.10770742276E+04  0.10770742276E+04  0.00000000000E+00 0. -1.
         -1   -1    0    0    0  501 -0.00000000000E+00 -0.00000000000E+00 -0.36181565841E+03  0.36181565841E+03  0.00000000000E+00 0.  1.
         24    2    1    2    0    0  0.16500250779E+03  0.21431105981E+03  0.32304878524E+03  0.42858757566E+03  0.78560387168E+02 0.  0.
        254    2    1    2    0    0 -0.16500250779E+03 -0.21431105981E+03  0.39220978398E+03  0.10103023104E+04  0.89091368033E+03 0.  0.
         23    2    4    4    0    0  0.50337359200E+02 -0.43520629933E+03  0.18695892889E+03  0.48548829314E+03  0.93844919836E+02 0.  0.
          4    1    3    3  502    0  0.39168001912E+02  0.80763909360E+01  0.49158281067E+02  0.63371105891E+02  0.00000000000E+00 0. -1.
         -3    1    3    3    0  502  0.12583450587E+03  0.20623466888E+03  0.27389050417E+03  0.36521646977E+03  0.00000000000E+00 0.  1.
         11    1    4    4    0    0 -0.68509902168E+02  0.42728233977E+02 -0.10851668194E+03  0.13525967223E+03  0.00000000000E+00 0. -1.
        -11    1    4    4    0    0 -0.14682996482E+03  0.17816700554E+03  0.31376753703E+03  0.38955434502E+03  0.00000000000E+00 0.  1.
          1    1    5    5  503    0  0.14225631501E+02 -0.68656688008E+02  0.69910793209E+02  0.99013273893E+02  0.00000000000E+00 0. -1.
         -1    1    5    5    0  503  0.36111727699E+02 -0.36654961132E+03  0.11704813568E+03  0.38647501925E+03  0.00000000000E+00 0.  1.
<mgrwt>
<rscale>  0 0.12485228E+04</rscale>
<asrwt>0</asrwt>
<pdfrwt beam="1">  1        2 0.16570373E+00 0.12485228E+04</pdfrwt>
<pdfrwt beam="2">  1       -1 0.55663948E-01 0.12485228E+04</pdfrwt>
<totfact> 0.82414232E+01</totfact>
</mgrwt>
</event>
<event>
11    6  0.1705838E-008  0.2259756E+04  0.7818608E-02  0.8493960E-01
          2   -1    0    0  501    0  0.00000000000E+00  0.00000000000E+00  0.78825705964E+03  0.78825705964E+03  0.00000000000E+00 0. -1.
         -1   -1    0    0    0  501 -0.00000000000E+00 -0.00000000000E+00 -0.16195532743E+04  0.16195532743E+04  0.00000000000E+00 0.  1.
         24    2    1    2    0    0  0.51476365491E+03 -0.18630457106E+03  0.47491695638E+03  0.72917365804E+03  0.80356048279E+02 0.  0.
        254    2    1    2    0    0 -0.51476365491E+03  0.18630457106E+03 -0.13062131710E+04  0.16786366759E+04  0.90107559499E+03 0.  0.
         23    2    4    4    0    0 -0.44570978095E+02  0.73767910702E+02 -0.11313011842E+04  0.11381807287E+04  0.90469470428E+02 0.  0.
          4    1    3    3  502    0  0.34386967379E+03 -0.89768071538E+02  0.27870003987E+03  0.45163964778E+03  0.00000000000E+00 0. -1.
         -3    1    3    3    0  502  0.17089398112E+03 -0.96536499524E+02  0.19621691651E+03  0.27753401026E+03  0.00000000000E+00 0.  1.
         11    1    4    4    0    0 -0.12625877392E+03 -0.37632699350E+02 -0.77024421308E+02  0.15261146592E+03  0.00000000000E+00 0.  1.
        -11    1    4    4    0    0 -0.34393390289E+03  0.15016935971E+03 -0.97887565494E+02  0.38784448125E+03  0.00000000000E+00 0. -1.
          2    1    5    5  503    0  0.20781784927E+02  0.40754405693E+02 -0.61703527500E+03  0.61872880551E+03  0.00000000000E+00 0.  1.
         -2    1    5    5    0  503 -0.65352763022E+02  0.33013505009E+02 -0.51426590923E+03  0.51945192322E+03  0.00000000000E+00 0. -1.
<mgrwt>
<rscale>  0 0.22597560E+04</rscale>
<asrwt>0</asrwt>
<pdfrwt beam="1">  1        2 0.12127032E+00 0.22597560E+04</pdfrwt>
<pdfrwt beam="2">  1       -1 0.24916204E+00 0.22597560E+04</pdfrwt>
<totfact> 0.25738694E+00</totfact>
</mgrwt>
</event>
<event>
11    6  0.1705838E-008  0.1960359E+04  0.7818608E-02  0.8625382E-01
          2   -1    0    0  501    0  0.00000000000E+00  0.00000000000E+00  0.88559718087E+03  0.88559718087E+03  0.00000000000E+00 0. -1.
         -1   -1    0    0    0  501 -0.00000000000E+00 -0.00000000000E+00 -0.10848630575E+04  0.10848630575E+04  0.00000000000E+00 0.  1.
         24    2    1    2    0    0 -0.39442199404E+03  0.55631682958E+03  0.27681242120E+03  0.74026771153E+03  0.79460958689E+02 0.  0.
        254    2    1    2    0    0  0.39442199404E+03 -0.55631682958E+03 -0.47607829780E+03  0.12301925268E+04  0.90645793234E+03 0.  0.
         23    2    4    4    0    0 -0.22670941673E+03 -0.12342233812E+02 -0.10379952828E+02  0.24510638678E+03  0.91760051509E+02 0.  0.
          2    1    3    3  502    0 -0.18243222120E+02  0.16172153291E+02 -0.38824611470E+01  0.24686579349E+02  0.00000000000E+00 0. -1.
         -1    1    3    3    0  502 -0.37617877192E+03  0.54014467629E+03  0.28069488234E+03  0.71558113219E+03  0.00000000000E+00 0.  1.
         11    1    4    4    0    0  0.57079193436E+03 -0.57141371621E+03 -0.45419228218E+03  0.92661086578E+03  0.00000000000E+00 0.  1.
        -11    1    4    4    0    0  0.50339476411E+02  0.27439120442E+02 -0.11506062790E+02  0.58475274235E+02  0.00000000000E+00 0. -1.
          4    1    5    5  503    0 -0.18804042865E+03  0.18368937382E+02  0.15102634962E+02  0.18953814985E+03  0.00000000000E+00 0.  1.
         -4    1    5    5    0  503 -0.38668988079E+02 -0.30711171194E+02 -0.25482587789E+02  0.55568236931E+02  0.00000000000E+00 0. -1.
<mgrwt>
<rscale>  0 0.19603588E+04</rscale>
<asrwt>0</asrwt>
<pdfrwt beam="1">  1        2 0.13624572E+00 0.19603588E+04</pdfrwt>
<pdfrwt beam="2">  1       -1 0.16690201E+00 0.19603588E+04</pdfrwt>
<totfact> 0.82733173E+00</totfact>
</mgrwt>
</event>
<event>
11    6  0.1705838E-008  0.2698229E+04  0.7818608E-02  0.8335580E-01
         -1   -1    0    0    0  501 -0.00000000000E+00  0.00000000000E+00  0.92659116274E+03  0.92659116274E+03  0.00000000000E+00 0.  1.
          2   -1    0    0  501    0  0.00000000000E+00 -0.00000000000E+00 -0.19643078233E+04  0.19643078233E+04  0.00000000000E+00 0. -1.
         24    2    1    2    0    0 -0.10355593067E+04  0.48991901665E+03 -0.71652921255E+03  0.13536687170E+04  0.81247538675E+02 0.  0.
        254    2    1    2    0    0  0.10355593067E+04 -0.48991901665E+03 -0.32118744803E+03  0.15372302690E+04  0.97340217936E+03 0.  0.
         23    2    4    4    0    0  0.11056252258E+04 -0.30337465280E+03 -0.10288397898E+03  0.11545697026E+04  0.89458175726E+02 0.  0.
          4    1    3    3  502    0 -0.81703029034E+03  0.41486565050E+03 -0.59554869746E+03  0.10928541780E+04  0.00000000000E+00 0. -1.
         -3    1    3    3    0  502 -0.21852901632E+03  0.75053366152E+02 -0.12098051509E+03  0.26081453904E+03  0.00000000000E+00 0.  1.
         11    1    4    4    0    0  0.67075834858E+02 -0.13242698398E+03 -0.44973263784E+02  0.15510856895E+03  0.00000000000E+00 0.  1.
        -11    1    4    4    0    0 -0.13714175399E+03 -0.54117379866E+02 -0.17333020527E+03  0.22755199746E+03  0.00000000000E+00 0. -1.
          4    1    5    5  503    0  0.93079997894E+03 -0.23232669793E+03 -0.61174089041E+02  0.96130461590E+03  0.00000000000E+00 0. -1.
         -4    1    5    5    0  503  0.17482524685E+03 -0.71047954879E+02 -0.41709889937E+02  0.19326508672E+03  0.00000000000E+00 0.  1.
<mgrwt>
<rscale>  0 0.26982292E+04</rscale>
<asrwt>0</asrwt>
<pdfrwt beam="1">  1        2 0.30220120E+00 0.26982292E+04</pdfrwt>
<pdfrwt beam="2">  1       -1 0.14255249E+00 0.26982292E+04</pdfrwt>
<totfact> 0.27907034E+00</totfact>
</mgrwt>
</event>
<event>
12    6  0.1705838E-008  0.2575245E+04  0.7818608E-02  0.8376659E-01
          2   -1    0    0  501    0  0.00000000000E+00  0.00000000000E+00  0.15151862572E+04  0.15151862572E+04  0.00000000000E+00 0. -1.
         -1   -1    0    0    0  501 -0.00000000000E+00 -0.00000000000E+00 -0.10942361696E+04  0.10942361696E+04  0.00000000000E+00 0.  1.
         24    2    1    2    0    0  0.37992033148E+03 -0.36095684266E+03  0.11997413413E+04  0.13116011888E+04  0.79303795186E+02 0.  0.
        254    2    1    2    0    0 -0.37992033148E+03  0.36095684266E+03 -0.77879125365E+03  0.12978212380E+04  0.89621138602E+03 0.  0.
         23    2    4    4    0    0 -0.52412963645E+03  0.52474944133E+03 -0.38626316426E+03  0.83924972395E+03  0.71182969271E+02 0.  0.
         23    2    4    4    0    0  0.14420930496E+03 -0.16379259868E+03 -0.39252808939E+03  0.45857151402E+03  0.92656319214E+02 0.  0.
          4    1    3    3  502    0  0.28514411535E+03 -0.29030091155E+03  0.99810755408E+03  0.10778684870E+04  0.00000000000E+00 0. -1.
         -3    1    3    3    0  502  0.94776216135E+02 -0.70655931104E+02  0.20163378722E+03  0.23373270181E+03  0.00000000000E+00 0.  1.
         11    1    5    5    0    0 -0.23856651084E+03  0.19868861318E+03 -0.13804476623E+03  0.33977566509E+03  0.00000000000E+00 0.  1.
        -11    1    5    5    0    0 -0.28556312560E+03  0.32606082815E+03 -0.24821839803E+03  0.49947405886E+03  0.00000000000E+00 0. -1.
          1    1    6    6  503    0  0.12727755727E+03 -0.17509660483E+03 -0.36445206840E+03  0.42389115085E+03  0.00000000000E+00 0. -1.
         -1    1    6    6    0  503  0.16931747692E+02  0.11304006151E+02 -0.28076020988E+02  0.34680363168E+02  0.00000000000E+00 0.  1.
<mgrwt>
<rscale>  0 0.25752449E+04</rscale>
<asrwt>0</asrwt>
<pdfrwt beam="1">  1        2 0.23310558E+00 0.25752449E+04</pdfrwt>
<pdfrwt beam="2">  1       -1 0.16834403E+00 0.25752449E+04</pdfrwt>
<totfact> 0.31797847E+00</totfact>
</mgrwt>
</event>
